<event>
 6    0  0.4796958E+002  0.1275313E+03  0.7546771E-02  0.1231165E+00
          2   -1    0    0  505    0 -0.00000000000E+00  0.00000000000E+00  0.20144279573E+04  0.20144279573E+04  0.00000000000E+00 0.  1.
         21   -1    0    0  503  502  0.00000000000E+00 -0.00000000000E+00 -0.89033996597E+02  0.89033996597E+02  0.00000000000E+00 0. -1.
         21    1    1    2  503  501 -0.15127947015E+03  0.53308998951E+02  0.59220987320E+01  0.16050669367E+03  0.00000000000E+00 0. -1.
         21    1    1    2  504  502  0.28008246063E+02 -0.37389063311E+02  0.84410481966E+02  0.96475558399E+02  0.00000000000E+00 0.  1.
         21    1    1    2  505  504 -0.18866446831E+02 -0.39318151892E+02  0.18192390201E+03  0.18707796772E+03  0.00000000000E+00 0. -1.
          2    1    1    2  501    0  0.14213767092E+03  0.23398216251E+02  0.16531374780E+04  0.16594017341E+04  0.00000000000E+00 0.  1.
<scales pt_clust_3="127.53135" pt_clust_4="47.75072" pt_clust_5="43.61032" pt_clust_6="14000.00000"></scales>
<clustering>
<clus scale="   43.610">  1  5  2 -1</clus>
<clus scale="   47.751">  2  4  1 -1</clus>
<clus scale="  127.531">  2  3  1 -1</clus>
<clus scale="   47.751">  2  3  1 -1</clus>
</clustering>
</event>
<event>
 6    0  0.4796958E+002  0.7943519E+02  0.7546771E-02  0.1330662E+00
          2   -1    0    0  503    0 -0.00000000000E+00  0.00000000000E+00  0.29315212034E+03  0.29315212034E+03  0.00000000000E+00 0. -1.
         21   -1    0    0  505  502  0.00000000000E+00 -0.00000000000E+00 -0.94092417048E+03  0.94092417048E+03  0.00000000000E+00 0.  1.
         21    1    1    2  503  502 -0.74938337628E+01  0.13195982525E+03  0.38104644821E+02  0.13755550509E+03  0.00000000000E+00 0. -1.
         21    1    1    2  504  501  0.54414511457E+02 -0.40354775236E+02 -0.35481778478E+02  0.76474855642E+02  0.00000000000E+00 0. -1.
         21    1    1    2  505  504 -0.42947215055E+02 -0.35144287695E+02 -0.82993868479E+03  0.83179192395E+03  0.00000000000E+00 0.  1.
          2    1    1    2  501    0 -0.39734626396E+01 -0.56460762320E+02  0.17954376831E+03  0.18825400613E+03  0.00000000000E+00 0. -1.
<scales pt_clust_3="79.43519" pt_clust_4="14000.00000" pt_clust_5="55.49400" pt_clust_6="58.12893"></scales>
<clustering>
<clus scale="   55.494">  2  5  1 -1</clus>
<clus scale="   58.129">  1  6  2 -1</clus>
<clus scale="   79.435">  1  3  2 -1</clus>
<clus scale="   55.494">  2  3  1 -1</clus>
</clustering>
</event>
<event>
 6    0  0.4796958E+002  0.8608573E+02  0.7546771E-02  0.1312617E+00
          2   -1    0    0  503    0 -0.00000000000E+00  0.00000000000E+00  0.42963083514E+02  0.42963083514E+02  0.00000000000E+00 0.  1.
         21   -1    0    0  505  502  0.00000000000E+00 -0.00000000000E+00 -0.10700264703E+04  0.10700264703E+04  0.00000000000E+00 0.  1.
         21    1    1    2  503  504 -0.76941502550E+02  0.98395612786E+02 -0.31828725136E+03  0.34191880003E+03  0.00000000000E+00 0.  1.
         21    1    1    2  504  502 -0.12840309026E+02 -0.33326562947E+02 -0.11140620732E+03  0.11699092428E+03  0.00000000000E+00 0.  1.
         21    1    1    2  505  501  0.32054381096E+02 -0.50650259748E+02 -0.59123248442E+03  0.59426322686E+03  0.00000000000E+00 0.  1.
          2    1    1    2  501    0  0.57727430480E+02 -0.14418790090E+02 -0.61374436747E+01  0.59816602648E+02  0.00000000000E+00 0.  1.
<scales pt_clust_3="86.08573" pt_clust_4="35.71461" pt_clust_5="14000.00000" pt_clust_6="59.36233"></scales>
<clustering>
<clus scale="   35.715">  2  4  1 -1</clus>
<clus scale="   59.362">  1  6  2 -1</clus>
<clus scale="   86.086">  1  3  2 -1</clus>
<clus scale="   35.715">  2  3  1 -1</clus>
</clustering>
</event>
<event>
 6    0  0.4796958E+002  0.9971061E+02  0.7546771E-02  0.1280906E+00
          1   -1    0    0  505    0 -0.00000000000E+00  0.00000000000E+00  0.15012420497E+04  0.15012420497E+04  0.00000000000E+00 0.  1.
         21   -1    0    0  503  502  0.00000000000E+00 -0.00000000000E+00 -0.10817575011E+03  0.10817575011E+03  0.00000000000E+00 0.  1.
         21    1    1    2  503  504  0.52831736536E+02 -0.41730341010E+02  0.10194668402E+01  0.67332407196E+02  0.00000000000E+00 0.  1.
         21    1    1    2  504  501 -0.19189814378E+01 -0.94007860786E+02  0.12599248779E+03  0.15721090089E+03  0.00000000000E+00 0.  1.
         21    1    1    2  505  502 -0.10728401400E+03  0.50499602890E+02  0.39513530772E+01  0.11864098257E+03  0.00000000000E+00 0.  1.
          1    1    1    2  501    0  0.56371258907E+02  0.85238598906E+02  0.12621029919E+04  0.12662335092E+04  0.00000000000E+00 0.  1.
<scales pt_clust_3="67.32469" pt_clust_4="99.71061" pt_clust_5="69.43717" pt_clust_6="14000.00000"></scales>
<clustering>
<clus scale="   67.325">  2  3  1 -1</clus>
<clus scale="   69.437">  2  5  1 -1</clus>
<clus scale="   99.711">  2  4  1 -1</clus>
<clus scale="   67.325">  2  3  1 -1</clus>
</clustering>
</event>
<event>
 6    0  0.4796958E+002  0.5931973E+02  0.7546771E-02  0.1400709E+00
          2   -1    0    0  503    0 -0.00000000000E+00  0.00000000000E+00  0.30372331592E+03  0.30372331592E+03  0.00000000000E+00 0.  1.
         21   -1    0    0  504  502  0.00000000000E+00 -0.00000000000E+00 -0.10038197659E+04  0.10038197659E+04  0.00000000000E+00 0.  1.
         21    1    1    2  503  502  0.83603171652E+02 -0.19693656280E+02 -0.48919218124E+02  0.98845436465E+02  0.00000000000E+00 0.  1.
         21    1    1    2  504  505 -0.55297396638E+02  0.18524524745E+02 -0.89062314634E+03  0.89253041902E+03  0.00000000000E+00 0.  1.
         21    1    1    2  505  501 -0.67190437055E+02  0.34756491620E+02  0.46233091502E+01  0.75788808731E+02  0.00000000000E+00 0.  1.
          2    1    1    2  501    0  0.38884662040E+02 -0.33587360086E+02  0.23482260531E+03  0.24037841763E+03  0.00000000000E+00 0.  1.
<scales pt_clust_3="14000.00000" pt_clust_4="59.31973" pt_clust_5="45.84492" pt_clust_6="51.38217"></scales>
<clustering>
<clus scale="   51.382">  1  6  2 -1</clus>
<clus scale="   45.845">  1  5  2 -1</clus>
<clus scale="   59.320">  2  4  1 -1</clus>
<clus scale="   59.320">  2  3  1 -1</clus>
</clustering>
</event>
<event>
 6    0  0.4796958E+002  0.7166600E+02  0.7546771E-02  0.1354518E+00
          1   -1    0    0  505    0 -0.00000000000E+00  0.00000000000E+00  0.87992003482E+03  0.87992003482E+03  0.00000000000E+00 0.  1.
         21   -1    0    0  504  502  0.00000000000E+00 -0.00000000000E+00 -0.12598601447E+03  0.12598601447E+03  0.00000000000E+00 0. -1.
         21    1    1    2  503  502  0.29268573380E+02 -0.25505056512E+02 -0.26185338078E+02  0.46827654497E+02  0.00000000000E+00 0. -1.
         21    1    1    2  504  501  0.41622336788E+02  0.13530428100E+02 -0.61152331074E+02  0.75200392286E+02  0.00000000000E+00 0. -1.
         21    1    1    2  505  503 -0.13080197769E+03  0.19482989541E+02  0.19998813180E+03  0.23975820551E+03  0.00000000000E+00 0.  1.
          1    1    1    2  501    0  0.59911067523E+02 -0.75083611281E+01  0.64128355770E+03  0.64411979699E+03  0.00000000000E+00 0.  1.
<scales pt_clust_3="38.82212" pt_clust_4="14000.00000" pt_clust_5="71.66600" pt_clust_6="60.89122"></scales>
<clustering>
<clus scale="   38.822">  2  3  1 -1</clus>
<clus scale="   60.891">  1  6  2 -1</clus>
<clus scale="   71.666">  1  5  2 -1</clus>
<clus scale="   38.822">  2  3  1 -1</clus>
</clustering>
</event>
<event>
 6    0  0.4796958E+002  0.8981164E+02  0.7546771E-02  0.1303308E+00
          2   -1    0    0  504    0 -0.00000000000E+00  0.00000000000E+00  0.16633405311E+04  0.16633405311E+04  0.00000000000E+00 0.  1.
         21   -1    0    0  505  502  0.00000000000E+00 -0.00000000000E+00 -0.32968934481E+03  0.32968934481E+03  0.00000000000E+00 0.  1.
         21    1    1    2  503  502 -0.45844535102E+02 -0.97613052948E+02 -0.25682719503E+03  0.27855024252E+03  0.00000000000E+00 0.  1.
         21    1    1    2  504  503 -0.46458495410E+01  0.44390676583E+02  0.43468811159E+02  0.62302918303E+02  0.00000000000E+00 0.  1.
         21    1    1    2  505  501  0.87126698383E+02  0.15435018950E+02 -0.14600590815E+02  0.89679867492E+02  0.00000000000E+00 0.  1.
          2    1    1    2  501    0 -0.36636313740E+02  0.37787357414E+02  0.15616101610E+04  0.15624968476E+04  0.00000000000E+00 0.  1.
<scales pt_clust_3="89.81164" pt_clust_4="44.63313" pt_clust_5="88.56329" pt_clust_6="14000.00000"></scales>
<clustering>
<clus scale="   44.633">  1  4  2 -1</clus>
<clus scale="   88.563">  2  5  1 -1</clus>
<clus scale="   89.812">  2  3  1 -1</clus>
<clus scale="   88.563">  2  3  1 -1</clus>
</clustering>
</event>
<event>
 6    0  0.4796958E+002  0.6618330E+02  0.7546771E-02  0.1373575E+00
          2   -1    0    0  504    0 -0.00000000000E+00  0.00000000000E+00  0.30953877711E+04  0.30953877711E+04  0.00000000000E+00 0. -1.
         21   -1    0    0  505  502  0.00000000000E+00 -0.00000000000E+00 -0.46152454035E+02  0.46152454035E+02  0.00000000000E+00 0. -1.
         21    1    1    2  503  502 -0.46793511924E+02 -0.47456331335E+02 -0.13440402275E+02  0.67988091275E+02  0.00000000000E+00 0. -1.
         21    1    1    2  504  503 -0.37386903966E+02  0.44087705627E+02  0.25046282522E+03  0.25704694745E+03  0.00000000000E+00 0.  1.
         21    1    1    2  505  501  0.93194843442E+02 -0.29826692281E+02  0.12190143417E+04  0.12229353522E+04  0.00000000000E+00 0. -1.
          2    1    1    2  501    0 -0.90144275523E+01  0.33195317988E+02  0.15931985524E+04  0.15935698342E+04  0.00000000000E+00 0. -1.
<scales pt_clust_3="66.18330" pt_clust_4="63.11620" pt_clust_5="14000.00000" pt_clust_6="34.39752"></scales>
<clustering>
<clus scale="   34.398">  1  6  2 -1</clus>
<clus scale="   63.116">  1  4  2 -1</clus>
<clus scale="   66.183">  2  3  1 -1</clus>
<clus scale="   66.183">  2  3  1 -1</clus>
</clustering>
</event>
<event>
 6    0  0.4796958E+002  0.1515570E+03  0.7546771E-02  0.1198573E+00
          1   -1    0    0  503    0 -0.00000000000E+00  0.00000000000E+00  0.93064559838E+03  0.93064559838E+03  0.00000000000E+00 0. -1.
         21   -1    0    0  501  502  0.00000000000E+00 -0.00000000000E+00 -0.17322624217E+03  0.17322624217E+03  0.00000000000E+00 0. -1.
         21    1    1    2  503  504 -0.63270393574E+01  0.44890434966E+02  0.12030322793E+03  0.12856146090E+03  0.00000000000E+00 0.  1.
         21    1    1    2  504  505 -0.51507862908E+02  0.80389270372E+02  0.32788658376E+02  0.10094845640E+03  0.00000000000E+00 0. -1.
         21    1    1    2  505  502 -0.12881323236E+02  0.73595515352E+02 -0.10805344412E+03  0.13136885154E+03  0.00000000000E+00 0. -1.
          1    1    1    2  501    0  0.70716225502E+02 -0.19887522069E+03  0.71238091403E+03  0.74299307172E+03  0.00000000000E+00 0. -1.
<scales pt_clust_3="45.33412" pt_clust_4="151.55697" pt_clust_5="75.36948" pt_clust_6="14000.00000"></scales>
<clustering>
<clus scale="   45.334">  1  3  2 -1</clus>
<clus scale="   75.369">  2  5  1 -1</clus>
<clus scale="  151.557">  2  4  1 -1</clus>
<clus scale="   75.369">  2  3  1 -1</clus>
</clustering>
</event>
<event>
 6    0  0.4796958E+002  0.1204031E+03  0.7546771E-02  0.1242434E+00
         21   -1    0    0  503  502  0.00000000000E+00  0.00000000000E+00  0.38408654483E+03  0.38408654483E+03  0.00000000000E+00 0. -1.
          2   -1    0    0  504    0 -0.00000000000E+00 -0.00000000000E+00 -0.68342935308E+03  0.68342935308E+03  0.00000000000E+00 0.  1.
         21    1    1    2  503  505  0.40633513294E+02 -0.38814127330E+02  0.56098986520E+02  0.79402236565E+02  0.00000000000E+00 0. -1.
         21    1    1    2  504  502 -0.10425677320E+03  0.27297014598E+02 -0.14065552904E+03  0.17719644357E+03  0.00000000000E+00 0.  1.
         21    1    1    2  505  501  0.71124040269E+02 -0.20882194510E+02  0.29290438939E+03  0.30213850545E+03  0.00000000000E+00 0. -1.
          2    1    1    2  501    0 -0.75007803585E+01  0.32399307242E+02 -0.50769065512E+03  0.50877871233E+03  0.00000000000E+00 0.  1.
<scales pt_clust_3="54.35715" pt_clust_4="120.40308" pt_clust_5="14000.00000" pt_clust_6="33.25623"></scales>
<clustering>
<clus scale="   33.256">  2  6  1 -1</clus>
<clus scale="   54.357">  1  3  2 -1</clus>
<clus scale="  120.403">  2  4  1 -1</clus>
<clus scale="   54.357">  1  3  2 -1</clus>
</clustering>
</event>
<event>
 6    0  0.4796958E+002  0.1267422E+03  0.7546771E-02  0.1232371E+00
          2   -1    0    0  503    0 -0.00000000000E+00  0.00000000000E+00  0.22835344568E+04  0.22835344568E+04  0.00000000000E+00 0.  1.
         21   -1    0    0  504  502  0.00000000000E+00 -0.00000000000E+00 -0.71063563810E+02  0.71063563810E+02  0.00000000000E+00 0.  1.
         21    1    1    2  503  505  0.40882747104E+02  0.10443108194E+03  0.24802026182E+03  0.27219717148E+03  0.00000000000E+00 0.  1.
         21    1    1    2  504  501  0.67366666414E+01 -0.12417962861E+03  0.73957880494E+03  0.74996184673E+03  0.00000000000E+00 0.  1.
         21    1    1    2  505  502 -0.58450733434E+02  0.52006427403E+02 -0.24976277055E+02  0.82127773291E+02  0.00000000000E+00 0.  1.
          2    1    1    2  501    0  0.10831319688E+02 -0.32257880736E+02  0.12498481032E+04  0.12503112291E+04  0.00000000000E+00 0.  1.
<scales pt_clust_3="14000.00000" pt_clust_4="126.74215" pt_clust_5="77.42258" pt_clust_6="34.02776"></scales>
<clustering>
<clus scale="   34.028">  1  6  2 -1</clus>
<clus scale="   77.423">  2  5  1 -1</clus>
<clus scale="  126.742">  1  4  2 -1</clus>
<clus scale="   77.423">  2  3  1 -1</clus>
</clustering>
</event>
<event>
 6    0  0.4796958E+002  0.1145849E+03  0.7546771E-02  0.1252307E+00
         21   -1    0    0  501  502  0.00000000000E+00  0.00000000000E+00  0.31202132271E+03  0.31202132271E+03  0.00000000000E+00 0. -1.
          4   -1    0    0  505    0 -0.00000000000E+00 -0.00000000000E+00 -0.14522904285E+03  0.14522904285E+03  0.00000000000E+00 0.  1.
         21    1    1    2  503  502 -0.39089198157E+02  0.12642339924E+02  0.69184589363E+02  0.80463044788E+02  0.00000000000E+00 0. -1.
         21    1    1    2  504  503 -0.12512296676E+03 -0.78263698932E+02  0.61550622896E+02  0.15990447949E+03  0.00000000000E+00 0. -1.
         21    1    1    2  505  504  0.10839241157E+03 -0.10631731556E+02 -0.14225139090E+02  0.10983762189E+03  0.00000000000E+00 0.  1.
          4    1    1    2  501    0  0.55819753352E+02  0.76253090564E+02  0.50282206687E+02  0.10704521939E+03  0.00000000000E+00 0.  1.
<scales pt_clust_3="41.08277" pt_clust_4="114.58493" pt_clust_5="14000.00000" pt_clust_6="91.14924"></scales>
<clustering>
<clus scale="   41.083">  1  3  2 -1</clus>
<clus scale="   91.149">  1  6  2 -1</clus>
<clus scale="  114.585">  1  4  2 -1</clus>
<clus scale="   41.083">  1  3  2 -1</clus>
</clustering>
</event>
<event>
 6    0  0.4796958E+002  0.9749472E+02  0.7546771E-02  0.1285654E+00
          1   -1    0    0  504    0 -0.00000000000E+00  0.00000000000E+00  0.18486306436E+04  0.18486306436E+04  0.00000000000E+00 0. -1.
         21   -1    0    0  505  502  0.00000000000E+00 -0.00000000000E+00 -0.91565632103E+02  0.91565632103E+02  0.00000000000E+00 0. -1.
         21    1    1    2  503  502  0.59200857348E+02  0.39864960361E+02 -0.32061526625E+02  0.78242559166E+02  0.00000000000E+00 0. -1.
         21    1    1    2  504  503 -0.66932847857E+02 -0.64198704157E+02  0.14509854910E+03  0.17220647110E+03  0.00000000000E+00 0. -1.
         21    1    1    2  505  501  0.57662127311E+02 -0.98321665782E+01  0.16064862443E+02  0.60660301936E+02  0.00000000000E+00 0.  1.
          1    1    1    2  501    0 -0.49930136802E+02  0.34165910374E+02  0.16279631265E+04  0.16290869435E+04  0.00000000000E+00 0. -1.
<scales pt_clust_3="14000.00000" pt_clust_4="97.49472" pt_clust_5="58.49438" pt_clust_6="60.06989"></scales>
<clustering>
<clus scale="   58.494">  2  5  1 -1</clus>
<clus scale="   60.070">  1  6  2 -1</clus>
<clus scale="   97.495">  1  4  2 -1</clus>
<clus scale="   58.494">  2  3  1 -1</clus>
</clustering>
</event>
<event>
 6    0  0.4796958E+002  0.1258380E+03  0.7546771E-02  0.1233765E+00
         21   -1    0    0  505  502  0.00000000000E+00  0.00000000000E+00  0.11571277708E+04  0.11571277708E+04  0.00000000000E+00 0.  1.
          3   -1    0    0  503    0 -0.00000000000E+00 -0.00000000000E+00 -0.50037868520E+02  0.50037868520E+02  0.00000000000E+00 0.  1.
         21    1    1    2  503  504 -0.17759697228E+02  0.75227422185E+02  0.43098679502E+03  0.43786320852E+03  0.00000000000E+00 0.  1.
         21    1    1    2  504  502 -0.24580738600E+02  0.46226756028E+02  0.55728348212E+03  0.55973744303E+03  0.00000000000E+00 0.  1.
         21    1    1    2  505  501  0.50344098829E+02 -0.72892762917E+02  0.13167097481E+03  0.15869823181E+03  0.00000000000E+00 0.  1.
          3    1    1    2  501    0 -0.80036630012E+01 -0.48561415296E+02 -0.12851349644E+02  0.50866755987E+02  0.00000000000E+00 0.  1.
<scales pt_clust_3="36.66870" pt_clust_4="36.66870" pt_clust_5="117.68650" pt_clust_6="49.21656"></scales>
<clustering>
<clus scale="   36.669">  3  4 -1 -1</clus>
<clus scale="   49.217">  2  6  1 -1</clus>
<clus scale="  117.687">  2  5  1 -1</clus>
<clus scale="  125.838">  1  3  2 -1</clus>
</clustering>
</event>
<event>
 6    0  0.4796958E+002  0.1197223E+03  0.7546771E-02  0.1243556E+00
          1   -1    0    0  503    0 -0.00000000000E+00  0.00000000000E+00  0.68210316515E+03  0.68210316515E+03  0.00000000000E+00 0. -1.
         21   -1    0    0  504  502  0.00000000000E+00 -0.00000000000E+00 -0.31959799302E+03  0.31959799302E+03  0.00000000000E+00 0.  1.
         21    1    1    2  503  502 -0.11698038873E+03 -0.13421249034E+03 -0.13341016190E+03  0.22247623515E+03  0.00000000000E+00 0.  1.
         21    1    1    2  504  505  0.32804905996E+02  0.83344938247E+01 -0.26343475295E+02  0.42890608942E+02  0.00000000000E+00 0.  1.
         21    1    1    2  505  501 -0.85994349811E+01  0.96723830282E+02 -0.80282978807E+02  0.12599526306E+03  0.00000000000E+00 0.  1.
          1    1    1    2  501    0  0.92774917710E+02  0.29154166233E+02  0.60254178813E+03  0.61033905102E+03  0.00000000000E+00 0. -1.
<scales pt_clust_3="119.72230" pt_clust_4="33.84709" pt_clust_5="14000.00000" pt_clust_6="97.71021"></scales>
<clustering>
<clus scale="   33.847">  2  4  1 -1</clus>
<clus scale="   97.710">  1  6  2 -1</clus>
<clus scale="  119.722">  1  3  2 -1</clus>
<clus scale="   33.847">  2  3  1 -1</clus>
</clustering>
</event>
<event>
 6    0  0.4796958E+002  0.9044112E+02  0.7546771E-02  0.1301787E+00
         21   -1    0    0  504  502  0.00000000000E+00  0.00000000000E+00  0.20814639584E+03  0.20814639584E+03  0.00000000000E+00 0.  1.
         -2   -1    0    0    0  501 -0.00000000000E+00 -0.00000000000E+00 -0.14531787266E+03  0.14531787266E+03  0.00000000000E+00 0. -1.
         21    1    1    2  503  505  0.21743335401E+02  0.11099774665E+03  0.11462034195E+03  0.16103134845E+03  0.00000000000E+00 0.  1.
         21    1    1    2  504  503 -0.40674510106E+02 -0.17649265507E+02  0.28803956483E+02  0.52873247058E+02  0.00000000000E+00 0. -1.
         21    1    1    2  505  501  0.15619561355E+02 -0.27696567828E+02  0.44104772198E+01  0.32101758140E+02  0.00000000000E+00 0. -1.
         -2    1    1    2    0  502  0.33116133492E+01 -0.65651913318E+02 -0.85006252470E+02  0.10745791485E+03  0.00000000000E+00 0. -1.
<scales pt_clust_3="90.44112" pt_clust_4="44.13122" pt_clust_5="31.79734" pt_clust_6="14000.00000"></scales>
<clustering>
<clus scale="   31.797">  2  5  1 -1</clus>
<clus scale="   44.131">  1  4  2 -1</clus>
<clus scale="   90.441">  1  3  2 -1</clus>
<clus scale="   44.131">  1  3  2 -1</clus>
</clustering>
</event>
<event>
 6    0  0.4796958E+002  0.2327506E+03  0.7546771E-02  0.1124719E+00
         -3   -1    0    0    0  501 -0.00000000000E+00  0.00000000000E+00  0.50616757435E+03  0.50616757435E+03  0.00000000000E+00 0. -1.
         21   -1    0    0  505  502  0.00000000000E+00 -0.00000000000E+00 -0.15580918583E+04  0.15580918583E+04  0.00000000000E+00 0. -1.
         21    1    1    2  503  501  0.10055722940E+03  0.82505597343E+02 -0.63508913343E+02  0.14474913489E+03  0.00000000000E+00 0.  1.
         21    1    1    2  504  502 -0.34494157903E+03  0.22283547010E+03 -0.87003503905E+03  0.96208175789E+03  0.00000000000E+00 0. -1.
         21    1    1    2  505  503  0.16318010878E+03 -0.11165954288E+03 -0.49121260884E+03  0.52951433267E+03  0.00000000000E+00 0.  1.
         -3    1    1    2    0  504  0.81204240846E+02 -0.19368152456E+03  0.37283227732E+03  0.42791420717E+03  0.00000000000E+00 0. -1.
<scales pt_clust_3="130.07279" pt_clust_4="14000.00000" pt_clust_5="199.28948" pt_clust_6="232.75058"></scales>
<clustering>
<clus scale="  130.073">  1  3  2 -1</clus>
<clus scale="  199.289">  2  5  1 -1</clus>
<clus scale="  232.751">  1  6  2 -1</clus>
<clus scale="  199.289">  2  3  1 -1</clus>
</clustering>
</event>
<event>
 6    0  0.4796958E+002  0.1226690E+03  0.7546771E-02  0.1238758E+00
         21   -1    0    0  504  502  0.00000000000E+00  0.00000000000E+00  0.29057879921E+03  0.29057879921E+03  0.00000000000E+00 0.  1.
          2   -1    0    0  503    0 -0.00000000000E+00 -0.00000000000E+00 -0.38555883848E+04  0.38555883848E+04  0.00000000000E+00 0. -1.
         21    1    1    2  503  505 -0.10449244228E+03 -0.13154329925E+03 -0.11956559036E+04  0.12074002443E+04  0.00000000000E+00 0.  1.
         21    1    1    2  504  501  0.26333952059E+02  0.48164015145E+02  0.14449843387E+02  0.56763080958E+02  0.00000000000E+00 0.  1.
         21    1    1    2  505  502  0.51949255585E+02  0.46083490643E+02  0.24405882490E+03  0.25374617884E+03  0.00000000000E+00 0.  1.
          2    1    1    2  501    0  0.26209234636E+02  0.37295793457E+02 -0.26278623502E+04  0.26282576799E+04  0.00000000000E+00 0. -1.
<scales pt_clust_3="122.66896" pt_clust_4="55.67385" pt_clust_5="14000.00000" pt_clust_6="45.58399"></scales>
<clustering>
<clus scale="   45.584">  2  6  1 -1</clus>
<clus scale="   55.674">  1  4  2 -1</clus>
<clus scale="  122.669">  2  3  1 -1</clus>
<clus scale="   55.674">  1  3  2 -1</clus>
</clustering>
</event>
<event>
 6    0  0.4796958E+002  0.9613661E+02  0.7546771E-02  0.1288636E+00
          2   -1    0    0  505    0 -0.00000000000E+00  0.00000000000E+00  0.47853069263E+04  0.47853069263E+04  0.00000000000E+00 0. -1.
         21   -1    0    0  504  502  0.00000000000E+00 -0.00000000000E+00 -0.11286362298E+03  0.11286362298E+03  0.00000000000E+00 0.  1.
         21    1    1    2  503  501 -0.26745832446E+01 -0.87713158819E+02  0.56398132566E+03  0.57076762988E+03  0.00000000000E+00 0.  1.
         21    1    1    2  504  503  0.39022010314E+02 -0.62176010141E+01  0.46060462526E+02  0.60687247915E+02  0.00000000000E+00 0. -1.
         21    1    1    2  505  502 -0.11743340829E+03  0.68842445045E+02 -0.56178326911E+02  0.14726130530E+03  0.00000000000E+00 0.  1.
          2    1    1    2  501    0  0.81085981223E+02  0.25088314788E+02  0.41185798421E+04  0.41194543662E+04  0.00000000000E+00 0. -1.
<scales pt_clust_3="14000.00000" pt_clust_4="39.51425" pt_clust_5="96.13661" pt_clust_6="85.02535"></scales>
<clustering>
<clus scale="   39.514">  2  4  1 -1</clus>
<clus scale="   85.025">  1  6  2 -1</clus>
<clus scale="   96.137">  2  5  1 -1</clus>
<clus scale="   39.514">  2  3  1 -1</clus>
</clustering>
</event>
<event>
 6    0  0.4796958E+002  0.8501519E+02  0.7546771E-02  0.1315393E+00
         21   -1    0    0  504  502  0.00000000000E+00  0.00000000000E+00  0.17911531653E+03  0.17911531653E+03  0.00000000000E+00 0. -1.
          2   -1    0    0  505    0 -0.00000000000E+00 -0.00000000000E+00 -0.51067331100E+03  0.51067331100E+03  0.00000000000E+00 0. -1.
         21    1    1    2  503  501 -0.62334154074E+02  0.57337663202E+02 -0.12549485410E+02  0.85619179917E+02  0.00000000000E+00 0. -1.
         21    1    1    2  504  503 -0.70255607185E+02 -0.48624083216E+02  0.11218579315E+03  0.14101703441E+03  0.00000000000E+00 0. -1.
         21    1    1    2  505  502  0.97304723285E+02 -0.22892960737E+01 -0.14449786706E+03  0.17422136389E+03  0.00000000000E+00 0. -1.
          2    1    1    2  501    0  0.35285037974E+02 -0.64242839127E+01 -0.28669643515E+03  0.28893104931E+03  0.00000000000E+00 0. -1.
<scales pt_clust_3="78.13092" pt_clust_4="85.01519" pt_clust_5="14000.00000" pt_clust_6="35.86510"></scales>
<clustering>
<clus scale="   35.865">  2  6  1 -1</clus>
<clus scale="   78.131">  2  3  1 -1</clus>
<clus scale="   85.015">  1  4  2 -1</clus>
<clus scale="   85.015">  1  3  2 -1</clus>
</clustering>
</event>
<event>
 6    0  0.4796958E+002  0.6451837E+02  0.7546771E-02  0.1379792E+00
          2   -1    0    0  503    0 -0.00000000000E+00  0.00000000000E+00  0.13994229338E+04  0.13994229338E+04  0.00000000000E+00 0. -1.
         21   -1    0    0  501  502  0.00000000000E+00 -0.00000000000E+00 -0.10610322752E+03  0.10610322752E+03  0.00000000000E+00 0.  1.
         21    1    1    2  503  505  0.78410987129E+02 -0.42523735697E+01  0.39034940462E+03  0.39816959109E+03  0.00000000000E+00 0.  1.
         21    1    1    2  504  502  0.39960838225E+02  0.32221790771E+02 -0.61909761480E+01  0.51705324463E+02  0.00000000000E+00 0.  1.
         21    1    1    2  505  504 -0.68188698555E+02 -0.67074950692E+02 -0.40493646903E+02  0.10386762277E+03  0.00000000000E+00 0.  1.
          2    1    1    2  501    0 -0.50183126799E+02  0.39105533491E+02  0.94965492468E+03  0.95178362296E+03  0.00000000000E+00 0. -1.
<scales pt_clust_3="64.51837" pt_clust_4="51.33335" pt_clust_5="48.09129" pt_clust_6="14000.00000"></scales>
<clustering>
<clus scale="   51.333">  2  4  1 -1</clus>
<clus scale="   48.091">  2  5  1 -1</clus>
<clus scale="   64.518">  2  3  1 -1</clus>
<clus scale="   51.333">  2  3  1 -1</clus>
</clustering>
</event>
<event>
 6    0  0.4796958E+002  0.5902518E+02  0.7546771E-02  0.1401969E+00
         21   -1    0    0  503  502  0.00000000000E+00  0.00000000000E+00  0.19864038495E+03  0.19864038495E+03  0.00000000000E+00 0.  1.
          1   -1    0    0  505    0 -0.00000000000E+00 -0.00000000000E+00 -0.15937540107E+04  0.15937540107E+04  0.00000000000E+00 0. -1.
         21    1    1    2  503  504  0.34070863365E+02  0.56349470159E+02  0.11902286001E+03  0.13602399686E+03  0.00000000000E+00 0.  1.
         21    1    1    2  504  501  0.36145245415E+01 -0.83975986209E+02 -0.22723487552E+03  0.24228231404E+03  0.00000000000E+00 0. -1.
         21    1    1    2  505  502 -0.56807515174E+02 -0.15396605068E+02  0.49470946248E+02  0.76886434112E+02  0.00000000000E+00 0.  1.
          1    1    1    2  501    0  0.19122127267E+02  0.43023121118E+02 -0.13363725565E+04  0.13372016506E+04  0.00000000000E+00 0. -1.
<scales pt_clust_3="14000.00000" pt_clust_4="49.39682" pt_clust_5="59.02518" pt_clust_6="47.08126"></scales>
<clustering>
<clus scale="   47.081">  2  6  1 -1</clus>
<clus scale="   49.397">  2  4  1 -1</clus>
<clus scale="   59.025">  2  5  1 -1</clus>
<clus scale="   59.025">  1  3  2 -1</clus>
</clustering>
</event>
<event>
 6    0  0.4796958E+002  0.8128739E+02  0.7546771E-02  0.1325437E+00
         21   -1    0    0  505  502  0.00000000000E+00  0.00000000000E+00  0.20772622275E+03  0.20772622275E+03  0.00000000000E+00 0.  1.
          2   -1    0    0  504    0 -0.00000000000E+00 -0.00000000000E+00 -0.51658486594E+03  0.51658486594E+03  0.00000000000E+00 0.  1.
         21    1    1    2  503  502  0.35181482796E+02 -0.45537141755E+02  0.46648810155E+02  0.74077523580E+02  0.00000000000E+00 0.  1.
         21    1    1    2  504  503  0.36613815707E+02  0.74998797133E+02  0.96408733259E+02  0.12751484196E+03  0.00000000000E+00 0.  1.
         21    1    1    2  505  501 -0.11845974958E+03  0.14695411676E+01 -0.71856394711E+02  0.13855761719E+03  0.00000000000E+00 0.  1.
          2    1    1    2  501    0  0.46664451074E+02 -0.30931196546E+02 -0.38005979189E+03  0.38416110595E+03  0.00000000000E+00 0.  1.
<scales pt_clust_3="62.97718" pt_clust_4="81.28739" pt_clust_5="14000.00000" pt_clust_6="55.98491"></scales>
<clustering>
<clus scale="   55.985">  2  6  1 -1</clus>
<clus scale="   62.977">  1  3  2 -1</clus>
<clus scale="   81.287">  1  4  2 -1</clus>
<clus scale="   62.977">  1  3  2 -1</clus>
</clustering>
</event>
<event>
 6    0  0.4796958E+002  0.1070450E+03  0.7546771E-02  0.1266142E+00
          1   -1    0    0  504    0 -0.00000000000E+00  0.00000000000E+00  0.13662974824E+04  0.13662974824E+04  0.00000000000E+00 0. -1.
         21   -1    0    0  503  502  0.00000000000E+00 -0.00000000000E+00 -0.75277999373E+02  0.75277999373E+02  0.00000000000E+00 0. -1.
         21    1    1    2  503  501  0.77126188238E+01  0.10230340676E+03  0.83465710157E+01  0.10293268077E+03  0.00000000000E+00 0. -1.
         21    1    1    2  504  505  0.26359905357E+02  0.99875024615E+02  0.19574402780E+03  0.22132688398E+03  0.00000000000E+00 0. -1.
         21    1    1    2  505  502 -0.90465651427E+02 -0.16890332339E+03  0.86274595624E+03  0.88376634454E+03  0.00000000000E+00 0.  1.
          1    1    1    2  501    0  0.56393127246E+02 -0.33275107984E+02  0.22418292792E+03  0.23354957243E+03  0.00000000000E+00 0. -1.
<scales pt_clust_3="14000.00000" pt_clust_4="100.69981" pt_clust_5="107.04505" pt_clust_6="65.47838"></scales>
<clustering>
<clus scale="   65.478">  1  6  2 -1</clus>
<clus scale="  100.700">  1  4  2 -1</clus>
<clus scale="  107.045">  1  5  2 -1</clus>
<clus scale="  107.045">  2  3  1 -1</clus>
</clustering>
</event>
<event>
 6    0  0.4796958E+002  0.1009932E+03  0.7546771E-02  0.1278221E+00
          2   -1    0    0  505    0 -0.00000000000E+00  0.00000000000E+00  0.38536900721E+04  0.38536900721E+04  0.00000000000E+00 0.  1.
         21   -1    0    0  503  502  0.00000000000E+00 -0.00000000000E+00 -0.50586760634E+02  0.50586760634E+02  0.00000000000E+00 0. -1.
         21    1    1    2  503  501 -0.59610535953E+02  0.46380300577E+02  0.22731209296E+03  0.23953149247E+03  0.00000000000E+00 0. -1.
         21    1    1    2  504  502  0.54821326882E+02  0.59804904408E+02 -0.37597913176E+01  0.81216627011E+02  0.00000000000E+00 0. -1.
         21    1    1    2  505  504  0.57907266654E+02 -0.72179018396E+02  0.27614777817E+04  0.27630277959E+04  0.00000000000E+00 0.  1.
          2    1    1    2  501    0 -0.53118057582E+02 -0.34006186589E+02  0.81807322807E+03  0.82050091727E+03  0.00000000000E+00 0.  1.
<scales pt_clust_3="77.28249" pt_clust_4="14000.00000" pt_clust_5="100.99316" pt_clust_6="63.07098"></scales>
<clustering>
<clus scale="   63.071">  1  6  2 -1</clus>
<clus scale="   77.282">  2  3  1 -1</clus>
<clus scale="  100.993">  1  5  2 -1</clus>
<clus scale="   77.282">  2  3  1 -1</clus>
</clustering>
</event>
<event>
 6    0  0.4796958E+002  0.1012533E+03  0.7546771E-02  0.1277682E+00
         21   -1    0    0  505  502  0.00000000000E+00  0.00000000000E+00  0.19534177853E+03  0.19534177853E+03  0.00000000000E+00 0. -1.
          2   -1    0    0  504    0 -0.00000000000E+00 -0.00000000000E+00 -0.20709851570E+04  0.20709851570E+04  0.00000000000E+00 0. -1.
         21    1    1    2  503  501 -0.93586267148E+01  0.57261229531E+02 -0.10831896901E+03  0.12287974344E+03  0.00000000000E+00 0. -1.
         21    1    1    2  504  502 -0.22455617907E+02 -0.10903277278E+03 -0.77500733514E+02  0.13564204367E+03  0.00000000000E+00 0. -1.
         21    1    1    2  505  503 -0.42722497230E+02 -0.17445555410E+02  0.15421072914E+03  0.16096741333E+03  0.00000000000E+00 0. -1.
          2    1    1    2  501    0  0.74536741852E+02  0.69217098662E+02 -0.18440344051E+04  0.18468377351E+04  0.00000000000E+00 0. -1.
<scales pt_clust_3="56.69701" pt_clust_4="14000.00000" pt_clust_5="46.14715" pt_clust_6="101.25332"></scales>
<clustering>
<clus scale="   46.147">  1  5  2 -1</clus>
<clus scale="   56.697">  1  3  2 -1</clus>
<clus scale="  101.253">  2  6  1 -1</clus>
<clus scale="   46.147">  1  3  2 -1</clus>
</clustering>
</event>
<event>
 6    0  0.4796958E+002  0.1422040E+03  0.7546771E-02  0.1210394E+00
         21   -1    0    0  503  502  0.00000000000E+00  0.00000000000E+00  0.83003462785E+03  0.83003462785E+03  0.00000000000E+00 0.  1.
          3   -1    0    0  505    0 -0.00000000000E+00 -0.00000000000E+00 -0.93563317289E+03  0.93563317289E+03  0.00000000000E+00 0.  1.
         21    1    1    2  503  501 -0.13385016807E+03 -0.83597276908E+02  0.21696085389E+03  0.26828414847E+03  0.00000000000E+00 0. -1.
         21    1    1    2  504  502  0.53638729507E+02  0.15583156189E+02  0.35166179295E+03  0.35607016820E+03  0.00000000000E+00 0.  1.
         21    1    1    2  505  504  0.73971615910E+02 -0.10812686770E+02  0.22578547605E+03  0.23783985231E+03  0.00000000000E+00 0.  1.
          3    1    1    2  501    0  0.62398226548E+01  0.78826807488E+02 -0.90000666793E+03  0.90347363176E+03  0.00000000000E+00 0.  1.
<scales pt_clust_3="131.32164" pt_clust_4="47.15954" pt_clust_5="47.15954" pt_clust_6="79.07339"></scales>
<clustering>
<clus scale="   47.160">  4  5 -1 -1</clus>
<clus scale="   79.073">  2  6  1 -1</clus>
<clus scale="  131.322">  2  3  1 -1</clus>
<clus scale="  142.204">  1  3  2 -1</clus>
</clustering>
</event>
<event>
 6    0  0.4796958E+002  0.8497194E+02  0.7546771E-02  0.1315506E+00
         21   -1    0    0  505  502  0.00000000000E+00  0.00000000000E+00  0.69979354978E+02  0.69979354978E+02  0.00000000000E+00 0. -1.
          1   -1    0    0  503    0 -0.00000000000E+00 -0.00000000000E+00 -0.49702425733E+03  0.49702425733E+03  0.00000000000E+00 0. -1.
         21    1    1    2  503  502 -0.33127083611E+01  0.87641163430E+02 -0.34273158403E+02  0.94162609092E+02  0.00000000000E+00 0. -1.
         21    1    1    2  504  501  0.87370794043E+01 -0.91930960743E+02 -0.10295353827E+03  0.13830064766E+03  0.00000000000E+00 0. -1.
         21    1    1    2  505  504 -0.33410831098E+02 -0.18271852656E+02  0.42190729771E+01  0.38313767903E+02  0.00000000000E+00 0. -1.
          1    1    1    2  501    0  0.27986460055E+02  0.22561649969E+02 -0.29403727866E+03  0.29622658766E+03  0.00000000000E+00 0. -1.
<scales pt_clust_3="14000.00000" pt_clust_4="84.97194" pt_clust_5="35.09747" pt_clust_6="35.94816"></scales>
<clustering>
<clus scale="   35.948">  2  6  1 -1</clus>
<clus scale="   35.097">  1  5  2 -1</clus>
<clus scale="   84.972">  2  4  1 -1</clus>
<clus scale="   35.097">  1  3  2 -1</clus>
</clustering>
</event>
<event>
 6    0  0.4796958E+002  0.1851045E+03  0.7546771E-02  0.1162952E+00
         21   -1    0    0  504  502  0.00000000000E+00  0.00000000000E+00  0.47283234912E+03  0.47283234912E+03  0.00000000000E+00 0. -1.
          2   -1    0    0  505    0 -0.00000000000E+00 -0.00000000000E+00 -0.34204968522E+03  0.34204968522E+03  0.00000000000E+00 0. -1.
         21    1    1    2  503  501  0.21193116923E+02 -0.22303212303E+03  0.74216127092E+02  0.23600955411E+03  0.00000000000E+00 0. -1.
         21    1    1    2  504  503  0.79966559398E+02  0.16842684908E+02  0.20167826853E+03  0.21760618248E+03  0.00000000000E+00 0. -1.
         21    1    1    2  505  502 -0.37521339151E+02  0.39668341726E+02  0.65541712094E+02  0.85306179443E+02  0.00000000000E+00 0.  1.
          2    1    1    2  501    0 -0.63638337170E+02  0.16652109640E+03 -0.21065344382E+03  0.27596011831E+03  0.00000000000E+00 0. -1.
<scales pt_clust_3="185.10449" pt_clust_4="71.04423" pt_clust_5="54.60246" pt_clust_6="14000.00000"></scales>
<clustering>
<clus scale="   54.602">  1  5  2 -1</clus>
<clus scale="   71.044">  1  4  2 -1</clus>
<clus scale="  185.104">  1  3  2 -1</clus>
<clus scale="   54.602">  1  3  2 -1</clus>
</clustering>
</event>
<event>
 6    0  0.4796958E+002  0.7666397E+02  0.7546771E-02  0.1338794E+00
          2   -1    0    0  503    0 -0.00000000000E+00  0.00000000000E+00  0.98637273461E+03  0.98637273461E+03  0.00000000000E+00 0. -1.
         21   -1    0    0  501  502  0.00000000000E+00 -0.00000000000E+00 -0.21719264401E+03  0.21719264401E+03  0.00000000000E+00 0.  1.
         21    1    1    2  503  504 -0.40920862385E+02 -0.80448479234E+02  0.34829105441E+03  0.35979596075E+03  0.00000000000E+00 0.  1.
         21    1    1    2  504  505  0.15819848662E+02  0.83129248640E+02 -0.64344184199E+02  0.10630575540E+03  0.00000000000E+00 0.  1.
         21    1    1    2  505  502  0.57039150206E+02 -0.53976204967E+02 -0.11221700051E+03  0.13696550866E+03  0.00000000000E+00 0.  1.
          2    1    1    2  501    0 -0.31938136483E+02  0.51295435561E+02  0.59745022090E+03  0.60049815381E+03  0.00000000000E+00 0. -1.
<scales pt_clust_3="75.74574" pt_clust_4="14000.00000" pt_clust_5="76.66397" pt_clust_6="60.42571"></scales>
<clustering>
<clus scale="   60.426">  1  6  2 -1</clus>
<clus scale="   76.664">  2  5  1 -1</clus>
<clus scale="   75.746">  1  3  2 -1</clus>
<clus scale="   76.664">  2  3  1 -1</clus>
</clustering>
</event>
<event>
 6    0  0.4796958E+002  0.7960389E+02  0.7546771E-02  0.1330179E+00
          1   -1    0    0  503    0 -0.00000000000E+00  0.00000000000E+00  0.28908091527E+03  0.28908091527E+03  0.00000000000E+00 0.  1.
         21   -1    0    0  505  502  0.00000000000E+00 -0.00000000000E+00 -0.16695206164E+03  0.16695206164E+03  0.00000000000E+00 0.  1.
         21    1    1    2  503  504 -0.84698701114E+02 -0.46444531985E+02  0.71698966229E+02  0.12029840514E+03  0.00000000000E+00 0.  1.
         21    1    1    2  504  502 -0.51241510332E+01 -0.32233103003E+02 -0.23573139005E+02  0.40260684738E+02  0.00000000000E+00 0. -1.
         21    1    1    2  505  501  0.58174841553E+02  0.79062121578E+02 -0.87136720467E+02  0.13125524489E+03  0.00000000000E+00 0.  1.
          1    1    1    2  501    0  0.31648010594E+02 -0.38448658981E+00  0.16113974687E+03  0.16421864214E+03  0.00000000000E+00 0.  1.
<scales pt_clust_3="79.60389" pt_clust_4="32.40095" pt_clust_5="14000.00000" pt_clust_6="31.65035"></scales>
<clustering>
<clus scale="   31.650">  1  6  2 -1</clus>
<clus scale="   32.401">  2  4  1 -1</clus>
<clus scale="   79.604">  1  3  2 -1</clus>
<clus scale="   32.401">  2  3  1 -1</clus>
</clustering>
</event>
<event>
 6    0  0.4796958E+002  0.8540817E+02  0.7546771E-02  0.1314369E+00
         21   -1    0    0  503  502  0.00000000000E+00  0.00000000000E+00  0.72788288189E+03  0.72788288189E+03  0.00000000000E+00 0.  1.
          1   -1    0    0  504    0 -0.00000000000E+00 -0.00000000000E+00 -0.97836189507E+03  0.97836189507E+03  0.00000000000E+00 0.  1.
         21    1    1    2  503  501  0.11514926276E+03  0.68013001542E+01  0.19062195180E+03  0.22280560788E+03  0.00000000000E+00 0.  1.
         21    1    1    2  504  505 -0.13825738001E+02  0.54613944856E+02 -0.30049964382E+03  0.30573496682E+03  0.00000000000E+00 0.  1.
         21    1    1    2  505  502 -0.33639020647E+02  0.15546084726E+02  0.51389621259E+03  0.51523061028E+03  0.00000000000E+00 0.  1.
          1    1    1    2  501    0 -0.67684504108E+02 -0.76961329736E+02 -0.65449753376E+03  0.66247359198E+03  0.00000000000E+00 0.  1.
<scales pt_clust_3="85.40817" pt_clust_4="56.62413" pt_clust_5="37.05758" pt_clust_6="14000.00000"></scales>
<clustering>
<clus scale="   37.058">  1  5  2 -1</clus>
<clus scale="   56.624">  2  4  1 -1</clus>
<clus scale="   85.408">  1  3  2 -1</clus>
<clus scale="   37.058">  1  3  2 -1</clus>
</clustering>
</event>
<event>
 6    0  0.4796958E+002  0.8159915E+02  0.7546771E-02  0.1324574E+00
          2   -1    0    0  504    0 -0.00000000000E+00  0.00000000000E+00  0.29199164149E+03  0.29199164149E+03  0.00000000000E+00 0.  1.
         21   -1    0    0  501  502  0.00000000000E+00 -0.00000000000E+00 -0.73432185788E+03  0.73432185788E+03  0.00000000000E+00 0.  1.
         21    1    1    2  503  502 -0.26976771316E+02  0.25664281263E+02 -0.29994819356E+03  0.30225042654E+03  0.00000000000E+00 0.  1.
         21    1    1    2  504  505  0.10718826694E+02  0.80497475427E+02  0.26961986104E+03  0.28158410158E+03  0.00000000000E+00 0.  1.
         21    1    1    2  505  503 -0.38052321955E+02  0.42870696907E+01 -0.98940232009E+02  0.10609207172E+03  0.00000000000E+00 0. -1.
          2    1    1    2  501    0  0.54310266578E+02 -0.11044882638E+03 -0.31306165186E+03  0.33638689952E+03  0.00000000000E+00 0.  1.
<scales pt_clust_3="37.23441" pt_clust_4="81.59915" pt_clust_5="45.62775" pt_clust_6="14000.00000"></scales>
<clustering>
<clus scale="   37.234">  2  3  1 -1</clus>
<clus scale="   45.628">  2  5  1 -1</clus>
<clus scale="   81.599">  1  4  2 -1</clus>
<clus scale="   37.234">  2  3  1 -1</clus>
</clustering>
</event>
<event>
 6    0  0.4796958E+002  0.6261714E+02  0.7546771E-02  0.1387166E+00
         21   -1    0    0  503  502  0.00000000000E+00  0.00000000000E+00  0.23785529159E+04  0.23785529159E+04  0.00000000000E+00 0. -1.
          3   -1    0    0  505    0 -0.00000000000E+00 -0.00000000000E+00 -0.69037134111E+02  0.69037134111E+02  0.00000000000E+00 0.  1.
         21    1    1    2  503  501  0.54207501000E+02  0.16577970648E+02  0.10598271181E+04  0.10613419819E+04  0.00000000000E+00 0. -1.
         21    1    1    2  504  502 -0.57219330889E+02 -0.50039451358E+02  0.11653887412E+04  0.11678651106E+04  0.00000000000E+00 0. -1.
         21    1    1    2  505  504  0.26723769641E+02  0.69554882292E+02  0.13351947686E+03  0.15290353892E+03  0.00000000000E+00 0. -1.
          3    1    1    2  501    0 -0.23711939752E+02 -0.36093401582E+02 -0.49219554360E+02  0.65479418568E+02  0.00000000000E+00 0.  1.
<scales pt_clust_3="14000.00000" pt_clust_4="62.61714" pt_clust_5="40.24841" pt_clust_6="43.18553"></scales>
<clustering>
<clus scale="   43.186">  2  6  1 -1</clus>
<clus scale="   40.248">  2  5  1 -1</clus>
<clus scale="   62.617">  2  4  1 -1</clus>
<clus scale="   62.617">  1  3  2 -1</clus>
</clustering>
</event>
<event>
 6    0  0.4796958E+002  0.1339813E+03  0.7546771E-02  0.1221665E+00
         21   -1    0    0  505  502  0.00000000000E+00  0.00000000000E+00  0.41929162904E+03  0.41929162904E+03  0.00000000000E+00 0.  1.
          2   -1    0    0  503    0 -0.00000000000E+00 -0.00000000000E+00 -0.18051632516E+04  0.18051632516E+04  0.00000000000E+00 0.  1.
         21    1    1    2  503  504 -0.14692935596E+03  0.43962144133E+02 -0.18537116023E+03  0.24058963570E+03  0.00000000000E+00 0.  1.
         21    1    1    2  504  502  0.11477002353E+03 -0.18826362723E+02 -0.63760844461E+02  0.13263497096E+03  0.00000000000E+00 0.  1.
         21    1    1    2  505  501  0.26839611705E+02  0.25695720975E+02  0.35584058364E+03  0.35777528673E+03  0.00000000000E+00 0.  1.
          2    1    1    2  501    0  0.53197207220E+01 -0.50831502385E+02 -0.14925802015E+04  0.14934549873E+04  0.00000000000E+00 0.  1.
<scales pt_clust_3="133.98128" pt_clust_4="14000.00000" pt_clust_5="37.15689" pt_clust_6="50.95018"></scales>
<clustering>
<clus scale="   37.157">  1  5  2 -1</clus>
<clus scale="   50.950">  2  6  1 -1</clus>
<clus scale="  133.981">  2  3  1 -1</clus>
<clus scale="   37.157">  1  3  2 -1</clus>
</clustering>
</event>
<event>
 6    0  0.4796958E+002  0.7820463E+02  0.7546771E-02  0.1334225E+00
          2   -1    0    0  505    0 -0.00000000000E+00  0.00000000000E+00  0.15170701291E+03  0.15170701291E+03  0.00000000000E+00 0. -1.
         21   -1    0    0  504  502  0.00000000000E+00 -0.00000000000E+00 -0.29241303797E+03  0.29241303797E+03  0.00000000000E+00 0. -1.
         21    1    1    2  503  501 -0.33802681220E+02  0.35184361436E+02  0.56441089903E+01  0.49116356885E+02  0.00000000000E+00 0. -1.
         21    1    1    2  504  503  0.92221103238E+02 -0.28811439121E+02 -0.14787715738E+03  0.17664225027E+03  0.00000000000E+00 0. -1.
         21    1    1    2  505  502 -0.64564640732E+02 -0.39128824185E+02 -0.92036539486E+02  0.11903941497E+03  0.00000000000E+00 0. -1.
          2    1    1    2  501    0  0.61462187141E+01  0.32755901869E+02  0.93563562806E+02  0.99322028758E+02  0.00000000000E+00 0. -1.
<scales pt_clust_3="59.91100" pt_clust_4="78.20463" pt_clust_5="14000.00000" pt_clust_6="33.32754"></scales>
<clustering>
<clus scale="   33.328">  1  6  2 -1</clus>
<clus scale="   59.911">  1  3  2 -1</clus>
<clus scale="   78.205">  1  4  2 -1</clus>
<clus scale="   78.205">  2  3  1 -1</clus>
</clustering>
</event>
<event>
 6    0  0.4796958E+002  0.1137397E+03  0.7546771E-02  0.1253797E+00
          2   -1    0    0  503    0 -0.00000000000E+00  0.00000000000E+00  0.51230560426E+03  0.51230560426E+03  0.00000000000E+00 0. -1.
         21   -1    0    0  505  502  0.00000000000E+00 -0.00000000000E+00 -0.44979941144E+03  0.44979941144E+03  0.00000000000E+00 0. -1.
         21    1    1    2  503  502  0.29355804310E+01 -0.40166195341E+02 -0.14820345649E+03  0.15357801078E+03  0.00000000000E+00 0. -1.
         21    1    1    2  504  501 -0.50338094594E+02 -0.87062776989E+02 -0.40733470533E+02  0.10850376273E+03  0.00000000000E+00 0.  1.
         21    1    1    2  505  504 -0.38039348215E+02  0.15142066854E+03 -0.19217686128E+03  0.24760282084E+03  0.00000000000E+00 0. -1.
          2    1    1    2  501    0  0.85441862378E+02 -0.24191696212E+02  0.44361998112E+03  0.45242042136E+03  0.00000000000E+00 0. -1.
<scales pt_clust_3="40.27333" pt_clust_4="113.73966" pt_clust_5="14000.00000" pt_clust_6="89.00503"></scales>
<clustering>
<clus scale="   40.273">  2  3  1 -1</clus>
<clus scale="   89.005">  1  6  2 -1</clus>
<clus scale="  113.740">  1  4  2 -1</clus>
<clus scale="   40.273">  2  3  1 -1</clus>
</clustering>
</event>
<event>
 6    0  0.4796958E+002  0.9755810E+02  0.7546771E-02  0.1285516E+00
          1   -1    0    0  503    0 -0.00000000000E+00  0.00000000000E+00  0.23408282792E+03  0.23408282792E+03  0.00000000000E+00 0. -1.
         21   -1    0    0  501  502  0.00000000000E+00 -0.00000000000E+00 -0.29941852463E+03  0.29941852463E+03  0.00000000000E+00 0. -1.
         21    1    1    2  503  504 -0.12016504983E+02 -0.64814450942E+02 -0.35447037304E+02  0.74845186195E+02  0.00000000000E+00 0.  1.
         21    1    1    2  504  505 -0.26149183655E+00 -0.59606854534E+02  0.93096163690E+01  0.60330045934E+02  0.00000000000E+00 0.  1.
         21    1    1    2  505  502 -0.18039387511E+02  0.80197326244E+02 -0.20670351129E+03  0.22244858331E+03  0.00000000000E+00 0. -1.
          1    1    1    2  501    0  0.30317384330E+02  0.44223979233E+02  0.16750523552E+03  0.17587753711E+03  0.00000000000E+00 0. -1.
<scales pt_clust_3="42.07515" pt_clust_4="42.07515" pt_clust_5="86.94720" pt_clust_6="53.61813"></scales>
<clustering>
<clus scale="   42.075">  3  4 -1 -1</clus>
<clus scale="   53.618">  1  6  2 -1</clus>
<clus scale="   86.947">  2  5  1 -1</clus>
<clus scale="   86.947">  2  3  1 -1</clus>
</clustering>
</event>
<event>
 6    0  0.4796958E+002  0.9266882E+02  0.7546771E-02  0.1296515E+00
         21   -1    0    0  504  502  0.00000000000E+00  0.00000000000E+00  0.50179611359E+03  0.50179611359E+03  0.00000000000E+00 0.  1.
         -4   -1    0    0    0  501 -0.00000000000E+00 -0.00000000000E+00 -0.37538212794E+03  0.37538212794E+03  0.00000000000E+00 0.  1.
         21    1    1    2  503  501 -0.14953314103E+02  0.54553632184E+02 -0.11389577041E+02  0.57701151222E+02  0.00000000000E+00 0.  1.
         21    1    1    2  504  503 -0.33119473864E+02 -0.10650914784E+03  0.34920125331E+03  0.36658234196E+03  0.00000000000E+00 0.  1.
         21    1    1    2  505  502 -0.21230727031E+02  0.72031798350E+02  0.10459945768E+03  0.12876478669E+03  0.00000000000E+00 0.  1.
         -4    1    1    2    0  505  0.69303514999E+02 -0.20076282696E+02 -0.31599714830E+03  0.32412996167E+03  0.00000000000E+00 0.  1.
<scales pt_clust_3="56.56589" pt_clust_4="92.66882" pt_clust_5="14000.00000" pt_clust_6="63.43749"></scales>
<clustering>
<clus scale="   56.566">  2  3  1 -1</clus>
<clus scale="   63.437">  2  6  1 -1</clus>
<clus scale="   92.669">  1  4  2 -1</clus>
<clus scale="   92.669">  1  3  2 -1</clus>
</clustering>
</event>
<event>
 6    0  0.4796958E+002  0.1760463E+03  0.7546771E-02  0.1171685E+00
         21   -1    0    0  503  502  0.00000000000E+00  0.00000000000E+00  0.60516150403E+03  0.60516150403E+03  0.00000000000E+00 0.  1.
          2   -1    0    0  505    0 -0.00000000000E+00 -0.00000000000E+00 -0.30285521041E+03  0.30285521041E+03  0.00000000000E+00 0. -1.
         21    1    1    2  503  501  0.13623383713E+03  0.93836158254E+02  0.18833205171E+03  0.25066680011E+03  0.00000000000E+00 0.  1.
         21    1    1    2  504  502  0.30060302241E+02 -0.12929951868E+02  0.34343412653E+03  0.34498957185E+03  0.00000000000E+00 0.  1.
         21    1    1    2  505  504 -0.27134385950E+02 -0.36943063770E+02 -0.70964081078E+01  0.46383443917E+02  0.00000000000E+00 0.  1.
          2    1    1    2  501    0 -0.13915975342E+03 -0.43963142616E+02 -0.22236347651E+03  0.26597689856E+03  0.00000000000E+00 0. -1.
<scales pt_clust_3="176.04633" pt_clust_4="32.72316" pt_clust_5="45.34585" pt_clust_6="14000.00000"></scales>
<clustering>
<clus scale="   32.723">  1  4  2 -1</clus>
<clus scale="   45.346">  2  5  1 -1</clus>
<clus scale="  176.046">  1  3  2 -1</clus>
<clus scale="   32.723">  1  3  2 -1</clus>
</clustering>
</event>
<event>
 6    0  0.4796958E+002  0.7583688E+02  0.7546771E-02  0.1341299E+00
         -3   -1    0    0    0  501 -0.00000000000E+00  0.00000000000E+00  0.61605787387E+03  0.61605787387E+03  0.00000000000E+00 0. -1.
         21   -1    0    0  505  502  0.00000000000E+00 -0.00000000000E+00 -0.13539679894E+03  0.13539679894E+03  0.00000000000E+00 0.  1.
         21    1    1    2  503  502 -0.96536331490E+02  0.13312985598E+02 -0.12997667965E+02  0.98312960771E+02  0.00000000000E+00 0.  1.
         21    1    1    2  504  503  0.29597442546E+02  0.65569162428E+02  0.97626867412E+02  0.12126965370E+03  0.00000000000E+00 0.  1.
         21    1    1    2  505  501  0.22246727699E+02 -0.63555278621E+02 -0.49669469351E+02  0.83673451701E+02  0.00000000000E+00 0.  1.
         -3    1    1    2    0  504  0.44692161245E+02 -0.15326869406E+02  0.44570134484E+03  0.44819860664E+03  0.00000000000E+00 0. -1.
<scales pt_clust_3="75.83688" pt_clust_4="14000.00000" pt_clust_5="70.37435" pt_clust_6="47.24725"></scales>
<clustering>
<clus scale="   47.247">  1  6  2 -1</clus>
<clus scale="   70.374">  2  5  1 -1</clus>
<clus scale="   75.837">  2  3  1 -1</clus>
<clus scale="   70.374">  2  3  1 -1</clus>
</clustering>
</event>
<event>
 6    0  0.4796958E+002  0.1137477E+03  0.7546771E-02  0.1253783E+00
         21   -1    0    0  505  502  0.00000000000E+00  0.00000000000E+00  0.90310201242E+02  0.90310201242E+02  0.00000000000E+00 0.  1.
          2   -1    0    0  504    0 -0.00000000000E+00 -0.00000000000E+00 -0.69853361465E+03  0.69853361465E+03  0.00000000000E+00 0.  1.
         21    1    1    2  503  502 -0.20223874629E+02 -0.49931507599E+02 -0.16701723858E+02  0.56401313246E+02  0.00000000000E+00 0.  1.
         21    1    1    2  504  503  0.96153117012E+02  0.78675765400E+02 -0.35623029934E+03  0.37727354021E+03  0.00000000000E+00 0.  1.
         21    1    1    2  505  501  0.40714341526E+02 -0.28720498095E+02  0.34928605823E+02  0.60848435653E+02  0.00000000000E+00 0.  1.
          2    1    1    2  501    0 -0.11664358391E+03 -0.23759705736E-01 -0.27021999604E+03  0.29432052679E+03  0.00000000000E+00 0.  1.
<scales pt_clust_3="63.38115" pt_clust_4="113.74770" pt_clust_5="49.82494" pt_clust_6="14000.00000"></scales>
<clustering>
<clus scale="   49.825">  1  5  2 -1</clus>
<clus scale="   63.381">  1  3  2 -1</clus>
<clus scale="  113.748">  2  4  1 -1</clus>
<clus scale="   49.825">  1  3  2 -1</clus>
</clustering>
</event>
<event>
 6    0  0.4796958E+002  0.2000379E+03  0.7546771E-02  0.1149707E+00
         21   -1    0    0  504  502  0.00000000000E+00  0.00000000000E+00  0.31779621789E+03  0.31779621789E+03  0.00000000000E+00 0.  1.
          2   -1    0    0  503    0 -0.00000000000E+00 -0.00000000000E+00 -0.86566122109E+03  0.86566122109E+03  0.00000000000E+00 0.  1.
         21    1    1    2  503  505  0.56129239160E+01  0.35493247465E+02 -0.29718986667E+02  0.46631466834E+02  0.00000000000E+00 0.  1.
         21    1    1    2  504  501  0.20181330126E+03  0.41090792536E+01  0.25039036784E+03  0.32162218426E+03  0.00000000000E+00 0.  1.
         21    1    1    2  505  502 -0.42033108324E+02 -0.61473222789E+02 -0.91804905659E+02  0.11821116706E+03  0.00000000000E+00 0.  1.
          2    1    1    2  501    0 -0.16539311686E+03  0.21870896070E+02 -0.67673147872E+03  0.69699262082E+03  0.00000000000E+00 0.  1.
<scales pt_clust_3="35.93432" pt_clust_4="200.03790" pt_clust_5="70.37679" pt_clust_6="14000.00000"></scales>
<clustering>
<clus scale="   35.934">  2  3  1 -1</clus>
<clus scale="   70.377">  2  5  1 -1</clus>
<clus scale="  200.038">  1  4  2 -1</clus>
<clus scale="  200.038">  1  3  2 -1</clus>
</clustering>
</event>
<event>
 6    0  0.4796958E+002  0.1682867E+03  0.7546771E-02  0.1179646E+00
         -3   -1    0    0    0  501 -0.00000000000E+00  0.00000000000E+00  0.76713715894E+03  0.76713715894E+03  0.00000000000E+00 0.  1.
         21   -1    0    0  501  502  0.00000000000E+00 -0.00000000000E+00 -0.85576527618E+02  0.85576527618E+02  0.00000000000E+00 0.  1.
         21    1    1    2  503  502 -0.54889770713E+02 -0.14535656739E+02  0.32102556802E+02  0.65228417112E+02  0.00000000000E+00 0. -1.
         21    1    1    2  504  503 -0.63992417147E+01  0.19135675829E+03  0.16469767052E+03  0.25255431478E+03  0.00000000000E+00 0.  1.
         21    1    1    2  505  504  0.32957420888E+02 -0.14249077214E+03  0.20599111391E+03  0.25263046282E+03  0.00000000000E+00 0.  1.
         -3    1    1    2    0  505  0.28331591540E+02 -0.34330329415E+02  0.27876929009E+03  0.28230049184E+03  0.00000000000E+00 0.  1.
<scales pt_clust_3="55.07037" pt_clust_4="168.28666" pt_clust_5="14000.00000" pt_clust_6="44.51124"></scales>
<clustering>
<clus scale="   44.511">  1  6  2 -1</clus>
<clus scale="   55.070">  2  3  1 -1</clus>
<clus scale="  168.287">  2  4  1 -1</clus>
<clus scale="   55.070">  2  3  1 -1</clus>
</clustering>
</event>
<event>
 6    0  0.4796958E+002  0.1510487E+03  0.7546771E-02  0.1199190E+00
          2   -1    0    0  505    0 -0.00000000000E+00  0.00000000000E+00  0.23070234491E+03  0.23070234491E+03  0.00000000000E+00 0. -1.
         21   -1    0    0  504  502  0.00000000000E+00 -0.00000000000E+00 -0.21674334392E+04  0.21674334392E+04  0.00000000000E+00 0. -1.
         21    1    1    2  503  502 -0.83230544957E+02 -0.12821240541E+03 -0.19792267701E+04  0.19851207399E+04  0.00000000000E+00 0. -1.
         21    1    1    2  504  501 -0.40552819576E+02  0.78102942287E+02 -0.99016628882E+02  0.13247223696E+03  0.00000000000E+00 0. -1.
         21    1    1    2  505  503  0.15254009777E+03  0.13208912133E+02  0.25194936462E+02  0.15517004095E+03  0.00000000000E+00 0. -1.
          2    1    1    2  501    0 -0.28756733234E+02  0.36900550991E+02  0.11631736824E+03  0.12537276628E+03  0.00000000000E+00 0. -1.
<scales pt_clust_3="14000.00000" pt_clust_4="95.01671" pt_clust_5="151.04871" pt_clust_6="46.78248"></scales>
<clustering>
<clus scale="   46.782">  1  6  2 -1</clus>
<clus scale="   95.017">  1  4  2 -1</clus>
<clus scale="  151.049">  1  5  2 -1</clus>
<clus scale="  151.049">  2  3  1 -1</clus>
</clustering>
</event>
<event>
 6    0  0.4796958E+002  0.5201128E+03  0.7546771E-02  0.1008659E+00
         21   -1    0    0  501  502  0.00000000000E+00  0.00000000000E+00  0.16894202926E+04  0.16894202926E+04  0.00000000000E+00 0.  1.
          2   -1    0    0  504    0 -0.00000000000E+00 -0.00000000000E+00 -0.99659205036E+03  0.99659205036E+03  0.00000000000E+00 0. -1.
         21    1    1    2  503  502  0.69924790086E+02  0.72283070444E+01  0.31734360387E+03  0.32503644043E+03  0.00000000000E+00 0. -1.
         21    1    1    2  504  505 -0.47214837978E+03  0.68986038177E+02  0.94385334124E+03  0.10576115997E+04  0.00000000000E+00 0.  1.
         21    1    1    2  505  503  0.32381210657E+02  0.30527056328E+03  0.20203679183E+03  0.36750173450E+03  0.00000000000E+00 0. -1.
          2    1    1    2  501    0  0.36984237904E+03 -0.38148490850E+03 -0.77040549465E+03  0.93586256840E+03  0.00000000000E+00 0. -1.
<scales pt_clust_3="70.29740" pt_clust_4="520.11283" pt_clust_5="310.34457" pt_clust_6="14000.00000"></scales>
<clustering>
<clus scale="   70.297">  1  3  2 -1</clus>
<clus scale="  310.345">  1  5  2 -1</clus>
<clus scale="  520.113">  1  4  2 -1</clus>
<clus scale="   70.297">  1  3  2 -1</clus>
</clustering>
</event>
<event>
 6    0  0.4796958E+002  0.1104814E+03  0.7546771E-02  0.1259681E+00
         21   -1    0    0  504  502  0.00000000000E+00  0.00000000000E+00  0.92621162862E+02  0.92621162862E+02  0.00000000000E+00 0. -1.
          1   -1    0    0  505    0 -0.00000000000E+00 -0.00000000000E+00 -0.35729458994E+04  0.35729458994E+04  0.00000000000E+00 0.  1.
         21    1    1    2  503  502 -0.43513029835E+02  0.15842803159E+02 -0.13681270044E+02  0.48286181537E+02  0.00000000000E+00 0. -1.
         21    1    1    2  504  501  0.15669620417E+03 -0.79719026196E+01 -0.89186540027E+01  0.15715213655E+03  0.00000000000E+00 0. -1.
         21    1    1    2  505  503 -0.61025241867E+02  0.87268490607E+01 -0.10683439862E+04  0.10701210730E+04  0.00000000000E+00 0.  1.
          1    1    1    2  501    0 -0.52157932468E+02 -0.16597749600E+02 -0.23893808263E+04  0.23900076711E+04  0.00000000000E+00 0.  1.
<scales pt_clust_3="46.30743" pt_clust_4="14000.00000" pt_clust_5="110.48141" pt_clust_6="54.88782"></scales>
<clustering>
<clus scale="   46.307">  1  3  2 -1</clus>
<clus scale="   54.888">  2  6  1 -1</clus>
<clus scale="  110.481">  2  5  1 -1</clus>
<clus scale="   46.307">  1  3  2 -1</clus>
</clustering>
</event>
<event>
 6    0  0.4796958E+002  0.2965538E+03  0.7546771E-02  0.1086976E+00
         21   -1    0    0  504  502  0.00000000000E+00  0.00000000000E+00  0.26762454773E+03  0.26762454773E+03  0.00000000000E+00 0.  1.
          2   -1    0    0  503    0 -0.00000000000E+00 -0.00000000000E+00 -0.15613348795E+04  0.15613348795E+04  0.00000000000E+00 0.  1.
         21    1    1    2  503  505  0.33744641660E+03  0.66949927927E+02 -0.69115437135E+02  0.35089787770E+03  0.00000000000E+00 0.  1.
         21    1    1    2  504  501 -0.29767240027E+02  0.83435709239E+01  0.53107719331E+01  0.31367308669E+02  0.00000000000E+00 0.  1.
         21    1    1    2  505  502 -0.19997737943E+02 -0.29979046963E+02  0.88999489874E+02  0.96018550174E+02  0.00000000000E+00 0.  1.
          2    1    1    2  501    0 -0.28768143863E+03 -0.45314451888E+02 -0.13189051564E+04  0.13506756906E+04  0.00000000000E+00 0.  1.
<scales pt_clust_3="14000.00000" pt_clust_4="30.91446" pt_clust_5="41.06616" pt_clust_6="296.55375"></scales>
<clustering>
<clus scale="   30.914">  1  4  2 -1</clus>
<clus scale="   41.066">  1  5  2 -1</clus>
<clus scale="  296.554">  2  6  1 -1</clus>
<clus scale="   30.914">  1  3  2 -1</clus>
</clustering>
</event>
<event>
 6    0  0.4796958E+002  0.6335804E+02  0.7546771E-02  0.1384257E+00
          2   -1    0    0  505    0 -0.00000000000E+00  0.00000000000E+00  0.70906596562E+03  0.70906596562E+03  0.00000000000E+00 0.  1.
         21   -1    0    0  501  502  0.00000000000E+00 -0.00000000000E+00 -0.15313905847E+03  0.15313905847E+03  0.00000000000E+00 0.  1.
         21    1    1    2  503  504  0.38034689581E+02 -0.64461710006E+02  0.39030404583E+02  0.84411623313E+02  0.00000000000E+00 0.  1.
         21    1    1    2  504  502 -0.24152302202E+02  0.29944668456E+02 -0.10949799463E+03  0.11605958684E+03  0.00000000000E+00 0.  1.
         21    1    1    2  505  503 -0.28026820018E+02  0.84616727675E+02  0.10494198382E+03  0.13768919061E+03  0.00000000000E+00 0.  1.
          2    1    1    2  501    0  0.14144432639E+02 -0.50099686125E+02  0.52145251337E+03  0.52404462331E+03  0.00000000000E+00 0.  1.
<scales pt_clust_3="14000.00000" pt_clust_4="38.47099" pt_clust_5="63.35804" pt_clust_6="50.92425"></scales>
<clustering>
<clus scale="   38.471">  2  4  1 -1</clus>
<clus scale="   50.924">  1  6  2 -1</clus>
<clus scale="   63.358">  1  5  2 -1</clus>
<clus scale="   38.471">  2  3  1 -1</clus>
</clustering>
</event>
<event>
 6    0  0.4796958E+002  0.9815306E+02  0.7546771E-02  0.1284228E+00
         21   -1    0    0  501  502  0.00000000000E+00  0.00000000000E+00  0.82371622724E+03  0.82371622724E+03  0.00000000000E+00 0. -1.
          1   -1    0    0  504    0 -0.00000000000E+00 -0.00000000000E+00 -0.63317893535E+03  0.63317893535E+03  0.00000000000E+00 0. -1.
         21    1    1    2  503  505 -0.12142396432E+03 -0.11498691459E+02  0.46554492476E+03  0.48125676721E+03  0.00000000000E+00 0. -1.
         21    1    1    2  504  503  0.75707923176E+02  0.10954976523E+02 -0.14995600723E+02  0.77952352006E+02  0.00000000000E+00 0. -1.
         21    1    1    2  505  502  0.28228956056E+02 -0.25559608288E+02  0.31727120843E+03  0.31954841141E+03  0.00000000000E+00 0. -1.
          1    1    1    2  501    0  0.17487085090E+02  0.26103323223E+02 -0.57728324058E+03  0.57813763196E+03  0.00000000000E+00 0. -1.
<scales pt_clust_3="14000.00000" pt_clust_4="98.15306" pt_clust_5="37.99288" pt_clust_6="31.41945"></scales>
<clustering>
<clus scale="   31.419">  2  6  1 -1</clus>
<clus scale="   37.993">  1  5  2 -1</clus>
<clus scale="   98.153">  2  4  1 -1</clus>
<clus scale="   37.993">  1  3  2 -1</clus>
</clustering>
</event>
<event>
 6    0  0.4796958E+002  0.8657789E+02  0.7546771E-02  0.1311357E+00
          2   -1    0    0  503    0 -0.00000000000E+00  0.00000000000E+00  0.50195020670E+03  0.50195020670E+03  0.00000000000E+00 0.  1.
         21   -1    0    0  501  502  0.00000000000E+00 -0.00000000000E+00 -0.95175930273E+03  0.95175930273E+03  0.00000000000E+00 0. -1.
         21    1    1    2  503  504  0.21923161151E+02 -0.23203099291E+02  0.34145915974E+02  0.46743474297E+02  0.00000000000E+00 0. -1.
         21    1    1    2  504  505  0.78707112861E+02  0.69661171715E+02 -0.24453054748E+02  0.10791404147E+03  0.00000000000E+00 0. -1.
         21    1    1    2  505  502 -0.58614281514E+02  0.15801444136E+02 -0.87485678937E+03  0.87696050170E+03  0.00000000000E+00 0. -1.
          2    1    1    2  501    0 -0.42015992498E+02 -0.62259516560E+02  0.41535483212E+03  0.42209149197E+03  0.00000000000E+00 0.  1.
<scales pt_clust_3="31.92192" pt_clust_4="14000.00000" pt_clust_5="60.64484" pt_clust_6="86.57789"></scales>
<clustering>
<clus scale="   31.922">  1  3  2 -1</clus>
<clus scale="   60.645">  2  5  1 -1</clus>
<clus scale="   86.578">  1  6  2 -1</clus>
<clus scale="   60.645">  2  3  1 -1</clus>
</clustering>
</event>
<event>
 6    0  0.4796958E+002  0.9278015E+02  0.7546771E-02  0.1296255E+00
          1   -1    0    0  505    0 -0.00000000000E+00  0.00000000000E+00  0.11146460783E+04  0.11146460783E+04  0.00000000000E+00 0. -1.
         21   -1    0    0  504  502  0.00000000000E+00 -0.00000000000E+00 -0.86274651321E+02  0.86274651321E+02  0.00000000000E+00 0.  1.
         21    1    1    2  503  502  0.35580500203E+01 -0.32361875903E+02 -0.49992735631E+02  0.59659235227E+02  0.00000000000E+00 0.  1.
         21    1    1    2  504  501 -0.96767601304E+02  0.18079673766E+02  0.62143940995E+02  0.11641611859E+03  0.00000000000E+00 0.  1.
         21    1    1    2  505  503  0.88602834485E+01  0.42747030209E+02  0.33794018111E+03  0.34074826372E+03  0.00000000000E+00 0. -1.
          1    1    1    2  501    0  0.84349267835E+02 -0.28464828072E+02  0.67828004048E+03  0.68409711207E+03  0.00000000000E+00 0. -1.
<scales pt_clust_3="32.55688" pt_clust_4="14000.00000" pt_clust_5="42.27550" pt_clust_6="92.78015"></scales>
<clustering>
<clus scale="   32.557">  2  3  1 -1</clus>
<clus scale="   42.276">  1  5  2 -1</clus>
<clus scale="   92.780">  1  6  2 -1</clus>
<clus scale="   32.557">  2  3  1 -1</clus>
</clustering>
</event>
<event>
 6    0  0.4796958E+002  0.1876017E+03  0.7546771E-02  0.1160642E+00
          1   -1    0    0  504    0 -0.00000000000E+00  0.00000000000E+00  0.20690119470E+04  0.20690119470E+04  0.00000000000E+00 0. -1.
         21   -1    0    0  503  502  0.00000000000E+00 -0.00000000000E+00 -0.10044865905E+03  0.10044865905E+03  0.00000000000E+00 0.  1.
         21    1    1    2  503  501 -0.31496709089E+02  0.13397954410E+02  0.30825131047E+02  0.46062311816E+02  0.00000000000E+00 0.  1.
         21    1    1    2  504  505  0.78847839585E+02 -0.20269796080E+03  0.68673671673E+03  0.72035460936E+03  0.00000000000E+00 0.  1.
         21    1    1    2  505  502 -0.33787699856E+02  0.16122436544E+03  0.13641159153E+02  0.16529061043E+03  0.00000000000E+00 0.  1.
          1    1    1    2  501    0 -0.13563430641E+02  0.28075640952E+02  0.12373602810E+04  0.12377530744E+04  0.00000000000E+00 0. -1.
<scales pt_clust_3="35.32585" pt_clust_4="14000.00000" pt_clust_5="187.60172" pt_clust_6="31.18025"></scales>
<clustering>
<clus scale="   31.180">  1  6  2 -1</clus>
<clus scale="   35.326">  2  3  1 -1</clus>
<clus scale="  187.602">  2  5  1 -1</clus>
<clus scale="   35.326">  2  3  1 -1</clus>
</clustering>
</event>
<event>
 6    0  0.4796958E+002  0.9871063E+02  0.7546771E-02  0.1283031E+00
         -2   -1    0    0    0  501 -0.00000000000E+00  0.00000000000E+00  0.24297591330E+04  0.24297591330E+04  0.00000000000E+00 0. -1.
         21   -1    0    0  504  502  0.00000000000E+00 -0.00000000000E+00 -0.73378779021E+02  0.73378779021E+02  0.00000000000E+00 0.  1.
         21    1    1    2  503  502 -0.11203147198E+03  0.69159436644E+02  0.43157756665E+03  0.45121311420E+03  0.00000000000E+00 0. -1.
         21    1    1    2  504  505  0.42913195973E+02 -0.67864250127E+01 -0.52858111936E+02  0.68422057485E+02  0.00000000000E+00 0.  1.
         21    1    1    2  505  501 -0.10666720933E+02 -0.39526750920E+02  0.21344788965E+03  0.21733877834E+03  0.00000000000E+00 0.  1.
         -2    1    1    2    0  503  0.79784996936E+02 -0.22846260712E+02  0.17642130096E+04  0.17661639620E+04  0.00000000000E+00 0. -1.
<scales pt_clust_3="98.71063" pt_clust_4="43.43140" pt_clust_5="40.94073" pt_clust_6="14000.00000"></scales>
<clustering>
<clus scale="   40.941">  1  5  2 -1</clus>
<clus scale="   43.431">  2  4  1 -1</clus>
<clus scale="   98.711">  2  3  1 -1</clus>
<clus scale="   43.431">  2  3  1 -1</clus>
</clustering>
</event>
<event>
 6    0  0.4796958E+002  0.7986289E+02  0.7546771E-02  0.1329441E+00
         21   -1    0    0  504  502  0.00000000000E+00  0.00000000000E+00  0.18642966614E+03  0.18642966614E+03  0.00000000000E+00 0.  1.
          2   -1    0    0  503    0 -0.00000000000E+00 -0.00000000000E+00 -0.21087996835E+04  0.21087996835E+04  0.00000000000E+00 0.  1.
         21    1    1    2  503  505 -0.14332387902E+03  0.30349399305E+02 -0.73435053325E+03  0.74882142466E+03  0.00000000000E+00 0.  1.
         21    1    1    2  504  501  0.40065456674E+02 -0.45849127426E+02  0.75081893405E+02  0.96667854127E+02  0.00000000000E+00 0.  1.
         21    1    1    2  505  502  0.33136829428E+02  0.13754655332E+02  0.88927791119E+02  0.95892606811E+02  0.00000000000E+00 0.  1.
          2    1    1    2  501    0  0.70121592914E+02  0.17450727890E+01 -0.13520291686E+04  0.13538474640E+04  0.00000000000E+00 0.  1.
<scales pt_clust_3="79.86289" pt_clust_4="14000.00000" pt_clust_5="35.87813" pt_clust_6="70.46705"></scales>
<clustering>
<clus scale="   35.878">  1  5  2 -1</clus>
<clus scale="   70.467">  2  6  1 -1</clus>
<clus scale="   79.863">  2  3  1 -1</clus>
<clus scale="   35.878">  1  3  2 -1</clus>
</clustering>
</event>
<event>
 6    0  0.4796958E+002  0.8654425E+02  0.7546771E-02  0.1311443E+00
          1   -1    0    0  502    0 -0.00000000000E+00  0.00000000000E+00  0.19584656725E+03  0.19584656725E+03  0.00000000000E+00 0. -1.
         21   -1    0    0  503  502  0.00000000000E+00 -0.00000000000E+00 -0.52694561546E+03  0.52694561546E+03  0.00000000000E+00 0.  1.
         21    1    1    2  503  504 -0.62534287768E+01  0.56455761777E+02 -0.36178415289E+03  0.36621596318E+03  0.00000000000E+00 0.  1.
         21    1    1    2  504  505  0.10631958829E+03 -0.29183187502E+02 -0.10089943666E+03  0.14945303478E+03  0.00000000000E+00 0.  1.
         21    1    1    2  505  501 -0.62751368872E+02 -0.26315452749E+02 -0.23480264554E+01  0.68086346479E+02  0.00000000000E+00 0.  1.
          1    1    1    2  501    0 -0.37314790644E+02 -0.95712152563E+00  0.13393256778E+03  0.13903683827E+03  0.00000000000E+00 0. -1.
<scales pt_clust_3="56.93581" pt_clust_4="14000.00000" pt_clust_5="86.54425" pt_clust_6="37.32706"></scales>
<clustering>
<clus scale="   37.327">  1  6  2 -1</clus>
<clus scale="   56.936">  2  3  1 -1</clus>
<clus scale="   86.544">  1  5  2 -1</clus>
<clus scale="   56.936">  2  3  1 -1</clus>
</clustering>
</event>
<event>
 6    0  0.4796958E+002  0.1613154E+03  0.7546771E-02  0.1187220E+00
          1   -1    0    0  503    0 -0.00000000000E+00  0.00000000000E+00  0.14321078421E+04  0.14321078421E+04  0.00000000000E+00 0.  1.
         21   -1    0    0  505  502  0.00000000000E+00 -0.00000000000E+00 -0.46524721608E+03  0.46524721608E+03  0.00000000000E+00 0.  1.
         21    1    1    2  503  504 -0.27711468998E+00  0.57468191586E+02  0.23880132339E+02  0.62232873606E+02  0.00000000000E+00 0.  1.
         21    1    1    2  504  502  0.27495390611E+02 -0.16264773390E+03 -0.42711217035E+03  0.45785924464E+03  0.00000000000E+00 0.  1.
         21    1    1    2  505  501 -0.30784123145E+01  0.69585365307E+02  0.38621283299E+03  0.39244356544E+03  0.00000000000E+00 0.  1.
          1    1    1    2  501    0 -0.24139863606E+02  0.35594177002E+02  0.98387983102E+03  0.98481937447E+03  0.00000000000E+00 0.  1.
<scales pt_clust_3="60.94635" pt_clust_4="14000.00000" pt_clust_5="161.31538" pt_clust_6="43.00789"></scales>
<clustering>
<clus scale="   43.008">  1  6  2 -1</clus>
<clus scale="   60.946">  1  3  2 -1</clus>
<clus scale="  161.315">  1  5  2 -1</clus>
<clus scale="  161.315">  2  3  1 -1</clus>
</clustering>
</event>
<event>
 6    0  0.4796958E+002  0.1021246E+03  0.7546771E-02  0.1275891E+00
         21   -1    0    0  504  502  0.00000000000E+00  0.00000000000E+00  0.39116029813E+02  0.39116029813E+02  0.00000000000E+00 0. -1.
          2   -1    0    0  505    0 -0.00000000000E+00 -0.00000000000E+00 -0.20110358632E+04  0.20110358632E+04  0.00000000000E+00 0.  1.
         21    1    1    2  503  502 -0.76337404675E+02  0.98464315304E+02 -0.12134876188E+03  0.17391993201E+03  0.00000000000E+00 0. -1.
         21    1    1    2  504  501  0.44044880163E+01 -0.38296271127E+02 -0.38276679607E+02  0.54324102373E+02  0.00000000000E+00 0. -1.
         21    1    1    2  505  503  0.77463889455E+02 -0.10241203989E+03 -0.96008089308E+03  0.96863006423E+03  0.00000000000E+00 0.  1.
          2    1    1    2  501    0 -0.55309727967E+01  0.42243995716E+02 -0.85221349879E+03  0.85327779436E+03  0.00000000000E+00 0.  1.
<scales pt_clust_3="102.12461" pt_clust_4="38.54872" pt_clust_5="14000.00000" pt_clust_6="41.94486"></scales>
<clustering>
<clus scale="   38.549">  1  4  2 -1</clus>
<clus scale="   41.945">  2  6  1 -1</clus>
<clus scale="  102.125">  1  3  2 -1</clus>
<clus scale="   38.549">  1  3  2 -1</clus>
</clustering>
</event>
<event>
 6    0  0.4796958E+002  0.9182924E+02  0.7546771E-02  0.1298481E+00
          2   -1    0    0  503    0 -0.00000000000E+00  0.00000000000E+00  0.35801242292E+03  0.35801242292E+03  0.00000000000E+00 0.  1.
         21   -1    0    0  505  502  0.00000000000E+00 -0.00000000000E+00 -0.38700017736E+03  0.38700017736E+03  0.00000000000E+00 0.  1.
         21    1    1    2  503  504 -0.67993309338E+01 -0.47837808239E+02 -0.63248225361E+02  0.79592869087E+02  0.00000000000E+00 0. -1.
         21    1    1    2  504  502 -0.35446477360E+02 -0.20623337785E+02 -0.26257545540E+03  0.26575862092E+03  0.00000000000E+00 0.  1.
         21    1    1    2  505  501 -0.54947636769E+02  0.43892341186E+02 -0.15170984330E+02  0.71944000214E+02  0.00000000000E+00 0. -1.
          2    1    1    2  501    0  0.97193445063E+02  0.24568804838E+02  0.31200691064E+03  0.32771711005E+03  0.00000000000E+00 0.  1.
<scales pt_clust_3="65.80883" pt_clust_4="41.00945" pt_clust_5="14000.00000" pt_clust_6="91.82924"></scales>
<clustering>
<clus scale="   41.009">  2  4  1 -1</clus>
<clus scale="   65.809">  2  3  1 -1</clus>
<clus scale="   91.829">  1  6  2 -1</clus>
<clus scale="   41.009">  2  3  1 -1</clus>
</clustering>
</event>
<event>
 6    0  0.4796958E+002  0.7083618E+02  0.7546771E-02  0.1357272E+00
          2   -1    0    0  505    0 -0.00000000000E+00  0.00000000000E+00  0.20269010192E+04  0.20269010192E+04  0.00000000000E+00 0.  1.
         21   -1    0    0  503  502  0.00000000000E+00 -0.00000000000E+00 -0.17586168474E+03  0.17586168474E+03  0.00000000000E+00 0. -1.
         21    1    1    2  503  504  0.35817916501E+02  0.25480118578E+01 -0.26196458568E+02  0.44448508956E+02  0.00000000000E+00 0. -1.
         21    1    1    2  504  501  0.77364239664E+02  0.95331492030E+02  0.13023980199E+03  0.17898526468E+03  0.00000000000E+00 0. -1.
         21    1    1    2  505  502 -0.91236924477E+02 -0.31789026310E+02 -0.95305111656E+02  0.13571213243E+03  0.00000000000E+00 0. -1.
          2    1    1    2  501    0 -0.21945231688E+02 -0.66090477577E+02  0.18423011027E+04  0.18436167978E+04  0.00000000000E+00 0.  1.
<scales pt_clust_3="35.90843" pt_clust_4="70.83618" pt_clust_5="68.56249" pt_clust_6="14000.00000"></scales>
<clustering>
<clus scale="   35.908">  2  3  1 -1</clus>
<clus scale="   68.562">  2  5  1 -1</clus>
<clus scale="   70.836">  2  4  1 -1</clus>
<clus scale="   35.908">  2  3  1 -1</clus>
</clustering>
</event>
<event>
 6    0  0.4796958E+002  0.8033492E+02  0.7546771E-02  0.1328104E+00
         21   -1    0    0  503  502  0.00000000000E+00  0.00000000000E+00  0.61832848349E+03  0.61832848349E+03  0.00000000000E+00 0. -1.
         -3   -1    0    0    0  501 -0.00000000000E+00 -0.00000000000E+00 -0.49417907797E+02  0.49417907797E+02  0.00000000000E+00 0. -1.
         21    1    1    2  503  505  0.53611935031E+02 -0.17056129253E+02  0.16638253684E+03  0.17563684035E+03  0.00000000000E+00 0. -1.
         21    1    1    2  504  502 -0.96996346039E+02 -0.58000183841E+02  0.36372945891E+03  0.38088243823E+03  0.00000000000E+00 0. -1.
         21    1    1    2  505  501  0.44067023405E+01  0.39122151611E+02  0.42687205639E+02  0.58070296172E+02  0.00000000000E+00 0. -1.
         -3    1    1    2    0  504  0.38977708667E+02  0.35934161482E+02 -0.38886256984E+01  0.53156816536E+02  0.00000000000E+00 0. -1.
<scales pt_clust_3="55.57533" pt_clust_4="14000.00000" pt_clust_5="39.36955" pt_clust_6="80.33492"></scales>
<clustering>
<clus scale="   39.370">  2  5  1 -1</clus>
<clus scale="   55.575">  1  3  2 -1</clus>
<clus scale="   80.335">  2  6  1 -1</clus>
<clus scale="   55.575">  1  3  2 -1</clus>
</clustering>
</event>
<event>
 6    0  0.5026403E+002  0.1210271E+03  0.7546771E-02  0.1241412E+00
          2   -1    0    0  503    0 -0.00000000000E+00  0.00000000000E+00  0.15082310764E+04  0.15082310764E+04  0.00000000000E+00 0.  1.
         21   -1    0    0  504  502  0.00000000000E+00 -0.00000000000E+00 -0.77773213876E+03  0.77773213876E+03  0.00000000000E+00 0. -1.
         21    1    1    2  503  505 -0.65985780226E+02 -0.69976099756E+02  0.19568841473E+03  0.21804754846E+03  0.00000000000E+00 0. -1.
         21    1    1    2  504  501  0.58481603257E+02  0.46227627870E+02 -0.95333476255E+02  0.12101885470E+03  0.00000000000E+00 0. -1.
         21    1    1    2  505  502  0.46188934353E+02  0.38171531014E+02 -0.65668126892E+03  0.65940941181E+03  0.00000000000E+00 0. -1.
          2    1    1    2  501    0 -0.38684757384E+02 -0.14423059129E+02  0.12868252680E+04  0.12874874001E+04  0.00000000000E+00 0.  1.
<scales pt_clust_3="121.02711" pt_clust_4="14000.00000" pt_clust_5="59.68002" pt_clust_6="41.28602"></scales>
<clustering>
<clus scale="   41.286">  1  6  2 -1</clus>
<clus scale="   59.680">  2  5  1 -1</clus>
<clus scale="  121.027">  1  3  2 -1</clus>
<clus scale="   59.680">  2  3  1 -1</clus>
</clustering>
</event>
<event>
 6    0  0.4796958E+002  0.1032863E+03  0.7546771E-02  0.1273533E+00
         -4   -1    0    0    0  501 -0.00000000000E+00  0.00000000000E+00  0.19222555250E+04  0.19222555250E+04  0.00000000000E+00 0.  1.
         21   -1    0    0  505  502  0.00000000000E+00 -0.00000000000E+00 -0.10240322132E+03  0.10240322132E+03  0.00000000000E+00 0.  1.
         21    1    1    2  503  504 -0.56371352297E+02 -0.67244735978E+02  0.79809818696E+02  0.11861362079E+03  0.00000000000E+00 0.  1.
         21    1    1    2  504  502 -0.15343442677E+02  0.52040104539E+02 -0.46802780772E+01  0.54456392797E+02  0.00000000000E+00 0. -1.
         21    1    1    2  505  501  0.12639566619E+03  0.15764706007E+02  0.23533182458E+02  0.12953069545E+03  0.00000000000E+00 0.  1.
         -4    1    1    2    0  503 -0.54680871217E+02 -0.56007456826E+00  0.17211895806E+04  0.17220580373E+04  0.00000000000E+00 0.  1.
<scales pt_clust_3="14000.00000" pt_clust_4="54.25490" pt_clust_5="103.28627" pt_clust_6="54.77292"></scales>
<clustering>
<clus scale="   54.255">  2  4  1 -1</clus>
<clus scale="   54.773">  1  6  2 -1</clus>
<clus scale="  103.286">  2  5  1 -1</clus>
<clus scale="   54.255">  2  3  1 -1</clus>
</clustering>
</event>
<event>
 6    0  0.4796958E+002  0.9124976E+02  0.7546771E-02  0.1299853E+00
         21   -1    0    0  505  502  0.00000000000E+00  0.00000000000E+00  0.87093976276E+02  0.87093976276E+02  0.00000000000E+00 0. -1.
         -1   -1    0    0    0  501 -0.00000000000E+00 -0.00000000000E+00 -0.38077756243E+03  0.38077756243E+03  0.00000000000E+00 0. -1.
         21    1    1    2  503  501  0.72302750972E+02  0.17546388792E+02 -0.11465808435E+03  0.13668225878E+03  0.00000000000E+00 0. -1.
         21    1    1    2  504  502 -0.84944311708E+01  0.36279526639E+02 -0.46104384170E+01  0.37544847269E+02  0.00000000000E+00 0. -1.
         21    1    1    2  505  503 -0.69306993262E+02 -0.96037800064E+02 -0.45447516896E+01  0.11852161459E+03  0.00000000000E+00 0. -1.
         -1    1    1    2    0  504  0.54986734613E+01  0.42211884633E+02 -0.16987031170E+03  0.17512281808E+03  0.00000000000E+00 0. -1.
<scales pt_clust_3="91.24976" pt_clust_4="37.26070" pt_clust_5="14000.00000" pt_clust_6="43.86817"></scales>
<clustering>
<clus scale="   37.261">  1  4  2 -1</clus>
<clus scale="   43.868">  2  6  1 -1</clus>
<clus scale="   91.250">  2  3  1 -1</clus>
<clus scale="   37.261">  1  3  2 -1</clus>
</clustering>
</event>
<event>
 6    0  0.4796958E+002  0.1368221E+03  0.7546771E-02  0.1217670E+00
         21   -1    0    0  504  502  0.00000000000E+00  0.00000000000E+00  0.34880049215E+02  0.34880049215E+02  0.00000000000E+00 0.  1.
          1   -1    0    0  502    0 -0.00000000000E+00 -0.00000000000E+00 -0.27220087750E+04  0.27220087750E+04  0.00000000000E+00 0. -1.
         21    1    1    2  503  501 -0.44934352322E+02 -0.10019695025E+03 -0.10543546973E+04  0.10600577119E+04  0.00000000000E+00 0. -1.
         21    1    1    2  504  505 -0.56486019874E+02  0.40902687203E+01 -0.14068503035E+02  0.58355149876E+02  0.00000000000E+00 0. -1.
         21    1    1    2  505  503  0.11072046811E+03  0.12914538603E+03 -0.74821696166E+03  0.76731100247E+03  0.00000000000E+00 0.  1.
          1    1    1    2  501    0 -0.93000959092E+01 -0.33038704500E+02 -0.87048856379E+03  0.87116495996E+03  0.00000000000E+00 0. -1.
<scales pt_clust_3="136.82208" pt_clust_4="56.77250" pt_clust_5="14000.00000" pt_clust_6="34.32270"></scales>
<clustering>
<clus scale="   34.323">  2  6  1 -1</clus>
<clus scale="   56.773">  1  4  2 -1</clus>
<clus scale="  136.822">  2  3  1 -1</clus>
<clus scale="   56.773">  1  3  2 -1</clus>
</clustering>
</event>
<event>
 6    0  0.4796958E+002  0.9117243E+02  0.7546771E-02  0.1300037E+00
         21   -1    0    0  503  502  0.00000000000E+00  0.00000000000E+00  0.68338522284E+02  0.68338522284E+02  0.00000000000E+00 0. -1.
         -2   -1    0    0    0  501 -0.00000000000E+00 -0.00000000000E+00 -0.64060593207E+03  0.64060593207E+03  0.00000000000E+00 0.  1.
         21    1    1    2  503  501  0.89762144827E+02 -0.82949554038E+01 -0.14216909553E+03  0.16833924276E+03  0.00000000000E+00 0.  1.
         21    1    1    2  504  502 -0.30393311377E+02  0.10370510574E+02  0.30221634591E+02  0.44098163946E+02  0.00000000000E+00 0. -1.
         21    1    1    2  505  504 -0.98341851419E+02 -0.17590360957E+02 -0.13212824599E+03  0.16564544645E+03  0.00000000000E+00 0. -1.
         -2    1    1    2    0  505  0.38973017969E+02  0.15514805787E+02 -0.32819170286E+03  0.33086160121E+03  0.00000000000E+00 0.  1.
<scales pt_clust_3="14000.00000" pt_clust_4="32.11387" pt_clust_5="91.17243" pt_clust_6="40.91260"></scales>
<clustering>
<clus scale="   32.114">  1  4  2 -1</clus>
<clus scale="   40.913">  2  6  1 -1</clus>
<clus scale="   91.172">  2  5  1 -1</clus>
<clus scale="   32.114">  1  3  2 -1</clus>
</clustering>
</event>
<event>
 6    0  0.4796958E+002  0.1327623E+03  0.7546771E-02  0.1223414E+00
         21   -1    0    0  505  502  0.00000000000E+00  0.00000000000E+00  0.11795771698E+03  0.11795771698E+03  0.00000000000E+00 0.  1.
          2   -1    0    0  503    0 -0.00000000000E+00 -0.00000000000E+00 -0.26041592599E+04  0.26041592599E+04  0.00000000000E+00 0. -1.
         21    1    1    2  503  504 -0.15164241873E+03 -0.80083103301E+01  0.12833206304E+02  0.15239503725E+03  0.00000000000E+00 0.  1.
         21    1    1    2  504  502  0.23952490273E+02  0.20784069819E+02  0.13662430831E+02  0.34530585931E+02  0.00000000000E+00 0.  1.
         21    1    1    2  505  501  0.14040880654E+03 -0.76331226326E+02 -0.58593252555E+03  0.60733682053E+03  0.00000000000E+00 0.  1.
          2    1    1    2  501    0 -0.12718878081E+02  0.63555466838E+02 -0.19267646545E+04  0.19278545331E+04  0.00000000000E+00 0. -1.
<scales pt_clust_3="14000.00000" pt_clust_4="31.71276" pt_clust_5="132.76226" pt_clust_6="64.90687"></scales>
<clustering>
<clus scale="   31.713">  1  4  2 -1</clus>
<clus scale="   64.907">  2  6  1 -1</clus>
<clus scale="  132.762">  2  5  1 -1</clus>
<clus scale="   31.713">  1  3  2 -1</clus>
</clustering>
</event>
<event>
 6    0  0.4796958E+002  0.1713216E+03  0.7546771E-02  0.1176477E+00
         21   -1    0    0  504  502  0.00000000000E+00  0.00000000000E+00  0.63198766635E+03  0.63198766635E+03  0.00000000000E+00 0.  1.
          2   -1    0    0  505    0 -0.00000000000E+00 -0.00000000000E+00 -0.11918114264E+04  0.11918114264E+04  0.00000000000E+00 0.  1.
         21    1    1    2  503  502  0.13249734280E+02  0.32051411335E+02  0.11417366771E+03  0.11932508046E+03  0.00000000000E+00 0.  1.
         21    1    1    2  504  501 -0.60557307685E+02 -0.79319713243E+02  0.19285795952E+03  0.21714740839E+03  0.00000000000E+00 0.  1.
         21    1    1    2  505  503  0.10275335129E+03  0.18853906082E+03  0.26741314284E+03  0.34295045943E+03  0.00000000000E+00 0.  1.
          2    1    1    2  501    0 -0.55445777885E+02 -0.14127075891E+03 -0.11342685301E+04  0.11443761445E+04  0.00000000000E+00 0.  1.
<scales pt_clust_3="31.06152" pt_clust_4="99.79381" pt_clust_5="31.06152" pt_clust_6="152.89800"></scales>
<clustering>
<clus scale="   31.062">  3  5 -1 -1</clus>
<clus scale="   99.794">  1  4  2 -1</clus>
<clus scale="  152.898">  2  6  1 -1</clus>
<clus scale="   99.794">  1  3  2 -1</clus>
</clustering>
</event>
<event>
 6    0  0.4796958E+002  0.1514787E+03  0.7546771E-02  0.1198668E+00
         21   -1    0    0  503  502  0.00000000000E+00  0.00000000000E+00  0.96459979066E+02  0.96459979066E+02  0.00000000000E+00 0. -1.
          1   -1    0    0  505    0 -0.00000000000E+00 -0.00000000000E+00 -0.16737360281E+04  0.16737360281E+04  0.00000000000E+00 0. -1.
         21    1    1    2  503  501  0.64660746872E+01  0.99765126261E+02 -0.42988961952E+02  0.10882527918E+03  0.00000000000E+00 0. -1.
         21    1    1    2  504  502  0.37073036093E+02 -0.85756144566E+01 -0.65772876038E+01  0.38616212666E+02  0.00000000000E+00 0. -1.
         21    1    1    2  505  504 -0.26313818578E+02 -0.23414763348E+03 -0.27645678464E+03  0.36324356166E+03  0.00000000000E+00 0. -1.
          1    1    1    2  501    0 -0.17225292202E+02  0.14295812168E+03 -0.12512530149E+04  0.12595109537E+04  0.00000000000E+00 0. -1.
<scales pt_clust_3="98.65772" pt_clust_4="38.05195" pt_clust_5="14000.00000" pt_clust_6="151.47873"></scales>
<clustering>
<clus scale="   38.052">  1  4  2 -1</clus>
<clus scale="   98.658">  1  3  2 -1</clus>
<clus scale="  151.479">  2  6  1 -1</clus>
<clus scale="   38.052">  1  3  2 -1</clus>
</clustering>
</event>
<event>
 6    0  0.4796958E+002  0.1014487E+03  0.7546771E-02  0.1277279E+00
         21   -1    0    0  505  502  0.00000000000E+00  0.00000000000E+00  0.53270934733E+02  0.53270934733E+02  0.00000000000E+00 0.  1.
          2   -1    0    0  504    0 -0.00000000000E+00 -0.00000000000E+00 -0.12490943999E+04  0.12490943999E+04  0.00000000000E+00 0. -1.
         21    1    1    2  503  501  0.76075465551E+02 -0.75732902126E+01 -0.15010193392E+03  0.16845005714E+03  0.00000000000E+00 0. -1.
         21    1    1    2  504  502 -0.13584676496E+03  0.37972078856E+02 -0.29016932100E+03  0.32263672632E+03  0.00000000000E+00 0.  1.
         21    1    1    2  505  503  0.65196716190E+01 -0.30850227187E+02  0.17723474482E+02  0.36171317134E+02  0.00000000000E+00 0.  1.
          2    1    1    2  501    0  0.53251627792E+02  0.45143854348E+00 -0.77327568477E+03  0.77510723408E+03  0.00000000000E+00 0. -1.
<scales pt_clust_3="14000.00000" pt_clust_4="101.44870" pt_clust_5="31.53161" pt_clust_6="53.48206"></scales>
<clustering>
<clus scale="   31.532">  1  5  2 -1</clus>
<clus scale="   53.482">  2  6  1 -1</clus>
<clus scale="  101.449">  2  4  1 -1</clus>
<clus scale="   31.532">  1  3  2 -1</clus>
</clustering>
</event>
<event>
 6    0  0.4796958E+002  0.1388479E+03  0.7546771E-02  0.1214888E+00
         21   -1    0    0  503  502  0.00000000000E+00  0.00000000000E+00  0.21344519850E+03  0.21344519850E+03  0.00000000000E+00 0.  1.
          2   -1    0    0  505    0 -0.00000000000E+00 -0.00000000000E+00 -0.26243339394E+04  0.26243339394E+04  0.00000000000E+00 0. -1.
         21    1    1    2  503  501 -0.19866022720E+02 -0.24936270750E+02  0.14318629867E+03  0.14669285117E+03  0.00000000000E+00 0.  1.
         21    1    1    2  504  502 -0.90234620523E+02 -0.79945848947E+02 -0.89677409628E+01  0.12088856804E+03  0.00000000000E+00 0. -1.
         21    1    1    2  505  504  0.10882208680E+03  0.62175182365E+02 -0.30585535528E+03  0.33053819482E+03  0.00000000000E+00 0. -1.
          2    1    1    2  501    0  0.12785564390E+01  0.42706937332E+02 -0.22392519433E+04  0.22396595239E+04  0.00000000000E+00 0. -1.
<scales pt_clust_3="31.88223" pt_clust_4="138.84791" pt_clust_5="14000.00000" pt_clust_6="42.65019"></scales>
<clustering>
<clus scale="   31.882">  1  3  2 -1</clus>
<clus scale="   42.650">  2  6  1 -1</clus>
<clus scale="  138.848">  1  4  2 -1</clus>
<clus scale="   31.882">  1  3  2 -1</clus>
</clustering>
</event>
<event>
 6    0  0.4796958E+002  0.8525790E+02  0.7546771E-02  0.1314759E+00
         21   -1    0    0  505  502  0.00000000000E+00  0.00000000000E+00  0.66522196871E+02  0.66522196871E+02  0.00000000000E+00 0.  1.
         -3   -1    0    0    0  501 -0.00000000000E+00 -0.00000000000E+00 -0.16866854347E+04  0.16866854347E+04  0.00000000000E+00 0.  1.
         21    1    1    2  503  504  0.41568855759E+02 -0.13114295468E+02 -0.16550429376E+03  0.17114796454E+03  0.00000000000E+00 0.  1.
         21    1    1    2  504  502 -0.96040978708E+02 -0.73627813064E+02 -0.38568747031E+03  0.40422734841E+03  0.00000000000E+00 0.  1.
         21    1    1    2  505  501  0.16082213113E+02  0.83027252986E+02  0.21032170293E+02  0.87146511716E+02  0.00000000000E+00 0.  1.
         -3    1    1    2    0  503  0.38389909836E+02  0.37148555462E+01 -0.10900036440E+04  0.10906858069E+04  0.00000000000E+00 0.  1.
<scales pt_clust_3="53.77605" pt_clust_4="85.25790" pt_clust_5="14000.00000" pt_clust_6="38.56923"></scales>
<clustering>
<clus scale="   38.569">  2  6  1 -1</clus>
<clus scale="   53.776">  2  3  1 -1</clus>
<clus scale="   85.258">  2  4  1 -1</clus>
<clus scale="   85.258">  1  3  2 -1</clus>
</clustering>
</event>
<event>
 6    0  0.4796958E+002  0.1237366E+03  0.7546771E-02  0.1237057E+00
         21   -1    0    0  503  502  0.00000000000E+00  0.00000000000E+00  0.55514255829E+02  0.55514255829E+02  0.00000000000E+00 0.  1.
          2   -1    0    0  505    0 -0.00000000000E+00 -0.00000000000E+00 -0.18869844109E+04  0.18869844109E+04  0.00000000000E+00 0. -1.
         21    1    1    2  503  501  0.20480612859E+02 -0.52743249394E+02 -0.46295494764E+03  0.46639960270E+03  0.00000000000E+00 0. -1.
         21    1    1    2  504  502 -0.58218674214E+02  0.12520126367E+03 -0.50933682610E+02  0.14717000535E+03  0.00000000000E+00 0.  1.
         21    1    1    2  505  504 -0.33423227086E+01 -0.57944256971E+02 -0.15466658844E+03  0.16519824944E+03  0.00000000000E+00 0.  1.
          2    1    1    2  501    0  0.41080384064E+02 -0.14513757301E+02 -0.11629149364E+04  0.11637308093E+04  0.00000000000E+00 0. -1.
<scales pt_clust_3="123.73663" pt_clust_4="14000.00000" pt_clust_5="61.42035" pt_clust_6="43.56888"></scales>
<clustering>
<clus scale="   43.569">  2  6  1 -1</clus>
<clus scale="   61.420">  2  5  1 -1</clus>
<clus scale="  123.737">  2  3  1 -1</clus>
<clus scale="  123.737">  1  3  2 -1</clus>
</clustering>
</event>
<event>
 6    0  0.4796958E+002  0.1025949E+03  0.7546771E-02  0.1274932E+00
         21   -1    0    0  504  502  0.00000000000E+00  0.00000000000E+00  0.23380329476E+03  0.23380329476E+03  0.00000000000E+00 0.  1.
          2   -1    0    0  503    0 -0.00000000000E+00 -0.00000000000E+00 -0.85164307299E+03  0.85164307299E+03  0.00000000000E+00 0.  1.
         21    1    1    2  503  505  0.28649021461E+02  0.12835752199E+03 -0.14353806538E+03  0.19467818598E+03  0.00000000000E+00 0. -1.
         21    1    1    2  504  501 -0.43744666035E+02 -0.67655029975E+02 -0.54453750166E+02  0.97242016611E+02  0.00000000000E+00 0. -1.
         21    1    1    2  505  502 -0.10052030772E+02 -0.41869102358E+02  0.18394440208E+03  0.18891693443E+03  0.00000000000E+00 0.  1.
          2    1    1    2  501    0  0.25147675347E+02 -0.18833389661E+02 -0.60379236477E+03  0.60460923074E+03  0.00000000000E+00 0.  1.
<scales pt_clust_3="14000.00000" pt_clust_4="102.59486" pt_clust_5="43.18485" pt_clust_6="31.41818"></scales>
<clustering>
<clus scale="   31.418">  2  6  1 -1</clus>
<clus scale="   43.185">  1  5  2 -1</clus>
<clus scale="  102.595">  2  4  1 -1</clus>
<clus scale="   43.185">  1  3  2 -1</clus>
</clustering>
</event>
<event>
 6    0  0.4796958E+002  0.1162248E+03  0.7546771E-02  0.1249458E+00
         21   -1    0    0  501  502  0.00000000000E+00  0.00000000000E+00  0.50612505170E+03  0.50612505170E+03  0.00000000000E+00 0.  1.
          1   -1    0    0  504    0 -0.00000000000E+00 -0.00000000000E+00 -0.11543949672E+04  0.11543949672E+04  0.00000000000E+00 0. -1.
         21    1    1    2  503  505  0.90159522106E+02  0.33741753006E+02  0.17289311722E+03  0.19788702662E+03  0.00000000000E+00 0. -1.
         21    1    1    2  504  503 -0.36002874118E+00  0.36300569334E+02 -0.47099088078E+03  0.47238783932E+03  0.00000000000E+00 0. -1.
         21    1    1    2  505  502  0.26491027764E+02 -0.25144169586E+02  0.31316953008E+03  0.31529217940E+03  0.00000000000E+00 0.  1.
          1    1    1    2  501    0 -0.11629052113E+03 -0.44898152754E+02 -0.66334168197E+03  0.67495297353E+03  0.00000000000E+00 0. -1.
<scales pt_clust_3="116.22482" pt_clust_4="36.30235" pt_clust_5="36.48478" pt_clust_6="14000.00000"></scales>
<clustering>
<clus scale="   36.302">  2  4  1 -1</clus>
<clus scale="   36.485">  1  5  2 -1</clus>
<clus scale="  116.225">  1  3  2 -1</clus>
<clus scale="   36.485">  1  3  2 -1</clus>
</clustering>
</event>
<event>
 6    0  0.4796958E+002  0.1219799E+03  0.7546771E-02  0.1239866E+00
         21   -1    0    0  503  502  0.00000000000E+00  0.00000000000E+00  0.28210424009E+03  0.28210424009E+03  0.00000000000E+00 0.  1.
         -3   -1    0    0    0  501 -0.00000000000E+00 -0.00000000000E+00 -0.15146158520E+04  0.15146158520E+04  0.00000000000E+00 0. -1.
         21    1    1    2  503  505 -0.33449490181E+02  0.63345381193E+01  0.70473227818E+01  0.34765780949E+02  0.00000000000E+00 0.  1.
         21    1    1    2  504  502  0.10278592488E+03 -0.15236219340E+02 -0.16222168830E+03  0.19264725508E+03  0.00000000000E+00 0.  1.
         21    1    1    2  505  501 -0.84015191475E+02  0.44416466642E+02  0.23651468077E+03  0.25489325045E+03  0.00000000000E+00 0.  1.
         -3    1    1    2    0  504  0.14678756775E+02 -0.35514785422E+02 -0.13138519272E+04  0.13144138056E+04  0.00000000000E+00 0. -1.
<scales pt_clust_3="34.04401" pt_clust_4="121.97988" pt_clust_5="14000.00000" pt_clust_6="38.40868"></scales>
<clustering>
<clus scale="   34.044">  1  3  2 -1</clus>
<clus scale="   38.409">  2  6  1 -1</clus>
<clus scale="  121.980">  2  4  1 -1</clus>
<clus scale="   34.044">  1  3  2 -1</clus>
</clustering>
</event>
<event>
 6    0  0.4796958E+002  0.9402564E+02  0.7546771E-02  0.1293386E+00
         21   -1    0    0  505  502  0.00000000000E+00  0.00000000000E+00  0.10920744954E+03  0.10920744954E+03  0.00000000000E+00 0. -1.
          2   -1    0    0  504    0 -0.00000000000E+00 -0.00000000000E+00 -0.75987130138E+03  0.75987130138E+03  0.00000000000E+00 0.  1.
         21    1    1    2  503  501  0.37818893321E+02 -0.10422475564E+03  0.40047979018E+02  0.11788515176E+03  0.00000000000E+00 0. -1.
         21    1    1    2  504  502 -0.11949354884E+02  0.37752575935E+02 -0.31042842555E+02  0.50316022754E+02  0.00000000000E+00 0. -1.
         21    1    1    2  505  503 -0.24801141871E+02 -0.27089661254E+02 -0.22106985764E+01  0.36794477482E+02  0.00000000000E+00 0.  1.
          2    1    1    2  501    0 -0.10683965661E+01  0.93561840964E+02 -0.65745828972E+03  0.66408309893E+03  0.00000000000E+00 0.  1.
<scales pt_clust_3="94.02564" pt_clust_4="37.82286" pt_clust_5="36.72801" pt_clust_6="14000.00000"></scales>
<clustering>
<clus scale="   36.728">  1  5  2 -1</clus>
<clus scale="   37.823">  1  4  2 -1</clus>
<clus scale="   94.026">  1  3  2 -1</clus>
<clus scale="   36.728">  1  3  2 -1</clus>
</clustering>
</event>
<event>
 6    0  0.4796958E+002  0.1054398E+03  0.7546771E-02  0.1269256E+00
          2   -1    0    0  503    0 -0.00000000000E+00  0.00000000000E+00  0.22983982130E+03  0.22983982130E+03  0.00000000000E+00 0. -1.
         21   -1    0    0  505  502  0.00000000000E+00 -0.00000000000E+00 -0.87063592272E+03  0.87063592272E+03  0.00000000000E+00 0. -1.
         21    1    1    2  503  502  0.33018699804E+02  0.74947781597E+02 -0.73223838508E+03  0.73680421897E+03  0.00000000000E+00 0. -1.
         21    1    1    2  504  501  0.16636421503E+02 -0.13773436042E+03  0.21619506497E+02  0.14040985585E+03  0.00000000000E+00 0. -1.
         21    1    1    2  505  504 -0.79839028830E+02  0.44023673738E+02 -0.45992486243E+02  0.10211593002E+03  0.00000000000E+00 0. -1.
          2    1    1    2  501    0  0.30183907523E+02  0.18762905083E+02  0.11581526341E+03  0.12114573917E+03  0.00000000000E+00 0. -1.
<scales pt_clust_3="82.50124" pt_clust_4="105.43977" pt_clust_5="14000.00000" pt_clust_6="35.54033"></scales>
<clustering>
<clus scale="   35.540">  1  6  2 -1</clus>
<clus scale="   82.501">  2  3  1 -1</clus>
<clus scale="  105.440">  1  4  2 -1</clus>
<clus scale="   82.501">  2  3  1 -1</clus>
</clustering>
</event>
<event>
 6    0  0.4796958E+002  0.1692012E+03  0.7546771E-02  0.1178683E+00
          2   -1    0    0  504    0 -0.00000000000E+00  0.00000000000E+00  0.11903011954E+04  0.11903011954E+04  0.00000000000E+00 0. -1.
         21   -1    0    0  501  502  0.00000000000E+00 -0.00000000000E+00 -0.99632960504E+02  0.99632960504E+02  0.00000000000E+00 0.  1.
         21    1    1    2  503  502 -0.54874616402E+02  0.13809892377E+02  0.70579453219E+01  0.57024128620E+02  0.00000000000E+00 0.  1.
         21    1    1    2  504  505 -0.43039773300E+02 -0.24948047214E+03  0.46130209962E+03  0.52620581066E+03  0.00000000000E+00 0. -1.
         21    1    1    2  505  503  0.35414869877E+02  0.13517745106E+03  0.10173818942E+03  0.17285200453E+03  0.00000000000E+00 0.  1.
          2    1    1    2  501    0  0.62499519825E+02  0.10049312870E+03  0.52057000049E+03  0.53385221205E+03  0.00000000000E+00 0. -1.
<scales pt_clust_3="56.58566" pt_clust_4="14000.00000" pt_clust_5="169.20120" pt_clust_6="116.90639"></scales>
<clustering>
<clus scale="   56.586">  2  3  1 -1</clus>
<clus scale="  116.906">  1  6  2 -1</clus>
<clus scale="  169.201">  2  5  1 -1</clus>
<clus scale="   56.586">  2  3  1 -1</clus>
</clustering>
</event>
<event>
 6    0  0.4796958E+002  0.1048208E+03  0.7546771E-02  0.1270473E+00
          2   -1    0    0  503    0 -0.00000000000E+00  0.00000000000E+00  0.30492061424E+04  0.30492061424E+04  0.00000000000E+00 0.  1.
         21   -1    0    0  504  502  0.00000000000E+00 -0.00000000000E+00 -0.38912215953E+02  0.38912215953E+02  0.00000000000E+00 0. -1.
         21    1    1    2  503  505  0.12992625306E+02 -0.70025324821E+02  0.65721695112E+03  0.66106465286E+03  0.00000000000E+00 0. -1.
         21    1    1    2  504  501  0.86057658350E+02 -0.32032392714E+02  0.10271422194E+03  0.13777592726E+03  0.00000000000E+00 0. -1.
         21    1    1    2  505  502 -0.10840426238E+03  0.73158365475E+02  0.20169018511E+03  0.24038003518E+03  0.00000000000E+00 0. -1.
          2    1    1    2  501    0  0.93539787279E+01  0.28899352059E+02  0.20486725683E+04  0.20488977431E+04  0.00000000000E+00 0.  1.
<scales pt_clust_3="54.46437" pt_clust_4="14000.00000" pt_clust_5="104.82084" pt_clust_6="30.37547"></scales>
<clustering>
<clus scale="   30.375">  1  6  2 -1</clus>
<clus scale="   54.464">  1  3  2 -1</clus>
<clus scale="  104.821">  1  5  2 -1</clus>
<clus scale="  104.821">  2  3  1 -1</clus>
</clustering>
</event>
<event>
 6    0  0.4796958E+002  0.1033239E+03  0.7546771E-02  0.1273457E+00
          2   -1    0    0  504    0 -0.00000000000E+00  0.00000000000E+00  0.13885804865E+04  0.13885804865E+04  0.00000000000E+00 0. -1.
         21   -1    0    0  503  502  0.00000000000E+00 -0.00000000000E+00 -0.67607521112E+03  0.67607521112E+03  0.00000000000E+00 0. -1.
         21    1    1    2  503  505  0.14511103644E+02  0.27169888273E+02 -0.50178446393E+03  0.50272897589E+03  0.00000000000E+00 0. -1.
         21    1    1    2  504  502 -0.30931061149E+02  0.46272779055E+02 -0.37124341212E+02  0.66903791639E+02  0.00000000000E+00 0. -1.
         21    1    1    2  505  501  0.10984262445E+03 -0.28677678441E+02 -0.92919835033E+02  0.14670346666E+03  0.00000000000E+00 0. -1.
          2    1    1    2  501    0 -0.93422666944E+02 -0.44764988886E+02  0.13443339155E+04  0.13483194634E+04  0.00000000000E+00 0. -1.
<scales pt_clust_3="30.80219" pt_clust_4="60.55301" pt_clust_5="14000.00000" pt_clust_6="103.32392"></scales>
<clustering>
<clus scale="   30.802">  2  3  1 -1</clus>
<clus scale="   60.553">  2  4  1 -1</clus>
<clus scale="  103.324">  1  6  2 -1</clus>
<clus scale="   30.802">  2  3  1 -1</clus>
</clustering>
</event>
<event>
 6    0  0.4796958E+002  0.9831381E+02  0.7546771E-02  0.1283882E+00
          1   -1    0    0  503    0 -0.00000000000E+00  0.00000000000E+00  0.13636621600E+04  0.13636621600E+04  0.00000000000E+00 0. -1.
         21   -1    0    0  504  502  0.00000000000E+00 -0.00000000000E+00 -0.98502556718E+02  0.98502556718E+02  0.00000000000E+00 0. -1.
         21    1    1    2  503  502 -0.45539894105E+02 -0.12490280605E+03 -0.32736903635E+01  0.13298612696E+03  0.00000000000E+00 0. -1.
         21    1    1    2  504  505  0.15342583969E+02  0.32829425589E+02  0.24965389624E+02  0.44004962748E+02  0.00000000000E+00 0. -1.
         21    1    1    2  505  501  0.40611794961E+02 -0.50774227289E+01  0.31889611845E+01  0.41052010730E+02  0.00000000000E+00 0. -1.
          1    1    1    2  501    0 -0.10414484825E+02  0.97150803192E+02  0.12402789428E+04  0.12441216163E+04  0.00000000000E+00 0. -1.
<scales pt_clust_3="98.31381" pt_clust_4="36.23763" pt_clust_5="43.91744" pt_clust_6="14000.00000"></scales>
<clustering>
<clus scale="   36.238">  2  4  1 -1</clus>
<clus scale="   43.917">  2  5  1 -1</clus>
<clus scale="   98.314">  2  3  1 -1</clus>
<clus scale="   36.238">  2  3  1 -1</clus>
</clustering>
</event>
<event>
 6    0  0.4796958E+002  0.8940707E+02  0.7546771E-02  0.1304294E+00
         21   -1    0    0  504  502  0.00000000000E+00  0.00000000000E+00  0.66160249023E+03  0.66160249023E+03  0.00000000000E+00 0.  1.
          2   -1    0    0  505    0 -0.00000000000E+00 -0.00000000000E+00 -0.10063084930E+04  0.10063084930E+04  0.00000000000E+00 0.  1.
         21    1    1    2  503  501 -0.38480445057E+02  0.83260851910E+02  0.13379404689E+02  0.92693703035E+02  0.00000000000E+00 0.  1.
         21    1    1    2  504  503  0.92154749655E+01  0.34256034931E+02  0.72246847680E+02  0.80486072756E+02  0.00000000000E+00 0.  1.
         21    1    1    2  505  502 -0.86338604051E+01 -0.12089058802E+03  0.52491565600E+03  0.53872583354E+03  0.00000000000E+00 0.  1.
          2    1    1    2  501    0  0.37898830496E+02  0.33737011771E+01 -0.95524791109E+03  0.95600537386E+03  0.00000000000E+00 0.  1.
<scales pt_clust_3="14000.00000" pt_clust_4="35.47395" pt_clust_5="89.40707" pt_clust_6="38.05661"></scales>
<clustering>
<clus scale="   35.474">  1  4  2 -1</clus>
<clus scale="   38.057">  2  6  1 -1</clus>
<clus scale="   89.407">  1  5  2 -1</clus>
<clus scale="   35.474">  1  3  2 -1</clus>
</clustering>
</event>
<event>
 6    0  0.4796958E+002  0.8097042E+02  0.7546771E-02  0.1326320E+00
         -1   -1    0    0    0  501 -0.00000000000E+00  0.00000000000E+00  0.26650439922E+03  0.26650439922E+03  0.00000000000E+00 0.  1.
         21   -1    0    0  505  502  0.00000000000E+00 -0.00000000000E+00 -0.27439380919E+03  0.27439380919E+03  0.00000000000E+00 0.  1.
         21    1    1    2  503  501  0.62210482207E+02  0.24127895906E+02  0.88110338977E+02  0.11052479944E+03  0.00000000000E+00 0.  1.
         21    1    1    2  504  502 -0.69955362175E+02 -0.51821559526E+02 -0.12538350333E+03  0.15264419293E+03  0.00000000000E+00 0.  1.
         21    1    1    2  505  503  0.47155428908E+02 -0.34606414069E+02 -0.10742853378E+03  0.12231977861E+03  0.00000000000E+00 0.  1.
         -1    1    1    2    0  504 -0.39410548940E+02  0.62300077689E+02  0.13681228817E+03  0.15540943743E+03  0.00000000000E+00 0.  1.
<scales pt_clust_3="69.02219" pt_clust_4="80.97042" pt_clust_5="58.49135" pt_clust_6="14000.00000"></scales>
<clustering>
<clus scale="   58.491">  2  5  1 -1</clus>
<clus scale="   69.022">  1  3  2 -1</clus>
<clus scale="   80.970">  2  4  1 -1</clus>
<clus scale="   58.491">  2  3  1 -1</clus>
</clustering>
</event>
<event>
 6    0  0.4796958E+002  0.1196289E+03  0.7546771E-02  0.1243711E+00
          3   -1    0    0  504    0 -0.00000000000E+00  0.00000000000E+00  0.61952972294E+03  0.61952972294E+03  0.00000000000E+00 0. -1.
         21   -1    0    0  505  502  0.00000000000E+00 -0.00000000000E+00 -0.26972090181E+03  0.26972090181E+03  0.00000000000E+00 0.  1.
         21    1    1    2  503  502 -0.48324813654E+02  0.12249718011E+03 -0.16508378068E+03  0.21117173436E+03  0.00000000000E+00 0.  1.
         21    1    1    2  504  503 -0.62314819843E+02 -0.18991063952E+02  0.58755876965E+02  0.87727135825E+02  0.00000000000E+00 0.  1.
         21    1    1    2  505  501  0.10421667019E+03 -0.50094465868E+02 -0.14601586038E+02  0.11654945805E+03  0.00000000000E+00 0.  1.
          3    1    1    2  501    0  0.64229633084E+01 -0.53411650290E+02  0.47073831089E+03  0.47380229652E+03  0.00000000000E+00 0. -1.
<scales pt_clust_3="119.62889" pt_clust_4="74.63621" pt_clust_5="14000.00000" pt_clust_6="53.79646"></scales>
<clustering>
<clus scale="   53.796">  1  6  2 -1</clus>
<clus scale="   74.636">  1  4  2 -1</clus>
<clus scale="  119.629">  2  3  1 -1</clus>
<clus scale="  119.629">  2  3  1 -1</clus>
</clustering>
</event>
<event>
 6    0  0.4796958E+002  0.1406933E+03  0.7546771E-02  0.1212399E+00
         21   -1    0    0  505  502  0.00000000000E+00  0.00000000000E+00  0.48854550457E+03  0.48854550457E+03  0.00000000000E+00 0.  1.
          1   -1    0    0  504    0 -0.00000000000E+00 -0.00000000000E+00 -0.49471895682E+03  0.49471895682E+03  0.00000000000E+00 0.  1.
         21    1    1    2  503  502 -0.36045306099E+01 -0.56594629164E+02  0.66498221735E+02  0.87395412838E+02  0.00000000000E+00 0.  1.
         21    1    1    2  504  503 -0.28069102111E+02 -0.11940865831E+03  0.44859808784E+00  0.12266418962E+03  0.00000000000E+00 0.  1.
         21    1    1    2  505  501  0.11240776327E+01  0.34966176363E+02  0.33680683740E+03  0.33861887537E+03  0.00000000000E+00 0.  1.
          1    1    1    2  501    0  0.30549555088E+02  0.14103711112E+03 -0.40992710947E+03  0.43458598356E+03  0.00000000000E+00 0.  1.
<scales pt_clust_3="38.87509" pt_clust_4="14000.00000" pt_clust_5="34.98424" pt_clust_6="140.69327"></scales>
<clustering>
<clus scale="   34.984">  1  5  2 -1</clus>
<clus scale="   38.875">  1  3  2 -1</clus>
<clus scale="  140.693">  2  6  1 -1</clus>
<clus scale="   34.984">  1  3  2 -1</clus>
</clustering>
</event>
<event>
 6    0  0.4796958E+002  0.8913532E+02  0.7546771E-02  0.1304959E+00
          1   -1    0    0  504    0 -0.00000000000E+00  0.00000000000E+00  0.71818576901E+03  0.71818576901E+03  0.00000000000E+00 0.  1.
         21   -1    0    0  505  502  0.00000000000E+00 -0.00000000000E+00 -0.83295552258E+02  0.83295552258E+02  0.00000000000E+00 0. -1.
         21    1    1    2  503  502 -0.34413666507E+02 -0.43207060773E+02 -0.14771658840E+01  0.55256968449E+02  0.00000000000E+00 0. -1.
         21    1    1    2  504  503 -0.58329377569E+02  0.26599740715E+02 -0.25104998316E+02  0.68848554336E+02  0.00000000000E+00 0. -1.
         21    1    1    2  505  501  0.91246330373E+02  0.49407098070E+02  0.37714660766E+03  0.39116047578E+03  0.00000000000E+00 0.  1.
          1    1    1    2  501    0  0.14967137021E+01 -0.32799778013E+02  0.28432577330E+03  0.28621532271E+03  0.00000000000E+00 0.  1.
<scales pt_clust_3="56.78876" pt_clust_4="89.13532" pt_clust_5="14000.00000" pt_clust_6="32.83391"></scales>
<clustering>
<clus scale="   32.834">  1  6  2 -1</clus>
<clus scale="   56.789">  2  3  1 -1</clus>
<clus scale="   89.135">  2  4  1 -1</clus>
<clus scale="   56.789">  2  3  1 -1</clus>
</clustering>
</event>
<event>
 6    0  0.4796958E+002  0.9197546E+02  0.7546771E-02  0.1298137E+00
          2   -1    0    0  505    0 -0.00000000000E+00  0.00000000000E+00  0.19161208268E+04  0.19161208268E+04  0.00000000000E+00 0.  1.
         21   -1    0    0  504  502  0.00000000000E+00 -0.00000000000E+00 -0.10748205659E+03  0.10748205659E+03  0.00000000000E+00 0. -1.
         21    1    1    2  503  501 -0.18061899726E+03 -0.39740966948E+02  0.22225488979E+03  0.28913630464E+03  0.00000000000E+00 0. -1.
         21    1    1    2  504  503  0.37239099246E+02 -0.47138045563E+02 -0.47987256616E+02  0.76886426954E+02  0.00000000000E+00 0. -1.
         21    1    1    2  505  502  0.56765592234E+02  0.70017320769E+02  0.18770791942E+03  0.20822828982E+03  0.00000000000E+00 0. -1.
          2    1    1    2  501    0  0.86614305781E+02  0.16861691742E+02  0.14466632176E+04  0.14493518620E+04  0.00000000000E+00 0.  1.
<scales pt_clust_3="14000.00000" pt_clust_4="60.07284" pt_clust_5="88.15576" pt_clust_6="91.97546"></scales>
<clustering>
<clus scale="   60.073">  2  4  1 -1</clus>
<clus scale="   88.156">  2  5  1 -1</clus>
<clus scale="   91.975">  1  6  2 -1</clus>
<clus scale="   60.073">  2  3  1 -1</clus>
</clustering>
</event>
<event>
 6    0  0.4796958E+002  0.1834343E+03  0.7546771E-02  0.1164520E+00
          2   -1    0    0  504    0 -0.00000000000E+00  0.00000000000E+00  0.28943710453E+04  0.28943710453E+04  0.00000000000E+00 0.  1.
         21   -1    0    0  505  502  0.00000000000E+00 -0.00000000000E+00 -0.20456278166E+03  0.20456278166E+03  0.00000000000E+00 0.  1.
         21    1    1    2  503  502 -0.24794967581E+02  0.34738190049E+02 -0.95899065839E+02  0.10496743826E+03  0.00000000000E+00 0.  1.
         21    1    1    2  504  503 -0.46821287896E+01  0.77742116772E+02 -0.65851192433E+02  0.10199087506E+03  0.00000000000E+00 0.  1.
         21    1    1    2  505  501 -0.11193115715E+03 -0.77787853613E+01  0.16426140829E+03  0.19892436677E+03  0.00000000000E+00 0.  1.
          2    1    1    2  501    0  0.14140825352E+03 -0.10470152146E+03  0.26872971137E+04  0.26930511469E+04  0.00000000000E+00 0.  1.
<scales pt_clust_3="41.53335" pt_clust_4="41.53335" pt_clust_5="112.20113" pt_clust_6="174.64328"></scales>
<clustering>
<clus scale="   41.533">  3  4 -1 -1</clus>
<clus scale="  112.201">  2  5  1 -1</clus>
<clus scale="  174.643">  1  6  2 -1</clus>
<clus scale="  112.201">  2  3  1 -1</clus>
</clustering>
</event>
<event>
 6    0  0.4796958E+002  0.9688345E+02  0.7546771E-02  0.1286990E+00
         21   -1    0    0  504  502  0.00000000000E+00  0.00000000000E+00  0.97062967695E+03  0.97062967695E+03  0.00000000000E+00 0. -1.
          2   -1    0    0  503    0 -0.00000000000E+00 -0.00000000000E+00 -0.12371760855E+04  0.12371760855E+04  0.00000000000E+00 0.  1.
         21    1    1    2  503  502 -0.77753104712E+02 -0.79442833273E+01  0.63371910301E+03  0.63852060143E+03  0.00000000000E+00 0. -1.
         21    1    1    2  504  505 -0.13332649615E+02  0.46234312134E+02  0.79014662535E+02  0.92513177763E+02  0.00000000000E+00 0. -1.
         21    1    1    2  505  501  0.75809265012E+02 -0.11458374340E+03  0.22842636519E+03  0.26656159369E+03  0.00000000000E+00 0.  1.
          2    1    1    2  501    0  0.15276489316E+02  0.76293714591E+02 -0.12077065393E+04  0.12102103896E+04  0.00000000000E+00 0.  1.
<scales pt_clust_3="96.88345" pt_clust_4="48.11830" pt_clust_5="14000.00000" pt_clust_6="77.86855"></scales>
<clustering>
<clus scale="   48.118">  1  4  2 -1</clus>
<clus scale="   77.869">  2  6  1 -1</clus>
<clus scale="   96.883">  1  3  2 -1</clus>
<clus scale="   48.118">  1  3  2 -1</clus>
</clustering>
</event>
<event>
 6    0  0.4796958E+002  0.7980131E+02  0.7546771E-02  0.1329616E+00
          1   -1    0    0  503    0 -0.00000000000E+00  0.00000000000E+00  0.44040792408E+03  0.44040792408E+03  0.00000000000E+00 0.  1.
         21   -1    0    0  504  502  0.00000000000E+00 -0.00000000000E+00 -0.24511218182E+03  0.24511218182E+03  0.00000000000E+00 0.  1.
         21    1    1    2  503  505  0.74550855764E+02  0.49661529806E+02  0.86520220492E+00  0.89581505975E+02  0.00000000000E+00 0.  1.
         21    1    1    2  504  501 -0.58279582329E+02 -0.68805827634E+02 -0.33477173020E+02  0.96184576447E+02  0.00000000000E+00 0.  1.
         21    1    1    2  505  502  0.53008166478E+01  0.40779400839E+02 -0.13215101098E+03  0.13840140134E+03  0.00000000000E+00 0.  1.
          1    1    1    2  501    0 -0.21572090083E+02 -0.21635103011E+02  0.36005872406E+03  0.36135262214E+03  0.00000000000E+00 0.  1.
<scales pt_clust_3="14000.00000" pt_clust_4="79.80131" pt_clust_5="40.17881" pt_clust_6="30.55213"></scales>
<clustering>
<clus scale="   30.552">  1  6  2 -1</clus>
<clus scale="   40.179">  2  5  1 -1</clus>
<clus scale="   79.801">  2  4  1 -1</clus>
<clus scale="   40.179">  2  3  1 -1</clus>
</clustering>
</event>
<event>
 6    0  0.4796958E+002  0.9869462E+02  0.7546771E-02  0.1283065E+00
         21   -1    0    0  504  502  0.00000000000E+00  0.00000000000E+00  0.11632115427E+04  0.11632115427E+04  0.00000000000E+00 0. -1.
          2   -1    0    0  503    0 -0.00000000000E+00 -0.00000000000E+00 -0.23393369940E+04  0.23393369940E+04  0.00000000000E+00 0.  1.
         21    1    1    2  503  502  0.26345641309E+02 -0.15540427385E+02  0.14741778477E+03  0.15055763337E+03  0.00000000000E+00 0.  1.
         21    1    1    2  504  505 -0.41833148090E+02 -0.35668479750E+02  0.10049332409E+04  0.10064358258E+04  0.00000000000E+00 0. -1.
         21    1    1    2  505  501 -0.62273787275E+02  0.10720886658E+03 -0.52134487846E+03  0.53588454722E+03  0.00000000000E+00 0. -1.
          2    1    1    2  501    0  0.77761294056E+02 -0.55999959448E+02 -0.18071315985E+04  0.18096705304E+04  0.00000000000E+00 0.  1.
<scales pt_clust_3="30.58754" pt_clust_4="53.43923" pt_clust_5="14000.00000" pt_clust_6="98.69462"></scales>
<clustering>
<clus scale="   30.588">  1  3  2 -1</clus>
<clus scale="   53.439">  1  4  2 -1</clus>
<clus scale="   98.695">  2  6  1 -1</clus>
<clus scale="   30.588">  1  3  2 -1</clus>
</clustering>
</event>
<event>
 6    0  0.4796958E+002  0.1685136E+03  0.7546771E-02  0.1179407E+00
          2   -1    0    0  503    0 -0.00000000000E+00  0.00000000000E+00  0.13658417731E+04  0.13658417731E+04  0.00000000000E+00 0. -1.
         21   -1    0    0  505  502  0.00000000000E+00 -0.00000000000E+00 -0.21252377036E+03  0.21252377036E+03  0.00000000000E+00 0.  1.
         21    1    1    2  503  504  0.48214416899E+02 -0.26076887236E+02 -0.85901383370E+01  0.55483551810E+02  0.00000000000E+00 0.  1.
         21    1    1    2  504  502 -0.12002425672E+02 -0.28737910434E+02 -0.85893307632E+02  0.91365124714E+02  0.00000000000E+00 0.  1.
         21    1    1    2  505  501 -0.16263164676E+03  0.16023325711E+03  0.65086958634E+02  0.23740274092E+03  0.00000000000E+00 0.  1.
          2    1    1    2  501    0  0.12641965553E+03 -0.10541845944E+03  0.11827144901E+04  0.11941141260E+04  0.00000000000E+00 0. -1.
<scales pt_clust_3="56.19404" pt_clust_4="31.14363" pt_clust_5="14000.00000" pt_clust_6="168.51361"></scales>
<clustering>
<clus scale="   31.144">  2  4  1 -1</clus>
<clus scale="   56.194">  2  3  1 -1</clus>
<clus scale="  168.514">  1  6  2 -1</clus>
<clus scale="   31.144">  2  3  1 -1</clus>
</clustering>
</event>
<event>
 6    0  0.4796958E+002  0.1261906E+03  0.7546771E-02  0.1233220E+00
         21   -1    0    0  501  502  0.00000000000E+00  0.00000000000E+00  0.55336963249E+03  0.55336963249E+03  0.00000000000E+00 0. -1.
          2   -1    0    0  505    0 -0.00000000000E+00 -0.00000000000E+00 -0.32844360822E+04  0.32844360822E+04  0.00000000000E+00 0. -1.
         21    1    1    2  503  502  0.15003307325E+02 -0.42430485379E+02  0.49101920500E+03  0.49307738236E+03  0.00000000000E+00 0. -1.
         21    1    1    2  504  503 -0.13407121437E+03  0.83617458296E+02 -0.48780545936E+02  0.16536780677E+03  0.00000000000E+00 0.  1.
         21    1    1    2  505  504  0.90073847612E+02 -0.66363779492E+02 -0.10950370642E+04  0.11007377622E+04  0.00000000000E+00 0.  1.
          2    1    1    2  501    0  0.28994059429E+02  0.25176806575E+02 -0.20782680446E+04  0.20786227634E+04  0.00000000000E+00 0. -1.
<scales pt_clust_3="44.99295" pt_clust_4="14000.00000" pt_clust_5="126.19056" pt_clust_6="38.39957"></scales>
<clustering>
<clus scale="   38.400">  2  6  1 -1</clus>
<clus scale="   44.993">  1  3  2 -1</clus>
<clus scale="  126.191">  2  5  1 -1</clus>
<clus scale="   44.993">  1  3  2 -1</clus>
</clustering>
</event>
<event>
 6    0  0.4796958E+002  0.7617322E+02  0.7546771E-02  0.1340276E+00
          1   -1    0    0  503    0 -0.00000000000E+00  0.00000000000E+00  0.20920115110E+04  0.20920115110E+04  0.00000000000E+00 0.  1.
         21   -1    0    0  504  502  0.00000000000E+00 -0.00000000000E+00 -0.29094938448E+02  0.29094938448E+02  0.00000000000E+00 0.  1.
         21    1    1    2  503  505  0.39432552534E+02  0.70976661142E+02  0.27168364479E+03  0.28355707621E+03  0.00000000000E+00 0.  1.
         21    1    1    2  504  501 -0.30724272025E+02  0.53994214373E+02  0.38130674811E+03  0.38633430113E+03  0.00000000000E+00 0.  1.
         21    1    1    2  505  502  0.30780083094E+01 -0.77271769326E+02  0.53816971776E+02  0.94216065090E+02  0.00000000000E+00 0.  1.
          1    1    1    2  501    0 -0.11786288818E+02 -0.47699106189E+02  0.13561092078E+04  0.13569990070E+04  0.00000000000E+00 0.  1.
<scales pt_clust_3="14000.00000" pt_clust_4="46.97506" pt_clust_5="76.17322" pt_clust_6="49.13371"></scales>
<clustering>
<clus scale="   49.134">  1  6  2 -1</clus>
<clus scale="   46.975">  1  4  2 -1</clus>
<clus scale="   76.173">  2  5  1 -1</clus>
<clus scale="   76.173">  2  3  1 -1</clus>
</clustering>
</event>
<event>
 6    0  0.4796958E+002  0.1403220E+03  0.7546771E-02  0.1212896E+00
         21   -1    0    0  505  502  0.00000000000E+00  0.00000000000E+00  0.30755696647E+02  0.30755696647E+02  0.00000000000E+00 0.  1.
          2   -1    0    0  504    0 -0.00000000000E+00 -0.00000000000E+00 -0.25044968338E+04  0.25044968338E+04  0.00000000000E+00 0.  1.
         21    1    1    2  503  502 -0.54224299940E+01  0.49791980869E+02 -0.35199647254E+02  0.61218128627E+02  0.00000000000E+00 0.  1.
         21    1    1    2  504  503  0.10412347633E+03  0.12908550678E+03 -0.67209452408E+03  0.69225415541E+03  0.00000000000E+00 0.  1.
         21    1    1    2  505  501 -0.60550435350E+02 -0.11085561953E+03 -0.62297744009E+03  0.63565416263E+03  0.00000000000E+00 0.  1.
          2    1    1    2  501    0 -0.38150610986E+02 -0.68021868121E+02 -0.11434695257E+04  0.11461260838E+04  0.00000000000E+00 0.  1.
<scales pt_clust_3="50.08637" pt_clust_4="14000.00000" pt_clust_5="140.32200" pt_clust_6="74.96970"></scales>
<clustering>
<clus scale="   50.086">  1  3  2 -1</clus>
<clus scale="   74.970">  2  6  1 -1</clus>
<clus scale="  140.322">  1  5  2 -1</clus>
<clus scale="   50.086">  1  3  2 -1</clus>
</clustering>
</event>
<event>
 6    0  0.4796958E+002  0.1434254E+03  0.7546771E-02  0.1208793E+00
          2   -1    0    0  503    0 -0.00000000000E+00  0.00000000000E+00  0.56748658268E+03  0.56748658268E+03  0.00000000000E+00 0.  1.
         21   -1    0    0  504  502  0.00000000000E+00 -0.00000000000E+00 -0.13530872210E+04  0.13530872210E+04  0.00000000000E+00 0. -1.
         21    1    1    2  503  502  0.52439260727E+01 -0.10301756310E+03 -0.90625073712E+03  0.91210225063E+03  0.00000000000E+00 0. -1.
         21    1    1    2  504  505 -0.19078158018E+02  0.28561638513E+02 -0.28724526622E+03  0.28929152472E+03  0.00000000000E+00 0.  1.
         21    1    1    2  505  501 -0.11160720535E+03  0.14081792426E+03 -0.90349309463E+02  0.20111900407E+03  0.00000000000E+00 0.  1.
          2    1    1    2  501    0  0.12544143729E+03 -0.66361999670E+02  0.49824467449E+03  0.51806102425E+03  0.00000000000E+00 0.  1.
<scales pt_clust_3="79.40274" pt_clust_4="34.34739" pt_clust_5="143.42543" pt_clust_6="14000.00000"></scales>
<clustering>
<clus scale="   34.347">  2  4  1 -1</clus>
<clus scale="   79.403">  2  3  1 -1</clus>
<clus scale="  143.425">  2  5  1 -1</clus>
<clus scale="   34.347">  2  3  1 -1</clus>
</clustering>
</event>
<event>
 6    0  0.4796958E+002  0.7738681E+02  0.7546771E-02  0.1336635E+00
         21   -1    0    0  505  502  0.00000000000E+00  0.00000000000E+00  0.85203425313E+03  0.85203425313E+03  0.00000000000E+00 0.  1.
          2   -1    0    0  503    0 -0.00000000000E+00 -0.00000000000E+00 -0.32171767390E+04  0.32171767390E+04  0.00000000000E+00 0. -1.
         21    1    1    2  503  502 -0.63607408838E+02  0.10865742055E+02 -0.32427718182E+03  0.33063523324E+03  0.00000000000E+00 0.  1.
         21    1    1    2  504  501  0.23768016216E+02  0.42604856458E+02  0.11007761306E+03  0.12040420792E+03  0.00000000000E+00 0. -1.
         21    1    1    2  505  504 -0.22506803449E+02  0.35960549242E+02  0.73196987783E+03  0.73319821286E+03  0.00000000000E+00 0.  1.
          2    1    1    2  501    0  0.62346196071E+02 -0.89431147755E+02 -0.28829127950E+04  0.28849733381E+04  0.00000000000E+00 0. -1.
<scales pt_clust_3="65.28583" pt_clust_4="14000.00000" pt_clust_5="42.42308" pt_clust_6="77.38681"></scales>
<clustering>
<clus scale="   42.423">  1  5  2 -1</clus>
<clus scale="   65.286">  2  3  1 -1</clus>
<clus scale="   77.387">  2  6  1 -1</clus>
<clus scale="   42.423">  1  3  2 -1</clus>
</clustering>
</event>
<event>
 6    0  0.4796958E+002  0.1455793E+03  0.7546771E-02  0.1206013E+00
         21   -1    0    0  504  502  0.00000000000E+00  0.00000000000E+00  0.71517194440E+02  0.71517194440E+02  0.00000000000E+00 0.  1.
          2   -1    0    0  505    0 -0.00000000000E+00 -0.00000000000E+00 -0.10530198663E+04  0.10530198663E+04  0.00000000000E+00 0.  1.
         21    1    1    2  503  501  0.17302814188E+02  0.52881339218E+02 -0.39235520465E+02  0.68082666535E+02  0.00000000000E+00 0. -1.
         21    1    1    2  504  503 -0.15899244041E+02  0.85995432234E+02  0.28266885681E+01  0.87498517099E+02  0.00000000000E+00 0.  1.
         21    1    1    2  505  502  0.54435491117E+02 -0.81740327776E+02 -0.77310224630E+03  0.77931494731E+03  0.00000000000E+00 0.  1.
          2    1    1    2  501    0 -0.55839061264E+02 -0.57136443677E+02 -0.17199159363E+03  0.18964092975E+03  0.00000000000E+00 0.  1.
<scales pt_clust_3="47.79971" pt_clust_4="47.79971" pt_clust_5="132.67309" pt_clust_6="79.89101"></scales>
<clustering>
<clus scale="   47.800">  3  4 -1 -1</clus>
<clus scale="   79.891">  2  6  1 -1</clus>
<clus scale="  132.673">  2  5  1 -1</clus>
<clus scale="  145.579">  1  3  2 -1</clus>
</clustering>
</event>
<event>
 6    0  0.4796958E+002  0.8700308E+02  0.7546771E-02  0.1310276E+00
          3   -1    0    0  503    0 -0.00000000000E+00  0.00000000000E+00  0.63738094290E+03  0.63738094290E+03  0.00000000000E+00 0. -1.
         21   -1    0    0  504  502  0.00000000000E+00 -0.00000000000E+00 -0.66614456046E+02  0.66614456046E+02  0.00000000000E+00 0. -1.
         21    1    1    2  503  505  0.27187494248E+02  0.26867988461E+02  0.13087350561E+03  0.13634120110E+03  0.00000000000E+00 0. -1.
         21    1    1    2  504  501  0.39531987210E+02 -0.10489979956E+02 -0.35980933365E+02  0.54474262345E+02  0.00000000000E+00 0. -1.
         21    1    1    2  505  502 -0.36322080541E+02 -0.90423179191E+02  0.16013666558E+03  0.18745505203E+03  0.00000000000E+00 0. -1.
          3    1    1    2  501    0 -0.30397400918E+02  0.74045170686E+02  0.31573724903E+03  0.32572488347E+03  0.00000000000E+00 0. -1.
<scales pt_clust_3="38.22367" pt_clust_4="41.26037" pt_clust_5="87.00308" pt_clust_6="14000.00000"></scales>
<clustering>
<clus scale="   38.224">  1  3  2 -1</clus>
<clus scale="   41.260">  2  4  1 -1</clus>
<clus scale="   87.003">  2  5  1 -1</clus>
<clus scale="   41.260">  2  3  1 -1</clus>
</clustering>
</event>
<event>
 6    0  0.4796958E+002  0.1435258E+03  0.7546771E-02  0.1208662E+00
          2   -1    0    0  503    0 -0.00000000000E+00  0.00000000000E+00  0.71389385993E+03  0.71389385993E+03  0.00000000000E+00 0.  1.
         21   -1    0    0  504  502  0.00000000000E+00 -0.00000000000E+00 -0.16349479112E+03  0.16349479112E+03  0.00000000000E+00 0. -1.
         21    1    1    2  503  505 -0.24144194938E+02  0.37064371820E+02 -0.35350637757E+01  0.44375742062E+02  0.00000000000E+00 0. -1.
         21    1    1    2  504  501  0.61952431132E+02 -0.14961116589E+03  0.16360468575E+03  0.23019143746E+03  0.00000000000E+00 0. -1.
         21    1    1    2  505  502 -0.11282951317E+02  0.82788019058E+02 -0.88862501832E+02  0.12197419941E+03  0.00000000000E+00 0. -1.
          2    1    1    2  501    0 -0.26525284877E+02  0.29758775007E+02  0.47919194867E+03  0.48084727211E+03  0.00000000000E+00 0.  1.
<scales pt_clust_3="44.16991" pt_clust_4="130.70709" pt_clust_5="44.16991" pt_clust_6="39.86446"></scales>
<clustering>
<clus scale="   39.864">  1  6  2 -1</clus>
<clus scale="   44.170">  3  5 -1 -1</clus>
<clus scale="  130.707">  1  4  2 -1</clus>
<clus scale="  143.526">  2  3  1 -1</clus>
</clustering>
</event>
<event>
 6    0  0.4796958E+002  0.2359186E+03  0.7546771E-02  0.1122542E+00
         -1   -1    0    0    0  501 -0.00000000000E+00  0.00000000000E+00  0.21080206814E+03  0.21080206814E+03  0.00000000000E+00 0. -1.
         21   -1    0    0  505  502  0.00000000000E+00 -0.00000000000E+00 -0.29527841121E+03  0.29527841121E+03  0.00000000000E+00 0.  1.
         21    1    1    2  503  502 -0.46166974740E+02 -0.73317701449E+02 -0.53761272604E+02  0.10196641278E+03  0.00000000000E+00 0. -1.
         21    1    1    2  504  501  0.14331906593E+03  0.16079372843E+03 -0.52419007760E+02  0.22168159629E+03  0.00000000000E+00 0.  1.
         21    1    1    2  505  504 -0.33858193126E+02  0.26578190649E+02 -0.17141624926E+02  0.46331552586E+02  0.00000000000E+00 0.  1.
         -1    1    1    2    0  503 -0.63293898062E+02 -0.11405421763E+03  0.38845562225E+02  0.13610091769E+03  0.00000000000E+00 0. -1.
<scales pt_clust_3="78.99974" pt_clust_4="215.16022" pt_clust_5="43.04390" pt_clust_6="78.99974"></scales>
<clustering>
<clus scale="   43.044">  2  5  1 -1</clus>
<clus scale="   79.000">  3  6 -1 -1</clus>
<clus scale="  215.160">  2  4  1 -1</clus>
<clus scale="   43.044">  2  3  1 -1</clus>
</clustering>
</event>
<event>
 6    0  0.4796958E+002  0.8193930E+02  0.7546771E-02  0.1323636E+00
          1   -1    0    0  504    0 -0.00000000000E+00  0.00000000000E+00  0.10863292116E+04  0.10863292116E+04  0.00000000000E+00 0. -1.
         21   -1    0    0  505  502  0.00000000000E+00 -0.00000000000E+00 -0.18923240121E+03  0.18923240121E+03  0.00000000000E+00 0. -1.
         21    1    1    2  503  501 -0.25095105522E+02  0.32664754335E+02 -0.98299085921E+02  0.10658077120E+03  0.00000000000E+00 0. -1.
         21    1    1    2  504  502 -0.13099342253E+02 -0.11444804601E+03 -0.83199655562E+01  0.11549532385E+03  0.00000000000E+00 0. -1.
         21    1    1    2  505  503 -0.20822097059E+02  0.25229892819E+02 -0.11732384608E+02  0.34752785013E+02  0.00000000000E+00 0.  1.
          1    1    1    2  501    0  0.59016544833E+02  0.56553398861E+02  0.10154482465E+04  0.10187327328E+04  0.00000000000E+00 0. -1.
<scales pt_clust_3="61.37177" pt_clust_4="14000.00000" pt_clust_5="32.71249" pt_clust_6="81.93930"></scales>
<clustering>
<clus scale="   32.712">  2  5  1 -1</clus>
<clus scale="   61.372">  2  3  1 -1</clus>
<clus scale="   81.939">  1  6  2 -1</clus>
<clus scale="   32.712">  2  3  1 -1</clus>
</clustering>
</event>
<event>
 6    0  0.4796958E+002  0.1394214E+03  0.7546771E-02  0.1214110E+00
         21   -1    0    0  501  502  0.00000000000E+00  0.00000000000E+00  0.30710575887E+03  0.30710575887E+03  0.00000000000E+00 0. -1.
          2   -1    0    0  503    0 -0.00000000000E+00 -0.00000000000E+00 -0.17528239958E+04  0.17528239958E+04  0.00000000000E+00 0.  1.
         21    1    1    2  503  505  0.83316828213E+01 -0.52645205428E+02 -0.13987606721E+03  0.14968716969E+03  0.00000000000E+00 0. -1.
         21    1    1    2  504  502  0.27870151476E+02  0.34637817392E+02  0.86083700318E+02  0.96886155861E+02  0.00000000000E+00 0. -1.
         21    1    1    2  505  504 -0.22649846447E+02  0.92647629168E+02  0.19897244203E+03  0.22065047342E+03  0.00000000000E+00 0. -1.
          2    1    1    2  501    0 -0.13551987851E+02 -0.74640241133E+02 -0.15908983121E+04  0.15927059557E+04  0.00000000000E+00 0.  1.
<scales pt_clust_3="53.30042" pt_clust_4="39.47912" pt_clust_5="39.47912" pt_clust_6="126.86471"></scales>
<clustering>
<clus scale="   39.479">  4  5 -1 -1</clus>
<clus scale="   53.300">  2  3  1 -1</clus>
<clus scale="  126.865">  2  6  1 -1</clus>
<clus scale="  139.421">  1  3  2 -1</clus>
</clustering>
</event>
<event>
 6    0  0.4796958E+002  0.1811211E+03  0.7546771E-02  0.1166722E+00
          2   -1    0    0  505    0 -0.00000000000E+00  0.00000000000E+00  0.18749471098E+04  0.18749471098E+04  0.00000000000E+00 0.  1.
         21   -1    0    0  503  502  0.00000000000E+00 -0.00000000000E+00 -0.33444449947E+03  0.33444449947E+03  0.00000000000E+00 0.  1.
         21    1    1    2  503  501  0.11445444942E+03  0.78070946321E+02 -0.27758986804E+03  0.31024349871E+03  0.00000000000E+00 0.  1.
         21    1    1    2  504  502  0.76317994009E+02 -0.80855211434E+02  0.68050615129E+02  0.13035677061E+03  0.00000000000E+00 0.  1.
         21    1    1    2  505  504 -0.87121348769E+02  0.41645331418E+02  0.31456388429E+03  0.32905151624E+03  0.00000000000E+00 0. -1.
          2    1    1    2  501    0 -0.10365109466E+03 -0.38861066305E+02  0.14354779790E+04  0.14397398237E+04  0.00000000000E+00 0.  1.
<scales pt_clust_3="181.12109" pt_clust_4="105.45386" pt_clust_5="96.56326" pt_clust_6="14000.00000"></scales>
<clustering>
<clus scale="   96.563">  1  5  2 -1</clus>
<clus scale="  105.454">  2  4  1 -1</clus>
<clus scale="  181.121">  2  3  1 -1</clus>
<clus scale="  105.454">  2  3  1 -1</clus>
</clustering>
</event>
<event>
 6    0  0.4796958E+002  0.1005479E+03  0.7546771E-02  0.1279148E+00
         21   -1    0    0  503  502  0.00000000000E+00  0.00000000000E+00  0.13978801126E+03  0.13978801126E+03  0.00000000000E+00 0.  1.
          2   -1    0    0  505    0 -0.00000000000E+00 -0.00000000000E+00 -0.14345390803E+04  0.14345390803E+04  0.00000000000E+00 0. -1.
         21    1    1    2  503  501  0.21610847134E+02  0.31381123924E+02 -0.36619554834E+02  0.52846905764E+02  0.00000000000E+00 0. -1.
         21    1    1    2  504  502  0.31433303280E+02  0.51606448792E+02  0.11039861476E+03  0.12585361438E+03  0.00000000000E+00 0.  1.
         21    1    1    2  505  504 -0.41438377233E+02 -0.14393260948E+03 -0.43551035033E+03  0.46054641506E+03  0.00000000000E+00 0. -1.
          2    1    1    2  501    0 -0.11605773181E+02  0.60945036762E+02 -0.93301977861E+03  0.93508015632E+03  0.00000000000E+00 0. -1.
<scales pt_clust_3="38.10254" pt_clust_4="100.54788" pt_clust_5="14000.00000" pt_clust_6="62.25016"></scales>
<clustering>
<clus scale="   38.103">  1  3  2 -1</clus>
<clus scale="   62.250">  2  6  1 -1</clus>
<clus scale="  100.548">  1  4  2 -1</clus>
<clus scale="   38.103">  1  3  2 -1</clus>
</clustering>
</event>
<event>
 6    0  0.4796958E+002  0.1398833E+03  0.7546771E-02  0.1213486E+00
          2   -1    0    0  504    0 -0.00000000000E+00  0.00000000000E+00  0.22613311679E+04  0.22613311679E+04  0.00000000000E+00 0. -1.
         21   -1    0    0  505  502  0.00000000000E+00 -0.00000000000E+00 -0.68978062514E+02  0.68978062514E+02  0.00000000000E+00 0.  1.
         21    1    1    2  503  501  0.53763000166E+02  0.46052660378E+01  0.85276291719E+03  0.85446840878E+03  0.00000000000E+00 0. -1.
         21    1    1    2  504  502  0.29881734411E+02  0.22564188006E+02  0.81060559913E+02  0.89290957018E+02  0.00000000000E+00 0.  1.
         21    1    1    2  505  503 -0.15919281707E+03  0.11714032972E+02  0.39335338758E+02  0.16439841985E+03  0.00000000000E+00 0.  1.
          2    1    1    2  501    0  0.75548082494E+02 -0.38883487016E+02  0.12191942896E+04  0.12221514448E+04  0.00000000000E+00 0. -1.
<scales pt_clust_3="30.31402" pt_clust_4="37.44410" pt_clust_5="134.61177" pt_clust_6="30.31402"></scales>
<clustering>
<clus scale="   30.314">  3  6 -1 -1</clus>
<clus scale="   37.444">  2  4  1 -1</clus>
<clus scale="  134.612">  2  5  1 -1</clus>
<clus scale="   37.444">  2  3  1 -1</clus>
</clustering>
</event>
<event>
 6    0  0.4796958E+002  0.1169598E+03  0.7546771E-02  0.1248198E+00
          1   -1    0    0  505    0 -0.00000000000E+00  0.00000000000E+00  0.28796268717E+03  0.28796268717E+03  0.00000000000E+00 0. -1.
         21   -1    0    0  504  502  0.00000000000E+00 -0.00000000000E+00 -0.14048600363E+04  0.14048600363E+04  0.00000000000E+00 0.  1.
         21    1    1    2  503  502  0.37971882403E+02 -0.72141591916E+01 -0.97374032539E+03  0.97450712118E+03  0.00000000000E+00 0.  1.
         21    1    1    2  504  501 -0.92577077334E+02  0.18186278826E+02  0.37357076951E+02  0.10147318455E+03  0.00000000000E+00 0. -1.
         21    1    1    2  505  503  0.78397392770E+02 -0.35949354108E+02 -0.39260394787E+03  0.40196562929E+03  0.00000000000E+00 0.  1.
          1    1    1    2  501    0 -0.23792197839E+02  0.24977234475E+02  0.21208984719E+03  0.21487678842E+03  0.00000000000E+00 0. -1.
<scales pt_clust_3="38.50692" pt_clust_4="116.95975" pt_clust_5="14000.00000" pt_clust_6="34.49538"></scales>
<clustering>
<clus scale="   34.495">  1  6  2 -1</clus>
<clus scale="   38.507">  2  3  1 -1</clus>
<clus scale="  116.960">  1  4  2 -1</clus>
<clus scale="   38.507">  2  3  1 -1</clus>
</clustering>
</event>
<event>
 6    0  0.4796958E+002  0.1401781E+03  0.7546771E-02  0.1213090E+00
          2   -1    0    0  503    0 -0.00000000000E+00  0.00000000000E+00  0.84031409772E+03  0.84031409772E+03  0.00000000000E+00 0.  1.
         21   -1    0    0  505  502  0.00000000000E+00 -0.00000000000E+00 -0.15826306283E+03  0.15826306283E+03  0.00000000000E+00 0.  1.
         21    1    1    2  503  502  0.84288332649E+02  0.13394659511E+03 -0.81686189558E+02  0.17809785773E+03  0.00000000000E+00 0.  1.
         21    1    1    2  504  501 -0.80967587574E+02 -0.56444452052E+02  0.17073209718E+03  0.19720845675E+03  0.00000000000E+00 0. -1.
         21    1    1    2  505  504  0.36684717866E+02 -0.29060205331E+02  0.27490218485E+02  0.54276847469E+02  0.00000000000E+00 0. -1.
          2    1    1    2  501    0 -0.40005462942E+02 -0.48441937724E+02  0.56551490879E+03  0.56899399861E+03  0.00000000000E+00 0.  1.
<scales pt_clust_3="14000.00000" pt_clust_4="140.17805" pt_clust_5="46.80026" pt_clust_6="62.81669"></scales>
<clustering>
<clus scale="   46.800">  2  5  1 -1</clus>
<clus scale="   62.817">  1  6  2 -1</clus>
<clus scale="  140.178">  1  4  2 -1</clus>
<clus scale="   46.800">  2  3  1 -1</clus>
</clustering>
</event>
<event>
 6    0  0.4796958E+002  0.1068649E+03  0.7546771E-02  0.1266488E+00
         21   -1    0    0  504  502  0.00000000000E+00  0.00000000000E+00  0.19769563522E+03  0.19769563522E+03  0.00000000000E+00 0.  1.
          2   -1    0    0  503    0 -0.00000000000E+00 -0.00000000000E+00 -0.46474813183E+03  0.46474813183E+03  0.00000000000E+00 0.  1.
         21    1    1    2  503  505 -0.48340439082E+02 -0.35015353712E+02  0.15466879765E+02  0.61661149972E+02  0.00000000000E+00 0.  1.
         21    1    1    2  504  501  0.97616345528E+02 -0.24854471072E+02  0.66597565203E+02  0.12075566793E+03  0.00000000000E+00 0.  1.
         21    1    1    2  505  502 -0.47334192950E+02 -0.86869572669E+01  0.53297679615E+02  0.71809690859E+02  0.00000000000E+00 0.  1.
          2    1    1    2  501    0 -0.19417134955E+01  0.68556782051E+02 -0.40241462119E+03  0.40821725829E+03  0.00000000000E+00 0.  1.
<scales pt_clust_3="40.37985" pt_clust_4="96.94195" pt_clust_5="40.37985" pt_clust_6="68.58427"></scales>
<clustering>
<clus scale="   40.380">  3  5 -1 -1</clus>
<clus scale="   68.584">  2  6  1 -1</clus>
<clus scale="   96.942">  1  4  2 -1</clus>
<clus scale="   96.942">  1  3  2 -1</clus>
</clustering>
</event>
<event>
 6    0  0.4796958E+002  0.5879991E+02  0.7546771E-02  0.1402938E+00
         21   -1    0    0  505  502  0.00000000000E+00  0.00000000000E+00  0.74375636815E+03  0.74375636815E+03  0.00000000000E+00 0. -1.
          2   -1    0    0  503    0 -0.00000000000E+00 -0.00000000000E+00 -0.30780629489E+03  0.30780629489E+03  0.00000000000E+00 0. -1.
         21    1    1    2  503  504  0.16961675324E+02 -0.32246392284E+02  0.22453174497E+02  0.42798052410E+02  0.00000000000E+00 0.  1.
         21    1    1    2  504  502  0.15039502766E+02 -0.29866217012E+02  0.41648775509E+03  0.41782798818E+03  0.00000000000E+00 0. -1.
         21    1    1    2  505  501 -0.45095235803E+02  0.11873081571E+03  0.27713237654E+03  0.30484904628E+03  0.00000000000E+00 0. -1.
          2    1    1    2  501    0  0.13094057713E+02 -0.56618206419E+02 -0.28012323287E+03  0.28608757617E+03  0.00000000000E+00 0. -1.
<scales pt_clust_3="39.77519" pt_clust_4="33.43916" pt_clust_5="58.79991" pt_clust_6="14000.00000"></scales>
<clustering>
<clus scale="   33.439">  1  4  2 -1</clus>
<clus scale="   39.775">  1  3  2 -1</clus>
<clus scale="   58.800">  1  5  2 -1</clus>
<clus scale="   33.439">  1  3  2 -1</clus>
</clustering>
</event>
<event>
 6    0  0.4796958E+002  0.1635727E+03  0.7546771E-02  0.1184721E+00
         21   -1    0    0  503  502  0.00000000000E+00  0.00000000000E+00  0.22417155843E+03  0.22417155843E+03  0.00000000000E+00 0.  1.
          2   -1    0    0  504    0 -0.00000000000E+00 -0.00000000000E+00 -0.73329426439E+03  0.73329426439E+03  0.00000000000E+00 0.  1.
         21    1    1    2  503  501 -0.15631295647E+03  0.59230067666E+02  0.35960691928E+02  0.17098278463E+03  0.00000000000E+00 0.  1.
         21    1    1    2  504  505 -0.96736887304E+01 -0.12255685500E+03  0.33474301421E+02  0.12741386038E+03  0.00000000000E+00 0.  1.
         21    1    1    2  505  502  0.35254994884E+02 -0.34985208332E+02  0.78420252078E+01  0.50282967551E+02  0.00000000000E+00 0.  1.
          2    1    1    2  501    0  0.13073165031E+03  0.98311995663E+02 -0.58639972452E+03  0.60878621026E+03  0.00000000000E+00 0.  1.
<scales pt_clust_3="141.51065" pt_clust_4="42.13899" pt_clust_5="42.13899" pt_clust_6="163.57265"></scales>
<clustering>
<clus scale="   42.139">  4  5 -1 -1</clus>
<clus scale="  163.573">  2  6  1 -1</clus>
<clus scale="  141.511">  2  3  1 -1</clus>
<clus scale="  163.573">  1  3  2 -1</clus>
</clustering>
</event>
<event>
 6    0  0.4796958E+002  0.7905435E+02  0.7546771E-02  0.1331757E+00
         21   -1    0    0  501  502  0.00000000000E+00  0.00000000000E+00  0.72503131614E+03  0.72503131614E+03  0.00000000000E+00 0. -1.
          2   -1    0    0  504    0 -0.00000000000E+00 -0.00000000000E+00 -0.18778405412E+04  0.18778405412E+04  0.00000000000E+00 0. -1.
         21    1    1    2  503  502 -0.64802621327E+02 -0.45271716779E+02  0.70526578958E+03  0.70968214154E+03  0.00000000000E+00 0. -1.
         21    1    1    2  504  505 -0.51530506841E+02  0.25262283437E+02 -0.53315614628E+03  0.53623600440E+03  0.00000000000E+00 0. -1.
         21    1    1    2  505  503  0.47007528781E+02  0.70990208549E+02 -0.11053754453E+03  0.13952729562E+03  0.00000000000E+00 0.  1.
          2    1    1    2  501    0  0.69325599387E+02 -0.50980775207E+02 -0.12143813238E+04  0.12174264158E+04  0.00000000000E+00 0. -1.
<scales pt_clust_3="14000.00000" pt_clust_4="57.38969" pt_clust_5="79.05435" pt_clust_6="36.11788"></scales>
<clustering>
<clus scale="   57.390">  2  4  1 -1</clus>
<clus scale="   36.118">  2  6  1 -1</clus>
<clus scale="   79.054">  2  5  1 -1</clus>
<clus scale="   79.054">  1  3  2 -1</clus>
</clustering>
</event>
<event>
 6    0  0.4796958E+002  0.1673193E+03  0.7546771E-02  0.1180673E+00
          2   -1    0    0  505    0 -0.00000000000E+00  0.00000000000E+00  0.88035429869E+03  0.88035429869E+03  0.00000000000E+00 0. -1.
         21   -1    0    0  503  502  0.00000000000E+00 -0.00000000000E+00 -0.10426198286E+03  0.10426198286E+03  0.00000000000E+00 0. -1.
         21    1    1    2  503  504 -0.69489912978E+02 -0.50142731393E+01  0.85975285300E+02  0.11066047453E+03  0.00000000000E+00 0. -1.
         21    1    1    2  504  501 -0.56496588325E+02  0.37783978592E+02  0.22365415144E+03  0.23375344487E+03  0.00000000000E+00 0. -1.
         21    1    1    2  505  502  0.15303775740E+03 -0.92701421823E+01 -0.18040247605E+02  0.15437597371E+03  0.00000000000E+00 0. -1.
          2    1    1    2  501    0 -0.27051256096E+02 -0.23499563271E+02  0.48450312670E+03  0.48582638844E+03  0.00000000000E+00 0. -1.
<scales pt_clust_3="75.74165" pt_clust_4="75.74165" pt_clust_5="148.96860" pt_clust_6="35.83294"></scales>
<clustering>
<clus scale="   35.833">  1  6  2 -1</clus>
<clus scale="   75.742">  3  4 -1 -1</clus>
<clus scale="  148.969">  2  5  1 -1</clus>
<clus scale="  148.969">  2  3  1 -1</clus>
</clustering>
</event>
<event>
 6    0  0.4796958E+002  0.1311972E+03  0.7546771E-02  0.1225690E+00
         21   -1    0    0  503  502  0.00000000000E+00  0.00000000000E+00  0.11171076942E+04  0.11171076942E+04  0.00000000000E+00 0.  1.
          4   -1    0    0  505    0 -0.00000000000E+00 -0.00000000000E+00 -0.10690147128E+04  0.10690147128E+04  0.00000000000E+00 0.  1.
         21    1    1    2  503  501 -0.38353813619E+02  0.56310979054E+02  0.98998687200E+03  0.99232854848E+03  0.00000000000E+00 0.  1.
         21    1    1    2  504  502 -0.68115765866E+01  0.74666676904E+02  0.10636319697E+03  0.13013316213E+03  0.00000000000E+00 0.  1.
         21    1    1    2  505  504  0.12974061352E+02 -0.65747465133E+02 -0.17521642068E+03  0.18759490803E+03  0.00000000000E+00 0.  1.
          4    1    1    2  501    0  0.32191328853E+02 -0.65230190825E+02 -0.87304066690E+03  0.87606578834E+03  0.00000000000E+00 0.  1.
<scales pt_clust_3="68.05049" pt_clust_4="131.19722" pt_clust_5="67.01534" pt_clust_6="14000.00000"></scales>
<clustering>
<clus scale="   67.015">  2  5  1 -1</clus>
<clus scale="   68.050">  1  3  2 -1</clus>
<clus scale="  131.197">  1  4  2 -1</clus>
<clus scale="   68.050">  1  3  2 -1</clus>
</clustering>
</event>
<event>
 6    0  0.4796958E+002  0.1588477E+03  0.7546771E-02  0.1190004E+00
          1   -1    0    0  504    0 -0.00000000000E+00  0.00000000000E+00  0.88884633060E+03  0.88884633060E+03  0.00000000000E+00 0.  1.
         21   -1    0    0  503  502  0.00000000000E+00 -0.00000000000E+00 -0.23335381134E+04  0.23335381134E+04  0.00000000000E+00 0. -1.
         21    1    1    2  503  501  0.17927644273E+03 -0.55490494244E+02  0.15693329181E+03  0.24463706985E+03  0.00000000000E+00 0. -1.
         21    1    1    2  504  505 -0.10641721443E+03 -0.21457467840E+01 -0.33094951664E+01  0.10649028366E+03  0.00000000000E+00 0. -1.
         21    1    1    2  505  502 -0.13891833166E+03  0.76307816394E+02 -0.22301145331E+04  0.22357397023E+04  0.00000000000E+00 0. -1.
          1    1    1    2  501    0  0.66059103356E+02 -0.18671575366E+02  0.63179895364E+03  0.63551738819E+03  0.00000000000E+00 0.  1.
<scales pt_clust_3="158.84770" pt_clust_4="93.25044" pt_clust_5="14000.00000" pt_clust_6="68.64716"></scales>
<clustering>
<clus scale="   68.647">  1  6  2 -1</clus>
<clus scale="   93.250">  1  4  2 -1</clus>
<clus scale="  158.848">  1  3  2 -1</clus>
<clus scale="  158.848">  2  3  1 -1</clus>
</clustering>
</event>
<event>
 6    0  0.4796958E+002  0.1123162E+03  0.7546771E-02  0.1256340E+00
         -1   -1    0    0    0  501 -0.00000000000E+00  0.00000000000E+00  0.77002291215E+03  0.77002291215E+03  0.00000000000E+00 0.  1.
         21   -1    0    0  504  502  0.00000000000E+00 -0.00000000000E+00 -0.14514739102E+03  0.14514739102E+03  0.00000000000E+00 0.  1.
         21    1    1    2  503  501  0.88936044580E+02  0.48482779301E+02  0.12161827140E+03  0.15827572098E+03  0.00000000000E+00 0.  1.
         21    1    1    2  504  505 -0.38154231967E+02 -0.13365888840E+02 -0.79365994974E+02  0.89069374982E+02  0.00000000000E+00 0.  1.
         21    1    1    2  505  503 -0.93167628830E+02 -0.55802916109E+02  0.29284446516E+02  0.11248000407E+03  0.00000000000E+00 0.  1.
         -1    1    1    2    0  502  0.42385816217E+02  0.20686025648E+02  0.55333879819E+03  0.55534520314E+03  0.00000000000E+00 0.  1.
<scales pt_clust_3="112.31625" pt_clust_4="40.42762" pt_clust_5="14000.00000" pt_clust_6="46.50326"></scales>
<clustering>
<clus scale="   40.428">  2  4  1 -1</clus>
<clus scale="   46.503">  1  6  2 -1</clus>
<clus scale="  112.316">  1  3  2 -1</clus>
<clus scale="   40.428">  2  3  1 -1</clus>
</clustering>
</event>
<event>
 6    0  0.4796958E+002  0.1928078E+03  0.7546771E-02  0.1155953E+00
          2   -1    0    0  504    0 -0.00000000000E+00  0.00000000000E+00  0.27597386951E+04  0.27597386951E+04  0.00000000000E+00 0.  1.
         21   -1    0    0  503  502  0.00000000000E+00 -0.00000000000E+00 -0.12963339555E+03  0.12963339555E+03  0.00000000000E+00 0.  1.
         21    1    1    2  503  505 -0.17532226976E+02  0.49806202706E+02 -0.53127230724E+02  0.74903534330E+02  0.00000000000E+00 0.  1.
         21    1    1    2  504  502  0.37989356410E+02  0.14298817943E+03  0.10813057445E+04  0.10913802837E+04  0.00000000000E+00 0.  1.
         21    1    1    2  505  501  0.45761759229E+02 -0.24420100759E+03  0.20078662854E+03  0.31944254713E+03  0.00000000000E+00 0.  1.
          2    1    1    2  501    0 -0.66218888663E+02  0.51406625449E+02  0.14011401573E+04  0.14036457255E+04  0.00000000000E+00 0.  1.
<scales pt_clust_3="52.80186" pt_clust_4="192.80781" pt_clust_5="14000.00000" pt_clust_6="84.67995"></scales>
<clustering>
<clus scale="   52.802">  2  3  1 -1</clus>
<clus scale="   84.680">  1  6  2 -1</clus>
<clus scale="  192.808">  1  4  2 -1</clus>
<clus scale="   52.802">  2  3  1 -1</clus>
</clustering>
</event>
<event>
 6    0  0.4796958E+002  0.1167039E+03  0.7546771E-02  0.1248636E+00
          2   -1    0    0  503    0 -0.00000000000E+00  0.00000000000E+00  0.13041093538E+04  0.13041093538E+04  0.00000000000E+00 0.  1.
         21   -1    0    0  505  502  0.00000000000E+00 -0.00000000000E+00 -0.58873209129E+03  0.58873209129E+03  0.00000000000E+00 0.  1.
         21    1    1    2  503  504  0.55971993890E+02  0.17773228929E+03  0.95438524997E+02  0.20935649694E+03  0.00000000000E+00 0.  1.
         21    1    1    2  504  502 -0.27725916164E+02  0.26284697026E+02 -0.65952842146E+02  0.76219348672E+02  0.00000000000E+00 0. -1.
         21    1    1    2  505  501  0.54368369738E+02 -0.12506766575E+03 -0.44765859226E+03  0.46797014420E+03  0.00000000000E+00 0.  1.
          2    1    1    2  501    0 -0.82614447463E+02 -0.78949320564E+02  0.11335501719E+04  0.11392954552E+04  0.00000000000E+00 0.  1.
<scales pt_clust_3="116.70388" pt_clust_4="38.20487" pt_clust_5="106.10551" pt_clust_6="14000.00000"></scales>
<clustering>
<clus scale="   38.205">  2  4  1 -1</clus>
<clus scale="  106.106">  2  5  1 -1</clus>
<clus scale="  116.704">  2  3  1 -1</clus>
<clus scale="   38.205">  2  3  1 -1</clus>
</clustering>
</event>
<event>
 6    0  0.4796958E+002  0.8549396E+02  0.7546771E-02  0.1314146E+00
          2   -1    0    0  505    0 -0.00000000000E+00  0.00000000000E+00  0.23074752151E+04  0.23074752151E+04  0.00000000000E+00 0.  1.
         21   -1    0    0  503  502  0.00000000000E+00 -0.00000000000E+00 -0.38525830444E+02  0.38525830444E+02  0.00000000000E+00 0. -1.
         21    1    1    2  503  504 -0.35477451101E+02  0.94699225735E+01  0.36669995141E+01  0.36902247298E+02  0.00000000000E+00 0.  1.
         21    1    1    2  504  501 -0.59253633811E+02  0.58045203159E+01  0.13639511879E+03  0.14882309634E+03  0.00000000000E+00 0. -1.
         21    1    1    2  505  502  0.38727802546E+02  0.58735829175E+02  0.69824013805E+02  0.99121810025E+02  0.00000000000E+00 0. -1.
          2    1    1    2  501    0  0.56003282366E+02 -0.74010272064E+02  0.20590632525E+04  0.20611538919E+04  0.00000000000E+00 0.  1.
<scales pt_clust_3="36.71960" pt_clust_4="14000.00000" pt_clust_5="66.77578" pt_clust_6="85.49396"></scales>
<clustering>
<clus scale="   36.720">  2  3  1 -1</clus>
<clus scale="   66.776">  2  5  1 -1</clus>
<clus scale="   85.494">  1  6  2 -1</clus>
<clus scale="   36.720">  2  3  1 -1</clus>
</clustering>
</event>
<event>
 6    0  0.4796958E+002  0.1050098E+03  0.7546771E-02  0.1270100E+00
         21   -1    0    0  505  502  0.00000000000E+00  0.00000000000E+00  0.39275825632E+03  0.39275825632E+03  0.00000000000E+00 0. -1.
          2   -1    0    0  503    0 -0.00000000000E+00 -0.00000000000E+00 -0.23428890301E+04  0.23428890301E+04  0.00000000000E+00 0.  1.
         21    1    1    2  503  504 -0.35506151843E+02 -0.39399867948E+02 -0.10558446618E+04  0.10571759486E+04  0.00000000000E+00 0.  1.
         21    1    1    2  504  502  0.10189223253E+03 -0.23932230117E+02  0.33875092208E+03  0.35455178169E+03  0.00000000000E+00 0. -1.
         21    1    1    2  505  501 -0.97204661730E+02  0.56457390801E+02 -0.24601245387E+02  0.11507130186E+03  0.00000000000E+00 0. -1.
          2    1    1    2  501    0  0.30818581038E+02  0.68747072647E+01 -0.12084357886E+04  0.12088482543E+04  0.00000000000E+00 0.  1.
<scales pt_clust_3="33.68967" pt_clust_4="105.00985" pt_clust_5="14000.00000" pt_clust_6="31.57604"></scales>
<clustering>
<clus scale="   31.576">  2  6  1 -1</clus>
<clus scale="   33.690">  2  3  1 -1</clus>
<clus scale="  105.010">  1  4  2 -1</clus>
<clus scale="  105.010">  1  3  2 -1</clus>
</clustering>
</event>
<event>
 6    0  0.4796958E+002  0.1070639E+03  0.7546771E-02  0.1266106E+00
          1   -1    0    0  504    0 -0.00000000000E+00  0.00000000000E+00  0.83985591272E+03  0.83985591272E+03  0.00000000000E+00 0.  1.
         21   -1    0    0  503  502  0.00000000000E+00 -0.00000000000E+00 -0.21179809770E+03  0.21179809770E+03  0.00000000000E+00 0. -1.
         21    1    1    2  503  505  0.11363383888E+02  0.46504320451E+02 -0.47841155188E+02  0.67679793467E+02  0.00000000000E+00 0. -1.
         21    1    1    2  504  502  0.75087469198E+02 -0.12915853100E+03 -0.10447542211E+03  0.18230515074E+03  0.00000000000E+00 0. -1.
         21    1    1    2  505  501 -0.37675397121E+02  0.49535330028E+02  0.93802000870E+02  0.11256997751E+03  0.00000000000E+00 0.  1.
          1    1    1    2  501    0 -0.48775455965E+02  0.33118880523E+02  0.68657239145E+03  0.68909908870E+03  0.00000000000E+00 0.  1.
<scales pt_clust_3="47.87252" pt_clust_4="14000.00000" pt_clust_5="107.06392" pt_clust_6="59.09511"></scales>
<clustering>
<clus scale="   47.873">  2  3  1 -1</clus>
<clus scale="   59.095">  1  6  2 -1</clus>
<clus scale="  107.064">  1  5  2 -1</clus>
<clus scale="   47.873">  2  3  1 -1</clus>
</clustering>
</event>
<event>
 6    0  0.4796958E+002  0.8995230E+02  0.7546771E-02  0.1302967E+00
         21   -1    0    0  505  502  0.00000000000E+00  0.00000000000E+00  0.63986811632E+02  0.63986811632E+02  0.00000000000E+00 0.  1.
          1   -1    0    0  504    0 -0.00000000000E+00 -0.00000000000E+00 -0.69357413717E+03  0.69357413717E+03  0.00000000000E+00 0.  1.
         21    1    1    2  503  501  0.60261610001E+02  0.23588805170E+02 -0.13743902890E+03  0.15191240908E+03  0.00000000000E+00 0.  1.
         21    1    1    2  504  502  0.41887708695E+02 -0.62718106551E+02 -0.32771776501E+02  0.82232173534E+02  0.00000000000E+00 0.  1.
         21    1    1    2  505  503 -0.14280444359E+03  0.65173174790E+02 -0.17548201546E+03  0.23544551296E+03  0.00000000000E+00 0.  1.
          1    1    1    2  501    0  0.40655124894E+02 -0.26043873409E+02 -0.28389450468E+03  0.28797085323E+03  0.00000000000E+00 0.  1.
<scales pt_clust_3="76.05567" pt_clust_4="89.95230" pt_clust_5="14000.00000" pt_clust_6="48.28170"></scales>
<clustering>
<clus scale="   48.282">  2  6  1 -1</clus>
<clus scale="   76.056">  2  3  1 -1</clus>
<clus scale="   89.952">  1  4  2 -1</clus>
<clus scale="   89.952">  1  3  2 -1</clus>
</clustering>
</event>
<event>
 6    0  0.4796958E+002  0.7718376E+02  0.7546771E-02  0.1337239E+00
         21   -1    0    0  505  502  0.00000000000E+00  0.00000000000E+00  0.57751796673E+02  0.57751796673E+02  0.00000000000E+00 0. -1.
          2   -1    0    0  504    0 -0.00000000000E+00 -0.00000000000E+00 -0.23092486073E+04  0.23092486073E+04  0.00000000000E+00 0. -1.
         21    1    1    2  503  501  0.31573964805E+02  0.30840526500E+02 -0.33765036362E+02  0.55570954723E+02  0.00000000000E+00 0.  1.
         21    1    1    2  504  502 -0.10000317410E+03  0.19550715683E+02 -0.10958111923E+04  0.11005385202E+04  0.00000000000E+00 0. -1.
         21    1    1    2  505  503  0.31416377348E+02  0.15783819913E+02  0.36099397942E+02  0.50391311438E+02  0.00000000000E+00 0. -1.
          2    1    1    2  501    0  0.37012831947E+02 -0.66175062096E+02 -0.11580199799E+04  0.11604996176E+04  0.00000000000E+00 0. -1.
<scales pt_clust_3="69.77912" pt_clust_4="14000.00000" pt_clust_5="35.15847" pt_clust_6="77.18376"></scales>
<clustering>
<clus scale="   35.158">  1  5  2 -1</clus>
<clus scale="   69.779">  1  3  2 -1</clus>
<clus scale="   77.184">  2  6  1 -1</clus>
<clus scale="   35.158">  1  3  2 -1</clus>
</clustering>
</event>
<event>
 6    0  0.4796958E+002  0.6424982E+02  0.7546771E-02  0.1380816E+00
          2   -1    0    0  504    0 -0.00000000000E+00  0.00000000000E+00  0.18633274698E+04  0.18633274698E+04  0.00000000000E+00 0.  1.
         21   -1    0    0  503  502  0.00000000000E+00 -0.00000000000E+00 -0.43433769922E+02  0.43433769922E+02  0.00000000000E+00 0.  1.
         21    1    1    2  503  501 -0.40562172095E+02 -0.11928839339E+02 -0.17088404889E+02  0.45602638023E+02  0.00000000000E+00 0.  1.
         21    1    1    2  504  505 -0.16838719710E+02  0.10436837096E+03  0.10922584224E+04  0.10973626386E+04  0.00000000000E+00 0.  1.
         21    1    1    2  505  502  0.44810540057E+02 -0.48239474771E+02  0.11590785512E+03  0.13330289683E+03  0.00000000000E+00 0.  1.
          2    1    1    2  501    0  0.12590351749E+02 -0.44200056851E+02  0.62881582722E+03  0.63049306622E+03  0.00000000000E+00 0.  1.
<scales pt_clust_3="42.27987" pt_clust_4="14000.00000" pt_clust_5="64.24982" pt_clust_6="46.07671"></scales>
<clustering>
<clus scale="   42.280">  2  3  1 -1</clus>
<clus scale="   46.077">  1  6  2 -1</clus>
<clus scale="   64.250">  2  5  1 -1</clus>
<clus scale="   42.280">  2  3  1 -1</clus>
</clustering>
</event>
<event>
 6    0  0.4796958E+002  0.1116158E+03  0.7546771E-02  0.1257607E+00
         -4   -1    0    0    0  501 -0.00000000000E+00  0.00000000000E+00  0.72260605935E+03  0.72260605935E+03  0.00000000000E+00 0. -1.
         21   -1    0    0  504  502  0.00000000000E+00 -0.00000000000E+00 -0.19936997351E+03  0.19936997351E+03  0.00000000000E+00 0.  1.
         21    1    1    2  503  502 -0.25560598252E+02  0.16285201788E+02 -0.26143659688E+02  0.40025528381E+02  0.00000000000E+00 0.  1.
         21    1    1    2  504  501 -0.11327987433E+03 -0.16222526319E+03 -0.65699841814E+02  0.20848461612E+03  0.00000000000E+00 0.  1.
         21    1    1    2  505  503  0.69880891800E+02  0.62433424365E+02  0.68028644777E+02  0.11579796210E+03  0.00000000000E+00 0. -1.
         -4    1    1    2    0  505  0.68959580785E+02  0.83506637033E+02  0.54705094256E+03  0.55766792625E+03  0.00000000000E+00 0. -1.
<scales pt_clust_3="30.30762" pt_clust_4="111.61584" pt_clust_5="92.62385" pt_clust_6="14000.00000"></scales>
<clustering>
<clus scale="   30.308">  2  3  1 -1</clus>
<clus scale="   92.624">  2  5  1 -1</clus>
<clus scale="  111.616">  2  4  1 -1</clus>
<clus scale="   30.308">  2  3  1 -1</clus>
</clustering>
</event>
<event>
 6    0  0.4796958E+002  0.7553131E+02  0.7546771E-02  0.1342234E+00
         21   -1    0    0  503  502  0.00000000000E+00  0.00000000000E+00  0.59513875843E+03  0.59513875843E+03  0.00000000000E+00 0.  1.
          1   -1    0    0  505    0 -0.00000000000E+00 -0.00000000000E+00 -0.16342496295E+03  0.16342496295E+03  0.00000000000E+00 0. -1.
         21    1    1    2  503  501 -0.74096158596E+02  0.27958379571E+02  0.32708950588E+03  0.33654042337E+03  0.00000000000E+00 0.  1.
         21    1    1    2  504  502  0.37796511091E+02  0.39416757491E+02  0.21828753896E+03  0.22501490326E+03  0.00000000000E+00 0.  1.
         21    1    1    2  505  504  0.19010011294E+02  0.23600472113E+02  0.18593978694E+02  0.35554167928E+02  0.00000000000E+00 0. -1.
          1    1    1    2  501    0  0.17289636210E+02 -0.90975609175E+02 -0.13225722806E+03  0.16145422682E+03  0.00000000000E+00 0. -1.
<scales pt_clust_3="14000.00000" pt_clust_4="55.26550" pt_clust_5="30.30450" pt_clust_6="75.53131"></scales>
<clustering>
<clus scale="   30.305">  2  5  1 -1</clus>
<clus scale="   55.266">  1  4  2 -1</clus>
<clus scale="   75.531">  2  6  1 -1</clus>
<clus scale="   55.266">  1  3  2 -1</clus>
</clustering>
</event>
<event>
 6    0  0.4796958E+002  0.7132472E+02  0.7546771E-02  0.1355645E+00
         21   -1    0    0  505  502  0.00000000000E+00  0.00000000000E+00  0.24717411659E+03  0.24717411659E+03  0.00000000000E+00 0. -1.
          1   -1    0    0  503    0 -0.00000000000E+00 -0.00000000000E+00 -0.40359263069E+03  0.40359263069E+03  0.00000000000E+00 0. -1.
         21    1    1    2  503  504 -0.41193743722E+02 -0.48026450923E+02  0.32875659587E+02  0.71304091771E+02  0.00000000000E+00 0.  1.
         21    1    1    2  504  502  0.25169282053E+02 -0.28173795840E+02  0.14163389540E+03  0.14658586514E+03  0.00000000000E+00 0. -1.
         21    1    1    2  505  501  0.86028807288E+02  0.73949496888E+02 -0.21300487877E+02  0.11542614330E+03  0.00000000000E+00 0.  1.
          1    1    1    2  501    0 -0.70004345619E+02  0.22507498754E+01 -0.30962758121E+03  0.31745064707E+03  0.00000000000E+00 0. -1.
<scales pt_clust_3="68.46706" pt_clust_4="37.77904" pt_clust_5="71.32472" pt_clust_6="14000.00000"></scales>
<clustering>
<clus scale="   37.779">  1  4  2 -1</clus>
<clus scale="   68.467">  1  3  2 -1</clus>
<clus scale="   71.325">  1  5  2 -1</clus>
<clus scale="   37.779">  1  3  2 -1</clus>
</clustering>
</event>
<event>
 6    0  0.4796958E+002  0.1789525E+03  0.7546771E-02  0.1168821E+00
         21   -1    0    0  503  502  0.00000000000E+00  0.00000000000E+00  0.15115508635E+03  0.15115508635E+03  0.00000000000E+00 0.  1.
          2   -1    0    0  504    0 -0.00000000000E+00 -0.00000000000E+00 -0.30189424769E+04  0.30189424769E+04  0.00000000000E+00 0.  1.
         21    1    1    2  503  505 -0.75372130199E+02 -0.18746771030E+03  0.17307029465E+02  0.20279209473E+03  0.00000000000E+00 0.  1.
         21    1    1    2  504  502  0.11902569921E+03  0.97817846338E+02 -0.11357813417E+03  0.19140386803E+03  0.00000000000E+00 0. -1.
         21    1    1    2  505  501 -0.74556815578E+02  0.70519664224E+02 -0.13400039079E+04  0.13439279054E+04  0.00000000000E+00 0.  1.
          2    1    1    2  501    0  0.30903246566E+02  0.19130199734E+02 -0.14315123780E+04  0.14319736951E+04  0.00000000000E+00 0.  1.
<scales pt_clust_3="178.95249" pt_clust_4="14000.00000" pt_clust_5="99.30344" pt_clust_6="36.34522"></scales>
<clustering>
<clus scale="   36.345">  2  6  1 -1</clus>
<clus scale="   99.303">  2  5  1 -1</clus>
<clus scale="  178.952">  1  3  2 -1</clus>
<clus scale="  178.952">  1  3  2 -1</clus>
</clustering>
</event>
<event>
 6    0  0.4796958E+002  0.9262653E+02  0.7546771E-02  0.1296613E+00
         21   -1    0    0  504  502  0.00000000000E+00  0.00000000000E+00  0.15757478156E+03  0.15757478156E+03  0.00000000000E+00 0. -1.
         -1   -1    0    0    0  501 -0.00000000000E+00 -0.00000000000E+00 -0.69493941732E+03  0.69493941732E+03  0.00000000000E+00 0.  1.
         21    1    1    2  503  501 -0.10632189539E+03 -0.42996457070E+01 -0.24081108796E+03  0.26327326578E+03  0.00000000000E+00 0. -1.
         21    1    1    2  504  505  0.46022448095E+02 -0.15348439231E+01  0.97997165142E+02  0.10827680200E+03  0.00000000000E+00 0. -1.
         21    1    1    2  505  503  0.40692330444E+02  0.59643760481E+02  0.95444001908E+01  0.72830896577E+02  0.00000000000E+00 0.  1.
         -1    1    1    2    0  502  0.19607116849E+02 -0.53809270851E+02 -0.40409511314E+03  0.40813323453E+03  0.00000000000E+00 0.  1.
<scales pt_clust_3="92.62653" pt_clust_4="46.04803" pt_clust_5="14000.00000" pt_clust_6="57.92975"></scales>
<clustering>
<clus scale="   46.048">  1  4  2 -1</clus>
<clus scale="   57.930">  2  6  1 -1</clus>
<clus scale="   92.627">  2  3  1 -1</clus>
<clus scale="   46.048">  1  3  2 -1</clus>
</clustering>
</event>
<event>
 6    0  0.4796958E+002  0.7862831E+02  0.7546771E-02  0.1332990E+00
          2   -1    0    0  505    0 -0.00000000000E+00  0.00000000000E+00  0.20953894372E+04  0.20953894372E+04  0.00000000000E+00 0. -1.
         21   -1    0    0  503  502  0.00000000000E+00 -0.00000000000E+00 -0.13014709436E+02  0.13014709436E+02  0.00000000000E+00 0. -1.
         21    1    1    2  503  501  0.55480769748E+02 -0.57972001091E+02  0.31549487792E+03  0.32553937813E+03  0.00000000000E+00 0. -1.
         21    1    1    2  504  502  0.10174848379E+02  0.92685643709E+02  0.31677122323E+03  0.33020927297E+03  0.00000000000E+00 0. -1.
         21    1    1    2  505  504 -0.31761773544E+02 -0.31304232572E+02  0.51520595680E+03  0.51713242323E+03  0.00000000000E+00 0.  1.
          2    1    1    2  501    0 -0.33893844583E+02 -0.34094100457E+01  0.93490266983E+03  0.93552307231E+03  0.00000000000E+00 0. -1.
<scales pt_clust_3="78.62831" pt_clust_4="14000.00000" pt_clust_5="57.19559" pt_clust_6="34.06489"></scales>
<clustering>
<clus scale="   34.065">  1  6  2 -1</clus>
<clus scale="   57.196">  1  5  2 -1</clus>
<clus scale="   78.628">  2  3  1 -1</clus>
<clus scale="   78.628">  2  3  1 -1</clus>
</clustering>
</event>
<event>
 6    0  0.4796958E+002  0.8291309E+02  0.7546771E-02  0.1320982E+00
          2   -1    0    0  505    0 -0.00000000000E+00  0.00000000000E+00  0.79934204101E+03  0.79934204101E+03  0.00000000000E+00 0.  1.
         21   -1    0    0  501  502  0.00000000000E+00 -0.00000000000E+00 -0.81562290927E+02  0.81562290927E+02  0.00000000000E+00 0.  1.
         21    1    1    2  503  504 -0.12345362294E+02 -0.61394935224E+02 -0.81265828925E+01  0.63148930243E+02  0.00000000000E+00 0.  1.
         21    1    1    2  504  502 -0.32603155291E+02  0.29261855954E+01  0.20932892268E+02  0.38855041832E+02  0.00000000000E+00 0.  1.
         21    1    1    2  505  503 -0.30991328441E+02 -0.71389606208E+02  0.57456341164E+03  0.57981035891E+03  0.00000000000E+00 0.  1.
          2    1    1    2  501    0  0.75939846026E+02  0.12985835584E+03  0.13041002907E+03  0.19909000095E+03  0.00000000000E+00 0.  1.
<scales pt_clust_3="66.32277" pt_clust_4="32.73421" pt_clust_5="82.91309" pt_clust_6="14000.00000"></scales>
<clustering>
<clus scale="   32.734">  2  4  1 -1</clus>
<clus scale="   66.323">  2  3  1 -1</clus>
<clus scale="   82.913">  1  5  2 -1</clus>
<clus scale="   32.734">  2  3  1 -1</clus>
</clustering>
</event>
<event>
 6    0  0.4796958E+002  0.1252631E+03  0.7546771E-02  0.1234659E+00
         21   -1    0    0  505  502  0.00000000000E+00  0.00000000000E+00  0.63691637710E+02  0.63691637710E+02  0.00000000000E+00 0.  1.
          1   -1    0    0  502    0 -0.00000000000E+00 -0.00000000000E+00 -0.69860079370E+03  0.69860079370E+03  0.00000000000E+00 0.  1.
         21    1    1    2  503  501 -0.28868997887E+02  0.59805282159E+02 -0.11666099892E+03  0.13423814466E+03  0.00000000000E+00 0. -1.
         21    1    1    2  504  503  0.58837518475E+02 -0.12218709408E+03 -0.41682692182E+03  0.43833346015E+03  0.00000000000E+00 0.  1.
         21    1    1    2  505  504 -0.31322062613E+02  0.24931610239E+02  0.31927977690E+02  0.51205981631E+02  0.00000000000E+00 0.  1.
          1    1    1    2  501    0  0.13535420254E+01  0.37450201683E+02 -0.13334921294E+03  0.13851484496E+03  0.00000000000E+00 0.  1.
<scales pt_clust_3="30.72921" pt_clust_4="118.39549" pt_clust_5="40.03320" pt_clust_6="30.72921"></scales>
<clustering>
<clus scale="   30.729">  3  6 -1 -1</clus>
<clus scale="   40.033">  1  5  2 -1</clus>
<clus scale="  118.395">  1  4  2 -1</clus>
<clus scale="   40.033">  1  3  2 -1</clus>
</clustering>
</event>
<event>
 6    0  0.4796958E+002  0.1537455E+03  0.7546771E-02  0.1195945E+00
         21   -1    0    0  503  502  0.00000000000E+00  0.00000000000E+00  0.14642374314E+03  0.14642374314E+03  0.00000000000E+00 0. -1.
          1   -1    0    0  504    0 -0.00000000000E+00 -0.00000000000E+00 -0.10281860296E+04  0.10281860296E+04  0.00000000000E+00 0. -1.
         21    1    1    2  503  501 -0.59127490481E+01 -0.91219984393E+02 -0.30054179451E+03  0.31413598393E+03  0.00000000000E+00 0. -1.
         21    1    1    2  504  505  0.36423810225E+02  0.15233013737E+03 -0.43094383052E+03  0.45852344517E+03  0.00000000000E+00 0. -1.
         21    1    1    2  505  502 -0.62716416686E+02 -0.13494665681E+02  0.11436957735E+03  0.13113296743E+03  0.00000000000E+00 0. -1.
          1    1    1    2  501    0  0.32205355509E+02 -0.47615487295E+02 -0.26464623882E+03  0.27081737624E+03  0.00000000000E+00 0. -1.
<scales pt_clust_3="41.70861" pt_clust_4="144.46920" pt_clust_5="64.15181" pt_clust_6="41.70861"></scales>
<clustering>
<clus scale="   41.709">  3  6 -1 -1</clus>
<clus scale="   64.152">  1  5  2 -1</clus>
<clus scale="  144.469">  1  4  2 -1</clus>
<clus scale="   64.152">  1  3  2 -1</clus>
</clustering>
</event>
<event>
 6    0  0.4796958E+002  0.1107338E+03  0.7546771E-02  0.1259217E+00
         21   -1    0    0  504  502  0.00000000000E+00  0.00000000000E+00  0.42148877249E+03  0.42148877249E+03  0.00000000000E+00 0.  1.
         -3   -1    0    0    0  501 -0.00000000000E+00 -0.00000000000E+00 -0.57470639178E+03  0.57470639178E+03  0.00000000000E+00 0.  1.
         21    1    1    2  503  502  0.66083520945E+02 -0.25857413506E+02  0.32137424205E+03  0.32911554358E+03  0.00000000000E+00 0.  1.
         21    1    1    2  504  505 -0.10094200502E+03 -0.17457342980E+02  0.56414558440E+01  0.10259567840E+03  0.00000000000E+00 0.  1.
         21    1    1    2  505  501 -0.25399036527E+02 -0.28363680493E+02  0.28275594344E+02  0.47424873886E+02  0.00000000000E+00 0.  1.
         -3    1    1    2    0  503  0.60257520605E+02  0.71678436978E+02 -0.50850891153E+03  0.51705906841E+03  0.00000000000E+00 0.  1.
<scales pt_clust_3="70.96223" pt_clust_4="34.99051" pt_clust_5="34.99051" pt_clust_6="94.69850"></scales>
<clustering>
<clus scale="   34.991">  4  5 -1 -1</clus>
<clus scale="   70.962">  1  3  2 -1</clus>
<clus scale="   94.698">  2  6  1 -1</clus>
<clus scale="   70.962">  1  3  2 -1</clus>
</clustering>
</event>
<event>
 6    0  0.4796958E+002  0.9366878E+02  0.7546771E-02  0.1294203E+00
          2   -1    0    0  503    0 -0.00000000000E+00  0.00000000000E+00  0.30386809526E+04  0.30386809526E+04  0.00000000000E+00 0. -1.
         21   -1    0    0  504  502  0.00000000000E+00 -0.00000000000E+00 -0.24685642599E+03  0.24685642599E+03  0.00000000000E+00 0.  1.
         21    1    1    2  503  502 -0.89291424167E+02  0.27927762790E+02  0.13190144408E+03  0.16171242783E+03  0.00000000000E+00 0. -1.
         21    1    1    2  504  505 -0.42298057774E+01 -0.55112986933E+02 -0.21674883529E+03  0.22368591861E+03  0.00000000000E+00 0.  1.
         21    1    1    2  505  501  0.94686149060E+02 -0.23993446724E+02  0.19612271361E+03  0.21910105227E+03  0.00000000000E+00 0. -1.
          2    1    1    2  501    0 -0.11649191151E+01  0.51178670868E+02  0.26805492042E+04  0.26810379799E+04  0.00000000000E+00 0. -1.
<scales pt_clust_3="14000.00000" pt_clust_4="54.78139" pt_clust_5="93.66878" pt_clust_6="51.19193"></scales>
<clustering>
<clus scale="   51.192">  1  6  2 -1</clus>
<clus scale="   54.781">  2  4  1 -1</clus>
<clus scale="   93.669">  1  5  2 -1</clus>
<clus scale="   54.781">  2  3  1 -1</clus>
</clustering>
</event>
<event>
 6    0  0.4796958E+002  0.1773951E+03  0.7546771E-02  0.1170348E+00
         21   -1    0    0  503  502  0.00000000000E+00  0.00000000000E+00  0.25187494446E+04  0.25187494446E+04  0.00000000000E+00 0. -1.
         -2   -1    0    0    0  501 -0.00000000000E+00 -0.00000000000E+00 -0.10905749627E+03  0.10905749627E+03  0.00000000000E+00 0.  1.
         21    1    1    2  503  504  0.28184043087E+02  0.26367711800E+02  0.14915295685E+03  0.15406557386E+03  0.00000000000E+00 0.  1.
         21    1    1    2  504  501  0.18443285591E+02 -0.44265998350E+02  0.39020551683E+02  0.61824241580E+02  0.00000000000E+00 0.  1.
         21    1    1    2  505  502 -0.16430044930E+03  0.91178571157E+02  0.22601990682E+04  0.22679964721E+04  0.00000000000E+00 0. -1.
         -2    1    1    2    0  505  0.11767312062E+03 -0.73280284607E+02 -0.38680628465E+02  0.14392065330E+03  0.00000000000E+00 0.  1.
<scales pt_clust_3="38.59529" pt_clust_4="47.67315" pt_clust_5="14000.00000" pt_clust_6="177.39509"></scales>
<clustering>
<clus scale="   38.595">  1  3  2 -1</clus>
<clus scale="   47.673">  2  4  1 -1</clus>
<clus scale="  177.395">  2  6  1 -1</clus>
<clus scale="   38.595">  1  3  2 -1</clus>
</clustering>
</event>
<event>
 6    0  0.4796958E+002  0.9468366E+02  0.7546771E-02  0.1291890E+00
         21   -1    0    0  503  502  0.00000000000E+00  0.00000000000E+00  0.71635156028E+02  0.71635156028E+02  0.00000000000E+00 0.  1.
          2   -1    0    0  504    0 -0.00000000000E+00 -0.00000000000E+00 -0.29893981085E+04  0.29893981085E+04  0.00000000000E+00 0. -1.
         21    1    1    2  503  505  0.14502305470E+02  0.28799670584E+02 -0.34943302042E+02  0.47547578774E+02  0.00000000000E+00 0.  1.
         21    1    1    2  504  502  0.48906922000E+02 -0.89197309510E+02 -0.20571548688E+03  0.22949272011E+03  0.00000000000E+00 0.  1.
         21    1    1    2  505  501 -0.91001359120E+02  0.30153749096E+02  0.10171784266E+02  0.96405192502E+02  0.00000000000E+00 0.  1.
          2    1    1    2  501    0  0.27592131650E+02  0.30243889830E+02 -0.26872759478E+04  0.26875877731E+04  0.00000000000E+00 0. -1.
<scales pt_clust_3="32.24497" pt_clust_4="94.68366" pt_clust_5="14000.00000" pt_clust_6="41.01331"></scales>
<clustering>
<clus scale="   32.245">  1  3  2 -1</clus>
<clus scale="   41.013">  2  6  1 -1</clus>
<clus scale="   94.684">  2  4  1 -1</clus>
<clus scale="   32.245">  1  3  2 -1</clus>
</clustering>
</event>
<event>
 6    0  0.4796958E+002  0.2548265E+03  0.7546771E-02  0.1110292E+00
          1   -1    0    0  505    0 -0.00000000000E+00  0.00000000000E+00  0.21629220885E+04  0.21629220885E+04  0.00000000000E+00 0. -1.
         21   -1    0    0  504  502  0.00000000000E+00 -0.00000000000E+00 -0.37919870074E+03  0.37919870074E+03  0.00000000000E+00 0. -1.
         21    1    1    2  503  502 -0.26368561978E+02  0.14638030309E+02 -0.26412766001E+02  0.40089988775E+02  0.00000000000E+00 0. -1.
         21    1    1    2  504  501  0.60393925147E+02 -0.91446766124E+02 -0.30355064545E+03  0.32272733318E+03  0.00000000000E+00 0. -1.
         21    1    1    2  505  503 -0.26310698058E+03  0.12676951739E+03  0.10341861203E+04  0.10746332980E+04  0.00000000000E+00 0.  1.
          1    1    1    2  501    0  0.22908161742E+03 -0.49960781577E+02  0.10795006790E+04  0.11046701694E+04  0.00000000000E+00 0. -1.
<scales pt_clust_3="30.15913" pt_clust_4="86.30710" pt_clust_5="254.82652" pt_clust_6="14000.00000"></scales>
<clustering>
<clus scale="   30.159">  2  3  1 -1</clus>
<clus scale="   86.307">  2  4  1 -1</clus>
<clus scale="  254.827">  2  5  1 -1</clus>
<clus scale="   30.159">  2  3  1 -1</clus>
</clustering>
</event>
<event>
 6    0  0.4796958E+002  0.1039386E+03  0.7546771E-02  0.1272225E+00
         21   -1    0    0  505  502  0.00000000000E+00  0.00000000000E+00  0.46746026313E+03  0.46746026313E+03  0.00000000000E+00 0.  1.
          2   -1    0    0  503    0 -0.00000000000E+00 -0.00000000000E+00 -0.76798161383E+03  0.76798161383E+03  0.00000000000E+00 0. -1.
         21    1    1    2  503  502  0.63896454955E+01  0.61844095038E+02  0.43051916535E+02  0.75623985468E+02  0.00000000000E+00 0.  1.
         21    1    1    2  504  501 -0.78352463485E+02 -0.45737548178E+02  0.74797551058E+02  0.11758276018E+03  0.00000000000E+00 0.  1.
         21    1    1    2  505  504 -0.32980297357E+02 -0.14285085396E+02  0.30710759093E+03  0.30920355121E+03  0.00000000000E+00 0.  1.
          2    1    1    2  501    0  0.10494311535E+03 -0.18214614643E+01 -0.72547840921E+03  0.73303158009E+03  0.00000000000E+00 0. -1.
<scales pt_clust_3="56.82974" pt_clust_4="103.93857" pt_clust_5="35.94111" pt_clust_6="14000.00000"></scales>
<clustering>
<clus scale="   35.941">  1  5  2 -1</clus>
<clus scale="   56.830">  1  3  2 -1</clus>
<clus scale="  103.939">  1  4  2 -1</clus>
<clus scale="   35.941">  1  3  2 -1</clus>
</clustering>
</event>
<event>
 6    0  0.4796958E+002  0.6569381E+02  0.7546771E-02  0.1375381E+00
         21   -1    0    0  505  502  0.00000000000E+00  0.00000000000E+00  0.10749503380E+03  0.10749503380E+03  0.00000000000E+00 0. -1.
          1   -1    0    0  504    0 -0.00000000000E+00 -0.00000000000E+00 -0.28689015720E+04  0.28689015720E+04  0.00000000000E+00 0.  1.
         21    1    1    2  503  501  0.68229137127E+02 -0.11602258488E+02 -0.12992014831E+03  0.14720418639E+03  0.00000000000E+00 0. -1.
         21    1    1    2  504  502 -0.58596639334E+02  0.59233848703E+02 -0.10153700834E+03  0.13134678921E+03  0.00000000000E+00 0. -1.
         21    1    1    2  505  503 -0.30699490110E+02  0.14316054781E+02  0.80104321683E+02  0.86971894712E+02  0.00000000000E+00 0. -1.
          1    1    1    2  501    0  0.21066992317E+02 -0.61947644996E+02 -0.26100537032E+04  0.26108737355E+04  0.00000000000E+00 0.  1.
<scales pt_clust_3="57.51631" pt_clust_4="65.69381" pt_clust_5="33.87341" pt_clust_6="14000.00000"></scales>
<clustering>
<clus scale="   33.873">  1  5  2 -1</clus>
<clus scale="   57.516">  1  3  2 -1</clus>
<clus scale="   65.694">  1  4  2 -1</clus>
<clus scale="   33.873">  1  3  2 -1</clus>
</clustering>
</event>
<event>
 6    0  0.4796958E+002  0.1198080E+03  0.7546771E-02  0.1243414E+00
          2   -1    0    0  505    0 -0.00000000000E+00  0.00000000000E+00  0.26859800097E+04  0.26859800097E+04  0.00000000000E+00 0. -1.
         21   -1    0    0  504  502  0.00000000000E+00 -0.00000000000E+00 -0.15807274331E+02  0.15807274331E+02  0.00000000000E+00 0. -1.
         21    1    1    2  503  501 -0.12412114875E+03  0.63780388338E+02  0.52877166201E+03  0.54687609936E+03  0.00000000000E+00 0. -1.
         21    1    1    2  504  503 -0.86026701806E+01 -0.49515590389E+02  0.16906011674E+03  0.17637211428E+03  0.00000000000E+00 0. -1.
         21    1    1    2  505  502  0.10063377281E+03 -0.29316026074E+01  0.89222173712E+03  0.89788383364E+03  0.00000000000E+00 0. -1.
          2    1    1    2  501    0  0.32090046127E+02 -0.11333195341E+02  0.10801192195E+04  0.10806552368E+04  0.00000000000E+00 0. -1.
<scales pt_clust_3="119.80802" pt_clust_4="50.99550" pt_clust_5="14000.00000" pt_clust_6="34.03252"></scales>
<clustering>
<clus scale="   34.033">  1  6  2 -1</clus>
<clus scale="   50.996">  2  4  1 -1</clus>
<clus scale="  119.808">  2  3  1 -1</clus>
<clus scale="   50.996">  2  3  1 -1</clus>
</clustering>
</event>
<event>
 6    0  0.4796958E+002  0.8398239E+02  0.7546771E-02  0.1318115E+00
          2   -1    0    0  505    0 -0.00000000000E+00  0.00000000000E+00  0.20898075586E+04  0.20898075586E+04  0.00000000000E+00 0. -1.
         21   -1    0    0  504  502  0.00000000000E+00 -0.00000000000E+00 -0.19014518661E+03  0.19014518661E+03  0.00000000000E+00 0. -1.
         21    1    1    2  503  502  0.86212755145E+02  0.32655453685E+01  0.48045922116E+01  0.86408257953E+02  0.00000000000E+00 0. -1.
         21    1    1    2  504  501 -0.33361114968E+02 -0.10588455654E+02 -0.13909878562E+03  0.14343483380E+03  0.00000000000E+00 0. -1.
         21    1    1    2  505  503 -0.12983415806E+03  0.12547670298E+02  0.59703591689E+03  0.61111884171E+03  0.00000000000E+00 0. -1.
          2    1    1    2  501    0  0.76982517885E+02 -0.52247600124E+01  0.14369206485E+04  0.14389908118E+04  0.00000000000E+00 0. -1.
<scales pt_clust_3="58.62965" pt_clust_4="35.00113" pt_clust_5="14000.00000" pt_clust_6="83.98239"></scales>
<clustering>
<clus scale="   35.001">  2  4  1 -1</clus>
<clus scale="   58.630">  2  3  1 -1</clus>
<clus scale="   83.982">  1  6  2 -1</clus>
<clus scale="   35.001">  2  3  1 -1</clus>
</clustering>
</event>
<event>
 6    0  0.4796958E+002  0.1260477E+03  0.7546771E-02  0.1233441E+00
         -1   -1    0    0    0  501 -0.00000000000E+00  0.00000000000E+00  0.65959644338E+03  0.65959644338E+03  0.00000000000E+00 0. -1.
         21   -1    0    0  503  502  0.00000000000E+00 -0.00000000000E+00 -0.62360741801E+02  0.62360741801E+02  0.00000000000E+00 0. -1.
         21    1    1    2  503  501 -0.91472059690E+02 -0.52394340170E+02  0.14873694022E+03  0.18230464056E+03  0.00000000000E+00 0. -1.
         21    1    1    2  504  502  0.40843501272E+02  0.40089560451E+02  0.52899899129E+02  0.77934355590E+02  0.00000000000E+00 0.  1.
         21    1    1    2  505  504  0.16964624349E+02  0.11440166728E+03  0.12372643449E+03  0.16936283697E+03  0.00000000000E+00 0. -1.
         -1    1    1    2    0  505  0.33663934069E+02 -0.10209688756E+03  0.27187242775E+03  0.29235535206E+03  0.00000000000E+00 0. -1.
<scales pt_clust_3="105.41492" pt_clust_4="36.88768" pt_clust_5="36.88768" pt_clust_6="114.62242"></scales>
<clustering>
<clus scale="   36.888">  4  5 -1 -1</clus>
<clus scale="  105.415">  2  3  1 -1</clus>
<clus scale="  114.622">  1  6  2 -1</clus>
<clus scale="  105.415">  2  3  1 -1</clus>
</clustering>
</event>
<event>
 6    0  0.4796958E+002  0.1549405E+03  0.7546771E-02  0.1194530E+00
          2   -1    0    0  504    0 -0.00000000000E+00  0.00000000000E+00  0.43273333718E+03  0.43273333718E+03  0.00000000000E+00 0. -1.
         21   -1    0    0  505  502  0.00000000000E+00 -0.00000000000E+00 -0.21082773316E+03  0.21082773316E+03  0.00000000000E+00 0. -1.
         21    1    1    2  503  501  0.11207192926E+03  0.47604847988E+02 -0.32108171337E+02  0.12592566675E+03  0.00000000000E+00 0. -1.
         21    1    1    2  504  502 -0.35764554019E+02  0.28332537549E+02  0.27237738765E+02  0.53138784529E+02  0.00000000000E+00 0.  1.
         21    1    1    2  505  503  0.54682582604E+02  0.33422730087E+00 -0.94543721948E+02  0.10921910047E+03  0.00000000000E+00 0. -1.
          2    1    1    2  501    0 -0.13098995785E+03 -0.76271612837E+02  0.32131975854E+03  0.35527751858E+03  0.00000000000E+00 0. -1.
<scales pt_clust_3="14000.00000" pt_clust_4="45.62714" pt_clust_5="54.02096" pt_clust_6="154.94049"></scales>
<clustering>
<clus scale="   45.627">  1  4  2 -1</clus>
<clus scale="   54.021">  2  5  1 -1</clus>
<clus scale="  154.940">  1  6  2 -1</clus>
<clus scale="   54.021">  2  3  1 -1</clus>
</clustering>
</event>
<event>
 6    0  0.4796958E+002  0.1018383E+03  0.7546771E-02  0.1276477E+00
         21   -1    0    0  504  502  0.00000000000E+00  0.00000000000E+00  0.10198597649E+04  0.10198597649E+04  0.00000000000E+00 0.  1.
          1   -1    0    0  505    0 -0.00000000000E+00 -0.00000000000E+00 -0.50434634797E+03  0.50434634797E+03  0.00000000000E+00 0. -1.
         21    1    1    2  503  501 -0.62214405505E+02  0.11316802243E+03  0.61261106638E+03  0.62607503720E+03  0.00000000000E+00 0.  1.
         21    1    1    2  504  503 -0.45654294626E+02 -0.27306157082E+02  0.34944190240E+03  0.35346793912E+03  0.00000000000E+00 0. -1.
         21    1    1    2  505  502  0.52103197275E+02 -0.92824422785E+00  0.28145041933E+02  0.59226245778E+02  0.00000000000E+00 0.  1.
          1    1    1    2  501    0  0.55765502857E+02 -0.84933621123E+02 -0.47468459381E+03  0.48543689075E+03  0.00000000000E+00 0. -1.
<scales pt_clust_3="14000.00000" pt_clust_4="38.56622" pt_clust_5="52.11147" pt_clust_6="101.83829"></scales>
<clustering>
<clus scale="   52.111">  1  5  2 -1</clus>
<clus scale="   38.566">  1  4  2 -1</clus>
<clus scale="  101.838">  2  6  1 -1</clus>
<clus scale="   52.111">  1  3  2 -1</clus>
</clustering>
</event>
<event>
 6    0  0.4796958E+002  0.1093327E+03  0.7546771E-02  0.1261811E+00
         21   -1    0    0  505  502  0.00000000000E+00  0.00000000000E+00  0.69549446046E+03  0.69549446046E+03  0.00000000000E+00 0.  1.
          2   -1    0    0  503    0 -0.00000000000E+00 -0.00000000000E+00 -0.11567106681E+03  0.11567106681E+03  0.00000000000E+00 0.  1.
         21    1    1    2  503  504 -0.47739359449E+02  0.22567867682E+02  0.17925323043E+02  0.55764435786E+02  0.00000000000E+00 0. -1.
         21    1    1    2  504  502  0.52399135260E+02  0.33063771519E+02  0.76488319272E+02  0.98434472357E+02  0.00000000000E+00 0.  1.
         21    1    1    2  505  501  0.67172398491E+02 -0.10534344993E+02  0.54759307053E+03  0.55179821895E+03  0.00000000000E+00 0.  1.
          2    1    1    2  501    0 -0.71832174302E+02 -0.45097294209E+02 -0.62183319190E+02  0.10516840018E+03  0.00000000000E+00 0.  1.
<scales pt_clust_3="52.80488" pt_clust_4="58.96261" pt_clust_5="14000.00000" pt_clust_6="109.33267"></scales>
<clustering>
<clus scale="   52.805">  2  3  1 -1</clus>
<clus scale="   58.963">  1  4  2 -1</clus>
<clus scale="  109.333">  2  6  1 -1</clus>
<clus scale="   58.963">  1  3  2 -1</clus>
</clustering>
</event>
<event>
 6    0  0.4796958E+002  0.1650189E+03  0.7546771E-02  0.1183144E+00
          2   -1    0    0  505    0 -0.00000000000E+00  0.00000000000E+00  0.16669201913E+04  0.16669201913E+04  0.00000000000E+00 0. -1.
         21   -1    0    0  503  502  0.00000000000E+00 -0.00000000000E+00 -0.54411088755E+02  0.54411088755E+02  0.00000000000E+00 0. -1.
         21    1    1    2  503  504  0.50930253832E+02  0.19657595842E+02  0.11763030952E+03  0.12968115340E+03  0.00000000000E+00 0. -1.
         21    1    1    2  504  501  0.14102048813E+02  0.46552112568E+02  0.24360096861E+03  0.24840973989E+03  0.00000000000E+00 0.  1.
         21    1    1    2  505  502 -0.10860275123E+03 -0.16065415147E+03  0.17273918510E+03  0.25969817102E+03  0.00000000000E+00 0. -1.
          2    1    1    2  501    0  0.43570448587E+02  0.94444443059E+02  0.10785386393E+04  0.10835422158E+04  0.00000000000E+00 0. -1.
<scales pt_clust_3="54.59223" pt_clust_4="36.42274" pt_clust_5="156.18747" pt_clust_6="36.42274"></scales>
<clustering>
<clus scale="   36.423">  4  6 -1 -1</clus>
<clus scale="   54.592">  2  3  1 -1</clus>
<clus scale="  156.187">  2  5  1 -1</clus>
<clus scale="   54.592">  2  3  1 -1</clus>
</clustering>
</event>
<event>
 6    0  0.4796958E+002  0.8116818E+02  0.7546771E-02  0.1325769E+00
         21   -1    0    0  501  502  0.00000000000E+00  0.00000000000E+00  0.49457542977E+02  0.49457542977E+02  0.00000000000E+00 0. -1.
          3   -1    0    0  503    0 -0.00000000000E+00 -0.00000000000E+00 -0.28975548752E+04  0.28975548752E+04  0.00000000000E+00 0.  1.
         21    1    1    2  503  504  0.58473898239E+02  0.48051343109E+02 -0.95074910155E+03  0.95375677321E+03  0.00000000000E+00 0.  1.
         21    1    1    2  504  505 -0.20997597389E+02 -0.11477713671E+03 -0.19861079556E+03  0.23034960021E+03  0.00000000000E+00 0.  1.
         21    1    1    2  505  502 -0.10572169932E+02  0.41918568376E+02  0.17237418193E+02  0.46541011352E+02  0.00000000000E+00 0. -1.
          3    1    1    2  501    0 -0.26904130919E+02  0.24807225224E+02 -0.17159748533E+04  0.17163650334E+04  0.00000000000E+00 0.  1.
<scales pt_clust_3="14000.00000" pt_clust_4="81.16818" pt_clust_5="43.61183" pt_clust_6="36.59550"></scales>
<clustering>
<clus scale="   36.596">  2  6  1 -1</clus>
<clus scale="   43.612">  1  5  2 -1</clus>
<clus scale="   81.168">  1  4  2 -1</clus>
<clus scale="   43.612">  1  3  2 -1</clus>
</clustering>
</event>
<event>
 6    0  0.4796958E+002  0.1143937E+03  0.7546771E-02  0.1252643E+00
         21   -1    0    0  504  502  0.00000000000E+00  0.00000000000E+00  0.49917678412E+03  0.49917678412E+03  0.00000000000E+00 0. -1.
          3   -1    0    0  503    0 -0.00000000000E+00 -0.00000000000E+00 -0.37520363560E+03  0.37520363560E+03  0.00000000000E+00 0.  1.
         21    1    1    2  503  505 -0.26016997433E+02 -0.29368641483E+02 -0.19112650388E+03  0.19511212608E+03  0.00000000000E+00 0.  1.
         21    1    1    2  504  501  0.20590166794E+02  0.23394322960E+02  0.53239942458E+02  0.61690686398E+02  0.00000000000E+00 0.  1.
         21    1    1    2  505  502 -0.10182636482E+03  0.57388020037E+02  0.41072474306E+03  0.42703256079E+03  0.00000000000E+00 0. -1.
          3    1    1    2  501    0  0.10725319546E+03 -0.51413701514E+02 -0.14886503312E+03  0.19054504645E+03  0.00000000000E+00 0.  1.
<scales pt_clust_3="39.09460" pt_clust_4="31.16487" pt_clust_5="114.39373" pt_clust_6="14000.00000"></scales>
<clustering>
<clus scale="   31.165">  1  4  2 -1</clus>
<clus scale="   39.095">  2  3  1 -1</clus>
<clus scale="  114.394">  1  5  2 -1</clus>
<clus scale="   31.165">  1  3  2 -1</clus>
</clustering>
</event>
<event>
 6    0  0.4796958E+002  0.2813851E+03  0.7546771E-02  0.1094935E+00
          2   -1    0    0  503    0 -0.00000000000E+00  0.00000000000E+00  0.91317243465E+03  0.91317243465E+03  0.00000000000E+00 0.  1.
         21   -1    0    0  504  502  0.00000000000E+00 -0.00000000000E+00 -0.11974528733E+04  0.11974528733E+04  0.00000000000E+00 0. -1.
         21    1    1    2  503  502 -0.38993876291E+03  0.71691799868E+02 -0.52751334989E+03  0.65989566395E+03  0.00000000000E+00 0. -1.
         21    1    1    2  504  505  0.19157423481E+03 -0.31478807013E+01 -0.38415839791E+03  0.42928809823E+03  0.00000000000E+00 0.  1.
         21    1    1    2  505  501  0.32134232860E+03 -0.37346330369E+02 -0.54311771301E+02  0.32803263411E+03  0.00000000000E+00 0.  1.
          2    1    1    2  501    0 -0.12297780050E+03 -0.31197588797E+02  0.68170308042E+03  0.69340891169E+03  0.00000000000E+00 0.  1.
<scales pt_clust_3="281.38513" pt_clust_4="179.38425" pt_clust_5="14000.00000" pt_clust_6="126.87328"></scales>
<clustering>
<clus scale="  126.873">  1  6  2 -1</clus>
<clus scale="  179.384">  2  4  1 -1</clus>
<clus scale="  281.385">  2  3  1 -1</clus>
<clus scale="  179.384">  2  3  1 -1</clus>
</clustering>
</event>
<event>
 6    0  0.4796958E+002  0.1112768E+03  0.7546771E-02  0.1258224E+00
          2   -1    0    0  504    0 -0.00000000000E+00  0.00000000000E+00  0.13575091669E+04  0.13575091669E+04  0.00000000000E+00 0. -1.
         21   -1    0    0  501  502  0.00000000000E+00 -0.00000000000E+00 -0.71708276390E+03  0.71708276390E+03  0.00000000000E+00 0.  1.
         21    1    1    2  503  502 -0.55100534957E+02 -0.29338646869E+02 -0.65698655423E+03  0.65994557169E+03  0.00000000000E+00 0.  1.
         21    1    1    2  504  505  0.38861465723E+02  0.84631007331E+02  0.29312191355E+03  0.30755987567E+03  0.00000000000E+00 0. -1.
         21    1    1    2  505  503  0.15300681893E+02 -0.88741814692E+02 -0.11466138936E+02  0.90778262174E+02  0.00000000000E+00 0.  1.
          2    1    1    2  501    0  0.93838734145E+00  0.33449454230E+02  0.10157571827E+04  0.10163082213E+04  0.00000000000E+00 0. -1.
<scales pt_clust_3="62.35298" pt_clust_4="111.27676" pt_clust_5="14000.00000" pt_clust_6="33.46261"></scales>
<clustering>
<clus scale="   33.463">  1  6  2 -1</clus>
<clus scale="   62.353">  2  3  1 -1</clus>
<clus scale="  111.277">  1  4  2 -1</clus>
<clus scale="   62.353">  2  3  1 -1</clus>
</clustering>
</event>
<event>
 6    0  0.4796958E+002  0.1441755E+03  0.7546771E-02  0.1207818E+00
         21   -1    0    0  504  502  0.00000000000E+00  0.00000000000E+00  0.52450293602E+03  0.52450293602E+03  0.00000000000E+00 0. -1.
          2   -1    0    0  505    0 -0.00000000000E+00 -0.00000000000E+00 -0.65242893392E+03  0.65242893392E+03  0.00000000000E+00 0. -1.
         21    1    1    2  503  501  0.12378958039E+03 -0.83776771752E+02 -0.12422099070E+03  0.19435344666E+03  0.00000000000E+00 0. -1.
         21    1    1    2  504  503 -0.59834315292E+02  0.35442939077E+02  0.39692475102E+02  0.80073964537E+02  0.00000000000E+00 0. -1.
         21    1    1    2  505  502 -0.39570754778E+02  0.77085998276E+02  0.42441774356E+03  0.43317261781E+03  0.00000000000E+00 0. -1.
          2    1    1    2  501    0 -0.24384510324E+02 -0.28752165601E+02 -0.46781522587E+03  0.46933184094E+03  0.00000000000E+00 0. -1.
<scales pt_clust_3="144.17550" pt_clust_4="70.35710" pt_clust_5="14000.00000" pt_clust_6="37.70002"></scales>
<clustering>
<clus scale="   37.700">  2  6  1 -1</clus>
<clus scale="   70.357">  1  4  2 -1</clus>
<clus scale="  144.176">  2  3  1 -1</clus>
<clus scale="   70.357">  1  3  2 -1</clus>
</clustering>
</event>
<event>
 6    0  0.6049536E+002  0.1442290E+03  0.7546771E-02  0.1207749E+00
          2   -1    0    0  504    0 -0.00000000000E+00  0.00000000000E+00  0.15914407356E+04  0.15914407356E+04  0.00000000000E+00 0.  1.
         21   -1    0    0  501  502  0.00000000000E+00 -0.00000000000E+00 -0.59309925552E+03  0.59309925552E+03  0.00000000000E+00 0. -1.
         21    1    1    2  503  502 -0.66988136292E+02  0.34381965201E+02 -0.43085901218E+03  0.43738886396E+03  0.00000000000E+00 0. -1.
         21    1    1    2  504  505  0.32395098301E+02 -0.23409119045E+02  0.24232640860E+02  0.46740241029E+02  0.00000000000E+00 0. -1.
         21    1    1    2  505  503 -0.82628556512E+02 -0.12817540088E+02 -0.13347721017E+03  0.15750534379E+03  0.00000000000E+00 0.  1.
          2    1    1    2  501    0  0.11722159450E+03  0.18446939318E+01  0.15384450616E+04  0.15429055424E+04  0.00000000000E+00 0.  1.
<scales pt_clust_3="75.21338" pt_clust_4="39.96785" pt_clust_5="14000.00000" pt_clust_6="144.22902"></scales>
<clustering>
<clus scale="   39.968">  1  4  2 -1</clus>
<clus scale="   75.213">  2  3  1 -1</clus>
<clus scale="  144.229">  1  6  2 -1</clus>
<clus scale="   75.213">  2  3  1 -1</clus>
</clustering>
</event>
<event>
 6    0  0.4796958E+002  0.1437732E+03  0.7546771E-02  0.1208340E+00
         21   -1    0    0  503  502  0.00000000000E+00  0.00000000000E+00  0.28464780061E+04  0.28464780061E+04  0.00000000000E+00 0.  1.
         -2   -1    0    0    0  501 -0.00000000000E+00 -0.00000000000E+00 -0.31879933676E+03  0.31879933676E+03  0.00000000000E+00 0. -1.
         21    1    1    2  503  501 -0.98906469477E+02  0.11610009379E+03 -0.12201420063E+03  0.19531816771E+03  0.00000000000E+00 0.  1.
         21    1    1    2  504  505  0.43780378477E+02 -0.93954450657E+02  0.18462765407E+03  0.21173457673E+03  0.00000000000E+00 0.  1.
         21    1    1    2  505  502  0.22473087930E+02 -0.43312641419E+02  0.26088300739E+04  0.26092863736E+04  0.00000000000E+00 0.  1.
         -2    1    1    2    0  504  0.32653003070E+02  0.21166998281E+02 -0.14376485802E+03  0.14893822487E+03  0.00000000000E+00 0. -1.
<scales pt_clust_3="143.77320" pt_clust_4="14000.00000" pt_clust_5="48.79081" pt_clust_6="38.91350"></scales>
<clustering>
<clus scale="   38.913">  2  6  1 -1</clus>
<clus scale="   48.791">  1  5  2 -1</clus>
<clus scale="  143.773">  2  3  1 -1</clus>
<clus scale="   48.791">  1  3  2 -1</clus>
</clustering>
</event>
<event>
 6    0  0.4796958E+002  0.1120745E+03  0.7546771E-02  0.1256776E+00
         21   -1    0    0  505  502  0.00000000000E+00  0.00000000000E+00  0.16461754092E+03  0.16461754092E+03  0.00000000000E+00 0. -1.
          1   -1    0    0  503    0 -0.00000000000E+00 -0.00000000000E+00 -0.20683760060E+04  0.20683760060E+04  0.00000000000E+00 0. -1.
         21    1    1    2  503  502  0.86944403192E+02 -0.74077837314E+02  0.11678217337E+03  0.16335523024E+03  0.00000000000E+00 0. -1.
         21    1    1    2  504  501 -0.50786479612E+02  0.32986572802E+02 -0.25379873255E+03  0.26092369984E+03  0.00000000000E+00 0. -1.
         21    1    1    2  505  504  0.20749511937E+02  0.21691288648E+02  0.94773005462E+01  0.31478142805E+02  0.00000000000E+00 0. -1.
          1    1    1    2  501    0 -0.56907435517E+02  0.19399975864E+02 -0.17762192064E+04  0.17772364740E+04  0.00000000000E+00 0. -1.
<scales pt_clust_3="112.07448" pt_clust_4="14000.00000" pt_clust_5="30.01757" pt_clust_6="60.07881"></scales>
<clustering>
<clus scale="   30.018">  1  5  2 -1</clus>
<clus scale="   60.079">  2  6  1 -1</clus>
<clus scale="  112.074">  1  3  2 -1</clus>
<clus scale="   30.018">  1  3  2 -1</clus>
</clustering>
</event>
<event>
 6    0  0.4796958E+002  0.9526900E+02  0.7546771E-02  0.1290571E+00
         21   -1    0    0  504  502  0.00000000000E+00  0.00000000000E+00  0.54906730734E+03  0.54906730734E+03  0.00000000000E+00 0.  1.
          4   -1    0    0  505    0 -0.00000000000E+00 -0.00000000000E+00 -0.21708884353E+03  0.21708884353E+03  0.00000000000E+00 0.  1.
         21    1    1    2  503  502  0.22991948838E+02 -0.23331611649E+02  0.22906023375E+02  0.39970985982E+02  0.00000000000E+00 0.  1.
         21    1    1    2  504  501 -0.44544055501E+02 -0.23576765905E+02  0.93550314859E+02  0.10626240248E+03  0.00000000000E+00 0.  1.
         21    1    1    2  505  503  0.10446949767E+03 -0.23460525831E+00  0.39936842279E+03  0.41280633244E+03  0.00000000000E+00 0.  1.
          4    1    1    2  501    0 -0.82917391010E+02  0.47142982813E+02 -0.18384629722E+03  0.20711642997E+03  0.00000000000E+00 0.  1.
<scales pt_clust_3="32.75658" pt_clust_4="48.95926" pt_clust_5="95.26900" pt_clust_6="14000.00000"></scales>
<clustering>
<clus scale="   32.757">  1  3  2 -1</clus>
<clus scale="   48.959">  1  4  2 -1</clus>
<clus scale="   95.269">  1  5  2 -1</clus>
<clus scale="   32.757">  1  3  2 -1</clus>
</clustering>
</event>
<event>
 6    0  0.4796958E+002  0.1410164E+03  0.7546771E-02  0.1211968E+00
         21   -1    0    0  504  502  0.00000000000E+00  0.00000000000E+00  0.29557751528E+03  0.29557751528E+03  0.00000000000E+00 0.  1.
          2   -1    0    0  505    0 -0.00000000000E+00 -0.00000000000E+00 -0.97967789397E+03  0.97967789397E+03  0.00000000000E+00 0.  1.
         21    1    1    2  503  501  0.34622451065E+00 -0.62954820687E+02 -0.32191327764E+02  0.70708633860E+02  0.00000000000E+00 0.  1.
         21    1    1    2  504  503 -0.17186976290E+02 -0.25076997325E+02  0.15342345516E+03  0.15640653612E+03  0.00000000000E+00 0.  1.
         21    1    1    2  505  502 -0.56625996659E+02  0.20472392512E+03  0.18157003735E+02  0.21318551967E+03  0.00000000000E+00 0.  1.
          2    1    1    2  501    0  0.73466748438E+02 -0.11669210710E+03 -0.82348950983E+03  0.83495471960E+03  0.00000000000E+00 0.  1.
<scales pt_clust_3="66.41854" pt_clust_4="30.40145" pt_clust_5="14000.00000" pt_clust_6="141.01635"></scales>
<clustering>
<clus scale="   30.401">  1  4  2 -1</clus>
<clus scale="   66.419">  1  3  2 -1</clus>
<clus scale="  141.016">  2  6  1 -1</clus>
<clus scale="   30.401">  1  3  2 -1</clus>
</clustering>
</event>
<event>
 6    0  0.4796958E+002  0.1254237E+03  0.7546771E-02  0.1234409E+00
          2   -1    0    0  505    0 -0.00000000000E+00  0.00000000000E+00  0.10545366435E+04  0.10545366435E+04  0.00000000000E+00 0. -1.
         21   -1    0    0  504  502  0.00000000000E+00 -0.00000000000E+00 -0.12034207032E+03  0.12034207032E+03  0.00000000000E+00 0. -1.
         21    1    1    2  503  502  0.19579657551E+02 -0.29901792264E+02  0.38179609139E+02  0.52298783202E+02  0.00000000000E+00 0. -1.
         21    1    1    2  504  501 -0.43683923019E+02  0.16843699933E+03  0.60997604850E+03  0.63431071852E+03  0.00000000000E+00 0. -1.
         21    1    1    2  505  503 -0.28221386005E+02 -0.94146990298E+02 -0.73191460468E+02  0.12254424628E+03  0.00000000000E+00 0. -1.
          2    1    1    2  501    0  0.52325651473E+02 -0.44388216770E+02  0.35923037599E+03  0.36572496582E+03  0.00000000000E+00 0. -1.
<scales pt_clust_3="35.74185" pt_clust_4="14000.00000" pt_clust_5="125.42367" pt_clust_6="69.60006"></scales>
<clustering>
<clus scale="   35.742">  2  3  1 -1</clus>
<clus scale="   69.600">  1  6  2 -1</clus>
<clus scale="  125.424">  2  5  1 -1</clus>
<clus scale="   35.742">  2  3  1 -1</clus>
</clustering>
</event>
<event>
 6    0  0.4796958E+002  0.1439804E+03  0.7546771E-02  0.1208071E+00
          2   -1    0    0  503    0 -0.00000000000E+00  0.00000000000E+00  0.12655370763E+04  0.12655370763E+04  0.00000000000E+00 0. -1.
         21   -1    0    0  504  502  0.00000000000E+00 -0.00000000000E+00 -0.59073279997E+03  0.59073279997E+03  0.00000000000E+00 0. -1.
         21    1    1    2  503  502 -0.39591941412E+02 -0.82423273904E+02  0.19034056657E+03  0.21116498097E+03  0.00000000000E+00 0.  1.
         21    1    1    2  504  505 -0.10190683319E+03  0.11409980977E+03 -0.38630868879E+03  0.41549749972E+03  0.00000000000E+00 0. -1.
         21    1    1    2  505  501  0.11992197324E+03 -0.60964153392E+02 -0.15383167382E+03  0.20435775379E+03  0.00000000000E+00 0.  1.
          2    1    1    2  501    0  0.21576801359E+02  0.29287617524E+02  0.10246040723E+04  0.10252496418E+04  0.00000000000E+00 0. -1.
<scales pt_clust_3="61.87581" pt_clust_4="143.98037" pt_clust_5="14000.00000" pt_clust_6="36.37751"></scales>
<clustering>
<clus scale="   36.378">  1  6  2 -1</clus>
<clus scale="   61.876">  1  3  2 -1</clus>
<clus scale="  143.980">  2  4  1 -1</clus>
<clus scale="  143.980">  2  3  1 -1</clus>
</clustering>
</event>
<event>
 6    0  0.4796958E+002  0.6191243E+02  0.7546771E-02  0.1389977E+00
         21   -1    0    0  503  502  0.00000000000E+00  0.00000000000E+00  0.46208853091E+02  0.46208853091E+02  0.00000000000E+00 0.  1.
          2   -1    0    0  504    0 -0.00000000000E+00 -0.00000000000E+00 -0.17566822147E+04  0.17566822147E+04  0.00000000000E+00 0.  1.
         21    1    1    2  503  505 -0.79724400023E+02 -0.43902962191E+02 -0.20487074959E+02  0.93290783513E+02  0.00000000000E+00 0.  1.
         21    1    1    2  504  502  0.25321522043E+02  0.20509360413E+02 -0.29998417858E+02  0.44291290533E+02  0.00000000000E+00 0.  1.
         21    1    1    2  505  501  0.82679041361E+02 -0.13345212458E+02 -0.12244252592E+04  0.12272860848E+04  0.00000000000E+00 0.  1.
          2    1    1    2  501    0 -0.28276163381E+02  0.36738814237E+02 -0.43556260953E+03  0.43802290888E+03  0.00000000000E+00 0.  1.
<scales pt_clust_3="61.91243" pt_clust_4="32.58548" pt_clust_5="14000.00000" pt_clust_6="46.39716"></scales>
<clustering>
<clus scale="   32.585">  1  4  2 -1</clus>
<clus scale="   46.397">  2  6  1 -1</clus>
<clus scale="   61.912">  1  3  2 -1</clus>
<clus scale="   32.585">  1  3  2 -1</clus>
</clustering>
</event>
<event>
 6    0  0.4796958E+002  0.1147825E+03  0.7546771E-02  0.1251961E+00
          1   -1    0    0  505    0 -0.00000000000E+00  0.00000000000E+00  0.95132024866E+03  0.95132024866E+03  0.00000000000E+00 0.  1.
         21   -1    0    0  503  502  0.00000000000E+00 -0.00000000000E+00 -0.11104064370E+03  0.11104064370E+03  0.00000000000E+00 0.  1.
         21    1    1    2  503  501  0.41435269204E+02 -0.24301234995E+01 -0.28485915645E+02  0.50341180204E+02  0.00000000000E+00 0.  1.
         21    1    1    2  504  502  0.39493158707E+02  0.86299163279E+02 -0.10380567460E+02  0.95472568563E+02  0.00000000000E+00 0.  1.
         21    1    1    2  505  504 -0.72835422653E+02 -0.11915493626E+03  0.25000900040E+03  0.28636933829E+03  0.00000000000E+00 0.  1.
          1    1    1    2  501    0 -0.80930052586E+01  0.35285896484E+02  0.62913708766E+03  0.63017780530E+03  0.00000000000E+00 0.  1.
<scales pt_clust_3="41.17875" pt_clust_4="114.78247" pt_clust_5="14000.00000" pt_clust_6="36.20209"></scales>
<clustering>
<clus scale="   36.202">  1  6  2 -1</clus>
<clus scale="   41.179">  2  3  1 -1</clus>
<clus scale="  114.782">  2  4  1 -1</clus>
<clus scale="   41.179">  2  3  1 -1</clus>
</clustering>
</event>
<event>
 6    0  0.4796958E+002  0.1166383E+03  0.7546771E-02  0.1248748E+00
          2   -1    0    0  503    0 -0.00000000000E+00  0.00000000000E+00  0.11663717883E+04  0.11663717883E+04  0.00000000000E+00 0.  1.
         21   -1    0    0  501  502  0.00000000000E+00 -0.00000000000E+00 -0.31605076397E+02  0.31605076397E+02  0.00000000000E+00 0. -1.
         21    1    1    2  503  505  0.42934893869E+02 -0.30191052419E+02  0.17093735461E+03  0.17881410448E+03  0.00000000000E+00 0. -1.
         21    1    1    2  504  502 -0.77997871128E+01  0.38802346796E+02  0.96068460533E+02  0.10390191483E+03  0.00000000000E+00 0. -1.
         21    1    1    2  505  504  0.10499003977E+03  0.18977347270E+02  0.15396891475E+03  0.18732184835E+03  0.00000000000E+00 0. -1.
          2    1    1    2  501    0 -0.14012514653E+03 -0.27588641647E+02  0.71379198198E+03  0.72793899701E+03  0.00000000000E+00 0.  1.
<scales pt_clust_3="48.55994" pt_clust_4="39.57851" pt_clust_5="14000.00000" pt_clust_6="116.63827"></scales>
<clustering>
<clus scale="   39.579">  2  4  1 -1</clus>
<clus scale="   48.560">  1  3  2 -1</clus>
<clus scale="  116.638">  1  6  2 -1</clus>
<clus scale="   39.579">  2  3  1 -1</clus>
</clustering>
</event>
<event>
 6    0  0.4796958E+002  0.1164537E+03  0.7546771E-02  0.1249065E+00
          2   -1    0    0  503    0 -0.00000000000E+00  0.00000000000E+00  0.20455837516E+03  0.20455837516E+03  0.00000000000E+00 0. -1.
         21   -1    0    0  505  502  0.00000000000E+00 -0.00000000000E+00 -0.11248872303E+04  0.11248872303E+04  0.00000000000E+00 0. -1.
         21    1    1    2  503  504 -0.10839337446E+02  0.93118449008E+02 -0.23610857007E+02  0.96674760669E+02  0.00000000000E+00 0. -1.
         21    1    1    2  504  502  0.76103214815E+02  0.72116203676E+01 -0.49678739329E+03  0.50263448042E+03  0.00000000000E+00 0. -1.
         21    1    1    2  505  501 -0.42916748624E+02  0.24683183974E+02 -0.53931008277E+03  0.54157776197E+03  0.00000000000E+00 0. -1.
          2    1    1    2  501    0 -0.22347128745E+02 -0.12501325335E+03  0.13937947793E+03  0.18855860241E+03  0.00000000000E+00 0. -1.
<scales pt_clust_3="14000.00000" pt_clust_4="48.52671" pt_clust_5="49.50865" pt_clust_6="116.45367"></scales>
<clustering>
<clus scale="   49.509">  2  5  1 -1</clus>
<clus scale="   48.527">  2  4  1 -1</clus>
<clus scale="  116.454">  1  6  2 -1</clus>
<clus scale="   49.509">  2  3  1 -1</clus>
</clustering>
</event>
<event>
 6    0  0.4796958E+002  0.1191118E+03  0.7546771E-02  0.1244570E+00
         21   -1    0    0  505  502  0.00000000000E+00  0.00000000000E+00  0.14225234224E+03  0.14225234224E+03  0.00000000000E+00 0. -1.
          1   -1    0    0  504    0 -0.00000000000E+00 -0.00000000000E+00 -0.20611724968E+04  0.20611724968E+04  0.00000000000E+00 0.  1.
         21    1    1    2  503  502  0.40368869042E+01 -0.82102120414E+02  0.10351392082E+03  0.13218239836E+03  0.00000000000E+00 0. -1.
         21    1    1    2  504  503  0.14098978124E+03  0.16823437355E+01 -0.12715294386E+04  0.12793232828E+04  0.00000000000E+00 0.  1.
         21    1    1    2  505  501 -0.10417066834E+03 -0.58175685864E+01 -0.14550481510E+03  0.17904475268E+03  0.00000000000E+00 0.  1.
          1    1    1    2  501    0 -0.40855999810E+02  0.86237345265E+02 -0.60539982172E+03  0.61287440522E+03  0.00000000000E+00 0.  1.
<scales pt_clust_3="82.20131" pt_clust_4="14000.00000" pt_clust_5="119.11181" pt_clust_6="83.93736"></scales>
<clustering>
<clus scale="   82.201">  1  3  2 -1</clus>
<clus scale="   83.937">  2  6  1 -1</clus>
<clus scale="  119.112">  1  5  2 -1</clus>
<clus scale="   82.201">  1  3  2 -1</clus>
</clustering>
</event>
<event>
 6    0  0.4796958E+002  0.6174758E+02  0.7546771E-02  0.1390641E+00
          2   -1    0    0  503    0 -0.00000000000E+00  0.00000000000E+00  0.80555303543E+03  0.80555303543E+03  0.00000000000E+00 0.  1.
         21   -1    0    0  504  502  0.00000000000E+00 -0.00000000000E+00 -0.14640279977E+03  0.14640279977E+03  0.00000000000E+00 0.  1.
         21    1    1    2  503  505 -0.19907774201E+02 -0.62175858606E+02  0.64629954650E+01  0.65604322856E+02  0.00000000000E+00 0.  1.
         21    1    1    2  504  501 -0.12792980772E+02  0.93691854581E+02  0.20337699867E+02  0.96723554565E+02  0.00000000000E+00 0.  1.
         21    1    1    2  505  502  0.15672125523E+02  0.26709716345E+02 -0.74239448439E+02  0.80439543572E+02  0.00000000000E+00 0.  1.
          2    1    1    2  501    0  0.17028629450E+02 -0.58225712319E+02  0.70658898876E+03  0.70918841420E+03  0.00000000000E+00 0.  1.
<scales pt_clust_3="52.42788" pt_clust_4="14000.00000" pt_clust_5="30.96812" pt_clust_6="61.74758"></scales>
<clustering>
<clus scale="   30.968">  2  5  1 -1</clus>
<clus scale="   52.428">  2  3  1 -1</clus>
<clus scale="   61.748">  1  6  2 -1</clus>
<clus scale="   30.968">  2  3  1 -1</clus>
</clustering>
</event>
<event>
 6    0  0.4796958E+002  0.1472056E+03  0.7546771E-02  0.1203949E+00
          2   -1    0    0  505    0 -0.00000000000E+00  0.00000000000E+00  0.26015200588E+03  0.26015200588E+03  0.00000000000E+00 0. -1.
         21   -1    0    0  504  502  0.00000000000E+00 -0.00000000000E+00 -0.11776519670E+04  0.11776519670E+04  0.00000000000E+00 0. -1.
         21    1    1    2  503  501 -0.33223093050E+01 -0.12800361940E+03 -0.43852464070E+03  0.45683675949E+03  0.00000000000E+00 0. -1.
         21    1    1    2  504  503  0.39582537119E+02 -0.22827643718E+02 -0.48307346719E+03  0.48522969124E+03  0.00000000000E+00 0. -1.
         21    1    1    2  505  502 -0.16340104973E+03  0.12802492465E+03 -0.17733771050E+03  0.27301821908E+03  0.00000000000E+00 0. -1.
          2    1    1    2  501    0  0.12714082191E+03  0.22806338468E+02  0.18143585725E+03  0.22271930309E+03  0.00000000000E+00 0. -1.
<scales pt_clust_3="147.20560" pt_clust_4="45.69331" pt_clust_5="14000.00000" pt_clust_6="130.21275"></scales>
<clustering>
<clus scale="   45.693">  2  4  1 -1</clus>
<clus scale="  130.213">  1  6  2 -1</clus>
<clus scale="  147.206">  2  3  1 -1</clus>
<clus scale="   45.693">  2  3  1 -1</clus>
</clustering>
</event>
<event>
 6    0  0.4796958E+002  0.1014963E+03  0.7546771E-02  0.1277181E+00
          2   -1    0    0  505    0 -0.00000000000E+00  0.00000000000E+00  0.36852351754E+03  0.36852351754E+03  0.00000000000E+00 0.  1.
         21   -1    0    0  504  502  0.00000000000E+00 -0.00000000000E+00 -0.13210531962E+03  0.13210531962E+03  0.00000000000E+00 0.  1.
         21    1    1    2  503  502  0.26858295853E+02  0.16506085863E+02 -0.68358803084E+02  0.75277784809E+02  0.00000000000E+00 0.  1.
         21    1    1    2  504  501  0.99379680045E+01 -0.88978110320E+02  0.70263517621E+02  0.11381049702E+03  0.00000000000E+00 0.  1.
         21    1    1    2  505  503 -0.64240495016E+02  0.10221265785E+03  0.64693665290E+02  0.13696546628E+03  0.00000000000E+00 0.  1.
          2    1    1    2  501    0  0.27444231159E+02 -0.29740633388E+02  0.16981981809E+03  0.17457508904E+03  0.00000000000E+00 0.  1.
<scales pt_clust_3="31.52489" pt_clust_4="101.49630" pt_clust_5="14000.00000" pt_clust_6="40.72661"></scales>
<clustering>
<clus scale="   31.525">  2  3  1 -1</clus>
<clus scale="   40.727">  1  6  2 -1</clus>
<clus scale="  101.496">  2  4  1 -1</clus>
<clus scale="   31.525">  2  3  1 -1</clus>
</clustering>
</event>
<event>
 6    0  0.4796958E+002  0.1381545E+03  0.7546771E-02  0.1215834E+00
         21   -1    0    0  504  502  0.00000000000E+00  0.00000000000E+00  0.46952223728E+03  0.46952223728E+03  0.00000000000E+00 0. -1.
          2   -1    0    0  503    0 -0.00000000000E+00 -0.00000000000E+00 -0.25482551514E+03  0.25482551514E+03  0.00000000000E+00 0.  1.
         21    1    1    2  503  505  0.32364647310E+02 -0.59728495260E+01 -0.86706108254E+01  0.34034171343E+02  0.00000000000E+00 0.  1.
         21    1    1    2  504  501 -0.81039795973E+02 -0.21026833357E+03  0.95607318343E+02  0.24478762214E+03  0.00000000000E+00 0. -1.
         21    1    1    2  505  502  0.15905690703E+02  0.12167097104E+03  0.25538617110E+03  0.28333533591E+03  0.00000000000E+00 0. -1.
          2    1    1    2  501    0  0.32769457960E+02  0.94570212051E+02 -0.12762615647E+03  0.16219062302E+03  0.00000000000E+00 0.  1.
<scales pt_clust_3="32.91117" pt_clust_4="138.15452" pt_clust_5="14000.00000" pt_clust_6="105.11881"></scales>
<clustering>
<clus scale="   32.911">  2  3  1 -1</clus>
<clus scale="  105.119">  2  6  1 -1</clus>
<clus scale="  138.155">  2  4  1 -1</clus>
<clus scale="  138.155">  1  3  2 -1</clus>
</clustering>
</event>
<event>
 6    0  0.4796958E+002  0.1155084E+03  0.7546771E-02  0.1250696E+00
          2   -1    0    0  503    0 -0.00000000000E+00  0.00000000000E+00  0.15521948208E+04  0.15521948208E+04  0.00000000000E+00 0.  1.
         21   -1    0    0  505  502  0.00000000000E+00 -0.00000000000E+00 -0.87910772829E+03  0.87910772829E+03  0.00000000000E+00 0. -1.
         21    1    1    2  503  504 -0.12671468927E+02  0.17385343546E+03  0.22028134697E+02  0.17570094441E+03  0.00000000000E+00 0.  1.
         21    1    1    2  504  502  0.28589000999E+02 -0.28486597695E+02 -0.75717741729E+03  0.75825223935E+03  0.00000000000E+00 0. -1.
         21    1    1    2  505  501 -0.10932020478E+02 -0.31648868024E+02 -0.35693046206E+02  0.48940305132E+02  0.00000000000E+00 0. -1.
          2    1    1    2  501    0 -0.49855115933E+01 -0.11371796974E+03  0.14439294213E+04  0.14484090602E+04  0.00000000000E+00 0.  1.
<scales pt_clust_3="14000.00000" pt_clust_4="60.12346" pt_clust_5="33.48373" pt_clust_6="115.50842"></scales>
<clustering>
<clus scale="   33.484">  2  5  1 -1</clus>
<clus scale="   60.123">  2  4  1 -1</clus>
<clus scale="  115.508">  1  6  2 -1</clus>
<clus scale="   33.484">  2  3  1 -1</clus>
</clustering>
</event>
<event>
 6    0  0.4796958E+002  0.8807412E+02  0.7546771E-02  0.1307584E+00
          2   -1    0    0  505    0 -0.00000000000E+00  0.00000000000E+00  0.17598851694E+04  0.17598851694E+04  0.00000000000E+00 0. -1.
         21   -1    0    0  504  502  0.00000000000E+00 -0.00000000000E+00 -0.47471477600E+02  0.47471477600E+02  0.00000000000E+00 0. -1.
         21    1    1    2  503  501  0.44953915823E+01  0.79162182074E+02  0.87097557485E+02  0.11778303841E+03  0.00000000000E+00 0. -1.
         21    1    1    2  504  503  0.20043274243E+02  0.35693910520E+02 -0.74740668723E+01  0.41613096090E+02  0.00000000000E+00 0. -1.
         21    1    1    2  505  502  0.36590946240E+02 -0.48322389553E+02  0.14149955939E+03  0.15393529805E+03  0.00000000000E+00 0. -1.
          2    1    1    2  501    0 -0.61129612065E+02 -0.66533703040E+02  0.14912906418E+04  0.14940252145E+04  0.00000000000E+00 0. -1.
<scales pt_clust_3="14000.00000" pt_clust_4="40.93639" pt_clust_5="57.09177" pt_clust_6="88.07412"></scales>
<clustering>
<clus scale="   40.936">  2  4  1 -1</clus>
<clus scale="   57.092">  2  5  1 -1</clus>
<clus scale="   88.074">  1  6  2 -1</clus>
<clus scale="   40.936">  2  3  1 -1</clus>
</clustering>
</event>
<event>
 6    0  0.4796958E+002  0.1577359E+03  0.7546771E-02  0.1191277E+00
         21   -1    0    0  504  502  0.00000000000E+00  0.00000000000E+00  0.11720997165E+04  0.11720997165E+04  0.00000000000E+00 0.  1.
          2   -1    0    0  503    0 -0.00000000000E+00 -0.00000000000E+00 -0.28649617151E+04  0.28649617151E+04  0.00000000000E+00 0. -1.
         21    1    1    2  503  505  0.16584455687E+03 -0.90666729666E+02 -0.20580158546E+03  0.27942649389E+03  0.00000000000E+00 0. -1.
         21    1    1    2  504  501 -0.95143986762E+02  0.12359936500E+03  0.98633646007E+03  0.99859340760E+03  0.00000000000E+00 0.  1.
         21    1    1    2  505  502 -0.33816629390E+02 -0.34584105797E+02  0.13859277844E+03  0.14679095010E+03  0.00000000000E+00 0.  1.
          2    1    1    2  501    0 -0.36883940723E+02  0.16514704627E+01 -0.26119896516E+04  0.26122505800E+04  0.00000000000E+00 0. -1.
<scales pt_clust_3="14000.00000" pt_clust_4="157.73588" pt_clust_5="48.77062" pt_clust_6="36.92089"></scales>
<clustering>
<clus scale="   36.921">  2  6  1 -1</clus>
<clus scale="   48.771">  1  5  2 -1</clus>
<clus scale="  157.736">  1  4  2 -1</clus>
<clus scale="   48.771">  1  3  2 -1</clus>
</clustering>
</event>
<event>
 6    0  0.4796958E+002  0.8105980E+02  0.7546771E-02  0.1326070E+00
         21   -1    0    0  504  502  0.00000000000E+00  0.00000000000E+00  0.15862773045E+03  0.15862773045E+03  0.00000000000E+00 0. -1.
         -2   -1    0    0    0  501 -0.00000000000E+00 -0.00000000000E+00 -0.97187769574E+03  0.97187769574E+03  0.00000000000E+00 0.  1.
         21    1    1    2  503  501 -0.55841592781E+02  0.66250593891E+02  0.88542066292E+01  0.87096622496E+02  0.00000000000E+00 0. -1.
         21    1    1    2  504  503 -0.64443048054E+02 -0.55155736110E+02  0.49084535946E+02  0.98001802725E+02  0.00000000000E+00 0. -1.
         21    1    1    2  505  502  0.67269522304E+02  0.35464972775E+02 -0.48504752733E+01  0.76200262698E+02  0.00000000000E+00 0. -1.
         -2    1    1    2    0  505  0.53015118532E+02 -0.46559830556E+02 -0.86633823259E+03  0.86920673828E+03  0.00000000000E+00 0.  1.
<scales pt_clust_3="60.55706" pt_clust_4="14000.00000" pt_clust_5="81.05980" pt_clust_6="70.55792"></scales>
<clustering>
<clus scale="   70.558">  2  6  1 -1</clus>
<clus scale="   60.557">  2  3  1 -1</clus>
<clus scale="   81.060">  2  5  1 -1</clus>
<clus scale="   81.060">  1  3  2 -1</clus>
</clustering>
</event>
<event>
 6    0  0.4796958E+002  0.1277258E+03  0.7546771E-02  0.1230870E+00
         -4   -1    0    0    0  501 -0.00000000000E+00  0.00000000000E+00  0.19463097222E+04  0.19463097222E+04  0.00000000000E+00 0. -1.
         21   -1    0    0  503  502  0.00000000000E+00 -0.00000000000E+00 -0.64656315896E+02  0.64656315896E+02  0.00000000000E+00 0.  1.
         21    1    1    2  503  505  0.24099850606E+02  0.25036180525E+02 -0.11907591962E+02  0.36734233091E+02  0.00000000000E+00 0.  1.
         21    1    1    2  504  501 -0.49148067230E+02  0.35945553871E+02  0.14987975784E+02  0.62707693098E+02  0.00000000000E+00 0.  1.
         21    1    1    2  505  504  0.63149063749E+01  0.51326776468E+02  0.30686321449E+02  0.60132905710E+02  0.00000000000E+00 0.  1.
         -4    1    1    2    0  502  0.18733310250E+02 -0.11230851086E+03  0.18478867010E+04  0.18513912062E+04  0.00000000000E+00 0. -1.
<scales pt_clust_3="34.75073" pt_clust_4="59.25140" pt_clust_5="59.25140" pt_clust_6="112.96612"></scales>
<clustering>
<clus scale="   34.751">  2  3  1 -1</clus>
<clus scale="   59.251">  4  5 -1 -1</clus>
<clus scale="  112.966">  1  6  2 -1</clus>
<clus scale="   34.751">  2  3  1 -1</clus>
</clustering>
</event>
<event>
 6    0  0.4796958E+002  0.1409099E+03  0.7546771E-02  0.1212110E+00
         21   -1    0    0  505  502  0.00000000000E+00  0.00000000000E+00  0.41581060050E+03  0.41581060050E+03  0.00000000000E+00 0.  1.
          2   -1    0    0  503    0 -0.00000000000E+00 -0.00000000000E+00 -0.69325710861E+03  0.69325710861E+03  0.00000000000E+00 0.  1.
         21    1    1    2  503  504 -0.35471009994E+02  0.88005801651E+01 -0.12254289743E+02  0.38546210946E+02  0.00000000000E+00 0.  1.
         21    1    1    2  504  502 -0.93331814581E+02 -0.99242770047E+02  0.29242631302E+03  0.32260363228E+03  0.00000000000E+00 0.  1.
         21    1    1    2  505  501  0.19746835342E+03  0.48312610635E+02 -0.19974059713E+02  0.20427144198E+03  0.00000000000E+00 0.  1.
          2    1    1    2  501    0 -0.68665528841E+02  0.42129579247E+02 -0.53764447168E+03  0.54364642390E+03  0.00000000000E+00 0.  1.
<scales pt_clust_3="36.54645" pt_clust_4="140.90992" pt_clust_5="14000.00000" pt_clust_6="109.12759"></scales>
<clustering>
<clus scale="   36.546">  2  3  1 -1</clus>
<clus scale="  109.128">  2  6  1 -1</clus>
<clus scale="  140.910">  1  4  2 -1</clus>
<clus scale="  140.910">  1  3  2 -1</clus>
</clustering>
</event>
<event>
 6    0  0.4796958E+002  0.1547867E+03  0.7546771E-02  0.1194712E+00
         21   -1    0    0  503  502  0.00000000000E+00  0.00000000000E+00  0.61752540994E+03  0.61752540994E+03  0.00000000000E+00 0.  1.
          1   -1    0    0  504    0 -0.00000000000E+00 -0.00000000000E+00 -0.64467501557E+02  0.64467501557E+02  0.00000000000E+00 0.  1.
         21    1    1    2  503  501 -0.13232695825E+03 -0.20088056135E+02  0.21891886203E+03  0.25659193680E+03  0.00000000000E+00 0.  1.
         21    1    1    2  504  505  0.10063832469E+03 -0.15512650077E+02  0.16254533395E+03  0.19180641360E+03  0.00000000000E+00 0.  1.
         21    1    1    2  505  502  0.55283230883E+02  0.76405531907E+01  0.18606260003E+03  0.19425216807E+03  0.00000000000E+00 0.  1.
          1    1    1    2  501    0 -0.23594597322E+02  0.27960153022E+02 -0.14468887632E+02  0.39342393027E+02  0.00000000000E+00 0.  1.
<scales pt_clust_3="144.28678" pt_clust_4="42.94798" pt_clust_5="42.94798" pt_clust_6="36.58518"></scales>
<clustering>
<clus scale="   36.585">  2  6  1 -1</clus>
<clus scale="   42.948">  4  5 -1 -1</clus>
<clus scale="  144.287">  2  3  1 -1</clus>
<clus scale="  154.787">  1  3  2 -1</clus>
</clustering>
</event>
<event>
 6    0  0.4796958E+002  0.1020714E+03  0.7546771E-02  0.1275999E+00
          2   -1    0    0  504    0 -0.00000000000E+00  0.00000000000E+00  0.79068017135E+03  0.79068017135E+03  0.00000000000E+00 0.  1.
         21   -1    0    0  505  502  0.00000000000E+00 -0.00000000000E+00 -0.31067378314E+03  0.31067378314E+03  0.00000000000E+00 0. -1.
         21    1    1    2  503  501 -0.74709632176E+02  0.17447898455E+02  0.48993432921E+02  0.91029197347E+02  0.00000000000E+00 0.  1.
         21    1    1    2  504  502 -0.25253790708E+02 -0.99083253478E+02 -0.26930061515E+03  0.28805913696E+03  0.00000000000E+00 0. -1.
         21    1    1    2  505  503  0.52350831545E+02  0.86624148929E+02  0.25448356460E+03  0.27387266639E+03  0.00000000000E+00 0. -1.
          2    1    1    2  501    0  0.47612591339E+02 -0.49887939052E+01  0.44583000583E+03  0.44839295380E+03  0.00000000000E+00 0.  1.
<scales pt_clust_3="67.05174" pt_clust_4="102.07136" pt_clust_5="14000.00000" pt_clust_6="47.87324"></scales>
<clustering>
<clus scale="   47.873">  1  6  2 -1</clus>
<clus scale="   67.052">  1  3  2 -1</clus>
<clus scale="  102.071">  2  4  1 -1</clus>
<clus scale="  102.071">  2  3  1 -1</clus>
</clustering>
</event>
<event>
 6    0  0.4796958E+002  0.1022630E+03  0.7546771E-02  0.1275608E+00
         21   -1    0    0  504  502  0.00000000000E+00  0.00000000000E+00  0.44065695403E+03  0.44065695403E+03  0.00000000000E+00 0. -1.
          1   -1    0    0  503    0 -0.00000000000E+00 -0.00000000000E+00 -0.16555338194E+03  0.16555338194E+03  0.00000000000E+00 0.  1.
         21    1    1    2  503  505  0.76710136571E+02  0.63577149653E+02  0.67525947537E+02  0.12035884929E+03  0.00000000000E+00 0.  1.
         21    1    1    2  504  501  0.24327631179E+02 -0.16121721550E+03  0.18701162967E+03  0.24810516691E+03  0.00000000000E+00 0. -1.
         21    1    1    2  505  502 -0.43466677125E+02  0.18934614693E+02  0.10084769553E+03  0.11143666070E+03  0.00000000000E+00 0. -1.
          1    1    1    2  501    0 -0.57571090625E+02  0.78705451158E+02 -0.80281700653E+02  0.12630965908E+03  0.00000000000E+00 0.  1.
<scales pt_clust_3="94.37766" pt_clust_4="102.26302" pt_clust_5="47.41172" pt_clust_6="14000.00000"></scales>
<clustering>
<clus scale="   47.412">  1  5  2 -1</clus>
<clus scale="   94.378">  1  3  2 -1</clus>
<clus scale="  102.263">  1  4  2 -1</clus>
<clus scale="   47.412">  1  3  2 -1</clus>
</clustering>
</event>
<event>
 6    0  0.4796958E+002  0.1470311E+03  0.7546771E-02  0.1204169E+00
         -1   -1    0    0    0  501 -0.00000000000E+00  0.00000000000E+00  0.28881423332E+04  0.28881423332E+04  0.00000000000E+00 0.  1.
         21   -1    0    0  504  502  0.00000000000E+00 -0.00000000000E+00 -0.19747082737E+03  0.19747082737E+03  0.00000000000E+00 0.  1.
         21    1    1    2  503  505 -0.27186115761E+02 -0.16694669430E+03  0.13964459035E+03  0.21934195960E+03  0.00000000000E+00 0.  1.
         21    1    1    2  504  501 -0.70635588769E+02  0.11981185745E+03  0.19139904244E+03  0.23659640960E+03  0.00000000000E+00 0.  1.
         21    1    1    2  505  502  0.34758577250E+02 -0.13217477608E+02 -0.13168411608E+03  0.13683408506E+03  0.00000000000E+00 0.  1.
         -1    1    1    2    0  503  0.63063127280E+02  0.60352314460E+02  0.24913119891E+04  0.24928407063E+04  0.00000000000E+00 0.  1.
<scales pt_clust_3="14000.00000" pt_clust_4="147.03111" pt_clust_5="37.18683" pt_clust_6="87.48304"></scales>
<clustering>
<clus scale="   37.187">  2  5  1 -1</clus>
<clus scale="   87.483">  1  6  2 -1</clus>
<clus scale="  147.031">  2  4  1 -1</clus>
<clus scale="   37.187">  2  3  1 -1</clus>
</clustering>
</event>
<event>
 6    0  0.4796958E+002  0.9928275E+02  0.7546771E-02  0.1281811E+00
          2   -1    0    0  502    0 -0.00000000000E+00  0.00000000000E+00  0.13028127614E+04  0.13028127614E+04  0.00000000000E+00 0. -1.
         21   -1    0    0  505  502  0.00000000000E+00 -0.00000000000E+00 -0.40821653506E+02  0.40821653506E+02  0.00000000000E+00 0. -1.
         21    1    1    2  503  504  0.18344787539E+02  0.57310601950E+02  0.26437870435E+03  0.27114043527E+03  0.00000000000E+00 0.  1.
         21    1    1    2  504  501  0.10971204237E+03 -0.20742911711E+02  0.52943662988E+03  0.54108238345E+03  0.00000000000E+00 0. -1.
         21    1    1    2  505  503 -0.38134672545E+02 -0.44378658668E+02  0.41179763539E+01  0.58657278530E+02  0.00000000000E+00 0. -1.
          2    1    1    2  501    0 -0.89922157360E+02  0.78109684286E+01  0.46405779733E+03  0.47275431767E+03  0.00000000000E+00 0. -1.
<scales pt_clust_3="47.07508" pt_clust_4="14000.00000" pt_clust_5="58.51255" pt_clust_6="99.28275"></scales>
<clustering>
<clus scale="   58.513">  2  5  1 -1</clus>
<clus scale="   47.075">  2  3  1 -1</clus>
<clus scale="   99.283">  1  6  2 -1</clus>
<clus scale="   58.513">  2  3  1 -1</clus>
</clustering>
</event>
<event>
 6    0  0.4796958E+002  0.1544677E+03  0.7546771E-02  0.1195088E+00
         21   -1    0    0  504  502  0.00000000000E+00  0.00000000000E+00  0.63798201036E+03  0.63798201036E+03  0.00000000000E+00 0. -1.
          2   -1    0    0  505    0 -0.00000000000E+00 -0.00000000000E+00 -0.48826860108E+03  0.48826860108E+03  0.00000000000E+00 0. -1.
         21    1    1    2  503  502  0.18193371869E+02 -0.47061915978E+02  0.67032152158E+02  0.83899535984E+02  0.00000000000E+00 0. -1.
         21    1    1    2  504  501  0.12293610522E+03  0.10790314878E+03  0.48116519546E+03  0.50820893421E+03  0.00000000000E+00 0. -1.
         21    1    1    2  505  503 -0.35460366173E+02  0.93065059164E+02 -0.63005317901E+01  0.99790979087E+02  0.00000000000E+00 0. -1.
          2    1    1    2  501    0 -0.10566911092E+03 -0.15390629197E+03 -0.39218340655E+03  0.43435116217E+03  0.00000000000E+00 0. -1.
<scales pt_clust_3="50.45615" pt_clust_4="14000.00000" pt_clust_5="95.39902" pt_clust_6="154.46771"></scales>
<clustering>
<clus scale="   50.456">  1  3  2 -1</clus>
<clus scale="   95.399">  2  5  1 -1</clus>
<clus scale="  154.468">  2  6  1 -1</clus>
<clus scale="   50.456">  1  3  2 -1</clus>
</clustering>
</event>
<event>
 6    0  0.4796958E+002  0.7720187E+02  0.7546771E-02  0.1337185E+00
          3   -1    0    0  503    0 -0.00000000000E+00  0.00000000000E+00  0.14052422609E+03  0.14052422609E+03  0.00000000000E+00 0. -1.
         21   -1    0    0  505  502  0.00000000000E+00 -0.00000000000E+00 -0.36904835782E+03  0.36904835782E+03  0.00000000000E+00 0. -1.
         21    1    1    2  503  504 -0.77061750160E+02 -0.39904799556E+02 -0.74857506130E+02  0.11460607571E+03  0.00000000000E+00 0. -1.
         21    1    1    2  504  502 -0.35727436484E+02  0.38841390661E+02 -0.43148728854E+02  0.68168292833E+02  0.00000000000E+00 0. -1.
         21    1    1    2  505  501  0.36656308119E+02  0.21124757074E+02 -0.20183800435E+03  0.20622444154E+03  0.00000000000E+00 0. -1.
          3    1    1    2  501    0  0.76132878525E+02 -0.20061348179E+02  0.91320107605E+02  0.12057377383E+03  0.00000000000E+00 0. -1.
<scales pt_clust_3="14000.00000" pt_clust_4="51.56339" pt_clust_5="42.30769" pt_clust_6="77.20187"></scales>
<clustering>
<clus scale="   42.308">  2  5  1 -1</clus>
<clus scale="   51.563">  2  4  1 -1</clus>
<clus scale="   77.202">  1  6  2 -1</clus>
<clus scale="   42.308">  2  3  1 -1</clus>
</clustering>
</event>
<event>
 6    0  0.4796958E+002  0.1228229E+03  0.7546771E-02  0.1238511E+00
         21   -1    0    0  501  502  0.00000000000E+00  0.00000000000E+00  0.26326444034E+02  0.26326444034E+02  0.00000000000E+00 0.  1.
          2   -1    0    0  505    0 -0.00000000000E+00 -0.00000000000E+00 -0.25724522964E+04  0.25724522964E+04  0.00000000000E+00 0.  1.
         21    1    1    2  503  502 -0.32714414987E+02 -0.26078376063E+02 -0.44255402267E+02  0.60900371722E+02  0.00000000000E+00 0.  1.
         21    1    1    2  504  503 -0.62051941954E+01 -0.76847121103E+02 -0.97568218092E+02  0.12435248947E+03  0.00000000000E+00 0.  1.
         21    1    1    2  505  504  0.71994048116E+02  0.12612671902E+03 -0.12323932768E+04  0.12409207392E+04  0.00000000000E+00 0.  1.
          2    1    1    2  501    0 -0.33074438934E+02 -0.23201221849E+02 -0.11719089552E+04  0.11726051400E+04  0.00000000000E+00 0.  1.
<scales pt_clust_3="33.72758" pt_clust_4="33.72758" pt_clust_5="113.97005" pt_clust_6="40.40068"></scales>
<clustering>
<clus scale="   33.728">  3  4 -1 -1</clus>
<clus scale="   40.401">  2  6  1 -1</clus>
<clus scale="  113.970">  2  5  1 -1</clus>
<clus scale="  122.823">  1  3  2 -1</clus>
</clustering>
</event>
<event>
 6    0  0.4796958E+002  0.1261110E+03  0.7546771E-02  0.1233343E+00
          2   -1    0    0  504    0 -0.00000000000E+00  0.00000000000E+00  0.43044654201E+03  0.43044654201E+03  0.00000000000E+00 0. -1.
         21   -1    0    0  505  502  0.00000000000E+00 -0.00000000000E+00 -0.16985612445E+04  0.16985612445E+04  0.00000000000E+00 0.  1.
         21    1    1    2  503  501  0.24574931265E+02 -0.12024000324E+03 -0.50827071607E+01  0.12283085743E+03  0.00000000000E+00 0.  1.
         21    1    1    2  504  502 -0.12634505696E+02  0.60666709127E+02 -0.14003754127E+04  0.14017458318E+04  0.00000000000E+00 0.  1.
         21    1    1    2  505  503  0.99245070424E+01  0.87149570589E+02 -0.22442409622E+03  0.24095584337E+03  0.00000000000E+00 0.  1.
          2    1    1    2  501    0 -0.21864932611E+02 -0.27576276477E+02  0.36176751362E+03  0.36347525392E+03  0.00000000000E+00 0. -1.
<scales pt_clust_3="126.11100" pt_clust_4="61.74128" pt_clust_5="14000.00000" pt_clust_6="35.19270"></scales>
<clustering>
<clus scale="   35.193">  1  6  2 -1</clus>
<clus scale="   61.741">  2  4  1 -1</clus>
<clus scale="  126.111">  1  3  2 -1</clus>
<clus scale="   61.741">  2  3  1 -1</clus>
</clustering>
</event>
<event>
 6    0  0.4796958E+002  0.7387775E+02  0.7546771E-02  0.1347382E+00
          2   -1    0    0  504    0 -0.00000000000E+00  0.00000000000E+00  0.73483725232E+03  0.73483725232E+03  0.00000000000E+00 0.  1.
         21   -1    0    0  503  502  0.00000000000E+00 -0.00000000000E+00 -0.21236741336E+03  0.21236741336E+03  0.00000000000E+00 0. -1.
         21    1    1    2  503  501 -0.83051940968E+02 -0.60801726925E+01  0.19476084551E+03  0.21181685566E+03  0.00000000000E+00 0.  1.
         21    1    1    2  504  505 -0.67182876599E+01 -0.44252367839E+02  0.40730796421E+02  0.60517809160E+02  0.00000000000E+00 0.  1.
         21    1    1    2  505  502  0.23304246805E+02  0.61737364418E+02 -0.18587028313E+03  0.19723679229E+03  0.00000000000E+00 0. -1.
          2    1    1    2  501    0  0.66465981823E+02 -0.11404823886E+02  0.47284848015E+03  0.47763320857E+03  0.00000000000E+00 0.  1.
<scales pt_clust_3="14000.00000" pt_clust_4="44.75944" pt_clust_5="65.62577" pt_clust_6="73.87775"></scales>
<clustering>
<clus scale="   44.759">  1  4  2 -1</clus>
<clus scale="   65.626">  2  5  1 -1</clus>
<clus scale="   73.878">  1  6  2 -1</clus>
<clus scale="   65.626">  2  3  1 -1</clus>
</clustering>
</event>
<event>
 6    0  0.4796958E+002  0.9203693E+02  0.7546771E-02  0.1297993E+00
         -3   -1    0    0    0  501 -0.00000000000E+00  0.00000000000E+00  0.84943713572E+03  0.84943713572E+03  0.00000000000E+00 0. -1.
         21   -1    0    0  504  502  0.00000000000E+00 -0.00000000000E+00 -0.83110390230E+02  0.83110390230E+02  0.00000000000E+00 0.  1.
         21    1    1    2  503  501 -0.45656886707E+02  0.38611691922E+02  0.88886313416E+02  0.10712698432E+03  0.00000000000E+00 0.  1.
         21    1    1    2  504  503 -0.93886626494E+01  0.10709115924E+03  0.16493359483E+02  0.10875980085E+03  0.00000000000E+00 0.  1.
         21    1    1    2  505  502  0.69587178919E+02 -0.56000879122E+02  0.57098658779E+02  0.10601288019E+03  0.00000000000E+00 0.  1.
         -3    1    1    2    0  505 -0.14541629562E+02 -0.89701972040E+02  0.60384841381E+03  0.61064786059E+03  0.00000000000E+00 0. -1.
<scales pt_clust_3="59.79477" pt_clust_4="92.03693" pt_clust_5="14000.00000" pt_clust_6="77.89736"></scales>
<clustering>
<clus scale="   59.795">  1  3  2 -1</clus>
<clus scale="   77.897">  1  6  2 -1</clus>
<clus scale="   92.037">  2  4  1 -1</clus>
<clus scale="   92.037">  2  3  1 -1</clus>
</clustering>
</event>
<event>
 6    0  0.4796958E+002  0.6697473E+02  0.7546771E-02  0.1370694E+00
         -2   -1    0    0    0  501 -0.00000000000E+00  0.00000000000E+00  0.25194531855E+04  0.25194531855E+04  0.00000000000E+00 0. -1.
         21   -1    0    0  505  502  0.00000000000E+00 -0.00000000000E+00 -0.69962639427E+02  0.69962639427E+02  0.00000000000E+00 0. -1.
         21    1    1    2  503  501 -0.77062646738E+02  0.40701883274E+02  0.15724442349E+04  0.15748575068E+04  0.00000000000E+00 0.  1.
         21    1    1    2  504  502 -0.53180943833E+02 -0.42904975733E+02 -0.38970426707E+02  0.78662213847E+02  0.00000000000E+00 0. -1.
         21    1    1    2  505  503  0.65266195293E+02  0.10205704506E+02  0.11827549004E+03  0.13547296482E+03  0.00000000000E+00 0. -1.
         -2    1    1    2    0  504  0.64977395278E+02 -0.80026120464E+01  0.79774124791E+03  0.80042313954E+03  0.00000000000E+00 0. -1.
<scales pt_clust_3="37.74978" pt_clust_4="14000.00000" pt_clust_5="66.97473" pt_clust_6="65.46834"></scales>
<clustering>
<clus scale="   65.468">  1  6  2 -1</clus>
<clus scale="   37.750">  1  3  2 -1</clus>
<clus scale="   66.975">  1  5  2 -1</clus>
<clus scale="   66.975">  2  3  1 -1</clus>
</clustering>
</event>
<event>
 6    0  0.4796958E+002  0.8171751E+02  0.7546771E-02  0.1324247E+00
         21   -1    0    0  504  502  0.00000000000E+00  0.00000000000E+00  0.20508375242E+04  0.20508375242E+04  0.00000000000E+00 0.  1.
         -1   -1    0    0    0  501 -0.00000000000E+00 -0.00000000000E+00 -0.26861808709E+03  0.26861808709E+03  0.00000000000E+00 0.  1.
         21    1    1    2  503  501  0.33483450433E+02  0.77110753937E+02  0.41278171703E+03  0.42125521450E+03  0.00000000000E+00 0. -1.
         21    1    1    2  504  503 -0.42830897364E+02  0.52660933491E+01  0.16132060303E+04  0.16137831061E+04  0.00000000000E+00 0.  1.
         21    1    1    2  505  502 -0.39027963048E+02 -0.71137615300E+02 -0.82665695480E+02  0.11583332603E+03  0.00000000000E+00 0. -1.
         -1    1    1    2    0  505  0.48375409979E+02 -0.11239231986E+02 -0.16110261477E+03  0.16858396458E+03  0.00000000000E+00 0.  1.
<scales pt_clust_3="14000.00000" pt_clust_4="43.15342" pt_clust_5="81.71751" pt_clust_6="49.29686"></scales>
<clustering>
<clus scale="   43.153">  1  4  2 -1</clus>
<clus scale="   49.297">  2  6  1 -1</clus>
<clus scale="   81.718">  2  5  1 -1</clus>
<clus scale="   43.153">  1  3  2 -1</clus>
</clustering>
</event>
<event>
 6    0  0.4796958E+002  0.1153306E+03  0.7546771E-02  0.1251005E+00
         21   -1    0    0  501  502  0.00000000000E+00  0.00000000000E+00  0.77561628508E+02  0.77561628508E+02  0.00000000000E+00 0. -1.
          2   -1    0    0  504    0 -0.00000000000E+00 -0.00000000000E+00 -0.27814305053E+03  0.27814305053E+03  0.00000000000E+00 0. -1.
         21    1    1    2  503  505 -0.12264387022E+02  0.57004568609E+02 -0.21489102947E+02  0.62142719419E+02  0.00000000000E+00 0. -1.
         21    1    1    2  504  503 -0.58850896066E+02  0.26201048877E+02 -0.31410239422E+02  0.71669561674E+02  0.00000000000E+00 0. -1.
         21    1    1    2  505  502 -0.12332540328E+02 -0.29828028706E+02  0.11618215435E+02  0.34304311351E+02  0.00000000000E+00 0. -1.
          2    1    1    2  501    0  0.83447823416E+02 -0.53377588780E+02 -0.15930029509E+03  0.18758808660E+03  0.00000000000E+00 0. -1.
<scales pt_clust_3="48.42679" pt_clust_4="48.42679" pt_clust_5="32.27697" pt_clust_6="100.86779"></scales>
<clustering>
<clus scale="   32.277">  1  5  2 -1</clus>
<clus scale="   48.427">  3  4 -1 -1</clus>
<clus scale="  100.868">  2  6  1 -1</clus>
<clus scale="   32.277">  1  3  2 -1</clus>
</clustering>
</event>
<event>
 6    0  0.4796958E+002  0.1546471E+03  0.7546771E-02  0.1194876E+00
         -2   -1    0    0    0  501 -0.00000000000E+00  0.00000000000E+00  0.11198706408E+04  0.11198706408E+04  0.00000000000E+00 0.  1.
         21   -1    0    0  504  502  0.00000000000E+00 -0.00000000000E+00 -0.80464686522E+02  0.80464686522E+02  0.00000000000E+00 0. -1.
         21    1    1    2  503  501  0.12370046361E+03  0.11344801856E+03  0.50604521348E+03  0.53315477649E+03  0.00000000000E+00 0. -1.
         21    1    1    2  504  503 -0.19105894720E+02 -0.42293433346E+02 -0.49346677538E+02  0.67741156628E+02  0.00000000000E+00 0. -1.
         21    1    1    2  505  502 -0.45339146574E+02 -0.30957927559E+02  0.39026887043E+03  0.39411143439E+03  0.00000000000E+00 0.  1.
         -2    1    1    2    0  505 -0.59255422315E+02 -0.40196657653E+02  0.19243854795E+03  0.20532795986E+03  0.00000000000E+00 0.  1.
<scales pt_clust_3="141.91223" pt_clust_4="46.40872" pt_clust_5="51.38826" pt_clust_6="51.38826"></scales>
<clustering>
<clus scale="   46.409">  2  4  1 -1</clus>
<clus scale="   51.388">  5  6 -1 -1</clus>
<clus scale="  141.912">  2  3  1 -1</clus>
<clus scale="   46.409">  2  3  1 -1</clus>
</clustering>
</event>
<event>
 6    0  0.4796958E+002  0.6130105E+02  0.7546771E-02  0.1392452E+00
         21   -1    0    0  505  502  0.00000000000E+00  0.00000000000E+00  0.29847199867E+03  0.29847199867E+03  0.00000000000E+00 0. -1.
          2   -1    0    0  504    0 -0.00000000000E+00 -0.00000000000E+00 -0.11125523336E+04  0.11125523336E+04  0.00000000000E+00 0. -1.
         21    1    1    2  503  502  0.80860245031E+02 -0.83578896162E+01  0.25105943318E+03  0.26389216080E+03  0.00000000000E+00 0. -1.
         21    1    1    2  504  503  0.40211177885E+02  0.35920623993E+02 -0.50538868035E+03  0.50825677396E+03  0.00000000000E+00 0. -1.
         21    1    1    2  505  501 -0.43927939647E+02 -0.60867557814E+01  0.23475077461E+02  0.50177601969E+02  0.00000000000E+00 0. -1.
          2    1    1    2  501    0 -0.77143483270E+02 -0.21475978596E+02 -0.58322616518E+03  0.58869779549E+03  0.00000000000E+00 0. -1.
<scales pt_clust_3="40.27470" pt_clust_4="14000.00000" pt_clust_5="44.34763" pt_clust_6="61.30105"></scales>
<clustering>
<clus scale="   44.348">  1  5  2 -1</clus>
<clus scale="   40.275">  1  3  2 -1</clus>
<clus scale="   61.301">  1  6  2 -1</clus>
<clus scale="   44.348">  1  3  2 -1</clus>
</clustering>
</event>
<event>
 6    0  0.4796958E+002  0.8727408E+02  0.7546771E-02  0.1309590E+00
          2   -1    0    0  504    0 -0.00000000000E+00  0.00000000000E+00  0.30683846381E+04  0.30683846381E+04  0.00000000000E+00 0.  1.
         21   -1    0    0  505  502  0.00000000000E+00 -0.00000000000E+00 -0.55621327613E+02  0.55621327613E+02  0.00000000000E+00 0. -1.
         21    1    1    2  503  502  0.98327116251E+02 -0.31517917691E+02  0.10265856436E+03  0.14560350875E+03  0.00000000000E+00 0. -1.
         21    1    1    2  504  503  0.16337440837E+02  0.31063389830E+02  0.76827563099E+03  0.76907690859E+03  0.00000000000E+00 0. -1.
         21    1    1    2  505  501 -0.82615955803E+02 -0.81971973078E+01  0.17637350592E+02  0.84874415066E+02  0.00000000000E+00 0. -1.
          2    1    1    2  501    0 -0.32048601285E+02  0.86517251683E+01  0.21241917645E+04  0.21244511333E+04  0.00000000000E+00 0.  1.
<scales pt_clust_3="14000.00000" pt_clust_4="39.33711" pt_clust_5="87.27408" pt_clust_6="33.19586"></scales>
<clustering>
<clus scale="   33.196">  1  6  2 -1</clus>
<clus scale="   39.337">  1  4  2 -1</clus>
<clus scale="   87.274">  2  5  1 -1</clus>
<clus scale="   87.274">  2  3  1 -1</clus>
</clustering>
</event>
<event>
 6    0  0.4796958E+002  0.2141259E+03  0.7546771E-02  0.1138340E+00
         21   -1    0    0  505  502  0.00000000000E+00  0.00000000000E+00  0.21206425075E+04  0.21206425075E+04  0.00000000000E+00 0. -1.
          2   -1    0    0  504    0 -0.00000000000E+00 -0.00000000000E+00 -0.20480199111E+04  0.20480199111E+04  0.00000000000E+00 0.  1.
         21    1    1    2  503  501 -0.99201638912E+02 -0.68327338520E+00  0.14368620285E+03  0.17460571844E+03  0.00000000000E+00 0.  1.
         21    1    1    2  504  502  0.14131439287E+03  0.15667473125E+03  0.15692144235E+04  0.15833352885E+04  0.00000000000E+00 0. -1.
         21    1    1    2  505  503 -0.10507276216E+03  0.44682217692E+01  0.37429428511E+03  0.38878845432E+03  0.00000000000E+00 0. -1.
          2    1    1    2  501    0  0.62960008200E+02 -0.16045967963E+03 -0.20145723150E+04  0.20219329573E+04  0.00000000000E+00 0.  1.
<scales pt_clust_3="83.36126" pt_clust_4="196.17092" pt_clust_5="83.36126" pt_clust_6="172.36958"></scales>
<clustering>
<clus scale="   83.361">  3  5 -1 -1</clus>
<clus scale="  172.370">  2  6  1 -1</clus>
<clus scale="  196.171">  1  4  2 -1</clus>
<clus scale="  196.171">  1  3  2 -1</clus>
</clustering>
</event>
<event>
 6    0  0.4796958E+002  0.8230148E+02  0.7546771E-02  0.1322644E+00
         21   -1    0    0  501  502  0.00000000000E+00  0.00000000000E+00  0.22971537752E+03  0.22971537752E+03  0.00000000000E+00 0.  1.
          2   -1    0    0  505    0 -0.00000000000E+00 -0.00000000000E+00 -0.70144499710E+03  0.70144499710E+03  0.00000000000E+00 0.  1.
         21    1    1    2  503  504  0.61449035837E+02  0.21995440439E+01  0.11450663163E+02  0.62545500927E+02  0.00000000000E+00 0. -1.
         21    1    1    2  504  502  0.87354445925E+01 -0.33267834402E+02  0.17774149096E+03  0.18103893064E+03  0.00000000000E+00 0.  1.
         21    1    1    2  505  503  0.40871775874E+02  0.61202023877E+02 -0.29152233381E+03  0.30066835700E+03  0.00000000000E+00 0. -1.
          2    1    1    2  501    0 -0.11105625630E+03 -0.30133733519E+02 -0.36939943989E+03  0.38690758606E+03  0.00000000000E+00 0.  1.
<scales pt_clust_3="71.42778" pt_clust_4="34.39559" pt_clust_5="82.30148" pt_clust_6="14000.00000"></scales>
<clustering>
<clus scale="   34.396">  1  4  2 -1</clus>
<clus scale="   71.428">  1  3  2 -1</clus>
<clus scale="   82.301">  2  5  1 -1</clus>
<clus scale="   34.396">  1  3  2 -1</clus>
</clustering>
</event>
<event>
 6    0  0.4796958E+002  0.1382250E+03  0.7546771E-02  0.1215737E+00
          2   -1    0    0  503    0 -0.00000000000E+00  0.00000000000E+00  0.50193653255E+03  0.50193653255E+03  0.00000000000E+00 0. -1.
         21   -1    0    0  501  502  0.00000000000E+00 -0.00000000000E+00 -0.49863937096E+03  0.49863937096E+03  0.00000000000E+00 0.  1.
         21    1    1    2  503  504  0.27784488969E+02  0.11942426172E+03  0.13203902215E+03  0.18018999829E+03  0.00000000000E+00 0. -1.
         21    1    1    2  504  505  0.19728911241E+01 -0.89709829191E+02 -0.22631395961E+03  0.24345380274E+03  0.00000000000E+00 0.  1.
         21    1    1    2  505  502 -0.57526208747E+00 -0.38949981875E+02 -0.23739482349E+03  0.24056960372E+03  0.00000000000E+00 0.  1.
          2    1    1    2  501    0 -0.29182118006E+02  0.92355493475E+01  0.33496692254E+03  0.33636249877E+03  0.00000000000E+00 0. -1.
<scales pt_clust_3="128.09620" pt_clust_4="34.27904" pt_clust_5="34.27904" pt_clust_6="30.60868"></scales>
<clustering>
<clus scale="   30.609">  1  6  2 -1</clus>
<clus scale="   34.279">  4  5 -1 -1</clus>
<clus scale="  128.096">  1  3  2 -1</clus>
<clus scale="  138.225">  2  3  1 -1</clus>
</clustering>
</event>
<event>
 6    0  0.4796958E+002  0.1444329E+03  0.7546771E-02  0.1207486E+00
         -1   -1    0    0    0  501 -0.00000000000E+00  0.00000000000E+00  0.13055439728E+04  0.13055439728E+04  0.00000000000E+00 0. -1.
         21   -1    0    0  505  502  0.00000000000E+00 -0.00000000000E+00 -0.44666765351E+03  0.44666765351E+03  0.00000000000E+00 0.  1.
         21    1    1    2  503  504 -0.99039255468E+02  0.14732283895E+03 -0.50816621470E+02  0.18464864478E+03  0.00000000000E+00 0.  1.
         21    1    1    2  504  501  0.48018667603E+02 -0.10364483632E+03  0.33223878526E+03  0.35132699151E+03  0.00000000000E+00 0. -1.
         21    1    1    2  505  503  0.24157369367E+02 -0.22037933472E+02 -0.31822109488E+03  0.31989672432E+03  0.00000000000E+00 0.  1.
         -1    1    1    2    0  502  0.26863218498E+02 -0.21640069157E+02  0.89567525033E+03  0.89633926566E+03  0.00000000000E+00 0. -1.
<scales pt_clust_3="144.43294" pt_clust_4="14000.00000" pt_clust_5="32.69937" pt_clust_6="34.58021"></scales>
<clustering>
<clus scale="   32.699">  2  5  1 -1</clus>
<clus scale="   34.580">  1  6  2 -1</clus>
<clus scale="  144.433">  2  3  1 -1</clus>
<clus scale="   32.699">  2  3  1 -1</clus>
</clustering>
</event>
<event>
 6    0  0.4796958E+002  0.1215584E+03  0.7546771E-02  0.1240548E+00
          2   -1    0    0  503    0 -0.00000000000E+00  0.00000000000E+00  0.10765239359E+04  0.10765239359E+04  0.00000000000E+00 0. -1.
         21   -1    0    0  505  502  0.00000000000E+00 -0.00000000000E+00 -0.24372277655E+03  0.24372277655E+03  0.00000000000E+00 0. -1.
         21    1    1    2  503  504  0.89152356340E+02 -0.64440916896E+02  0.56929517749E+02  0.12386179557E+03  0.00000000000E+00 0. -1.
         21    1    1    2  504  502  0.42415316232E+02  0.23969337780E+02 -0.19200753687E+03  0.19809210590E+03  0.00000000000E+00 0. -1.
         21    1    1    2  505  501 -0.12846218593E+03 -0.58542389464E+01  0.27200348358E+03  0.30086990612E+03  0.00000000000E+00 0. -1.
          2    1    1    2  501    0 -0.31054866447E+01  0.46325818063E+02  0.69587569486E+03  0.69742290482E+03  0.00000000000E+00 0. -1.
<scales pt_clust_3="14000.00000" pt_clust_4="48.88151" pt_clust_5="121.55839" pt_clust_6="46.42979"></scales>
<clustering>
<clus scale="   46.430">  1  6  2 -1</clus>
<clus scale="   48.882">  2  4  1 -1</clus>
<clus scale="  121.558">  1  5  2 -1</clus>
<clus scale="   48.882">  2  3  1 -1</clus>
</clustering>
</event>
<event>
 6    0  0.4796958E+002  0.2187773E+03  0.7546771E-02  0.1134798E+00
          2   -1    0    0  503    0 -0.00000000000E+00  0.00000000000E+00  0.14496062447E+04  0.14496062447E+04  0.00000000000E+00 0. -1.
         21   -1    0    0  504  502  0.00000000000E+00 -0.00000000000E+00 -0.11269249817E+04  0.11269249817E+04  0.00000000000E+00 0.  1.
         21    1    1    2  503  505  0.12319542298E+03  0.10197140011E+03 -0.76104457061E+03  0.77766581328E+03  0.00000000000E+00 0.  1.
         21    1    1    2  504  501 -0.44313659990E+02  0.54621985596E+02 -0.58638743392E+02  0.91573817212E+02  0.00000000000E+00 0. -1.
         21    1    1    2  505  502  0.61157525578E+02 -0.15282262121E+02 -0.27189525608E+03  0.27910718506E+03  0.00000000000E+00 0.  1.
          2    1    1    2  501    0 -0.14003928857E+03 -0.14131112358E+03  0.14142598331E+04  0.14281844109E+04  0.00000000000E+00 0. -1.
<scales pt_clust_3="57.21052" pt_clust_4="70.33677" pt_clust_5="57.21052" pt_clust_6="198.89701"></scales>
<clustering>
<clus scale="   57.211">  3  5 -1 -1</clus>
<clus scale="   70.337">  2  4  1 -1</clus>
<clus scale="  198.897">  1  6  2 -1</clus>
<clus scale="   70.337">  2  3  1 -1</clus>
</clustering>
</event>
<event>
 6    0  0.4796958E+002  0.1023973E+03  0.7546771E-02  0.1275334E+00
         21   -1    0    0  503  502  0.00000000000E+00  0.00000000000E+00  0.15319030360E+04  0.15319030360E+04  0.00000000000E+00 0. -1.
          2   -1    0    0  504    0 -0.00000000000E+00 -0.00000000000E+00 -0.14396379919E+04  0.14396379919E+04  0.00000000000E+00 0. -1.
         21    1    1    2  503  501  0.60085356334E+02  0.30758014432E+02 -0.57663123780E+01  0.67746260827E+02  0.00000000000E+00 0.  1.
         21    1    1    2  504  505 -0.44817300456E+02  0.59717133118E+02  0.83962656446E+02  0.11235859596E+03  0.00000000000E+00 0. -1.
         21    1    1    2  505  502 -0.29044887234E+02  0.11721422789E+02  0.14006627289E+04  0.14010128755E+04  0.00000000000E+00 0. -1.
          2    1    1    2  501    0  0.13776831356E+02 -0.10219657034E+03 -0.13865940289E+04  0.13904232956E+04  0.00000000000E+00 0. -1.
<scales pt_clust_3="62.89960" pt_clust_4="14000.00000" pt_clust_5="31.32088" pt_clust_6="102.39728"></scales>
<clustering>
<clus scale="   31.321">  1  5  2 -1</clus>
<clus scale="   62.900">  1  3  2 -1</clus>
<clus scale="  102.397">  2  6  1 -1</clus>
<clus scale="   31.321">  1  3  2 -1</clus>
</clustering>
</event>
<event>
 6    0  0.4796958E+002  0.1193043E+03  0.7546771E-02  0.1244249E+00
          2   -1    0    0  503    0 -0.00000000000E+00  0.00000000000E+00  0.44320291273E+04  0.44320291273E+04  0.00000000000E+00 0.  1.
         21   -1    0    0  504  502  0.00000000000E+00 -0.00000000000E+00 -0.29797470059E+03  0.29797470059E+03  0.00000000000E+00 0.  1.
         21    1    1    2  503  505 -0.45114652263E+02 -0.67443889343E+02  0.72106970066E+02  0.10855148636E+03  0.00000000000E+00 0.  1.
         21    1    1    2  504  501  0.36493782488E+02 -0.36203924032E+02 -0.22004392079E+03  0.22596868666E+03  0.00000000000E+00 0.  1.
         21    1    1    2  505  502  0.30547039681E+02 -0.13914179980E+02 -0.50883995171E+02  0.60958239823E+02  0.00000000000E+00 0.  1.
          2    1    1    2  501    0 -0.21926169906E+02  0.11756199336E+03  0.43328753726E+04  0.43345254151E+04  0.00000000000E+00 0.  1.
<scales pt_clust_3="80.77248" pt_clust_4="14000.00000" pt_clust_5="33.56674" pt_clust_6="119.30431"></scales>
<clustering>
<clus scale="   33.567">  2  5  1 -1</clus>
<clus scale="   80.772">  2  3  1 -1</clus>
<clus scale="  119.304">  1  6  2 -1</clus>
<clus scale="   33.567">  2  3  1 -1</clus>
</clustering>
</event>
<event>
 6    0  0.4796958E+002  0.1129591E+03  0.7546771E-02  0.1255186E+00
          2   -1    0    0  503    0 -0.00000000000E+00  0.00000000000E+00  0.15704821502E+04  0.15704821502E+04  0.00000000000E+00 0. -1.
         21   -1    0    0  504  502  0.00000000000E+00 -0.00000000000E+00 -0.13065474080E+03  0.13065474080E+03  0.00000000000E+00 0. -1.
         21    1    1    2  503  505  0.13415649874E+03 -0.12577434983E+02  0.21764932716E+03  0.25598317842E+03  0.00000000000E+00 0. -1.
         21    1    1    2  504  501 -0.64450108322E+02 -0.21679399997E+01 -0.66321988299E+02  0.92504716413E+02  0.00000000000E+00 0. -1.
         21    1    1    2  505  502  0.39526367699E+02 -0.77375489543E+00 -0.16611631250E+02  0.42882149350E+02  0.00000000000E+00 0. -1.
          2    1    1    2  501    0 -0.10923275812E+03  0.15519129878E+02  0.13051117018E+04  0.13097668468E+04  0.00000000000E+00 0. -1.
<scales pt_clust_3="14000.00000" pt_clust_4="33.45873" pt_clust_5="39.53394" pt_clust_6="112.95909"></scales>
<clustering>
<clus scale="   39.534">  2  5  1 -1</clus>
<clus scale="   33.459">  2  4  1 -1</clus>
<clus scale="  112.959">  1  6  2 -1</clus>
<clus scale="   39.534">  2  3  1 -1</clus>
</clustering>
</event>
<event>
 6    0  0.4796958E+002  0.1172034E+03  0.7546771E-02  0.1247783E+00
         21   -1    0    0  501  502  0.00000000000E+00  0.00000000000E+00  0.22921506340E+03  0.22921506340E+03  0.00000000000E+00 0.  1.
          2   -1    0    0  504    0 -0.00000000000E+00 -0.00000000000E+00 -0.15296358954E+04  0.15296358954E+04  0.00000000000E+00 0.  1.
         21    1    1    2  503  505  0.34488896192E+02 -0.11581489789E+02  0.30267460586E+02  0.47325828430E+02  0.00000000000E+00 0. -1.
         21    1    1    2  504  503 -0.89695741245E+02  0.88121863071E+02 -0.11608455989E+04  0.11676357708E+04  0.00000000000E+00 0.  1.
         21    1    1    2  505  502  0.70943006833E+02 -0.73745247500E+01  0.17649506782E+03  0.19036229353E+03  0.00000000000E+00 0.  1.
          2    1    1    2  501    0 -0.15736161780E+02 -0.69165848532E+02 -0.34633776141E+03  0.35352706597E+03  0.00000000000E+00 0.  1.
<scales pt_clust_3="34.02525" pt_clust_4="107.08389" pt_clust_5="34.02525" pt_clust_6="70.93336"></scales>
<clustering>
<clus scale="   34.025">  3  5 -1 -1</clus>
<clus scale="   70.933">  2  6  1 -1</clus>
<clus scale="  107.084">  2  4  1 -1</clus>
<clus scale="  117.203">  1  3  2 -1</clus>
</clustering>
</event>
<event>
 6    0  0.4796958E+002  0.1473693E+03  0.7546771E-02  0.1203743E+00
         21   -1    0    0  505  502  0.00000000000E+00  0.00000000000E+00  0.14852667044E+03  0.14852667044E+03  0.00000000000E+00 0.  1.
          2   -1    0    0  503    0 -0.00000000000E+00 -0.00000000000E+00 -0.15439694876E+04  0.15439694876E+04  0.00000000000E+00 0.  1.
         21    1    1    2  503  504 -0.12121126796E+03 -0.10736568434E+03 -0.36539756324E+03  0.39966853876E+03  0.00000000000E+00 0.  1.
         21    1    1    2  504  502  0.27364709401E+02  0.64312800195E+02  0.57006205060E+02  0.90192411016E+02  0.00000000000E+00 0.  1.
         21    1    1    2  505  501  0.11784129061E+03  0.53491186163E+01 -0.33475053840E+01  0.11801012090E+03  0.00000000000E+00 0.  1.
          2    1    1    2  501    0 -0.23994732048E+02  0.37703765532E+02 -0.10837039536E+04  0.10846250873E+04  0.00000000000E+00 0.  1.
<scales pt_clust_3="147.36931" pt_clust_4="70.81797" pt_clust_5="14000.00000" pt_clust_6="44.69140"></scales>
<clustering>
<clus scale="   44.691">  2  6  1 -1</clus>
<clus scale="   70.818">  1  4  2 -1</clus>
<clus scale="  147.369">  2  3  1 -1</clus>
<clus scale="   70.818">  1  3  2 -1</clus>
</clustering>
</event>
<event>
 6    0  0.4796958E+002  0.9543157E+02  0.7546771E-02  0.1290207E+00
         21   -1    0    0  504  502  0.00000000000E+00  0.00000000000E+00  0.44713458041E+02  0.44713458041E+02  0.00000000000E+00 0.  1.
         -2   -1    0    0    0  501 -0.00000000000E+00 -0.00000000000E+00 -0.15728787227E+04  0.15728787227E+04  0.00000000000E+00 0.  1.
         21    1    1    2  503  502  0.19191501285E+02  0.38771267981E+02 -0.12220387922E+02  0.44954007868E+02  0.00000000000E+00 0.  1.
         21    1    1    2  504  501 -0.29528683062E+02 -0.13034180911E+03 -0.15232401565E+03  0.20264139772E+03  0.00000000000E+00 0.  1.
         21    1    1    2  505  503 -0.19477969878E+02  0.86481070524E+02 -0.68637972585E+03  0.69208055523E+03  0.00000000000E+00 0.  1.
         -2    1    1    2    0  505  0.29815151655E+02  0.50894706046E+01 -0.67724113524E+03  0.67791621993E+03  0.00000000000E+00 0.  1.
<scales pt_clust_3="43.83606" pt_clust_4="14000.00000" pt_clust_5="95.43157" pt_clust_6="30.24642"></scales>
<clustering>
<clus scale="   30.246">  2  6  1 -1</clus>
<clus scale="   43.836">  1  3  2 -1</clus>
<clus scale="   95.432">  2  5  1 -1</clus>
<clus scale="   43.836">  1  3  2 -1</clus>
</clustering>
</event>
<event>
 6    0  0.4796958E+002  0.7926781E+02  0.7546771E-02  0.1331142E+00
          2   -1    0    0  505    0 -0.00000000000E+00  0.00000000000E+00  0.20250683155E+04  0.20250683155E+04  0.00000000000E+00 0. -1.
         21   -1    0    0  503  502  0.00000000000E+00 -0.00000000000E+00 -0.24744060906E+02  0.24744060906E+02  0.00000000000E+00 0.  1.
         21    1    1    2  503  501  0.11455522618E+02  0.27910904023E+02  0.18376098276E+01  0.30226219937E+02  0.00000000000E+00 0.  1.
         21    1    1    2  504  502 -0.69741895499E+02  0.83947567987E+01  0.20512198889E+03  0.21681659128E+03  0.00000000000E+00 0. -1.
         21    1    1    2  505  504 -0.60537888518E+01 -0.89440418492E+02  0.62074147920E+03  0.62718117065E+03  0.00000000000E+00 0. -1.
          2    1    1    2  501    0  0.64340161734E+02  0.53134757670E+02  0.11726231767E+04  0.11755883946E+04  0.00000000000E+00 0. -1.
<scales pt_clust_3="30.17031" pt_clust_4="67.73580" pt_clust_5="14000.00000" pt_clust_6="79.26781"></scales>
<clustering>
<clus scale="   30.170">  2  3  1 -1</clus>
<clus scale="   67.736">  2  4  1 -1</clus>
<clus scale="   79.268">  1  6  2 -1</clus>
<clus scale="   30.170">  2  3  1 -1</clus>
</clustering>
</event>
<event>
 6    0  0.4796958E+002  0.1048163E+03  0.7546771E-02  0.1270482E+00
         -2   -1    0    0    0  501 -0.00000000000E+00  0.00000000000E+00  0.52436954963E+02  0.52436954963E+02  0.00000000000E+00 0.  1.
         21   -1    0    0  503  502  0.00000000000E+00 -0.00000000000E+00 -0.72235048359E+03  0.72235048359E+03  0.00000000000E+00 0.  1.
         21    1    1    2  503  504  0.31583911071E+02  0.31539851549E+00 -0.20733080257E+03  0.20972292343E+03  0.00000000000E+00 0.  1.
         21    1    1    2  504  501 -0.98447588223E+02 -0.48766207349E+02 -0.29804279735E+03  0.31764694183E+03  0.00000000000E+00 0.  1.
         21    1    1    2  505  502 -0.37235926042E+02  0.36132442938E+02 -0.12507330809E+03  0.13540827160E+03  0.00000000000E+00 0.  1.
         -2    1    1    2    0  505  0.10409960319E+03  0.12318365896E+02 -0.39466620619E+02  0.11200930170E+03  0.00000000000E+00 0.  1.
<scales pt_clust_3="31.58549" pt_clust_4="14000.00000" pt_clust_5="46.53755" pt_clust_6="104.81631"></scales>
<clustering>
<clus scale="   31.585">  2  3  1 -1</clus>
<clus scale="   46.538">  2  5  1 -1</clus>
<clus scale="  104.816">  1  6  2 -1</clus>
<clus scale="   31.585">  2  3  1 -1</clus>
</clustering>
</event>
<event>
 6    0  0.4796958E+002  0.8937367E+02  0.7546771E-02  0.1304376E+00
          1   -1    0    0  505    0 -0.00000000000E+00  0.00000000000E+00  0.11040989008E+04  0.11040989008E+04  0.00000000000E+00 0. -1.
         21   -1    0    0  503  502  0.00000000000E+00 -0.00000000000E+00 -0.44127173703E+02  0.44127173703E+02  0.00000000000E+00 0.  1.
         21    1    1    2  503  501 -0.42500425040E+02 -0.16545810179E+02 -0.23928822388E+01  0.45670295034E+02  0.00000000000E+00 0.  1.
         21    1    1    2  504  502  0.63784438299E+02  0.60029977171E+01  0.15333878161E+03  0.16618445323E+03  0.00000000000E+00 0.  1.
         21    1    1    2  505  504  0.15973877647E+02 -0.74625854842E+02  0.12220027357E+03  0.14407320999E+03  0.00000000000E+00 0. -1.
          1    1    1    2  501    0 -0.37257890907E+02  0.85168667304E+02  0.78682555415E+03  0.79229811624E+03  0.00000000000E+00 0. -1.
<scales pt_clust_3="45.60756" pt_clust_4="50.20578" pt_clust_5="89.37367" pt_clust_6="14000.00000"></scales>
<clustering>
<clus scale="   45.608">  2  3  1 -1</clus>
<clus scale="   50.206">  2  4  1 -1</clus>
<clus scale="   89.374">  2  5  1 -1</clus>
<clus scale="   45.608">  2  3  1 -1</clus>
</clustering>
</event>
<event>
 6    0  0.4796958E+002  0.1558889E+03  0.7546771E-02  0.1193418E+00
         21   -1    0    0  505  502  0.00000000000E+00  0.00000000000E+00  0.30302620233E+03  0.30302620233E+03  0.00000000000E+00 0.  1.
          4   -1    0    0  503    0 -0.00000000000E+00 -0.00000000000E+00 -0.68668982945E+03  0.68668982945E+03  0.00000000000E+00 0.  1.
         21    1    1    2  503  504 -0.29613824760E+02 -0.31269091928E+02  0.70498917901E+02  0.82612542342E+02  0.00000000000E+00 0.  1.
         21    1    1    2  504  502 -0.41802499637E+02  0.65556087745E+01  0.14803651944E+03  0.15396504821E+03  0.00000000000E+00 0.  1.
         21    1    1    2  505  501  0.20163593452E+03 -0.46557676955E+02 -0.10072263860E+03  0.23015150944E+03  0.00000000000E+00 0.  1.
          4    1    1    2  501    0 -0.13021961012E+03  0.71271160108E+02 -0.50147642587E+03  0.52298693179E+03  0.00000000000E+00 0.  1.
<scales pt_clust_3="57.87126" pt_clust_4="42.31341" pt_clust_5="14000.00000" pt_clust_6="155.88885"></scales>
<clustering>
<clus scale="   42.313">  1  4  2 -1</clus>
<clus scale="   57.871">  1  3  2 -1</clus>
<clus scale="  155.889">  2  6  1 -1</clus>
<clus scale="   42.313">  1  3  2 -1</clus>
</clustering>
</event>
<event>
 6    0  0.4796958E+002  0.1089261E+03  0.7546771E-02  0.1262572E+00
         21   -1    0    0  501  502  0.00000000000E+00  0.00000000000E+00  0.12431870828E+03  0.12431870828E+03  0.00000000000E+00 0. -1.
          2   -1    0    0  503    0 -0.00000000000E+00 -0.00000000000E+00 -0.20786841898E+04  0.20786841898E+04  0.00000000000E+00 0.  1.
         21    1    1    2  503  505 -0.72006515949E+02  0.10017088574E+03 -0.16334942785E+04  0.16381461176E+04  0.00000000000E+00 0.  1.
         21    1    1    2  504  502 -0.11040950860E+02 -0.49431876272E+02  0.71333766717E+02  0.87486680481E+02  0.00000000000E+00 0. -1.
         21    1    1    2  505  504  0.17525573210E+02 -0.65145118768E+02  0.11234859496E+02  0.68390454623E+02  0.00000000000E+00 0. -1.
          2    1    1    2  501    0  0.65521893598E+02  0.14406109303E+02 -0.40343982925E+03  0.40897964540E+03  0.00000000000E+00 0.  1.
<scales pt_clust_3="14000.00000" pt_clust_4="50.64991" pt_clust_5="108.92608" pt_clust_6="65.82802"></scales>
<clustering>
<clus scale="   50.650">  1  4  2 -1</clus>
<clus scale="   65.828">  2  6  1 -1</clus>
<clus scale="  108.926">  1  5  2 -1</clus>
<clus scale="   50.650">  1  3  2 -1</clus>
</clustering>
</event>
<event>
 6    0  0.4796958E+002  0.2102560E+03  0.7546771E-02  0.1141363E+00
         21   -1    0    0  504  502  0.00000000000E+00  0.00000000000E+00  0.32005383931E+04  0.32005383931E+04  0.00000000000E+00 0. -1.
          2   -1    0    0  503    0 -0.00000000000E+00 -0.00000000000E+00 -0.55738342972E+02  0.55738342972E+02  0.00000000000E+00 0.  1.
         21    1    1    2  503  502 -0.39129544193E+02  0.44316426577E+00  0.94940474851E+03  0.95021086824E+03  0.00000000000E+00 0. -1.
         21    1    1    2  504  505 -0.17907300600E+03  0.12267111945E+03  0.17819782413E+04  0.17951495195E+04  0.00000000000E+00 0. -1.
         21    1    1    2  505  501  0.12729529799E+03 -0.94548936723E+02  0.37684985963E+03  0.40885133120E+03  0.00000000000E+00 0. -1.
          2    1    1    2  501    0  0.90907252210E+02 -0.28565346989E+02  0.36567200727E+02  0.10206501713E+03  0.00000000000E+00 0.  1.
<scales pt_clust_3="39.13205" pt_clust_4="14000.00000" pt_clust_5="210.25600" pt_clust_6="94.13649"></scales>
<clustering>
<clus scale="   39.132">  1  3  2 -1</clus>
<clus scale="   94.136">  2  6  1 -1</clus>
<clus scale="  210.256">  2  5  1 -1</clus>
<clus scale="   39.132">  1  3  2 -1</clus>
</clustering>
</event>
<event>
 6    0  0.4796958E+002  0.9502086E+02  0.7546771E-02  0.1291129E+00
          1   -1    0    0  505    0 -0.00000000000E+00  0.00000000000E+00  0.34695431079E+03  0.34695431079E+03  0.00000000000E+00 0. -1.
         21   -1    0    0  503  502  0.00000000000E+00 -0.00000000000E+00 -0.25882993104E+03  0.25882993104E+03  0.00000000000E+00 0.  1.
         21    1    1    2  503  504  0.94600910710E+01  0.99077369391E+02 -0.19110516606E+03  0.21546926218E+03  0.00000000000E+00 0.  1.
         21    1    1    2  504  501 -0.54818920664E+02 -0.52799510871E+02  0.19278958394E+02  0.78514843487E+02  0.00000000000E+00 0. -1.
         21    1    1    2  505  502  0.44385783950E+02  0.28823613907E+01 -0.27245084711E+01  0.44562638729E+02  0.00000000000E+00 0. -1.
          1    1    1    2  501    0  0.97304564290E+00 -0.49160219911E+02  0.26267509589E+03  0.26723749744E+03  0.00000000000E+00 0. -1.
<scales pt_clust_3="14000.00000" pt_clust_4="95.02086" pt_clust_5="44.47927" pt_clust_6="49.15231"></scales>
<clustering>
<clus scale="   44.479">  2  5  1 -1</clus>
<clus scale="   49.152">  1  6  2 -1</clus>
<clus scale="   95.021">  1  4  2 -1</clus>
<clus scale="   44.479">  2  3  1 -1</clus>
</clustering>
</event>
<event>
 6    0  0.4796958E+002  0.8861598E+02  0.7546771E-02  0.1306238E+00
         21   -1    0    0  505  502  0.00000000000E+00  0.00000000000E+00  0.81940921438E+03  0.81940921438E+03  0.00000000000E+00 0.  1.
          2   -1    0    0  504    0 -0.00000000000E+00 -0.00000000000E+00 -0.13846342888E+04  0.13846342888E+04  0.00000000000E+00 0. -1.
         21    1    1    2  503  502  0.54288701492E+02  0.56307900691E+01  0.57992145947E+03  0.58248422129E+03  0.00000000000E+00 0.  1.
         21    1    1    2  504  503  0.11018353342E+02  0.74185268196E+02  0.16461513739E+03  0.18089500155E+03  0.00000000000E+00 0.  1.
         21    1    1    2  505  501 -0.96316620055E+02 -0.38251337894E+02  0.23605839660E+02  0.10628871914E+03  0.00000000000E+00 0.  1.
          2    1    1    2  501    0  0.31009565221E+02 -0.41564720370E+02 -0.13333675109E+04  0.13343755612E+04  0.00000000000E+00 0. -1.
<scales pt_clust_3="55.26171" pt_clust_4="88.61598" pt_clust_5="14000.00000" pt_clust_6="51.85768"></scales>
<clustering>
<clus scale="   51.858">  2  6  1 -1</clus>
<clus scale="   55.262">  1  3  2 -1</clus>
<clus scale="   88.616">  1  4  2 -1</clus>
<clus scale="   55.262">  1  3  2 -1</clus>
</clustering>
</event>
<event>
 6    0  0.4796958E+002  0.7326949E+02  0.7546771E-02  0.1349315E+00
         21   -1    0    0  503  502  0.00000000000E+00  0.00000000000E+00  0.11509987306E+02  0.11509987306E+02  0.00000000000E+00 0.  1.
          1   -1    0    0  505    0 -0.00000000000E+00 -0.00000000000E+00 -0.36895892336E+04  0.36895892336E+04  0.00000000000E+00 0.  1.
         21    1    1    2  503  501  0.54358966106E+02  0.15337774982E+02 -0.13626937683E+03  0.14751097450E+03  0.00000000000E+00 0.  1.
         21    1    1    2  504  502 -0.95888856091E+02  0.26940039551E+02 -0.72195041880E+03  0.72878861521E+03  0.00000000000E+00 0.  1.
         21    1    1    2  505  504  0.47890375369E+01 -0.93817216959E+02 -0.11859403539E+04  0.11896550458E+04  0.00000000000E+00 0.  1.
          1    1    1    2  501    0  0.36740852448E+02  0.51539402426E+02 -0.16339190968E+04  0.16351445854E+04  0.00000000000E+00 0.  1.
<scales pt_clust_3="56.48136" pt_clust_4="14000.00000" pt_clust_5="73.26949" pt_clust_6="67.97669"></scales>
<clustering>
<clus scale="   56.481">  1  3  2 -1</clus>
<clus scale="   67.977">  2  6  1 -1</clus>
<clus scale="   73.269">  2  5  1 -1</clus>
<clus scale="   56.481">  1  3  2 -1</clus>
</clustering>
</event>
<event>
 6    0  0.4796958E+002  0.7423008E+02  0.7546771E-02  0.1346272E+00
          1   -1    0    0  504    0 -0.00000000000E+00  0.00000000000E+00  0.30229978809E+04  0.30229978809E+04  0.00000000000E+00 0. -1.
         21   -1    0    0  503  502  0.00000000000E+00 -0.00000000000E+00 -0.35069566046E+03  0.35069566046E+03  0.00000000000E+00 0. -1.
         21    1    1    2  503  505  0.19730327968E+02  0.70855142790E+02 -0.30645161143E+03  0.31515444983E+03  0.00000000000E+00 0. -1.
         21    1    1    2  504  502 -0.48886953949E+02 -0.80436319316E+02  0.85109540195E+02  0.12689984068E+03  0.00000000000E+00 0.  1.
         21    1    1    2  505  501  0.68259692763E+01  0.77999158993E+02  0.64125862118E+02  0.10120567599E+03  0.00000000000E+00 0. -1.
          1    1    1    2  501    0  0.22330656705E+02 -0.68417982467E+02  0.28295184295E+04  0.28304335748E+04  0.00000000000E+00 0. -1.
<scales pt_clust_3="74.23008" pt_clust_4="14000.00000" pt_clust_5="51.38173" pt_clust_6="71.96998"></scales>
<clustering>
<clus scale="   71.970">  1  6  2 -1</clus>
<clus scale="   51.382">  1  5  2 -1</clus>
<clus scale="   74.230">  2  3  1 -1</clus>
<clus scale="   74.230">  2  3  1 -1</clus>
</clustering>
</event>
<event>
 6    0  0.4796958E+002  0.1222664E+03  0.7546771E-02  0.1239404E+00
          2   -1    0    0  502    0 -0.00000000000E+00  0.00000000000E+00  0.20019515628E+04  0.20019515628E+04  0.00000000000E+00 0. -1.
         21   -1    0    0  505  502  0.00000000000E+00 -0.00000000000E+00 -0.83275079277E+02  0.83275079277E+02  0.00000000000E+00 0.  1.
         21    1    1    2  503  504 -0.38557985589E+02 -0.76496862563E+02  0.45542372051E+03  0.46341045892E+03  0.00000000000E+00 0. -1.
         21    1    1    2  504  501  0.40211381078E+02  0.59055602924E+02  0.69901198701E+03  0.70265373932E+03  0.00000000000E+00 0. -1.
         21    1    1    2  505  503 -0.92572487350E+01 -0.60401145627E+02 -0.63271741843E+02  0.87961971118E+02  0.00000000000E+00 0.  1.
          2    1    1    2  501    0  0.76038532457E+01  0.77842405266E+02  0.82751251788E+03  0.83120047274E+03  0.00000000000E+00 0. -1.
<scales pt_clust_3="116.38192" pt_clust_4="35.81643" pt_clust_5="61.10642" pt_clust_6="35.81643"></scales>
<clustering>
<clus scale="   35.816">  4  6 -1 -1</clus>
<clus scale="   61.106">  2  5  1 -1</clus>
<clus scale="  116.382">  2  3  1 -1</clus>
<clus scale="   61.106">  2  3  1 -1</clus>
</clustering>
</event>
<event>
 6    0  0.4796958E+002  0.8936870E+02  0.7546771E-02  0.1304388E+00
          4   -1    0    0  503    0 -0.00000000000E+00  0.00000000000E+00  0.44135348940E+03  0.44135348940E+03  0.00000000000E+00 0. -1.
         21   -1    0    0  501  502  0.00000000000E+00 -0.00000000000E+00 -0.77962198555E+02  0.77962198555E+02  0.00000000000E+00 0. -1.
         21    1    1    2  503  504 -0.61682140942E+01 -0.33513314007E+02  0.56484146410E+02  0.65967021128E+02  0.00000000000E+00 0.  1.
         21    1    1    2  504  505  0.66441308533E+02  0.22014820770E+02  0.29895910526E+02  0.76110874908E+02  0.00000000000E+00 0.  1.
         21    1    1    2  505  502  0.63157749739E+01  0.62295624806E+02 -0.22270948539E+02  0.66457723647E+02  0.00000000000E+00 0. -1.
          4    1    1    2  501    0 -0.66588869412E+02 -0.50797131569E+02  0.29928218245E+03  0.31078006828E+03  0.00000000000E+00 0. -1.
<scales pt_clust_3="34.07622" pt_clust_4="14000.00000" pt_clust_5="60.64112" pt_clust_6="89.36870"></scales>
<clustering>
<clus scale="   34.076">  1  3  2 -1</clus>
<clus scale="   60.641">  2  5  1 -1</clus>
<clus scale="   89.369">  1  6  2 -1</clus>
<clus scale="   60.641">  2  3  1 -1</clus>
</clustering>
</event>
<event>
 6    0  0.4796958E+002  0.2250030E+03  0.7546771E-02  0.1130207E+00
         -1   -1    0    0    0  501 -0.00000000000E+00  0.00000000000E+00  0.85254880322E+03  0.85254880322E+03  0.00000000000E+00 0. -1.
         21   -1    0    0  505  502  0.00000000000E+00 -0.00000000000E+00 -0.34252655882E+03  0.34252655882E+03  0.00000000000E+00 0.  1.
         21    1    1    2  503  501  0.17951265067E+03  0.10910335592E+03  0.45321883899E+03  0.49953543422E+03  0.00000000000E+00 0.  1.
         21    1    1    2  504  503 -0.29849450130E+02 -0.52490180150E+02 -0.52568220658E+02  0.80060143070E+02  0.00000000000E+00 0.  1.
         21    1    1    2  505  504 -0.16099327155E+03 -0.14976839089E+02 -0.22570097155E+03  0.27764017677E+03  0.00000000000E+00 0.  1.
         -1    1    1    2    0  502  0.11330071012E+02 -0.41636336684E+02  0.33507259763E+03  0.33783960798E+03  0.00000000000E+00 0. -1.
<scales pt_clust_3="202.69021" pt_clust_4="60.16959" pt_clust_5="60.16959" pt_clust_6="43.15038"></scales>
<clustering>
<clus scale="   43.150">  1  6  2 -1</clus>
<clus scale="   60.170">  4  5 -1 -1</clus>
<clus scale="  202.690">  1  3  2 -1</clus>
<clus scale="  225.003">  2  3  1 -1</clus>
</clustering>
</event>
<event>
 6    0  0.4796958E+002  0.9816034E+02  0.7546771E-02  0.1284213E+00
         21   -1    0    0  503  502  0.00000000000E+00  0.00000000000E+00  0.10871645443E+03  0.10871645443E+03  0.00000000000E+00 0. -1.
          1   -1    0    0  504    0 -0.00000000000E+00 -0.00000000000E+00 -0.17265414781E+04  0.17265414781E+04  0.00000000000E+00 0.  1.
         21    1    1    2  503  501 -0.52249300237E+02  0.14047935375E+02  0.65699199762E+02  0.85110038850E+02  0.00000000000E+00 0. -1.
         21    1    1    2  504  505  0.10672615338E+03 -0.88454044459E+02 -0.53635360205E+03  0.55397633183E+03  0.00000000000E+00 0.  1.
         21    1    1    2  505  502 -0.32232743091E+02  0.38075026440E+02 -0.17065569689E+01  0.49915625832E+02  0.00000000000E+00 0. -1.
          1    1    1    2  501    0 -0.22244110048E+02  0.36331082644E+02 -0.11454640644E+04  0.11462559360E+04  0.00000000000E+00 0.  1.
<scales pt_clust_3="14000.00000" pt_clust_4="98.16034" pt_clust_5="51.75865" pt_clust_6="42.59986"></scales>
<clustering>
<clus scale="   42.600">  2  6  1 -1</clus>
<clus scale="   51.759">  1  5  2 -1</clus>
<clus scale="   98.160">  2  4  1 -1</clus>
<clus scale="   51.759">  1  3  2 -1</clus>
</clustering>
</event>
<event>
 6    0  0.4796958E+002  0.1096845E+03  0.7546771E-02  0.1261155E+00
         21   -1    0    0  504  502  0.00000000000E+00  0.00000000000E+00  0.10410325416E+03  0.10410325416E+03  0.00000000000E+00 0. -1.
          2   -1    0    0  505    0 -0.00000000000E+00 -0.00000000000E+00 -0.18269694937E+04  0.18269694937E+04  0.00000000000E+00 0. -1.
         21    1    1    2  503  502 -0.97657290941E+02  0.74651948324E+02 -0.34346872566E+02  0.12763059005E+03  0.00000000000E+00 0. -1.
         21    1    1    2  504  501  0.10170697388E+03 -0.25628050441E+02  0.98620371582E+00  0.10489079131E+03  0.00000000000E+00 0. -1.
         21    1    1    2  505  503 -0.38206390601E+01 -0.96532510006E+02 -0.57699230036E+03  0.58502413407E+03  0.00000000000E+00 0. -1.
          2    1    1    2  501    0 -0.22904387448E+00  0.47508612123E+02 -0.11125132704E+04  0.11135272325E+04  0.00000000000E+00 0. -1.
<scales pt_clust_3="14000.00000" pt_clust_4="109.68453" pt_clust_5="58.00881" pt_clust_6="47.50916"></scales>
<clustering>
<clus scale="   47.509">  2  6  1 -1</clus>
<clus scale="   58.009">  2  5  1 -1</clus>
<clus scale="  109.685">  1  4  2 -1</clus>
<clus scale="  109.685">  1  3  2 -1</clus>
</clustering>
</event>
<event>
 6    0  0.4796958E+002  0.7812616E+02  0.7546771E-02  0.1334455E+00
          2   -1    0    0  503    0 -0.00000000000E+00  0.00000000000E+00  0.18854352073E+04  0.18854352073E+04  0.00000000000E+00 0.  1.
         21   -1    0    0  505  502  0.00000000000E+00 -0.00000000000E+00 -0.82004530787E+03  0.82004530787E+03  0.00000000000E+00 0. -1.
         21    1    1    2  503  504  0.68602519729E+02  0.99998748081E+02  0.91717314206E+03  0.92515546145E+03  0.00000000000E+00 0.  1.
         21    1    1    2  504  502  0.12924545524E+02  0.45151204948E+02 -0.15294985418E+03  0.15999791586E+03  0.00000000000E+00 0.  1.
         21    1    1    2  505  501 -0.63403440661E+02 -0.10399516354E+03 -0.65342355587E+03  0.66467836861E+03  0.00000000000E+00 0. -1.
          2    1    1    2  501    0 -0.18123624592E+02 -0.41154789494E+02  0.95459016741E+03  0.95564876926E+03  0.00000000000E+00 0.  1.
<scales pt_clust_3="14000.00000" pt_clust_4="46.79585" pt_clust_5="78.12616" pt_clust_6="44.96868"></scales>
<clustering>
<clus scale="   44.969">  1  6  2 -1</clus>
<clus scale="   46.796">  2  4  1 -1</clus>
<clus scale="   78.126">  2  5  1 -1</clus>
<clus scale="   46.796">  2  3  1 -1</clus>
</clustering>
</event>
<event>
 6    0  0.4796958E+002  0.9708359E+02  0.7546771E-02  0.1286551E+00
         21   -1    0    0  503  502  0.00000000000E+00  0.00000000000E+00  0.64084829416E+03  0.64084829416E+03  0.00000000000E+00 0.  1.
         -3   -1    0    0    0  501 -0.00000000000E+00 -0.00000000000E+00 -0.11852711833E+04  0.11852711833E+04  0.00000000000E+00 0.  1.
         21    1    1    2  503  501 -0.25122398093E+01 -0.31189038184E+02  0.29289106384E+03  0.29455770696E+03  0.00000000000E+00 0.  1.
         21    1    1    2  504  502 -0.17049089553E+02  0.12645037782E+03  0.33222078031E+03  0.35588062096E+03  0.00000000000E+00 0.  1.
         21    1    1    2  505  504 -0.21446625722E+02 -0.64773079665E+02 -0.73176593831E+03  0.73494006427E+03  0.00000000000E+00 0.  1.
         -3    1    1    2    0  505  0.41007955085E+02 -0.30488259970E+02 -0.43776879499E+03  0.44074108527E+03  0.00000000000E+00 0.  1.
<scales pt_clust_3="31.29005" pt_clust_4="14000.00000" pt_clust_5="97.08359" pt_clust_6="51.17093"></scales>
<clustering>
<clus scale="   31.290">  1  3  2 -1</clus>
<clus scale="   51.171">  2  6  1 -1</clus>
<clus scale="   97.084">  2  5  1 -1</clus>
<clus scale="   31.290">  1  3  2 -1</clus>
</clustering>
</event>
<event>
 6    0  0.4796958E+002  0.8548277E+02  0.7546771E-02  0.1314175E+00
          2   -1    0    0  504    0 -0.00000000000E+00  0.00000000000E+00  0.30874938317E+03  0.30874938317E+03  0.00000000000E+00 0. -1.
         21   -1    0    0  501  502  0.00000000000E+00 -0.00000000000E+00 -0.34247514222E+03  0.34247514222E+03  0.00000000000E+00 0. -1.
         21    1    1    2  503  502  0.32389574586E+02 -0.88233224829E-01 -0.15740424619E+03  0.16070217498E+03  0.00000000000E+00 0. -1.
         21    1    1    2  504  505 -0.11327218029E+03 -0.16769093920E+02  0.87739678286E+02  0.14425685594E+03  0.00000000000E+00 0.  1.
         21    1    1    2  505  503  0.32006487538E+02 -0.51528088891E+02 -0.13928657408E+03  0.15192204879E+03  0.00000000000E+00 0. -1.
          2    1    1    2  501    0  0.48876118171E+02  0.68385416036E+02  0.17522538294E+03  0.19434344568E+03  0.00000000000E+00 0. -1.
<scales pt_clust_3="32.38969" pt_clust_4="14000.00000" pt_clust_5="77.41924" pt_clust_6="85.48277"></scales>
<clustering>
<clus scale="   32.390">  2  3  1 -1</clus>
<clus scale="   77.419">  2  5  1 -1</clus>
<clus scale="   85.483">  1  6  2 -1</clus>
<clus scale="   32.390">  2  3  1 -1</clus>
</clustering>
</event>
<event>
 6    0  0.4796958E+002  0.8205147E+02  0.7546771E-02  0.1323328E+00
         21   -1    0    0  505  502  0.00000000000E+00  0.00000000000E+00  0.48569871906E+03  0.48569871906E+03  0.00000000000E+00 0.  1.
          2   -1    0    0  503    0 -0.00000000000E+00 -0.00000000000E+00 -0.33791587592E+03  0.33791587592E+03  0.00000000000E+00 0. -1.
         21    1    1    2  503  504 -0.12536393855E+03 -0.12256673706E+02 -0.17670191450E+03  0.21700209613E+03  0.00000000000E+00 0. -1.
         21    1    1    2  504  502  0.30905640087E+02 -0.17453909311E+02  0.33305932402E+03  0.33494523560E+03  0.00000000000E+00 0.  1.
         21    1    1    2  505  501  0.38568791325E+02 -0.82147176325E+01  0.12006451608E+03  0.12637452778E+03  0.00000000000E+00 0.  1.
          2    1    1    2  501    0  0.55889507141E+02  0.37925300649E+02 -0.12863908246E+03  0.14529273545E+03  0.00000000000E+00 0. -1.
<scales pt_clust_3="14000.00000" pt_clust_4="35.49363" pt_clust_5="67.49536" pt_clust_6="82.05147"></scales>
<clustering>
<clus scale="   35.494">  1  4  2 -1</clus>
<clus scale="   67.495">  1  5  2 -1</clus>
<clus scale="   82.051">  2  6  1 -1</clus>
<clus scale="   35.494">  1  3  2 -1</clus>
</clustering>
</event>
<event>
 6    0  0.4796958E+002  0.1374479E+03  0.7546771E-02  0.1216805E+00
          2   -1    0    0  505    0 -0.00000000000E+00  0.00000000000E+00  0.14526076288E+04  0.14526076288E+04  0.00000000000E+00 0.  1.
         21   -1    0    0  504  502  0.00000000000E+00 -0.00000000000E+00 -0.17914225442E+03  0.17914225442E+03  0.00000000000E+00 0. -1.
         21    1    1    2  503  502  0.14607688711E+03  0.43022318639E+02 -0.11274539164E+03  0.18947532870E+03  0.00000000000E+00 0. -1.
         21    1    1    2  504  501 -0.11361292498E+02 -0.87010056284E+02  0.78574223097E+02  0.11778683032E+03  0.00000000000E+00 0.  1.
         21    1    1    2  505  503 -0.36031710392E+02  0.59524702159E+01  0.47477639403E+02  0.59898600140E+02  0.00000000000E+00 0. -1.
          2    1    1    2  501    0 -0.98683884224E+02  0.38035267430E+02  0.12601589036E+04  0.12645891241E+04  0.00000000000E+00 0.  1.
<scales pt_clust_3="14000.00000" pt_clust_4="87.69926" pt_clust_5="36.52008" pt_clust_6="137.44790"></scales>
<clustering>
<clus scale="   36.520">  1  5  2 -1</clus>
<clus scale="   87.699">  2  4  1 -1</clus>
<clus scale="  137.448">  1  6  2 -1</clus>
<clus scale="   87.699">  2  3  1 -1</clus>
</clustering>
</event>
<event>
 6    0  0.4796958E+002  0.8577082E+02  0.7546771E-02  0.1313429E+00
         21   -1    0    0  505  502  0.00000000000E+00  0.00000000000E+00  0.57871872302E+02  0.57871872302E+02  0.00000000000E+00 0. -1.
          3   -1    0    0  504    0 -0.00000000000E+00 -0.00000000000E+00 -0.84437901255E+03  0.84437901255E+03  0.00000000000E+00 0.  1.
         21    1    1    2  503  501  0.43090136648E+02 -0.11490456275E+02 -0.58983032414E+02  0.73944496580E+02  0.00000000000E+00 0. -1.
         21    1    1    2  504  502 -0.31512243586E+02 -0.93629044398E+02 -0.15116781628E+03  0.18058551473E+03  0.00000000000E+00 0. -1.
         21    1    1    2  505  503  0.19958381741E+02  0.24027821067E+02  0.25058410851E+02  0.40044939022E+02  0.00000000000E+00 0. -1.
          3    1    1    2  501    0 -0.31536274803E+02  0.81091679606E+02 -0.60141470240E+03  0.60767593452E+03  0.00000000000E+00 0.  1.
<scales pt_clust_3="49.18320" pt_clust_4="85.77082" pt_clust_5="31.23577" pt_clust_6="14000.00000"></scales>
<clustering>
<clus scale="   31.236">  1  5  2 -1</clus>
<clus scale="   49.183">  1  3  2 -1</clus>
<clus scale="   85.771">  1  4  2 -1</clus>
<clus scale="   31.236">  1  3  2 -1</clus>
</clustering>
</event>
<event>
 6    0  0.4796958E+002  0.1523417E+03  0.7546771E-02  0.1197625E+00
         21   -1    0    0  503  502  0.00000000000E+00  0.00000000000E+00  0.12538246743E+03  0.12538246743E+03  0.00000000000E+00 0.  1.
          2   -1    0    0  505    0 -0.00000000000E+00 -0.00000000000E+00 -0.12247792355E+04  0.12247792355E+04  0.00000000000E+00 0.  1.
         21    1    1    2  503  501  0.49711956337E+02  0.71946862764E+01 -0.37813599877E+02  0.62872175476E+02  0.00000000000E+00 0.  1.
         21    1    1    2  504  502  0.24411902805E+02 -0.14537822919E+03  0.53016624457E+02  0.15665737451E+03  0.00000000000E+00 0.  1.
         21    1    1    2  505  504 -0.16429814021E+02  0.31570575009E+02 -0.65435174547E+02  0.74487596707E+02  0.00000000000E+00 0. -1.
          2    1    1    2  501    0 -0.57694045121E+02  0.10661296790E+03 -0.10491646181E+04  0.10561445562E+04  0.00000000000E+00 0.  1.
<scales pt_clust_3="49.73974" pt_clust_4="14000.00000" pt_clust_5="35.58989" pt_clust_6="152.34166"></scales>
<clustering>
<clus scale="   35.590">  2  5  1 -1</clus>
<clus scale="   49.740">  1  3  2 -1</clus>
<clus scale="  152.342">  2  6  1 -1</clus>
<clus scale="   49.740">  1  3  2 -1</clus>
</clustering>
</event>
<event>
 6    0  0.4796958E+002  0.9369295E+02  0.7546771E-02  0.1294147E+00
         21   -1    0    0  501  502  0.00000000000E+00  0.00000000000E+00  0.26451274434E+03  0.26451274434E+03  0.00000000000E+00 0. -1.
          1   -1    0    0  505    0 -0.00000000000E+00 -0.00000000000E+00 -0.17173061398E+03  0.17173061398E+03  0.00000000000E+00 0. -1.
         21    1    1    2  503  502 -0.42576925379E+02 -0.11828328146E+02  0.15675809898E+03  0.16286744769E+03  0.00000000000E+00 0. -1.
         21    1    1    2  504  503  0.57337271524E+02  0.92010474232E+02  0.10848035523E+02  0.10895489869E+03  0.00000000000E+00 0. -1.
         21    1    1    2  505  504  0.15343335439E+02 -0.97125844563E+02 -0.21130614831E+02  0.10057509884E+03  0.00000000000E+00 0. -1.
          1    1    1    2  501    0 -0.30103681585E+02  0.16943698477E+02 -0.53693389314E+02  0.63845913096E+02  0.00000000000E+00 0. -1.
<scales pt_clust_3="44.85597" pt_clust_4="93.69295" pt_clust_5="14000.00000" pt_clust_6="34.54447"></scales>
<clustering>
<clus scale="   34.544">  2  6  1 -1</clus>
<clus scale="   44.856">  1  3  2 -1</clus>
<clus scale="   93.693">  1  4  2 -1</clus>
<clus scale="   44.856">  1  3  2 -1</clus>
</clustering>
</event>
<event>
 6    0  0.4796958E+002  0.8339473E+02  0.7546771E-02  0.1319685E+00
         -2   -1    0    0    0  501 -0.00000000000E+00  0.00000000000E+00  0.21177192275E+04  0.21177192275E+04  0.00000000000E+00 0. -1.
         21   -1    0    0  503  502  0.00000000000E+00 -0.00000000000E+00 -0.12780302012E+03  0.12780302012E+03  0.00000000000E+00 0.  1.
         21    1    1    2  503  501  0.13459919402E+03 -0.36949089253E+02  0.44631679697E+03  0.46763325533E+03  0.00000000000E+00 0.  1.
         21    1    1    2  504  505 -0.54132237020E+02  0.54479258334E+02 -0.63483478233E+02  0.99641561017E+02  0.00000000000E+00 0.  1.
         21    1    1    2  505  502 -0.20597733683E+02 -0.22782344862E+02 -0.28298265430E+02  0.41762347834E+02  0.00000000000E+00 0.  1.
         -2    1    1    2    0  504 -0.59869223316E+02  0.52521757803E+01  0.16353811541E+04  0.16364850835E+04  0.00000000000E+00 0. -1.
<scales pt_clust_3="83.39473" pt_clust_4="14000.00000" pt_clust_5="30.71322" pt_clust_6="60.20957"></scales>
<clustering>
<clus scale="   30.713">  2  5  1 -1</clus>
<clus scale="   60.210">  1  6  2 -1</clus>
<clus scale="   83.395">  1  3  2 -1</clus>
<clus scale="   30.713">  2  3  1 -1</clus>
</clustering>
</event>
<event>
 6    0  0.4796958E+002  0.1372044E+03  0.7546771E-02  0.1217141E+00
         21   -1    0    0  504  502  0.00000000000E+00  0.00000000000E+00  0.26395194626E+03  0.26395194626E+03  0.00000000000E+00 0. -1.
          2   -1    0    0  502    0 -0.00000000000E+00 -0.00000000000E+00 -0.17264360831E+04  0.17264360831E+04  0.00000000000E+00 0. -1.
         21    1    1    2  503  501  0.35388018319E+02  0.90148226611E+02 -0.17378134608E+03  0.19894464267E+03  0.00000000000E+00 0. -1.
         21    1    1    2  504  505 -0.19625895134E+02 -0.49477384674E+02  0.15570955455E+03  0.16455592585E+03  0.00000000000E+00 0. -1.
         21    1    1    2  505  503 -0.47302659689E+02 -0.56861289821E+02  0.76006486057E+02  0.10605533375E+03  0.00000000000E+00 0. -1.
          2    1    1    2  501    0  0.31540536503E+02  0.16190447884E+02 -0.15204188314E+04  0.15208321271E+04  0.00000000000E+00 0. -1.
<scales pt_clust_3="122.77726" pt_clust_4="52.52428" pt_clust_5="52.52428" pt_clust_6="35.45329"></scales>
<clustering>
<clus scale="   35.453">  2  6  1 -1</clus>
<clus scale="   52.524">  4  5 -1 -1</clus>
<clus scale="  122.777">  2  3  1 -1</clus>
<clus scale="  137.204">  1  3  2 -1</clus>
</clustering>
</event>
<event>
 6    0  0.4796958E+002  0.1490139E+03  0.7546771E-02  0.1201690E+00
          2   -1    0    0  505    0 -0.00000000000E+00  0.00000000000E+00  0.11060094158E+04  0.11060094158E+04  0.00000000000E+00 0.  1.
         21   -1    0    0  503  502  0.00000000000E+00 -0.00000000000E+00 -0.10018516441E+03  0.10018516441E+03  0.00000000000E+00 0. -1.
         21    1    1    2  503  504 -0.17846074155E+02 -0.15500448172E+03 -0.16285155692E+02  0.15687599565E+03  0.00000000000E+00 0. -1.
         21    1    1    2  504  501  0.43457397692E+02  0.34058536009E+02  0.38604030677E+03  0.38996877790E+03  0.00000000000E+00 0.  1.
         21    1    1    2  505  502  0.18258229816E+02  0.11442447391E+03  0.32300468440E+03  0.34315936433E+03  0.00000000000E+00 0.  1.
          2    1    1    2  501    0 -0.43869553353E+02  0.65214718036E+01  0.31306441595E+03  0.31619044236E+03  0.00000000000E+00 0.  1.
<scales pt_clust_3="149.01390" pt_clust_4="43.24061" pt_clust_5="14000.00000" pt_clust_6="44.35163"></scales>
<clustering>
<clus scale="   44.352">  1  6  2 -1</clus>
<clus scale="   43.241">  1  4  2 -1</clus>
<clus scale="  149.014">  2  3  1 -1</clus>
<clus scale="  149.014">  2  3  1 -1</clus>
</clustering>
</event>
<event>
 6    0  0.4796958E+002  0.1658003E+03  0.7546771E-02  0.1182300E+00
          3   -1    0    0  504    0 -0.00000000000E+00  0.00000000000E+00  0.92399039917E+02  0.92399039917E+02  0.00000000000E+00 0.  1.
         21   -1    0    0  505  502  0.00000000000E+00 -0.00000000000E+00 -0.77791893829E+03  0.77791893829E+03  0.00000000000E+00 0.  1.
         21    1    1    2  503  502  0.19578714494E+02 -0.26419578746E+02 -0.10184414813E+03  0.10702126289E+03  0.00000000000E+00 0.  1.
         21    1    1    2  504  503 -0.16978133932E+01 -0.12713437474E+03 -0.19013251182E+03  0.22872779425E+03  0.00000000000E+00 0.  1.
         21    1    1    2  505  501 -0.12279777777E+03  0.22429641762E+02 -0.33371526775E+03  0.35629799744E+03  0.00000000000E+00 0.  1.
          3    1    1    2  501    0  0.10491687667E+03  0.13112431173E+03 -0.59827970677E+02  0.17827092363E+03  0.00000000000E+00 0.  1.
<scales pt_clust_3="30.42210" pt_clust_4="30.42210" pt_clust_5="124.82942" pt_clust_6="154.63254"></scales>
<clustering>
<clus scale="   30.422">  3  4 -1 -1</clus>
<clus scale="  124.829">  2  5  1 -1</clus>
<clus scale="  154.633">  1  6  2 -1</clus>
<clus scale="  124.829">  2  3  1 -1</clus>
</clustering>
</event>
<event>
 6    0  0.4796958E+002  0.1109630E+03  0.7546771E-02  0.1258797E+00
          2   -1    0    0  504    0 -0.00000000000E+00  0.00000000000E+00  0.35941822245E+03  0.35941822245E+03  0.00000000000E+00 0.  1.
         21   -1    0    0  505  502  0.00000000000E+00 -0.00000000000E+00 -0.10773709347E+04  0.10773709347E+04  0.00000000000E+00 0. -1.
         21    1    1    2  503  502 -0.61491576576E+02 -0.76574582659E+00 -0.12340512847E+03  0.13787902701E+03  0.00000000000E+00 0. -1.
         21    1    1    2  504  503 -0.87426682401E+02  0.11025311029E+03 -0.72872037458E+03  0.74218094657E+03  0.00000000000E+00 0. -1.
         21    1    1    2  505  501  0.74645812475E+02 -0.27535897783E+02 -0.19439459531E+03  0.21004637981E+03  0.00000000000E+00 0. -1.
          2    1    1    2  501    0  0.74272446502E+02 -0.81951466680E+02  0.32856738611E+03  0.34668280375E+03  0.00000000000E+00 0.  1.
<scales pt_clust_3="61.49634" pt_clust_4="14000.00000" pt_clust_5="67.46033" pt_clust_6="110.96301"></scales>
<clustering>
<clus scale="   61.496">  2  3  1 -1</clus>
<clus scale="   67.460">  2  5  1 -1</clus>
<clus scale="  110.963">  1  6  2 -1</clus>
<clus scale="   61.496">  2  3  1 -1</clus>
</clustering>
</event>
<event>
 6    0  0.4796958E+002  0.6992512E+02  0.7546771E-02  0.1360348E+00
         21   -1    0    0  501  502  0.00000000000E+00  0.00000000000E+00  0.23690235503E+03  0.23690235503E+03  0.00000000000E+00 0. -1.
          2   -1    0    0  505    0 -0.00000000000E+00 -0.00000000000E+00 -0.12658037560E+04  0.12658037560E+04  0.00000000000E+00 0. -1.
         21    1    1    2  503  504  0.40465468118E+02  0.47679114814E+02 -0.34693194873E+02  0.71514822729E+02  0.00000000000E+00 0.  1.
         21    1    1    2  504  502  0.14221866241E+02 -0.33187325651E+02  0.19749406621E+03  0.20076744321E+03  0.00000000000E+00 0. -1.
         21    1    1    2  505  503 -0.47074811589E+02 -0.83443446274E+02 -0.10746936589E+03  0.14397399494E+03  0.00000000000E+00 0.  1.
          2    1    1    2  501    0 -0.76125227704E+01  0.68951657110E+02 -0.10842329064E+04  0.10864498501E+04  0.00000000000E+00 0. -1.
<scales pt_clust_3="56.91181" pt_clust_4="36.10623" pt_clust_5="69.92512" pt_clust_6="14000.00000"></scales>
<clustering>
<clus scale="   36.106">  1  4  2 -1</clus>
<clus scale="   56.912">  1  3  2 -1</clus>
<clus scale="   69.925">  1  5  2 -1</clus>
<clus scale="   36.106">  1  3  2 -1</clus>
</clustering>
</event>
<event>
 6    0  0.4796958E+002  0.1867651E+03  0.7546771E-02  0.1161412E+00
         21   -1    0    0  501  502  0.00000000000E+00  0.00000000000E+00  0.58637657614E+03  0.58637657614E+03  0.00000000000E+00 0.  1.
          2   -1    0    0  505    0 -0.00000000000E+00 -0.00000000000E+00 -0.20800959428E+04  0.20800959428E+04  0.00000000000E+00 0.  1.
         21    1    1    2  503  504  0.17484238662E+03  0.85997819487E+02  0.73791545463E+02  0.20835229132E+03  0.00000000000E+00 0.  1.
         21    1    1    2  504  502  0.36042909449E+02 -0.17327226512E+02  0.40867342471E+03  0.41062548893E+03  0.00000000000E+00 0.  1.
         21    1    1    2  505  503 -0.78562442159E+02 -0.13399432780E+03 -0.15191454380E+03  0.21726611752E+03  0.00000000000E+00 0. -1.
          2    1    1    2  501    0 -0.13232285391E+03  0.65323734826E+02 -0.18242697930E+04  0.18302286211E+04  0.00000000000E+00 0.  1.
<scales pt_clust_3="186.76511" pt_clust_4="39.99155" pt_clust_5="14000.00000" pt_clust_6="146.89455"></scales>
<clustering>
<clus scale="   39.992">  1  4  2 -1</clus>
<clus scale="  146.895">  2  6  1 -1</clus>
<clus scale="  186.765">  1  3  2 -1</clus>
<clus scale="   39.992">  1  3  2 -1</clus>
</clustering>
</event>
<event>
 6    0  0.4796958E+002  0.1226237E+03  0.7546771E-02  0.1238830E+00
         21   -1    0    0  503  502  0.00000000000E+00  0.00000000000E+00  0.10263246301E+03  0.10263246301E+03  0.00000000000E+00 0.  1.
         -4   -1    0    0    0  501 -0.00000000000E+00 -0.00000000000E+00 -0.66453380327E+03  0.66453380327E+03  0.00000000000E+00 0.  1.
         21    1    1    2  503  504 -0.37272919027E+02 -0.46989076362E+02  0.31378721902E+01  0.60059054538E+02  0.00000000000E+00 0.  1.
         21    1    1    2  504  501 -0.51205040636E+02  0.12220767454E+03 -0.85206822187E+02  0.15753372481E+03  0.00000000000E+00 0.  1.
         21    1    1    2  505  502  0.12581357311E+03 -0.48768709524E+02 -0.10243315905E+03  0.16941072658E+03  0.00000000000E+00 0.  1.
         -4    1    1    2    0  505 -0.37335613445E+02 -0.26449888657E+02 -0.37739923121E+03  0.38016276035E+03  0.00000000000E+00 0.  1.
<scales pt_clust_3="64.36450" pt_clust_4="122.62370" pt_clust_5="14000.00000" pt_clust_6="45.75527"></scales>
<clustering>
<clus scale="   45.755">  2  6  1 -1</clus>
<clus scale="   64.365">  1  3  2 -1</clus>
<clus scale="  122.624">  1  4  2 -1</clus>
<clus scale="   64.365">  1  3  2 -1</clus>
</clustering>
</event>
<event>
 6    0  0.4796958E+002  0.1096714E+03  0.7546771E-02  0.1261180E+00
         21   -1    0    0  503  502  0.00000000000E+00  0.00000000000E+00  0.19230919238E+03  0.19230919238E+03  0.00000000000E+00 0.  1.
          1   -1    0    0  505    0 -0.00000000000E+00 -0.00000000000E+00 -0.63472458901E+03  0.63472458901E+03  0.00000000000E+00 0.  1.
         21    1    1    2  503  501 -0.94163352930E+02 -0.16681731638E+02  0.62549327313E+02  0.11426913648E+03  0.00000000000E+00 0.  1.
         21    1    1    2  504  502 -0.59295474620E+01 -0.35061952599E+02  0.33047655600E+02  0.48545314849E+02  0.00000000000E+00 0. -1.
         21    1    1    2  505  504  0.30642686670E+02 -0.96379835852E+02 -0.48015934896E+03  0.49069445422E+03  0.00000000000E+00 0.  1.
          1    1    1    2  501    0  0.69450213722E+02  0.14812352009E+03 -0.57853030576E+02  0.17352487584E+03  0.00000000000E+00 0.  1.
<scales pt_clust_3="14000.00000" pt_clust_4="35.55981" pt_clust_5="102.23459" pt_clust_6="109.67144"></scales>
<clustering>
<clus scale="   35.560">  1  4  2 -1</clus>
<clus scale="  102.235">  2  5  1 -1</clus>
<clus scale="  109.671">  2  6  1 -1</clus>
<clus scale="   35.560">  1  3  2 -1</clus>
</clustering>
</event>
<event>
 6    0  0.4796958E+002  0.1824889E+03  0.7546771E-02  0.1165416E+00
         21   -1    0    0  504  502  0.00000000000E+00  0.00000000000E+00  0.39128995960E+03  0.39128995960E+03  0.00000000000E+00 0. -1.
          2   -1    0    0  505    0 -0.00000000000E+00 -0.00000000000E+00 -0.17219916438E+04  0.17219916438E+04  0.00000000000E+00 0. -1.
         21    1    1    2  503  501 -0.13187509411E+03 -0.93423763927E+02 -0.53746388708E+02  0.17031651245E+03  0.00000000000E+00 0. -1.
         21    1    1    2  504  503  0.35583754361E+02  0.11382268381E+02  0.14265997076E+03  0.14747076614E+03  0.00000000000E+00 0. -1.
         21    1    1    2  505  502  0.11930605909E+03  0.12559058623E+03  0.14755456653E+03  0.22755061237E+03  0.00000000000E+00 0. -1.
          2    1    1    2  501    0 -0.23014719343E+02 -0.43549090686E+02 -0.15671698328E+04  0.15679437124E+04  0.00000000000E+00 0. -1.
<scales pt_clust_3="14000.00000" pt_clust_4="37.35987" pt_clust_5="182.48886" pt_clust_6="49.21455"></scales>
<clustering>
<clus scale="   37.360">  1  4  2 -1</clus>
<clus scale="   49.215">  2  6  1 -1</clus>
<clus scale="  182.489">  1  5  2 -1</clus>
<clus scale="   37.360">  1  3  2 -1</clus>
</clustering>
</event>
<event>
 6    0  0.4796958E+002  0.1634984E+03  0.7546771E-02  0.1184803E+00
          1   -1    0    0  505    0 -0.00000000000E+00  0.00000000000E+00  0.11507158450E+04  0.11507158450E+04  0.00000000000E+00 0.  1.
         21   -1    0    0  504  502  0.00000000000E+00 -0.00000000000E+00 -0.57331911418E+03  0.57331911418E+03  0.00000000000E+00 0.  1.
         21    1    1    2  503  502  0.38857388729E+02  0.27298999125E+02 -0.22306804468E+03  0.22806684233E+03  0.00000000000E+00 0. -1.
         21    1    1    2  504  501 -0.92514102591E+02 -0.17304557122E+03 -0.18405734138E+03  0.26903667745E+03  0.00000000000E+00 0.  1.
         21    1    1    2  505  503  0.98732672165E+02  0.10595375034E+03 -0.76785616199E+02  0.16392183692E+03  0.00000000000E+00 0.  1.
          1    1    1    2  501    0 -0.45075958303E+02  0.39792821751E+02  0.10613077331E+04  0.10630096025E+04  0.00000000000E+00 0.  1.
<scales pt_clust_3="47.48823" pt_clust_4="14000.00000" pt_clust_5="163.49843" pt_clust_6="60.10049"></scales>
<clustering>
<clus scale="   47.488">  2  3  1 -1</clus>
<clus scale="   60.100">  1  6  2 -1</clus>
<clus scale="  163.498">  1  5  2 -1</clus>
<clus scale="   47.488">  2  3  1 -1</clus>
</clustering>
</event>
<event>
 6    0  0.9047859E+002  0.1226753E+03  0.7546771E-02  0.1238748E+00
         21   -1    0    0  504  502  0.00000000000E+00  0.00000000000E+00  0.93167835356E+03  0.93167835356E+03  0.00000000000E+00 0. -1.
          1   -1    0    0  503    0 -0.00000000000E+00 -0.00000000000E+00 -0.85723558316E+03  0.85723558316E+03  0.00000000000E+00 0. -1.
         21    1    1    2  503  505 -0.68571285588E+02 -0.11546059256E+03  0.76702629845E+03  0.77869282273E+03  0.00000000000E+00 0. -1.
         21    1    1    2  504  501  0.20751038434E+01  0.33444666810E+02  0.13166188722E+02  0.36002782107E+02  0.00000000000E+00 0. -1.
         21    1    1    2  505  502  0.16770086845E+02 -0.30061486856E+02  0.12746447149E+03  0.13203075512E+03  0.00000000000E+00 0. -1.
          1    1    1    2  501    0  0.49726094899E+02  0.11207741261E+03 -0.83321418827E+03  0.84218757677E+03  0.00000000000E+00 0. -1.
<scales pt_clust_3="122.67533" pt_clust_4="33.50898" pt_clust_5="30.49984" pt_clust_6="14000.00000"></scales>
<clustering>
<clus scale="   33.509">  1  4  2 -1</clus>
<clus scale="   30.500">  1  5  2 -1</clus>
<clus scale="  122.675">  1  3  2 -1</clus>
<clus scale="   33.509">  1  3  2 -1</clus>
</clustering>
</event>
<event>
 6    0  0.4796958E+002  0.1040818E+03  0.7546771E-02  0.1271939E+00
         21   -1    0    0  505  502  0.00000000000E+00  0.00000000000E+00  0.14536019351E+03  0.14536019351E+03  0.00000000000E+00 0. -1.
          2   -1    0    0  504    0 -0.00000000000E+00 -0.00000000000E+00 -0.15730256805E+04  0.15730256805E+04  0.00000000000E+00 0. -1.
         21    1    1    2  503  502  0.30696984822E+01 -0.68210460690E+02  0.10873822415E+03  0.12839817517E+03  0.00000000000E+00 0. -1.
         21    1    1    2  504  503  0.67022420352E+02 -0.38849004895E+02 -0.67438936265E+02  0.10270959125E+03  0.00000000000E+00 0. -1.
         21    1    1    2  505  501 -0.87462700170E+02  0.74504484544E+02 -0.36410702846E+03  0.38180436131E+03  0.00000000000E+00 0. -1.
          2    1    1    2  501    0  0.17370581336E+02  0.32554981040E+02 -0.11048577464E+04  0.11054737462E+04  0.00000000000E+00 0. -1.
<scales pt_clust_3="67.61376" pt_clust_4="104.08184" pt_clust_5="14000.00000" pt_clust_6="36.89938"></scales>
<clustering>
<clus scale="   36.899">  2  6  1 -1</clus>
<clus scale="   67.614">  1  3  2 -1</clus>
<clus scale="  104.082">  1  4  2 -1</clus>
<clus scale="   67.614">  1  3  2 -1</clus>
</clustering>
</event>
<event>
 6    0  0.4796958E+002  0.7847735E+02  0.7546771E-02  0.1333429E+00
         21   -1    0    0  501  502  0.00000000000E+00  0.00000000000E+00  0.39271155897E+03  0.39271155897E+03  0.00000000000E+00 0. -1.
          2   -1    0    0  504    0 -0.00000000000E+00 -0.00000000000E+00 -0.31466701312E+04  0.31466701312E+04  0.00000000000E+00 0. -1.
         21    1    1    2  503  502 -0.60022898043E+02 -0.34199155348E+02  0.25894444045E+03  0.26800103312E+03  0.00000000000E+00 0. -1.
         21    1    1    2  504  505 -0.49001001569E+02 -0.92483719492E+01 -0.39942730595E+03  0.40252801552E+03  0.00000000000E+00 0.  1.
         21    1    1    2  505  503  0.11053850871E+03  0.93570255040E+02  0.86315530370E+02  0.16859574526E+03  0.00000000000E+00 0. -1.
          2    1    1    2  501    0 -0.15146091010E+01 -0.50122727742E+02 -0.26997912371E+04  0.27002568962E+04  0.00000000000E+00 0. -1.
<scales pt_clust_3="69.15983" pt_clust_4="49.86613" pt_clust_5="78.47735" pt_clust_6="14000.00000"></scales>
<clustering>
<clus scale="   49.866">  2  4  1 -1</clus>
<clus scale="   69.160">  1  3  2 -1</clus>
<clus scale="   78.477">  1  5  2 -1</clus>
<clus scale="   69.160">  1  3  2 -1</clus>
</clustering>
</event>
<event>
 6    0  0.4796958E+002  0.2078273E+03  0.7546771E-02  0.1143298E+00
         -1   -1    0    0    0  501 -0.00000000000E+00  0.00000000000E+00  0.11288583099E+04  0.11288583099E+04  0.00000000000E+00 0.  1.
         21   -1    0    0  503  502  0.00000000000E+00 -0.00000000000E+00 -0.65001062325E+03  0.65001062325E+03  0.00000000000E+00 0.  1.
         21    1    1    2  503  501 -0.51355113076E+02  0.82038535472E+00  0.40392180255E+01  0.51520247995E+02  0.00000000000E+00 0.  1.
         21    1    1    2  504  505 -0.26938209555E+02  0.15275690225E+03 -0.17105672523E+03  0.23091284409E+03  0.00000000000E+00 0.  1.
         21    1    1    2  505  502  0.41422887524E+02  0.53717264522E+02 -0.41213949907E+03  0.41768453025E+03  0.00000000000E+00 0.  1.
         -1    1    1    2    0  504  0.36870435107E+02 -0.20729455212E+03  0.10580046929E+04  0.10787513108E+04  0.00000000000E+00 0.  1.
<scales pt_clust_3="51.36167" pt_clust_4="207.82733" pt_clust_5="54.76298" pt_clust_6="14000.00000"></scales>
<clustering>
<clus scale="   51.362">  2  3  1 -1</clus>
<clus scale="   54.763">  2  5  1 -1</clus>
<clus scale="  207.827">  2  4  1 -1</clus>
<clus scale="   51.362">  2  3  1 -1</clus>
</clustering>
</event>
<event>
 6    0  0.4796958E+002  0.1056442E+03  0.7546771E-02  0.1268856E+00
         -1   -1    0    0    0  501 -0.00000000000E+00  0.00000000000E+00  0.23111832791E+03  0.23111832791E+03  0.00000000000E+00 0.  1.
         21   -1    0    0  501  502  0.00000000000E+00 -0.00000000000E+00 -0.59787863585E+03  0.59787863585E+03  0.00000000000E+00 0.  1.
         21    1    1    2  503  505  0.96810720364E+02  0.33680942616E+02 -0.12280851225E+03  0.15996453405E+03  0.00000000000E+00 0.  1.
         21    1    1    2  504  503 -0.85655521023E+02  0.43969312781E+01  0.14051256830E+02  0.86911674158E+02  0.00000000000E+00 0. -1.
         21    1    1    2  505  502  0.33742821803E+02 -0.31183266483E+02 -0.41558777268E+03  0.41811980453E+03  0.00000000000E+00 0.  1.
         -1    1    1    2    0  504 -0.44898021143E+02 -0.68946074117E+01  0.15758472015E+03  0.16400095103E+03  0.00000000000E+00 0.  1.
<scales pt_clust_3="14000.00000" pt_clust_4="105.64418" pt_clust_5="45.44048" pt_clust_6="45.42431"></scales>
<clustering>
<clus scale="   45.424">  1  6  2 -1</clus>
<clus scale="   45.440">  2  5  1 -1</clus>
<clus scale="  105.644">  1  4  2 -1</clus>
<clus scale="   45.440">  2  3  1 -1</clus>
</clustering>
</event>
<event>
 6    0  0.4796958E+002  0.9822189E+02  0.7546771E-02  0.1284080E+00
         21   -1    0    0  505  502  0.00000000000E+00  0.00000000000E+00  0.93804600939E+03  0.93804600939E+03  0.00000000000E+00 0.  1.
          1   -1    0    0  504    0 -0.00000000000E+00 -0.00000000000E+00 -0.14144788594E+04  0.14144788594E+04  0.00000000000E+00 0. -1.
         21    1    1    2  503  502  0.77325184448E+01  0.30860699000E+02  0.77394988287E+03  0.77460350876E+03  0.00000000000E+00 0.  1.
         21    1    1    2  504  503 -0.41272873093E+02 -0.14221014776E+03 -0.39937510340E+03  0.42594324668E+03  0.00000000000E+00 0.  1.
         21    1    1    2  505  501  0.52029828463E+02  0.48241738276E+02  0.14097208106E+03  0.15782108858E+03  0.00000000000E+00 0.  1.
          1    1    1    2  501    0 -0.18489473814E+02  0.63107710479E+02 -0.99197971056E+03  0.99415702479E+03  0.00000000000E+00 0. -1.
<scales pt_clust_3="31.81469" pt_clust_4="14000.00000" pt_clust_5="98.22189" pt_clust_6="65.94301"></scales>
<clustering>
<clus scale="   31.815">  1  3  2 -1</clus>
<clus scale="   65.943">  2  6  1 -1</clus>
<clus scale="   98.222">  1  5  2 -1</clus>
<clus scale="   31.815">  1  3  2 -1</clus>
</clustering>
</event>
<event>
 6    0  0.4796958E+002  0.1297963E+03  0.7546771E-02  0.1227758E+00
         21   -1    0    0  504  502  0.00000000000E+00  0.00000000000E+00  0.31060689903E+03  0.31060689903E+03  0.00000000000E+00 0. -1.
          2   -1    0    0  505    0 -0.00000000000E+00 -0.00000000000E+00 -0.16921167808E+04  0.16921167808E+04  0.00000000000E+00 0.  1.
         21    1    1    2  503  502 -0.75807410920E+02 -0.69134682419E+01  0.10276557147E+03  0.12788792856E+03  0.00000000000E+00 0.  1.
         21    1    1    2  504  501 -0.13200544348E+02  0.10359470544E+03  0.17484788022E+03  0.20366123486E+03  0.00000000000E+00 0. -1.
         21    1    1    2  505  503  0.11436836517E+03 -0.68154240223E+02 -0.78436380243E+03  0.79558261544E+03  0.00000000000E+00 0.  1.
          2    1    1    2  501    0 -0.25360409906E+02 -0.28526996979E+02 -0.87475953104E+03  0.87559190100E+03  0.00000000000E+00 0.  1.
<scales pt_clust_3="76.55122" pt_clust_4="129.79626" pt_clust_5="14000.00000" pt_clust_6="38.16988"></scales>
<clustering>
<clus scale="   38.170">  2  6  1 -1</clus>
<clus scale="   76.551">  1  3  2 -1</clus>
<clus scale="  129.796">  1  4  2 -1</clus>
<clus scale="   76.551">  1  3  2 -1</clus>
</clustering>
</event>
<event>
 6    0  0.4796958E+002  0.2131247E+03  0.7546771E-02  0.1139115E+00
         21   -1    0    0  505  502  0.00000000000E+00  0.00000000000E+00  0.14917568553E+03  0.14917568553E+03  0.00000000000E+00 0. -1.
          1   -1    0    0  503    0 -0.00000000000E+00 -0.00000000000E+00 -0.47155063509E+03  0.47155063509E+03  0.00000000000E+00 0.  1.
         21    1    1    2  503  504  0.17234853956E+03  0.64170064713E+02 -0.42795597513E+01  0.18395687246E+03  0.00000000000E+00 0. -1.
         21    1    1    2  504  502  0.62981040052E+01  0.49592738118E+02 -0.94586904334E+00  0.50000004563E+02  0.00000000000E+00 0.  1.
         21    1    1    2  505  501 -0.13819730419E+03 -0.10201703256E+03 -0.20790263229E+03  0.26968402683E+03  0.00000000000E+00 0.  1.
          1    1    1    2  501    0 -0.40449339379E+02 -0.11745770270E+02 -0.10924688848E+03  0.11708541676E+03  0.00000000000E+00 0.  1.
<scales pt_clust_3="203.15502" pt_clust_4="49.99106" pt_clust_5="31.90080" pt_clust_6="31.90080"></scales>
<clustering>
<clus scale="   31.901">  5  6 -1 -1</clus>
<clus scale="   49.991">  1  4  2 -1</clus>
<clus scale="  203.155">  1  3  2 -1</clus>
<clus scale="   49.991">  1  3  2 -1</clus>
</clustering>
</event>
<event>
 6    0  0.4796958E+002  0.2399829E+03  0.7546771E-02  0.1119804E+00
         -2   -1    0    0    0  501 -0.00000000000E+00  0.00000000000E+00  0.70889438199E+03  0.70889438199E+03  0.00000000000E+00 0. -1.
         21   -1    0    0  505  502  0.00000000000E+00 -0.00000000000E+00 -0.80160666125E+03  0.80160666125E+03  0.00000000000E+00 0. -1.
         21    1    1    2  503  502 -0.24709321223E+03 -0.10726118357E+02 -0.25152302050E+03  0.35275194541E+03  0.00000000000E+00 0. -1.
         21    1    1    2  504  501  0.22993363249E+03 -0.15446642820E+02  0.16178928697E+03  0.28157387574E+03  0.00000000000E+00 0. -1.
         21    1    1    2  505  504  0.14404174808E+02 -0.70405573599E+02 -0.43122138214E+03  0.43716850923E+03  0.00000000000E+00 0. -1.
         -2    1    1    2    0  503  0.27554049340E+01  0.96578334775E+02  0.42824283641E+03  0.43900671286E+03  0.00000000000E+00 0. -1.
<scales pt_clust_3="14000.00000" pt_clust_4="239.98286" pt_clust_5="71.86393" pt_clust_6="95.59305"></scales>
<clustering>
<clus scale="   71.864">  2  5  1 -1</clus>
<clus scale="   95.593">  1  6  2 -1</clus>
<clus scale="  239.983">  1  4  2 -1</clus>
<clus scale="   71.864">  2  3  1 -1</clus>
</clustering>
</event>
<event>
 6    0  0.4796958E+002  0.9374134E+02  0.7546771E-02  0.1294036E+00
          1   -1    0    0  504    0 -0.00000000000E+00  0.00000000000E+00  0.10037449023E+04  0.10037449023E+04  0.00000000000E+00 0. -1.
         21   -1    0    0  503  502  0.00000000000E+00 -0.00000000000E+00 -0.42398454109E+03  0.42398454109E+03  0.00000000000E+00 0. -1.
         21    1    1    2  503  501 -0.37526872514E+01 -0.65883676690E+02  0.10300488403E+03  0.12233048536E+03  0.00000000000E+00 0. -1.
         21    1    1    2  504  505 -0.78808565439E+02  0.13017409055E+03  0.27350174217E+03  0.31298448334E+03  0.00000000000E+00 0. -1.
         21    1    1    2  505  502  0.75279894718E+02 -0.22170889585E+01 -0.38932829831E+03  0.39654571224E+03  0.00000000000E+00 0. -1.
          1    1    1    2  501    0  0.72813579721E+01 -0.62073324904E+02  0.59258203333E+03  0.59586876245E+03  0.00000000000E+00 0. -1.
<scales pt_clust_3="93.74134" pt_clust_4="14000.00000" pt_clust_5="75.39474" pt_clust_6="62.49893"></scales>
<clustering>
<clus scale="   62.499">  1  6  2 -1</clus>
<clus scale="   75.395">  2  5  1 -1</clus>
<clus scale="   93.741">  2  3  1 -1</clus>
<clus scale="   75.395">  2  3  1 -1</clus>
</clustering>
</event>
<event>
 6    0  0.6409210E+002  0.8961684E+02  0.7546771E-02  0.1303782E+00
          2   -1    0    0  505    0 -0.00000000000E+00  0.00000000000E+00  0.12321048538E+04  0.12321048538E+04  0.00000000000E+00 0. -1.
         21   -1    0    0  503  502  0.00000000000E+00 -0.00000000000E+00 -0.29489961022E+03  0.29489961022E+03  0.00000000000E+00 0.  1.
         21    1    1    2  503  501 -0.32840474926E+02 -0.22784426387E+02  0.10734820280E+02  0.41386752054E+02  0.00000000000E+00 0.  1.
         21    1    1    2  504  502 -0.89649155075E+02 -0.10185600006E-01 -0.26757554880E+03  0.28219433982E+03  0.00000000000E+00 0.  1.
         21    1    1    2  505  504  0.87566848526E+02  0.11590977704E+02  0.45657000134E+03  0.46503598769E+03  0.00000000000E+00 0.  1.
          2    1    1    2  501    0  0.34922781474E+02  0.11203634283E+02  0.73747597075E+03  0.73838738445E+03  0.00000000000E+00 0. -1.
<scales pt_clust_3="38.12453" pt_clust_4="89.61684" pt_clust_5="14000.00000" pt_clust_6="36.67591"></scales>
<clustering>
<clus scale="   36.676">  1  6  2 -1</clus>
<clus scale="   38.125">  1  3  2 -1</clus>
<clus scale="   89.617">  2  4  1 -1</clus>
<clus scale="   89.617">  2  3  1 -1</clus>
</clustering>
</event>
<event>
 6    0  0.4796958E+002  0.1890256E+03  0.7546771E-02  0.1159343E+00
          1   -1    0    0  503    0 -0.00000000000E+00  0.00000000000E+00  0.20350625088E+03  0.20350625088E+03  0.00000000000E+00 0. -1.
         21   -1    0    0  504  502  0.00000000000E+00 -0.00000000000E+00 -0.97570066806E+03  0.97570066806E+03  0.00000000000E+00 0. -1.
         21    1    1    2  503  502 -0.20224589288E+03  0.54665996896E+02 -0.19950842981E+03  0.28930154851E+03  0.00000000000E+00 0. -1.
         21    1    1    2  504  505  0.45654811485E+02 -0.16285196243E+02 -0.30998204302E+03  0.31374900227E+03  0.00000000000E+00 0. -1.
         21    1    1    2  505  501  0.11077221824E+03 -0.60597182015E+02 -0.40542072369E+03  0.42462744376E+03  0.00000000000E+00 0. -1.
          1    1    1    2  501    0  0.45818863155E+02  0.22216381362E+02  0.14271677935E+03  0.15152892440E+03  0.00000000000E+00 0. -1.
<scales pt_clust_3="180.86552" pt_clust_4="34.04020" pt_clust_5="34.04020" pt_clust_6="50.92088"></scales>
<clustering>
<clus scale="   34.040">  4  5 -1 -1</clus>
<clus scale="   50.921">  1  6  2 -1</clus>
<clus scale="  180.866">  1  3  2 -1</clus>
<clus scale="  189.026">  2  3  1 -1</clus>
</clustering>
</event>
<event>
 6    0  0.1488938E+003  0.7814339E+02  0.7546771E-02  0.1334404E+00
         21   -1    0    0  503  502  0.00000000000E+00  0.00000000000E+00  0.23394168459E+04  0.23394168459E+04  0.00000000000E+00 0.  1.
          1   -1    0    0  504    0 -0.00000000000E+00 -0.00000000000E+00 -0.74510784108E+03  0.74510784108E+03  0.00000000000E+00 0.  1.
         21    1    1    2  503  501  0.68690779458E+02 -0.89014358532E+02  0.36268850084E+03  0.37971690488E+03  0.00000000000E+00 0.  1.
         21    1    1    2  504  505 -0.22930259616E+02  0.54515354090E+02  0.96286136874E+02  0.11299885305E+03  0.00000000000E+00 0.  1.
         21    1    1    2  505  502 -0.46486613436E+01  0.41532841635E+02  0.18627398582E+04  0.18632086213E+04  0.00000000000E+00 0.  1.
          1    1    1    2  501    0 -0.41111858498E+02 -0.70338371926E+01 -0.72740549119E+03  0.72860030770E+03  0.00000000000E+00 0.  1.
<scales pt_clust_3="14000.00000" pt_clust_4="78.14339" pt_clust_5="41.76296" pt_clust_6="41.70923"></scales>
<clustering>
<clus scale="   41.709">  2  6  1 -1</clus>
<clus scale="   41.763">  1  5  2 -1</clus>
<clus scale="   78.143">  2  4  1 -1</clus>
<clus scale="   41.763">  1  3  2 -1</clus>
</clustering>
</event>
<event>
 6    0  0.4796958E+002  0.9618093E+02  0.7546771E-02  0.1288538E+00
         21   -1    0    0  505  502  0.00000000000E+00  0.00000000000E+00  0.19145010436E+03  0.19145010436E+03  0.00000000000E+00 0.  1.
          1   -1    0    0  503    0 -0.00000000000E+00 -0.00000000000E+00 -0.10273815434E+04  0.10273815434E+04  0.00000000000E+00 0. -1.
         21    1    1    2  503  504 -0.10608855052E+03 -0.11245980187E+03  0.37784217713E+02  0.15915286582E+03  0.00000000000E+00 0.  1.
         21    1    1    2  504  502  0.79818357286E+02  0.19060082053E+02  0.63461137366E+02  0.10373800096E+03  0.00000000000E+00 0.  1.
         21    1    1    2  505  501  0.40566366627E+02  0.46230614938E+02 -0.10059154051E+03  0.11790486793E+03  0.00000000000E+00 0.  1.
          1    1    1    2  501    0 -0.14296173390E+02  0.47169104882E+02 -0.83658525364E+03  0.83803591309E+03  0.00000000000E+00 0. -1.
<scales pt_clust_3="14000.00000" pt_clust_4="96.18093" pt_clust_5="80.15962" pt_clust_6="49.28798"></scales>
<clustering>
<clus scale="   49.288">  2  6  1 -1</clus>
<clus scale="   80.160">  2  5  1 -1</clus>
<clus scale="   96.181">  1  4  2 -1</clus>
<clus scale="   96.181">  1  3  2 -1</clus>
</clustering>
</event>
<event>
 6    0  0.4796958E+002  0.1068037E+03  0.7546771E-02  0.1266606E+00
         21   -1    0    0  503  502  0.00000000000E+00  0.00000000000E+00  0.10956758777E+04  0.10956758777E+04  0.00000000000E+00 0. -1.
          2   -1    0    0  504    0 -0.00000000000E+00 -0.00000000000E+00 -0.38933713342E+03  0.38933713342E+03  0.00000000000E+00 0.  1.
         21    1    1    2  503  505  0.21923135104E+02  0.39668108462E+02  0.88440469985E+03  0.88556527473E+03  0.00000000000E+00 0. -1.
         21    1    1    2  504  502 -0.82418921077E+02 -0.19333476850E+02 -0.18058503301E+03  0.19944326518E+03  0.00000000000E+00 0.  1.
         21    1    1    2  505  501  0.29095030220E+02  0.64127911310E+02  0.18420139765E+03  0.19720310517E+03  0.00000000000E+00 0. -1.
          2    1    1    2  501    0  0.31400755753E+02 -0.84462542921E+02 -0.18168232017E+03  0.20280136607E+03  0.00000000000E+00 0.  1.
<scales pt_clust_3="45.32309" pt_clust_4="83.30908" pt_clust_5="106.80373" pt_clust_6="14000.00000"></scales>
<clustering>
<clus scale="   45.323">  1  3  2 -1</clus>
<clus scale="   83.309">  2  4  1 -1</clus>
<clus scale="  106.804">  1  5  2 -1</clus>
<clus scale="   45.323">  1  3  2 -1</clus>
</clustering>
</event>
<event>
 6    0  0.4796958E+002  0.1531712E+03  0.7546771E-02  0.1196630E+00
          2   -1    0    0  504    0 -0.00000000000E+00  0.00000000000E+00  0.13570485651E+04  0.13570485651E+04  0.00000000000E+00 0.  1.
         21   -1    0    0  503  502  0.00000000000E+00 -0.00000000000E+00 -0.14213098087E+04  0.14213098087E+04  0.00000000000E+00 0. -1.
         21    1    1    2  503  505 -0.12351522691E+03 -0.92860608934E+02 -0.13103309115E+04  0.13194113087E+04  0.00000000000E+00 0. -1.
         21    1    1    2  504  502  0.18817750933E+02 -0.39782094557E+02  0.64234931992E+02  0.77864300456E+02  0.00000000000E+00 0. -1.
         21    1    1    2  505  501  0.51984192223E+02  0.15088240930E+03 -0.34662378225E+02  0.16330749567E+03  0.00000000000E+00 0. -1.
          2    1    1    2  501    0  0.52713283751E+02 -0.18239705812E+02  0.12164971141E+04  0.12177752690E+04  0.00000000000E+00 0.  1.
<scales pt_clust_3="153.17121" pt_clust_4="44.00821" pt_clust_5="14000.00000" pt_clust_6="89.98562"></scales>
<clustering>
<clus scale="   44.008">  1  4  2 -1</clus>
<clus scale="   89.986">  1  6  2 -1</clus>
<clus scale="  153.171">  2  3  1 -1</clus>
<clus scale="  153.171">  2  3  1 -1</clus>
</clustering>
</event>
<event>
 6    0  0.4796958E+002  0.8713483E+02  0.7546771E-02  0.1309942E+00
          1   -1    0    0  503    0 -0.00000000000E+00  0.00000000000E+00  0.24662302306E+04  0.24662302306E+04  0.00000000000E+00 0. -1.
         21   -1    0    0  504  502  0.00000000000E+00 -0.00000000000E+00 -0.30695121070E+03  0.30695121070E+03  0.00000000000E+00 0. -1.
         21    1    1    2  503  502 -0.61731718761E+02  0.10032620331E+03 -0.12314166987E+03  0.17041133481E+03  0.00000000000E+00 0. -1.
         21    1    1    2  504  505 -0.18219913467E+01 -0.40480419637E+02 -0.15151652353E+03  0.15684145156E+03  0.00000000000E+00 0. -1.
         21    1    1    2  505  501  0.18351791682E+02 -0.77031996739E+02  0.26806542352E+03  0.27951706221E+03  0.00000000000E+00 0. -1.
          1    1    1    2  501    0  0.45201918425E+02  0.17186213061E+02  0.21658717898E+04  0.21664115928E+04  0.00000000000E+00 0. -1.
<scales pt_clust_3="14000.00000" pt_clust_4="40.52140" pt_clust_5="87.13483" pt_clust_6="48.33048"></scales>
<clustering>
<clus scale="   40.521">  2  4  1 -1</clus>
<clus scale="   48.330">  1  6  2 -1</clus>
<clus scale="   87.135">  1  5  2 -1</clus>
<clus scale="   40.521">  2  3  1 -1</clus>
</clustering>
</event>
<event>
 6    0  0.4796958E+002  0.1947280E+03  0.7546771E-02  0.1154265E+00
         21   -1    0    0  505  502  0.00000000000E+00  0.00000000000E+00  0.23401070127E+03  0.23401070127E+03  0.00000000000E+00 0. -1.
          2   -1    0    0  504    0 -0.00000000000E+00 -0.00000000000E+00 -0.12723654498E+04  0.12723654498E+04  0.00000000000E+00 0. -1.
         21    1    1    2  503  502  0.15387589057E+03 -0.12963577390E+03  0.17069076828E+03  0.26385329627E+03  0.00000000000E+00 0. -1.
         21    1    1    2  504  503 -0.23035439256E+02  0.41292422705E+02 -0.59853215511E+02  0.76276490753E+02  0.00000000000E+00 0. -1.
         21    1    1    2  505  501 -0.97128630324E+02  0.83948864382E+01 -0.82139680853E+03  0.82716211350E+03  0.00000000000E+00 0. -1.
          2    1    1    2  501    0 -0.33711820994E+02  0.79948464757E+02 -0.32779549275E+03  0.33908425053E+03  0.00000000000E+00 0. -1.
<scales pt_clust_3="194.72796" pt_clust_4="47.28314" pt_clust_5="14000.00000" pt_clust_6="99.78840"></scales>
<clustering>
<clus scale="   47.283">  2  4  1 -1</clus>
<clus scale="   99.788">  2  6  1 -1</clus>
<clus scale="  194.728">  1  3  2 -1</clus>
<clus scale="  194.728">  1  3  2 -1</clus>
</clustering>
</event>
<event>
 6    0  0.4796958E+002  0.1024868E+03  0.7546771E-02  0.1275152E+00
         21   -1    0    0  503  502  0.00000000000E+00  0.00000000000E+00  0.96061211480E+03  0.96061211480E+03  0.00000000000E+00 0.  1.
          2   -1    0    0  504    0 -0.00000000000E+00 -0.00000000000E+00 -0.10620502693E+04  0.10620502693E+04  0.00000000000E+00 0. -1.
         21    1    1    2  503  501 -0.93194383366E+01  0.78952467649E+02 -0.93347787301E+02  0.12261383883E+03  0.00000000000E+00 0.  1.
         21    1    1    2  504  505  0.51172850644E+02 -0.11196329791E+03 -0.32453221740E+03  0.34709595338E+03  0.00000000000E+00 0. -1.
         21    1    1    2  505  502  0.26667214921E+01  0.44039231473E+02  0.93332474133E+03  0.93436697186E+03  0.00000000000E+00 0.  1.
          2    1    1    2  501    0 -0.44520133799E+02 -0.11028401210E+02 -0.61688289113E+03  0.61858562004E+03  0.00000000000E+00 0. -1.
<scales pt_clust_3="102.48679" pt_clust_4="14000.00000" pt_clust_5="44.11990" pt_clust_6="45.46634"></scales>
<clustering>
<clus scale="   44.120">  1  5  2 -1</clus>
<clus scale="   45.466">  2  6  1 -1</clus>
<clus scale="  102.487">  1  3  2 -1</clus>
<clus scale="   44.120">  1  3  2 -1</clus>
</clustering>
</event>
<event>
 6    0  0.4796958E+002  0.9213664E+02  0.7546771E-02  0.1297758E+00
         -2   -1    0    0    0  501 -0.00000000000E+00  0.00000000000E+00  0.12405537701E+04  0.12405537701E+04  0.00000000000E+00 0.  1.
         21   -1    0    0  503  502  0.00000000000E+00 -0.00000000000E+00 -0.32313910257E+03  0.32313910257E+03  0.00000000000E+00 0.  1.
         21    1    1    2  503  504 -0.40740676959E+02  0.96774122966E+01 -0.24982949018E+03  0.25331448681E+03  0.00000000000E+00 0.  1.
         21    1    1    2  504  505 -0.22733758649E+02  0.61496232982E+02 -0.49408504881E+02  0.82096350759E+02  0.00000000000E+00 0.  1.
         21    1    1    2  505  501  0.11693602709E+02 -0.10290713356E+03  0.62531154727E+03  0.63383053699E+03  0.00000000000E+00 0. -1.
         -2    1    1    2    0  502  0.51780832899E+02  0.31733488283E+02  0.59134111533E+03  0.59445149812E+03  0.00000000000E+00 0.  1.
<scales pt_clust_3="41.87428" pt_clust_4="92.13664" pt_clust_5="14000.00000" pt_clust_6="60.08959"></scales>
<clustering>
<clus scale="   41.874">  2  3  1 -1</clus>
<clus scale="   60.090">  1  6  2 -1</clus>
<clus scale="   92.137">  2  4  1 -1</clus>
<clus scale="   41.874">  2  3  1 -1</clus>
</clustering>
</event>
<event>
 6    0  0.4796958E+002  0.3049298E+03  0.7546771E-02  0.1082802E+00
         21   -1    0    0  505  502  0.00000000000E+00  0.00000000000E+00  0.10854930718E+04  0.10854930718E+04  0.00000000000E+00 0.  1.
          2   -1    0    0  502    0 -0.00000000000E+00 -0.00000000000E+00 -0.26251031252E+03  0.26251031252E+03  0.00000000000E+00 0.  1.
         21    1    1    2  503  501 -0.93580904035E+02 -0.33956729615E+03  0.28481036227E+03  0.45296829544E+03  0.00000000000E+00 0.  1.
         21    1    1    2  504  503  0.31460832073E+02  0.22347534285E+03  0.44847441658E+03  0.50205608765E+03  0.00000000000E+00 0.  1.
         21    1    1    2  505  504 -0.11701730044E+02  0.45128862269E+02  0.22134220614E+03  0.22619884375E+03  0.00000000000E+00 0. -1.
          2    1    1    2  501    0  0.73821802006E+02  0.70963091033E+02 -0.13164422576E+03  0.16678015744E+03  0.00000000000E+00 0.  1.
<scales pt_clust_3="289.51667" pt_clust_4="43.50596" pt_clust_5="43.50596" pt_clust_6="102.39833"></scales>
<clustering>
<clus scale="   43.506">  4  5 -1 -1</clus>
<clus scale="  102.398">  2  6  1 -1</clus>
<clus scale="  289.517">  2  3  1 -1</clus>
<clus scale="  304.930">  1  3  2 -1</clus>
</clustering>
</event>
<event>
 6    0  0.4796958E+002  0.1595295E+03  0.7546771E-02  0.1189229E+00
          3   -1    0    0  504    0 -0.00000000000E+00  0.00000000000E+00  0.31541883025E+03  0.31541883025E+03  0.00000000000E+00 0.  1.
         21   -1    0    0  503  502  0.00000000000E+00 -0.00000000000E+00 -0.47002454460E+03  0.47002454460E+03  0.00000000000E+00 0.  1.
         21    1    1    2  503  501 -0.12413380819E+03 -0.83724457997E+01 -0.12702432837E+03  0.17780461237E+03  0.00000000000E+00 0.  1.
         21    1    1    2  504  505  0.11277467189E+02  0.66108104338E+02 -0.57233099865E+02  0.88165131688E+02  0.00000000000E+00 0. -1.
         21    1    1    2  505  502  0.52943272819E+02  0.71467650376E+02 -0.21707686345E+03  0.23459109070E+03  0.00000000000E+00 0.  1.
          3    1    1    2  501    0  0.59913068180E+02 -0.12920330891E+03  0.24672857734E+03  0.28488254009E+03  0.00000000000E+00 0.  1.
<scales pt_clust_3="124.41584" pt_clust_4="66.55257" pt_clust_5="66.55257" pt_clust_6="139.91226"></scales>
<clustering>
<clus scale="   66.553">  4  5 -1 -1</clus>
<clus scale="  124.416">  2  3  1 -1</clus>
<clus scale="  139.912">  1  6  2 -1</clus>
<clus scale="  124.416">  2  3  1 -1</clus>
</clustering>
</event>
<event>
 6    0  0.4796958E+002  0.2227906E+03  0.7546771E-02  0.1131819E+00
          2   -1    0    0  503    0 -0.00000000000E+00  0.00000000000E+00  0.13391834611E+04  0.13391834611E+04  0.00000000000E+00 0.  1.
         21   -1    0    0  505  502  0.00000000000E+00 -0.00000000000E+00 -0.14940376815E+04  0.14940376815E+04  0.00000000000E+00 0.  1.
         21    1    1    2  503  504 -0.59440416741E+02 -0.67074830676E+02  0.17164824817E+03  0.19363707588E+03  0.00000000000E+00 0.  1.
         21    1    1    2  504  502  0.25885628901E+03  0.81919161628E+02 -0.13378564423E+04  0.13651290003E+04  0.00000000000E+00 0.  1.
         21    1    1    2  505  501 -0.45928798425E+02 -0.15089242438E+02 -0.12175307283E+03  0.13099981109E+03  0.00000000000E+00 0.  1.
          2    1    1    2  501    0 -0.15348707384E+03  0.24491148591E+00  0.11331070466E+04  0.11434552553E+04  0.00000000000E+00 0.  1.
<scales pt_clust_3="89.95839" pt_clust_4="222.79064" pt_clust_5="48.34397" pt_clust_6="14000.00000"></scales>
<clustering>
<clus scale="   48.344">  2  5  1 -1</clus>
<clus scale="   89.958">  1  3  2 -1</clus>
<clus scale="  222.791">  2  4  1 -1</clus>
<clus scale="   48.344">  2  3  1 -1</clus>
</clustering>
</event>
<event>
 6    0  0.4796958E+002  0.8376520E+02  0.7546771E-02  0.1318694E+00
         21   -1    0    0  504  502  0.00000000000E+00  0.00000000000E+00  0.49548845661E+02  0.49548845661E+02  0.00000000000E+00 0. -1.
          2   -1    0    0  505    0 -0.00000000000E+00 -0.00000000000E+00 -0.49510545625E+03  0.49510545625E+03  0.00000000000E+00 0. -1.
         21    1    1    2  503  502  0.29922238021E+02 -0.91597162430E+01 -0.29775826473E+01  0.31434164985E+02  0.00000000000E+00 0. -1.
         21    1    1    2  504  501 -0.54197563107E+02 -0.11033967627E+02 -0.26666086990E+02  0.61401990877E+02  0.00000000000E+00 0. -1.
         21    1    1    2  505  503  0.97966404629E+02  0.26490736971E+02 -0.21569870903E+03  0.23838017673E+03  0.00000000000E+00 0. -1.
          2    1    1    2  501    0 -0.73691079544E+02 -0.62970531005E+01 -0.20021423192E+03  0.21343796932E+03  0.00000000000E+00 0. -1.
<scales pt_clust_3="31.29282" pt_clust_4="42.43140" pt_clust_5="14000.00000" pt_clust_6="83.76520"></scales>
<clustering>
<clus scale="   31.293">  1  3  2 -1</clus>
<clus scale="   42.431">  1  4  2 -1</clus>
<clus scale="   83.765">  2  6  1 -1</clus>
<clus scale="   31.293">  1  3  2 -1</clus>
</clustering>
</event>
<event>
 6    0  0.4796958E+002  0.1001173E+03  0.7546771E-02  0.1280050E+00
         -3   -1    0    0    0  501 -0.00000000000E+00  0.00000000000E+00  0.10514780314E+04  0.10514780314E+04  0.00000000000E+00 0.  1.
         21   -1    0    0  504  502  0.00000000000E+00 -0.00000000000E+00 -0.16776729742E+03  0.16776729742E+03  0.00000000000E+00 0.  1.
         21    1    1    2  503  502 -0.18724237620E+02 -0.61846589054E+02 -0.14306544640E+03  0.15698190853E+03  0.00000000000E+00 0.  1.
         21    1    1    2  504  505 -0.13397606071E+02  0.27277197011E+02  0.31086943607E+02  0.43473433129E+02  0.00000000000E+00 0. -1.
         21    1    1    2  505  501 -0.35218244157E+02  0.10544903426E+03  0.40135908302E+03  0.41647201235E+03  0.00000000000E+00 0.  1.
         -3    1    1    2    0  503  0.67340087847E+02 -0.70879642213E+02  0.59433015377E+03  0.60231797482E+03  0.00000000000E+00 0.  1.
<scales pt_clust_3="48.00899" pt_clust_4="30.38982" pt_clust_5="100.11727" pt_clust_6="14000.00000"></scales>
<clustering>
<clus scale="   30.390">  2  4  1 -1</clus>
<clus scale="   48.009">  2  3  1 -1</clus>
<clus scale="  100.117">  2  5  1 -1</clus>
<clus scale="   30.390">  2  3  1 -1</clus>
</clustering>
</event>
<event>
 6    0  0.4796958E+002  0.8284307E+02  0.7546771E-02  0.1321171E+00
          2   -1    0    0  502    0 -0.00000000000E+00  0.00000000000E+00  0.20108860257E+03  0.20108860257E+03  0.00000000000E+00 0.  1.
         21   -1    0    0  505  502  0.00000000000E+00 -0.00000000000E+00 -0.30167681174E+03  0.30167681174E+03  0.00000000000E+00 0. -1.
         21    1    1    2  503  501  0.49260730712E+02 -0.94307990770E+02  0.66888709314E+02  0.12567703110E+03  0.00000000000E+00 0. -1.
         21    1    1    2  504  503 -0.82879357910E+02 -0.88330233394E+01 -0.17024659853E+03  0.18955451611E+03  0.00000000000E+00 0. -1.
         21    1    1    2  505  504  0.26899420922E+02  0.27986384752E+02 -0.71691010117E+02  0.81525563530E+02  0.00000000000E+00 0.  1.
          2    1    1    2  501    0  0.67192062765E+01  0.75154629357E+02  0.74460690160E+02  0.10600830357E+03  0.00000000000E+00 0.  1.
<scales pt_clust_3="14000.00000" pt_clust_4="62.85331" pt_clust_5="38.81774" pt_clust_6="82.84307"></scales>
<clustering>
<clus scale="   38.818">  2  5  1 -1</clus>
<clus scale="   62.853">  2  4  1 -1</clus>
<clus scale="   82.843">  1  6  2 -1</clus>
<clus scale="   38.818">  2  3  1 -1</clus>
</clustering>
</event>
<event>
 6    0  0.4796958E+002  0.7505002E+02  0.7546771E-02  0.1343716E+00
         21   -1    0    0  503  502  0.00000000000E+00  0.00000000000E+00  0.52009144846E+03  0.52009144846E+03  0.00000000000E+00 0.  1.
         -3   -1    0    0    0  501 -0.00000000000E+00 -0.00000000000E+00 -0.23951017984E+03  0.23951017984E+03  0.00000000000E+00 0. -1.
         21    1    1    2  503  505  0.74275669384E+02  0.10292187350E+02  0.44923759946E+03  0.45545276917E+03  0.00000000000E+00 0.  1.
         21    1    1    2  504  501  0.39474443483E+02  0.33288379814E+02  0.16168879457E+02  0.54108969514E+02  0.00000000000E+00 0.  1.
         21    1    1    2  505  504 -0.33432403545E+02 -0.49410276363E+02 -0.14139107500E+02  0.61310809634E+02  0.00000000000E+00 0. -1.
         -3    1    1    2    0  502 -0.80317709323E+02  0.58297091984E+01 -0.17068610280E+03  0.18872907998E+03  0.00000000000E+00 0. -1.
<scales pt_clust_3="75.05002" pt_clust_4="51.63669" pt_clust_5="51.21443" pt_clust_6="14000.00000"></scales>
<clustering>
<clus scale="   51.637">  2  4  1 -1</clus>
<clus scale="   51.214">  2  5  1 -1</clus>
<clus scale="   75.050">  1  3  2 -1</clus>
<clus scale="   75.050">  1  3  2 -1</clus>
</clustering>
</event>
<event>
 6    0  0.4796958E+002  0.7989188E+02  0.7546771E-02  0.1329359E+00
         21   -1    0    0  504  502  0.00000000000E+00  0.00000000000E+00  0.21055093483E+03  0.21055093483E+03  0.00000000000E+00 0. -1.
          2   -1    0    0  503    0 -0.00000000000E+00 -0.00000000000E+00 -0.25416948085E+03  0.25416948085E+03  0.00000000000E+00 0. -1.
         21    1    1    2  503  505  0.10179054969E+03 -0.65906649594E+02  0.34150086129E+01  0.12131226134E+03  0.00000000000E+00 0. -1.
         21    1    1    2  504  501  0.57404563022E+01  0.55707184291E+02  0.11225798176E+03  0.12545157507E+03  0.00000000000E+00 0. -1.
         21    1    1    2  505  502 -0.33954437132E+02 -0.59778174781E+01  0.71947398813E+01  0.35219346739E+02  0.00000000000E+00 0.  1.
          2    1    1    2  501    0 -0.73576568858E+02  0.16177282781E+02 -0.16648627628E+03  0.18273723253E+03  0.00000000000E+00 0. -1.
<scales pt_clust_3="79.89188" pt_clust_4="54.23865" pt_clust_5="34.47663" pt_clust_6="14000.00000"></scales>
<clustering>
<clus scale="   34.477">  1  5  2 -1</clus>
<clus scale="   54.239">  1  4  2 -1</clus>
<clus scale="   79.892">  1  3  2 -1</clus>
<clus scale="   34.477">  1  3  2 -1</clus>
</clustering>
</event>
<event>
 6    0  0.4796958E+002  0.1464467E+03  0.7546771E-02  0.1204908E+00
          2   -1    0    0  505    0 -0.00000000000E+00  0.00000000000E+00  0.28050820111E+03  0.28050820111E+03  0.00000000000E+00 0. -1.
         21   -1    0    0  501  502  0.00000000000E+00 -0.00000000000E+00 -0.99603738871E+03  0.99603738871E+03  0.00000000000E+00 0.  1.
         21    1    1    2  503  504  0.58748480112E+02  0.12605154158E+03 -0.18609839996E+03  0.23232087620E+03  0.00000000000E+00 0. -1.
         21    1    1    2  504  502 -0.96125920371E+02 -0.11498311394E+03 -0.77480496568E+03  0.78916667688E+03  0.00000000000E+00 0.  1.
         21    1    1    2  505  503  0.22449253448E+02  0.21019115248E+02  0.75247031070E+02  0.81288916040E+02  0.00000000000E+00 0. -1.
          2    1    1    2  501    0  0.14928186811E+02 -0.32087542887E+02  0.17012714697E+03  0.17376912069E+03  0.00000000000E+00 0. -1.
<scales pt_clust_3="146.44674" pt_clust_4="14000.00000" pt_clust_5="30.75341" pt_clust_6="36.86639"></scales>
<clustering>
<clus scale="   30.753">  1  5  2 -1</clus>
<clus scale="   36.866">  1  6  2 -1</clus>
<clus scale="  146.447">  1  3  2 -1</clus>
<clus scale="  146.447">  2  3  1 -1</clus>
</clustering>
</event>
<event>
 6    0  0.4796958E+002  0.1013244E+03  0.7546771E-02  0.1277535E+00
         21   -1    0    0  504  502  0.00000000000E+00  0.00000000000E+00  0.48316074002E+02  0.48316074002E+02  0.00000000000E+00 0.  1.
          2   -1    0    0  505    0 -0.00000000000E+00 -0.00000000000E+00 -0.15040207630E+04  0.15040207630E+04  0.00000000000E+00 0.  1.
         21    1    1    2  503  502  0.66610976070E+02 -0.48859920728E+01 -0.13146231989E+03  0.14745588019E+03  0.00000000000E+00 0.  1.
         21    1    1    2  504  501  0.28820000347E+02 -0.39217494678E+02 -0.39321608674E+01  0.48826900351E+02  0.00000000000E+00 0.  1.
         21    1    1    2  505  503 -0.16523617698E+03 -0.19829395049E+02 -0.43583419571E+03  0.46652721811E+03  0.00000000000E+00 0.  1.
          2    1    1    2  501    0  0.69805200562E+02  0.63932881799E+02 -0.88447601252E+03  0.88952683834E+03  0.00000000000E+00 0.  1.
<scales pt_clust_3="77.41188" pt_clust_4="48.66831" pt_clust_5="101.32441" pt_clust_6="14000.00000"></scales>
<clustering>
<clus scale="   48.668">  1  4  2 -1</clus>
<clus scale="   77.412">  1  3  2 -1</clus>
<clus scale="  101.324">  1  5  2 -1</clus>
<clus scale="   48.668">  1  3  2 -1</clus>
</clustering>
</event>
<event>
 6    0  0.4796958E+002  0.2565568E+03  0.7546771E-02  0.1109230E+00
          1   -1    0    0  503    0 -0.00000000000E+00  0.00000000000E+00  0.11512552654E+04  0.11512552654E+04  0.00000000000E+00 0.  1.
         21   -1    0    0  504  502  0.00000000000E+00 -0.00000000000E+00 -0.61567477986E+03  0.61567477986E+03  0.00000000000E+00 0. -1.
         21    1    1    2  503  502  0.83274265254E+02  0.27656814608E+03  0.13852916373E+03  0.32033556138E+03  0.00000000000E+00 0. -1.
         21    1    1    2  504  505  0.13124158647E+01  0.90064664815E+02 -0.34641267464E+03  0.35793170778E+03  0.00000000000E+00 0. -1.
         21    1    1    2  505  501 -0.18083725233E+02 -0.29473122931E+03 -0.40991229056E+02  0.29811709027E+03  0.00000000000E+00 0. -1.
          1    1    1    2  501    0 -0.66502955885E+02 -0.71901581585E+02  0.78445522550E+03  0.79054568584E+03  0.00000000000E+00 0.  1.
<scales pt_clust_3="256.55678" pt_clust_4="90.07423" pt_clust_5="14000.00000" pt_clust_6="97.16928"></scales>
<clustering>
<clus scale="   90.074">  2  4  1 -1</clus>
<clus scale="   97.169">  1  6  2 -1</clus>
<clus scale="  256.557">  1  3  2 -1</clus>
<clus scale="   90.074">  2  3  1 -1</clus>
</clustering>
</event>
<event>
 6    0  0.4796958E+002  0.9546881E+02  0.7546771E-02  0.1290124E+00
         21   -1    0    0  504  502  0.00000000000E+00  0.00000000000E+00  0.13648425405E+03  0.13648425405E+03  0.00000000000E+00 0. -1.
          2   -1    0    0  505    0 -0.00000000000E+00 -0.00000000000E+00 -0.12982633421E+04  0.12982633421E+04  0.00000000000E+00 0. -1.
         21    1    1    2  503  501  0.50358177982E+02 -0.38696842620E+02  0.10454781785E+03  0.12232594956E+03  0.00000000000E+00 0. -1.
         21    1    1    2  504  503  0.26130008725E+02 -0.19989600148E+02 -0.16819359364E+01  0.32942227893E+02  0.00000000000E+00 0.  1.
         21    1    1    2  505  502 -0.18247747563E+02 -0.58430519324E+02 -0.49924896249E+03  0.50298770604E+03  0.00000000000E+00 0.  1.
          2    1    1    2  501    0 -0.58240439144E+02  0.11711696209E+03 -0.76539600746E+03  0.77649171264E+03  0.00000000000E+00 0. -1.
<scales pt_clust_3="14000.00000" pt_clust_4="32.89926" pt_clust_5="61.39013" pt_clust_6="95.46881"></scales>
<clustering>
<clus scale="   32.899">  1  4  2 -1</clus>
<clus scale="   61.390">  2  5  1 -1</clus>
<clus scale="   95.469">  2  6  1 -1</clus>
<clus scale="   32.899">  1  3  2 -1</clus>
</clustering>
</event>
<event>
 6    0  0.4796958E+002  0.1038898E+03  0.7546771E-02  0.1272323E+00
         21   -1    0    0  505  502  0.00000000000E+00  0.00000000000E+00  0.13436946441E+03  0.13436946441E+03  0.00000000000E+00 0. -1.
          2   -1    0    0  503    0 -0.00000000000E+00 -0.00000000000E+00 -0.62027360029E+03  0.62027360029E+03  0.00000000000E+00 0. -1.
         21    1    1    2  503  504  0.10987864882E+02  0.54051624061E+02 -0.10849667740E+03  0.12171212037E+03  0.00000000000E+00 0. -1.
         21    1    1    2  504  502 -0.51313724386E+02  0.95838874909E+02  0.49575785645E+02  0.11948199352E+03  0.00000000000E+00 0. -1.
         21    1    1    2  505  501  0.86888141697E+01 -0.10040035198E+03 -0.20621380491E+02  0.10286382990E+03  0.00000000000E+00 0. -1.
          2    1    1    2  501    0  0.31637045335E+02 -0.49490146993E+02 -0.40636186363E+03  0.41058512090E+03  0.00000000000E+00 0. -1.
<scales pt_clust_3="55.15715" pt_clust_4="103.88980" pt_clust_5="14000.00000" pt_clust_6="40.93251"></scales>
<clustering>
<clus scale="   55.157">  2  3  1 -1</clus>
<clus scale="   40.933">  2  6  1 -1</clus>
<clus scale="  103.890">  1  4  2 -1</clus>
<clus scale="  103.890">  1  3  2 -1</clus>
</clustering>
</event>
<event>
 6    0  0.4796958E+002  0.1035575E+03  0.7546771E-02  0.1272988E+00
          1   -1    0    0  504    0 -0.00000000000E+00  0.00000000000E+00  0.21558211474E+04  0.21558211474E+04  0.00000000000E+00 0.  1.
         21   -1    0    0  505  502  0.00000000000E+00 -0.00000000000E+00 -0.20165587086E+03  0.20165587086E+03  0.00000000000E+00 0.  1.
         21    1    1    2  503  502 -0.11897099254E+02 -0.43098392038E+02 -0.18534506994E+03  0.19066149931E+03  0.00000000000E+00 0.  1.
         21    1    1    2  504  503 -0.96747037792E+02  0.12347346497E+02  0.38119423781E+03  0.39347362457E+03  0.00000000000E+00 0. -1.
         21    1    1    2  505  501  0.10998666774E+03 -0.62994668758E+01  0.41079355037E+03  0.42530940666E+03  0.00000000000E+00 0.  1.
          1    1    1    2  501    0 -0.13425306978E+01  0.37050512416E+02  0.13475225583E+04  0.13480324878E+04  0.00000000000E+00 0.  1.
<scales pt_clust_3="44.59402" pt_clust_4="103.55753" pt_clust_5="14000.00000" pt_clust_6="37.07483"></scales>
<clustering>
<clus scale="   37.075">  1  6  2 -1</clus>
<clus scale="   44.594">  2  3  1 -1</clus>
<clus scale="  103.558">  1  4  2 -1</clus>
<clus scale="   44.594">  2  3  1 -1</clus>
</clustering>
</event>
<event>
 6    0  0.4796958E+002  0.9239781E+02  0.7546771E-02  0.1297147E+00
         -4   -1    0    0    0  501 -0.00000000000E+00  0.00000000000E+00  0.11746973729E+04  0.11746973729E+04  0.00000000000E+00 0. -1.
         21   -1    0    0  504  502  0.00000000000E+00 -0.00000000000E+00 -0.84062036812E+02  0.84062036812E+02  0.00000000000E+00 0. -1.
         21    1    1    2  503  501  0.29696640399E+02 -0.54073327033E+01  0.10997599441E+03  0.11404318938E+03  0.00000000000E+00 0.  1.
         21    1    1    2  504  503  0.58555590720E+02 -0.10769942599E+02  0.65770279662E+02  0.88715717632E+02  0.00000000000E+00 0.  1.
         21    1    1    2  505  502 -0.77263457519E+02  0.10133441381E+03 -0.93588187057E+01  0.12777281705E+03  0.00000000000E+00 0. -1.
         -4    1    1    2    0  505 -0.10988773599E+02 -0.85157138504E+02  0.92424788072E+03  0.92822768565E+03  0.00000000000E+00 0. -1.
<scales pt_clust_3="30.18493" pt_clust_4="61.73183" pt_clust_5="14000.00000" pt_clust_6="92.39781"></scales>
<clustering>
<clus scale="   30.185">  1  3  2 -1</clus>
<clus scale="   61.732">  2  4  1 -1</clus>
<clus scale="   92.398">  1  6  2 -1</clus>
<clus scale="   61.732">  2  3  1 -1</clus>
</clustering>
</event>
<event>
 6    0  0.4796958E+002  0.2065014E+03  0.7546771E-02  0.1144367E+00
          2   -1    0    0  504    0 -0.00000000000E+00  0.00000000000E+00  0.30685649908E+04  0.30685649908E+04  0.00000000000E+00 0.  1.
         21   -1    0    0  503  502  0.00000000000E+00 -0.00000000000E+00 -0.10244744805E+03  0.10244744805E+03  0.00000000000E+00 0.  1.
         21    1    1    2  503  501  0.13648765502E+03  0.16000854444E+03  0.81305553942E+02  0.22548216641E+03  0.00000000000E+00 0.  1.
         21    1    1    2  504  505 -0.18265959350E+03 -0.11204615088E+03  0.10406162581E+04  0.10624504994E+04  0.00000000000E+00 0.  1.
         21    1    1    2  505  502 -0.41926786557E+02  0.27550266905E+02  0.18149171930E+02  0.53350399055E+02  0.00000000000E+00 0. -1.
          2    1    1    2  501    0  0.88098725042E+02 -0.75512660466E+02  0.18260465588E+04  0.18297293740E+04  0.00000000000E+00 0.  1.
<scales pt_clust_3="206.50143" pt_clust_4="14000.00000" pt_clust_5="50.16844" pt_clust_6="114.95262"></scales>
<clustering>
<clus scale="   50.168">  2  5  1 -1</clus>
<clus scale="  114.953">  1  6  2 -1</clus>
<clus scale="  206.501">  2  3  1 -1</clus>
<clus scale="   50.168">  2  3  1 -1</clus>
</clustering>
</event>
<event>
 6    0  0.4796958E+002  0.1153319E+03  0.7546771E-02  0.1251003E+00
          1   -1    0    0  505    0 -0.00000000000E+00  0.00000000000E+00  0.66110663511E+03  0.66110663511E+03  0.00000000000E+00 0.  1.
         21   -1    0    0  503  502  0.00000000000E+00 -0.00000000000E+00 -0.10080868839E+03  0.10080868839E+03  0.00000000000E+00 0. -1.
         21    1    1    2  503  501  0.36428365236E+02 -0.10337696886E+03 -0.23753929225E+02  0.11215200684E+03  0.00000000000E+00 0. -1.
         21    1    1    2  504  502 -0.10550516233E+03  0.11161473504E+03  0.18791967287E+03  0.24269938568E+03  0.00000000000E+00 0.  1.
         21    1    1    2  505  504  0.40938176146E+02  0.16498810279E+02  0.11056358199E+03  0.11904810234E+03  0.00000000000E+00 0.  1.
          1    1    1    2  501    0  0.28138620945E+02 -0.24736576459E+02  0.28556862108E+03  0.28801582864E+03  0.00000000000E+00 0.  1.
<scales pt_clust_3="115.33193" pt_clust_4="14000.00000" pt_clust_5="50.36332" pt_clust_6="37.46572"></scales>
<clustering>
<clus scale="   37.466">  1  6  2 -1</clus>
<clus scale="   50.363">  1  5  2 -1</clus>
<clus scale="  115.332">  2  3  1 -1</clus>
<clus scale="  115.332">  2  3  1 -1</clus>
</clustering>
</event>
<event>
 6    0  0.4796958E+002  0.7504838E+02  0.7546771E-02  0.1343721E+00
         21   -1    0    0  505  502  0.00000000000E+00  0.00000000000E+00  0.33552469014E+03  0.33552469014E+03  0.00000000000E+00 0.  1.
          2   -1    0    0  504    0 -0.00000000000E+00 -0.00000000000E+00 -0.71505701064E+03  0.71505701064E+03  0.00000000000E+00 0.  1.
         21    1    1    2  503  502  0.46664558061E+02 -0.98674593542E+01  0.40412223295E+02  0.62514762455E+02  0.00000000000E+00 0. -1.
         21    1    1    2  504  503  0.17826233806E+02 -0.50829333705E+02 -0.59079021938E+02  0.79948274589E+02  0.00000000000E+00 0.  1.
         21    1    1    2  505  501 -0.89811002872E+02 -0.18484002601E+02  0.26311004456E+03  0.27862980842E+03  0.00000000000E+00 0.  1.
          2    1    1    2  501    0  0.25320211005E+02  0.79180795661E+02 -0.62397556642E+03  0.62948885532E+03  0.00000000000E+00 0.  1.
<scales pt_clust_3="47.69641" pt_clust_4="75.04838" pt_clust_5="53.21036" pt_clust_6="14000.00000"></scales>
<clustering>
<clus scale="   47.696">  1  3  2 -1</clus>
<clus scale="   53.210">  1  5  2 -1</clus>
<clus scale="   75.048">  1  4  2 -1</clus>
<clus scale="   47.696">  1  3  2 -1</clus>
</clustering>
</event>
<event>
 6    0  0.4796958E+002  0.1135278E+03  0.7546771E-02  0.1254173E+00
         -3   -1    0    0    0  501 -0.00000000000E+00  0.00000000000E+00  0.25789074453E+04  0.25789074453E+04  0.00000000000E+00 0.  1.
         21   -1    0    0  505  502  0.00000000000E+00 -0.00000000000E+00 -0.90600676750E+02  0.90600676750E+02  0.00000000000E+00 0. -1.
         21    1    1    2  503  502 -0.12815047814E+02  0.67465577609E+02 -0.53899908189E+02  0.87298509239E+02  0.00000000000E+00 0. -1.
         21    1    1    2  504  501 -0.14753755477E+02 -0.13985206460E+03  0.72168850823E+03  0.73526224994E+03  0.00000000000E+00 0. -1.
         21    1    1    2  505  504  0.55227452530E+02  0.57974055832E+02  0.10953360599E+03  0.13567856686E+03  0.00000000000E+00 0. -1.
         -3    1    1    2    0  503 -0.27658649240E+02  0.14412431157E+02  0.17109845625E+04  0.17112687960E+04  0.00000000000E+00 0.  1.
<scales pt_clust_3="69.04531" pt_clust_4="113.52783" pt_clust_5="14000.00000" pt_clust_6="31.18844"></scales>
<clustering>
<clus scale="   31.188">  1  6  2 -1</clus>
<clus scale="   69.045">  2  3  1 -1</clus>
<clus scale="  113.528">  1  4  2 -1</clus>
<clus scale="   69.045">  2  3  1 -1</clus>
</clustering>
</event>
<event>
 6    0  0.4796958E+002  0.1196153E+03  0.7546771E-02  0.1243733E+00
         -2   -1    0    0    0  501 -0.00000000000E+00  0.00000000000E+00  0.27654314479E+03  0.27654314479E+03  0.00000000000E+00 0. -1.
         21   -1    0    0  504  502  0.00000000000E+00 -0.00000000000E+00 -0.66407460050E+03  0.66407460050E+03  0.00000000000E+00 0. -1.
         21    1    1    2  503  502 -0.11003724134E+02  0.56428198589E+02 -0.55232329367E+03  0.55530734217E+03  0.00000000000E+00 0. -1.
         21    1    1    2  504  501  0.54673317838E+02  0.10133420873E+03 -0.81342574893E+01  0.11542945762E+03  0.00000000000E+00 0.  1.
         21    1    1    2  505  503 -0.61118728171E+02 -0.10353379912E+03  0.42434650568E+02  0.12749684726E+03  0.00000000000E+00 0.  1.
         -2    1    1    2    0  505  0.17449134467E+02 -0.54228608202E+02  0.13049144489E+03  0.14238409823E+03  0.00000000000E+00 0. -1.
<scales pt_clust_3="56.88873" pt_clust_4="119.61530" pt_clust_5="14000.00000" pt_clust_6="56.96678"></scales>
<clustering>
<clus scale="   56.967">  1  6  2 -1</clus>
<clus scale="   56.889">  2  3  1 -1</clus>
<clus scale="  119.615">  1  4  2 -1</clus>
<clus scale="   56.889">  2  3  1 -1</clus>
</clustering>
</event>
<event>
 6    0  0.4796958E+002  0.7991361E+02  0.7546771E-02  0.1329297E+00
         21   -1    0    0  505  502  0.00000000000E+00  0.00000000000E+00  0.41636924850E+02  0.41636924850E+02  0.00000000000E+00 0.  1.
          2   -1    0    0  503    0 -0.00000000000E+00 -0.00000000000E+00 -0.15146672552E+04  0.15146672552E+04  0.00000000000E+00 0. -1.
         21    1    1    2  503  502  0.25946845016E+02 -0.22692971186E+02 -0.62487047568E+02  0.71364142405E+02  0.00000000000E+00 0. -1.
         21    1    1    2  504  501 -0.92130866627E+01 -0.10355535566E+03 -0.80258110349E+03  0.80928673555E+03  0.00000000000E+00 0. -1.
         21    1    1    2  505  504 -0.14052204572E+02  0.96269503786E+02 -0.37295231722E+02  0.10419316735E+03  0.00000000000E+00 0.  1.
          2    1    1    2  501    0 -0.26815537813E+01  0.29978823056E+02 -0.57066694759E+03  0.57146013478E+03  0.00000000000E+00 0. -1.
<scales pt_clust_3="32.96050" pt_clust_4="14000.00000" pt_clust_5="79.91361" pt_clust_6="30.09851"></scales>
<clustering>
<clus scale="   30.099">  2  6  1 -1</clus>
<clus scale="   32.961">  1  3  2 -1</clus>
<clus scale="   79.914">  1  5  2 -1</clus>
<clus scale="   32.961">  1  3  2 -1</clus>
</clustering>
</event>
<event>
 6    0  0.4796958E+002  0.6734631E+02  0.7546771E-02  0.1369357E+00
          2   -1    0    0  503    0 -0.00000000000E+00  0.00000000000E+00  0.23954556910E+04  0.23954556910E+04  0.00000000000E+00 0.  1.
         21   -1    0    0  504  502  0.00000000000E+00 -0.00000000000E+00 -0.12594625855E+04  0.12594625855E+04  0.00000000000E+00 0. -1.
         21    1    1    2  503  502 -0.69733380518E+02 -0.50496201417E+02  0.92521177802E+03  0.92920904263E+03  0.00000000000E+00 0.  1.
         21    1    1    2  504  505 -0.59609317650E+02  0.30848224874E+02 -0.12214122428E+04  0.12232549818E+04  0.00000000000E+00 0. -1.
         21    1    1    2  505  501  0.10072790009E+03  0.93363009027E+01  0.38204715136E+02  0.10813360546E+03  0.00000000000E+00 0. -1.
          2    1    1    2  501    0  0.28614798076E+02  0.10311675640E+02  0.13939888551E+04  0.13943206466E+04  0.00000000000E+00 0.  1.
<scales pt_clust_3="59.54867" pt_clust_4="67.34631" pt_clust_5="14000.00000" pt_clust_6="30.41607"></scales>
<clustering>
<clus scale="   30.416">  1  6  2 -1</clus>
<clus scale="   59.549">  1  3  2 -1</clus>
<clus scale="   67.346">  2  4  1 -1</clus>
<clus scale="   67.346">  2  3  1 -1</clus>
</clustering>
</event>
<event>
 6    0  0.4796958E+002  0.1619288E+03  0.7546771E-02  0.1186536E+00
         21   -1    0    0  501  502  0.00000000000E+00  0.00000000000E+00  0.39271773094E+03  0.39271773094E+03  0.00000000000E+00 0. -1.
          2   -1    0    0  504    0 -0.00000000000E+00 -0.00000000000E+00 -0.61083795163E+03  0.61083795163E+03  0.00000000000E+00 0.  1.
         21    1    1    2  503  502  0.69045849501E+02 -0.54769155131E+02  0.51223038098E+02  0.10193522119E+03  0.00000000000E+00 0. -1.
         21    1    1    2  504  505 -0.12785312285E+03 -0.19636502086E+02 -0.56814509245E+02  0.14127951620E+03  0.00000000000E+00 0.  1.
         21    1    1    2  505  503 -0.65994756474E+02 -0.11485315264E+03  0.22869272475E+03  0.26428567291E+03  0.00000000000E+00 0. -1.
          2    1    1    2  501    0  0.12480202982E+03  0.18925880985E+03 -0.44122147430E+03  0.49605527226E+03  0.00000000000E+00 0.  1.
<scales pt_clust_3="88.13053" pt_clust_4="121.65277" pt_clust_5="14000.00000" pt_clust_6="161.92878"></scales>
<clustering>
<clus scale="   88.131">  1  3  2 -1</clus>
<clus scale="  121.653">  2  4  1 -1</clus>
<clus scale="  161.929">  2  6  1 -1</clus>
<clus scale="   88.131">  1  3  2 -1</clus>
</clustering>
</event>
<event>
 6    0  0.4796958E+002  0.1054101E+03  0.7546771E-02  0.1269314E+00
         21   -1    0    0  504  502  0.00000000000E+00  0.00000000000E+00  0.10865948673E+04  0.10865948673E+04  0.00000000000E+00 0.  1.
          2   -1    0    0  505    0 -0.00000000000E+00 -0.00000000000E+00 -0.89405043182E+02  0.89405043182E+02  0.00000000000E+00 0. -1.
         21    1    1    2  503  501 -0.73594450401E+01 -0.12298128435E+03  0.33267529145E+03  0.35475541894E+03  0.00000000000E+00 0.  1.
         21    1    1    2  504  503 -0.18750955326E+02 -0.28193547106E+02  0.37197750259E+03  0.37351537700E+03  0.00000000000E+00 0.  1.
         21    1    1    2  505  502  0.43742852992E+01  0.49776161744E+02  0.33276645584E+03  0.33649712448E+03  0.00000000000E+00 0.  1.
          2    1    1    2  501    0  0.21736115067E+02  0.10139866972E+03 -0.40229425747E+02  0.11123199007E+03  0.00000000000E+00 0. -1.
<scales pt_clust_3="105.41009" pt_clust_4="33.85963" pt_clust_5="36.82552" pt_clust_6="14000.00000"></scales>
<clustering>
<clus scale="   33.860">  1  4  2 -1</clus>
<clus scale="   36.826">  1  5  2 -1</clus>
<clus scale="  105.410">  1  3  2 -1</clus>
<clus scale="   33.860">  1  3  2 -1</clus>
</clustering>
</event>
<event>
 6    0  0.4796958E+002  0.7081748E+02  0.7546771E-02  0.1357335E+00
          3   -1    0    0  503    0 -0.00000000000E+00  0.00000000000E+00  0.11331667683E+04  0.11331667683E+04  0.00000000000E+00 0. -1.
         21   -1    0    0  505  502  0.00000000000E+00 -0.00000000000E+00 -0.85207767773E+02  0.85207767773E+02  0.00000000000E+00 0. -1.
         21    1    1    2  503  504 -0.34369105395E+02 -0.36421104233E+02  0.20046395577E+03  0.20662412686E+03  0.00000000000E+00 0. -1.
         21    1    1    2  504  502  0.77278106389E+02  0.21937445826E+02 -0.17940716425E+02  0.82310549520E+02  0.00000000000E+00 0. -1.
         21    1    1    2  505  501 -0.42969619893E+02 -0.51224437939E+02  0.55973492582E+01  0.67094422977E+02  0.00000000000E+00 0. -1.
          3    1    1    2  501    0  0.60618899617E-01  0.65708096346E+02  0.85983841189E+03  0.86234543668E+03  0.00000000000E+00 0. -1.
<scales pt_clust_3="50.07726" pt_clust_4="70.81748" pt_clust_5="14000.00000" pt_clust_6="45.07597"></scales>
<clustering>
<clus scale="   50.077">  1  3  2 -1</clus>
<clus scale="   45.076">  1  6  2 -1</clus>
<clus scale="   70.817">  2  4  1 -1</clus>
<clus scale="   70.817">  2  3  1 -1</clus>
</clustering>
</event>
<event>
 6    0  0.4796958E+002  0.9475260E+02  0.7546771E-02  0.1291734E+00
          2   -1    0    0  505    0 -0.00000000000E+00  0.00000000000E+00  0.13584503461E+04  0.13584503461E+04  0.00000000000E+00 0.  1.
         21   -1    0    0  501  502  0.00000000000E+00 -0.00000000000E+00 -0.11129464687E+03  0.11129464687E+03  0.00000000000E+00 0. -1.
         21    1    1    2  503  502 -0.17481160273E+02 -0.38859575957E+02 -0.86261907446E+02  0.96212131689E+02  0.00000000000E+00 0. -1.
         21    1    1    2  504  503  0.38055426623E+02  0.29684957721E+02  0.16035631733E+03  0.16746211726E+03  0.00000000000E+00 0.  1.
         21    1    1    2  505  504  0.15569671834E+02 -0.80707782417E+02  0.10367461973E+03  0.13230490391E+03  0.00000000000E+00 0. -1.
          2    1    1    2  501    0 -0.36143938183E+02  0.89882400652E+02  0.10693866696E+04  0.10737658401E+04  0.00000000000E+00 0.  1.
<scales pt_clust_3="42.61053" pt_clust_4="41.73772" pt_clust_5="14000.00000" pt_clust_6="94.75260"></scales>
<clustering>
<clus scale="   42.611">  2  3  1 -1</clus>
<clus scale="   41.738">  2  4  1 -1</clus>
<clus scale="   94.753">  1  6  2 -1</clus>
<clus scale="   42.611">  2  3  1 -1</clus>
</clustering>
</event>
<event>
 6    0  0.4796958E+002  0.9874980E+02  0.7546771E-02  0.1282947E+00
         21   -1    0    0  501  502  0.00000000000E+00  0.00000000000E+00  0.30214387685E+03  0.30214387685E+03  0.00000000000E+00 0. -1.
          1   -1    0    0  504    0 -0.00000000000E+00 -0.00000000000E+00 -0.10362516936E+04  0.10362516936E+04  0.00000000000E+00 0. -1.
         21    1    1    2  503  502 -0.20923388136E+02  0.37283406202E+02  0.18093758380E+02  0.46424397049E+02  0.00000000000E+00 0. -1.
         21    1    1    2  504  505  0.42374734528E+02  0.82731906152E+01 -0.96059021712E+03  0.96155999763E+03  0.00000000000E+00 0. -1.
         21    1    1    2  505  503 -0.93101575671E+02 -0.20644318805E+02  0.23210557315E+03  0.25093243787E+03  0.00000000000E+00 0. -1.
          1    1    1    2  501    0  0.71650229279E+02 -0.24912278012E+02 -0.23716931118E+02  0.79478737868E+02  0.00000000000E+00 0. -1.
<scales pt_clust_3="42.75325" pt_clust_4="43.15081" pt_clust_5="98.74980" pt_clust_6="14000.00000"></scales>
<clustering>
<clus scale="   42.753">  1  3  2 -1</clus>
<clus scale="   43.151">  2  4  1 -1</clus>
<clus scale="   98.750">  1  5  2 -1</clus>
<clus scale="   42.753">  1  3  2 -1</clus>
</clustering>
</event>
<event>
 6    0  0.4796958E+002  0.9966403E+02  0.7546771E-02  0.1281004E+00
         -2   -1    0    0    0  501 -0.00000000000E+00  0.00000000000E+00  0.43047516901E+03  0.43047516901E+03  0.00000000000E+00 0.  1.
         21   -1    0    0  504  502  0.00000000000E+00 -0.00000000000E+00 -0.35533878601E+03  0.35533878601E+03  0.00000000000E+00 0.  1.
         21    1    1    2  503  505 -0.82982900612E+02 -0.13327455495E+02 -0.98814064258E+01  0.84625203438E+02  0.00000000000E+00 0.  1.
         21    1    1    2  504  501  0.32982894006E+02  0.14739491149E+02 -0.44475412675E+02  0.57299094486E+02  0.00000000000E+00 0. -1.
         21    1    1    2  505  502 -0.43516861002E+02 -0.42834798801E+02 -0.24664613241E+03  0.25409221124E+03  0.00000000000E+00 0.  1.
         -2    1    1    2    0  503  0.93516867609E+02  0.41422763146E+02  0.37613933451E+03  0.38979744586E+03  0.00000000000E+00 0.  1.
<scales pt_clust_3="99.66403" pt_clust_4="36.12650" pt_clust_5="34.81460" pt_clust_6="14000.00000"></scales>
<clustering>
<clus scale="   36.126">  2  4  1 -1</clus>
<clus scale="   34.815">  2  5  1 -1</clus>
<clus scale="   99.664">  2  3  1 -1</clus>
<clus scale="   36.126">  2  3  1 -1</clus>
</clustering>
</event>
<event>
 6    0  0.4796958E+002  0.7890733E+02  0.7546771E-02  0.1332181E+00
          2   -1    0    0  504    0 -0.00000000000E+00  0.00000000000E+00  0.53400038659E+03  0.53400038659E+03  0.00000000000E+00 0. -1.
         21   -1    0    0  503  502  0.00000000000E+00 -0.00000000000E+00 -0.41953060077E+03  0.41953060077E+03  0.00000000000E+00 0.  1.
         21    1    1    2  503  505  0.86461989532E+01  0.44353527464E+02 -0.32888971041E+03  0.33197956830E+03  0.00000000000E+00 0.  1.
         21    1    1    2  504  502 -0.38284553314E+02 -0.23351741924E+02  0.15957718612E+02  0.47598945961E+02  0.00000000000E+00 0. -1.
         21    1    1    2  505  501  0.39612021341E+02 -0.99198151068E+02 -0.29089363292E+02  0.11070490715E+03  0.00000000000E+00 0.  1.
          2    1    1    2  501    0 -0.99736669810E+01  0.78196365527E+02  0.45649114092E+03  0.46324756594E+03  0.00000000000E+00 0. -1.
<scales pt_clust_3="45.09548" pt_clust_4="44.84430" pt_clust_5="78.90733" pt_clust_6="14000.00000"></scales>
<clustering>
<clus scale="   44.844">  1  4  2 -1</clus>
<clus scale="   45.095">  2  3  1 -1</clus>
<clus scale="   78.907">  2  5  1 -1</clus>
<clus scale="   45.095">  2  3  1 -1</clus>
</clustering>
</event>
<event>
 6    0  0.4796958E+002  0.2720644E+03  0.7546771E-02  0.1100104E+00
          1   -1    0    0  502    0 -0.00000000000E+00  0.00000000000E+00  0.35243056658E+03  0.35243056658E+03  0.00000000000E+00 0. -1.
         21   -1    0    0  504  502  0.00000000000E+00 -0.00000000000E+00 -0.35377153331E+03  0.35377153331E+03  0.00000000000E+00 0. -1.
         21    1    1    2  503  501 -0.22454779045E+03 -0.36678819291E+02  0.49182735962E+02  0.23277883817E+03  0.00000000000E+00 0. -1.
         21    1    1    2  504  505  0.41161944686E+02 -0.23708208585E+02 -0.29695897957E+02  0.56019917887E+02  0.00000000000E+00 0. -1.
         21    1    1    2  505  503  0.23776018780E+03  0.52152475706E+02 -0.14378484054E+03  0.28270809679E+03  0.00000000000E+00 0. -1.
          1    1    1    2  501    0 -0.54374342029E+02  0.82345521700E+01  0.12295703581E+03  0.13469524704E+03  0.00000000000E+00 0. -1.
<scales pt_clust_3="260.73855" pt_clust_4="34.31635" pt_clust_5="34.31635" pt_clust_6="54.99434"></scales>
<clustering>
<clus scale="   34.316">  4  5 -1 -1</clus>
<clus scale="   54.994">  1  6  2 -1</clus>
<clus scale="  260.739">  1  3  2 -1</clus>
<clus scale="  272.064">  2  3  1 -1</clus>
</clustering>
</event>
<event>
 6    0  0.4796958E+002  0.9689446E+02  0.7546771E-02  0.1286965E+00
         21   -1    0    0  504  502  0.00000000000E+00  0.00000000000E+00  0.99703047710E+03  0.99703047710E+03  0.00000000000E+00 0.  1.
          3   -1    0    0  505    0 -0.00000000000E+00 -0.00000000000E+00 -0.21767788375E+03  0.21767788375E+03  0.00000000000E+00 0.  1.
         21    1    1    2  503  502  0.64141668317E+02 -0.84596075238E+02  0.87179778332E+03  0.87823802273E+03  0.00000000000E+00 0.  1.
         21    1    1    2  504  501 -0.66612578679E+02  0.23076923745E+02  0.84810477143E+02  0.11028416514E+03  0.00000000000E+00 0. -1.
         21    1    1    2  505  503  0.41220413994E+02  0.41100577293E+02 -0.17868859223E+02  0.60890689876E+02  0.00000000000E+00 0. -1.
          3    1    1    2  501    0 -0.38749503631E+02  0.20418574200E+02 -0.15938680789E+03  0.16529548310E+03  0.00000000000E+00 0.  1.
<scales pt_clust_3="14000.00000" pt_clust_4="96.89446" pt_clust_5="57.28013" pt_clust_6="43.80003"></scales>
<clustering>
<clus scale="   43.800">  2  6  1 -1</clus>
<clus scale="   57.280">  2  5  1 -1</clus>
<clus scale="   96.894">  2  4  1 -1</clus>
<clus scale="   96.894">  1  3  2 -1</clus>
</clustering>
</event>
<event>
 6    0  0.4796958E+002  0.2378012E+03  0.7546771E-02  0.1121266E+00
          2   -1    0    0  504    0 -0.00000000000E+00  0.00000000000E+00  0.18877340146E+04  0.18877340146E+04  0.00000000000E+00 0. -1.
         21   -1    0    0  503  502  0.00000000000E+00 -0.00000000000E+00 -0.30102652572E+03  0.30102652572E+03  0.00000000000E+00 0. -1.
         21    1    1    2  503  505  0.56200859900E+02  0.52313956014E+02 -0.11955056387E+03  0.14208315864E+03  0.00000000000E+00 0. -1.
         21    1    1    2  504  502  0.47957332131E+02 -0.17722073576E+03  0.59222189807E+01  0.18369041229E+03  0.00000000000E+00 0. -1.
         21    1    1    2  505  501 -0.10945381186E+03 -0.11888305488E+03  0.17460459945E+02  0.16253671994E+03  0.00000000000E+00 0. -1.
          2    1    1    2  501    0  0.52956198241E+01  0.24378983463E+03  0.16828753738E+04  0.17004502494E+04  0.00000000000E+00 0. -1.
<scales pt_clust_3="76.78077" pt_clust_4="14000.00000" pt_clust_5="128.99630" pt_clust_6="237.80120"></scales>
<clustering>
<clus scale="   76.781">  2  3  1 -1</clus>
<clus scale="  128.996">  2  5  1 -1</clus>
<clus scale="  237.801">  1  6  2 -1</clus>
<clus scale="   76.781">  2  3  1 -1</clus>
</clustering>
</event>
<event>
 6    0  0.4796958E+002  0.7647296E+02  0.7546771E-02  0.1339369E+00
         21   -1    0    0  504  502  0.00000000000E+00  0.00000000000E+00  0.53010113755E+03  0.53010113755E+03  0.00000000000E+00 0. -1.
          2   -1    0    0  503    0 -0.00000000000E+00 -0.00000000000E+00 -0.30887529020E+03  0.30887529020E+03  0.00000000000E+00 0.  1.
         21    1    1    2  503  505  0.16940831045E+02  0.47156376739E+02 -0.24455420040E+01  0.50166685154E+02  0.00000000000E+00 0. -1.
         21    1    1    2  504  501 -0.76644044415E+02 -0.17035401037E+02  0.20543885178E+03  0.21993098066E+03  0.00000000000E+00 0. -1.
         21    1    1    2  505  502  0.67395459588E+02 -0.73826238422E+02  0.28314636053E+03  0.30027374666E+03  0.00000000000E+00 0. -1.
          2    1    1    2  501    0 -0.76922462181E+01  0.43705262721E+02 -0.26491382295E+03  0.26860501528E+03  0.00000000000E+00 0.  1.
<scales pt_clust_3="75.43785" pt_clust_4="76.47296" pt_clust_5="14000.00000" pt_clust_6="44.37703"></scales>
<clustering>
<clus scale="   44.377">  2  6  1 -1</clus>
<clus scale="   75.438">  2  3  1 -1</clus>
<clus scale="   76.473">  1  4  2 -1</clus>
<clus scale="   76.473">  1  3  2 -1</clus>
</clustering>
</event>
<event>
 6    0  0.4796958E+002  0.1573140E+03  0.7546771E-02  0.1191763E+00
          1   -1    0    0  504    0 -0.00000000000E+00  0.00000000000E+00  0.17895956059E+04  0.17895956059E+04  0.00000000000E+00 0.  1.
         21   -1    0    0  505  502  0.00000000000E+00 -0.00000000000E+00 -0.10983422161E+03  0.10983422161E+03  0.00000000000E+00 0.  1.
         21    1    1    2  503  501 -0.66553112253E+02 -0.19838747158E+03  0.18582701907E+03  0.27985458126E+03  0.00000000000E+00 0.  1.
         21    1    1    2  504  502 -0.40126532267E+01  0.47273630171E+02  0.18367505717E+03  0.18970351637E+03  0.00000000000E+00 0.  1.
         21    1    1    2  505  503  0.25455016005E+02  0.47051908259E+02 -0.44981014493E+02  0.69893716280E+02  0.00000000000E+00 0.  1.
          1    1    1    2  501    0  0.45110749475E+02  0.10406193315E+03  0.13552403225E+04  0.13599780136E+04  0.00000000000E+00 0.  1.
<scales pt_clust_3="14000.00000" pt_clust_4="47.44362" pt_clust_5="53.80482" pt_clust_6="157.31396"></scales>
<clustering>
<clus scale="   47.444">  1  4  2 -1</clus>
<clus scale="   53.805">  2  5  1 -1</clus>
<clus scale="  157.314">  1  6  2 -1</clus>
<clus scale="   53.805">  2  3  1 -1</clus>
</clustering>
</event>
<event>
 6    0  0.4796958E+002  0.1304497E+03  0.7546771E-02  0.1226790E+00
          1   -1    0    0  505    0 -0.00000000000E+00  0.00000000000E+00  0.10836379560E+04  0.10836379560E+04  0.00000000000E+00 0.  1.
         21   -1    0    0  504  502  0.00000000000E+00 -0.00000000000E+00 -0.82708643486E+02  0.82708643486E+02  0.00000000000E+00 0. -1.
         21    1    1    2  503  501  0.24118674781E+02  0.33182760548E+02  0.32277477162E+02  0.52198099609E+02  0.00000000000E+00 0.  1.
         21    1    1    2  504  503  0.20344465911E+02 -0.22369581321E+02 -0.34318258583E+02  0.45738805557E+02  0.00000000000E+00 0. -1.
         21    1    1    2  505  502 -0.67396074540E+02 -0.13623742311E+03  0.17986365718E+03  0.23548630851E+03  0.00000000000E+00 0. -1.
          1    1    1    2  501    0  0.22932933848E+02  0.12542424389E+03  0.82310643676E+03  0.83292338581E+03  0.00000000000E+00 0.  1.
<scales pt_clust_3="40.18914" pt_clust_4="30.23732" pt_clust_5="130.44971" pt_clust_6="14000.00000"></scales>
<clustering>
<clus scale="   30.237">  2  4  1 -1</clus>
<clus scale="   40.189">  2  3  1 -1</clus>
<clus scale="  130.450">  2  5  1 -1</clus>
<clus scale="   30.237">  2  3  1 -1</clus>
</clustering>
</event>
<event>
 6    0  0.4796958E+002  0.7579953E+02  0.7546771E-02  0.1341413E+00
         -3   -1    0    0    0  501 -0.00000000000E+00  0.00000000000E+00  0.22979300267E+03  0.22979300267E+03  0.00000000000E+00 0. -1.
         21   -1    0    0  503  502  0.00000000000E+00 -0.00000000000E+00 -0.19915028869E+03  0.19915028869E+03  0.00000000000E+00 0. -1.
         21    1    1    2  503  501 -0.85249918738E+02  0.67017851619E+02  0.27750608609E+02  0.11193318256E+03  0.00000000000E+00 0. -1.
         21    1    1    2  504  502  0.13670049004E+02 -0.47314239464E+02 -0.11911398948E+03  0.12889394860E+03  0.00000000000E+00 0. -1.
         21    1    1    2  505  504  0.63733056418E+02  0.17694253144E+02  0.65104845210E+01  0.66463339394E+02  0.00000000000E+00 0. -1.
         -3    1    1    2    0  505  0.78468133163E+01 -0.37397865300E+02  0.11549561032E+03  0.12165282081E+03  0.00000000000E+00 0. -1.
<scales pt_clust_3="14000.00000" pt_clust_4="50.92503" pt_clust_5="75.79953" pt_clust_6="38.21221"></scales>
<clustering>
<clus scale="   38.212">  1  6  2 -1</clus>
<clus scale="   50.925">  2  4  1 -1</clus>
<clus scale="   75.800">  2  5  1 -1</clus>
<clus scale="   50.925">  2  3  1 -1</clus>
</clustering>
</event>
<event>
 6    0  0.4796958E+002  0.1113912E+03  0.7546771E-02  0.1258015E+00
          1   -1    0    0  503    0 -0.00000000000E+00  0.00000000000E+00  0.17800939298E+04  0.17800939298E+04  0.00000000000E+00 0. -1.
         21   -1    0    0  505  502  0.00000000000E+00 -0.00000000000E+00 -0.47717686130E+02  0.47717686130E+02  0.00000000000E+00 0. -1.
         21    1    1    2  503  504 -0.10958434466E+02  0.58614196985E+02  0.34519073136E+02  0.68900491901E+02  0.00000000000E+00 0. -1.
         21    1    1    2  504  502  0.29846505173E+02 -0.20271794565E+02  0.24897147151E+01  0.36165704823E+02  0.00000000000E+00 0. -1.
         21    1    1    2  505  501  0.92859287697E+02 -0.56488517187E+02  0.24574270840E+03  0.26870667766E+03  0.00000000000E+00 0. -1.
          1    1    1    2  501    0 -0.11174735840E+03  0.18146114768E+02  0.14496247474E+04  0.14540387415E+04  0.00000000000E+00 0. -1.
<scales pt_clust_3="47.66579" pt_clust_4="36.07990" pt_clust_5="14000.00000" pt_clust_6="111.39120"></scales>
<clustering>
<clus scale="   36.080">  2  4  1 -1</clus>
<clus scale="   47.666">  2  3  1 -1</clus>
<clus scale="  111.391">  1  6  2 -1</clus>
<clus scale="   36.080">  2  3  1 -1</clus>
</clustering>
</event>
<event>
 6    0  0.4796958E+002  0.6288872E+02  0.7546771E-02  0.1386094E+00
         21   -1    0    0  505  502  0.00000000000E+00  0.00000000000E+00  0.14962178227E+03  0.14962178227E+03  0.00000000000E+00 0.  1.
          2   -1    0    0  503    0 -0.00000000000E+00 -0.00000000000E+00 -0.42733098933E+04  0.42733098933E+04  0.00000000000E+00 0.  1.
         21    1    1    2  503  504 -0.82099484513E+02  0.13992296600E+02 -0.32401324120E+03  0.33454549794E+03  0.00000000000E+00 0.  1.
         21    1    1    2  504  502  0.38467216339E+02 -0.28385536207E+02  0.13808566008E+03  0.14612705061E+03  0.00000000000E+00 0.  1.
         21    1    1    2  505  501  0.16229597674E+01  0.60933038369E+02 -0.47052323035E+03  0.47445503418E+03  0.00000000000E+00 0.  1.
          2    1    1    2  501    0  0.42009308406E+02 -0.46539798762E+02 -0.34672372995E+04  0.34678040928E+04  0.00000000000E+00 0.  1.
<scales pt_clust_3="14000.00000" pt_clust_4="47.80654" pt_clust_5="54.76897" pt_clust_6="62.88872"></scales>
<clustering>
<clus scale="   47.807">  1  4  2 -1</clus>
<clus scale="   54.769">  1  5  2 -1</clus>
<clus scale="   62.889">  2  6  1 -1</clus>
<clus scale="   47.807">  1  3  2 -1</clus>
</clustering>
</event>
<event>
 6    0  0.4796958E+002  0.1560812E+03  0.7546771E-02  0.1193193E+00
         -1   -1    0    0    0  501 -0.00000000000E+00  0.00000000000E+00  0.89772972588E+03  0.89772972588E+03  0.00000000000E+00 0. -1.
         21   -1    0    0  503  502  0.00000000000E+00 -0.00000000000E+00 -0.36104482947E+02  0.36104482947E+02  0.00000000000E+00 0. -1.
         21    1    1    2  503  505  0.44924254530E+02 -0.46630252485E+02  0.80668902567E+02  0.10344100219E+03  0.00000000000E+00 0. -1.
         21    1    1    2  504  502 -0.16104340154E+02 -0.40151910577E+02  0.74448075707E+02  0.86104829547E+02  0.00000000000E+00 0. -1.
         21    1    1    2  505  501  0.43247259672E+02 -0.57124529207E+02  0.18018611028E+03  0.19390866830E+03  0.00000000000E+00 0. -1.
         -1    1    1    2    0  504 -0.72067174048E+02  0.14390669227E+03  0.52632215438E+03  0.55037970879E+03  0.00000000000E+00 0. -1.
<scales pt_clust_3="40.69157" pt_clust_4="43.26113" pt_clust_5="40.69157" pt_clust_6="150.09702"></scales>
<clustering>
<clus scale="   40.692">  3  5 -1 -1</clus>
<clus scale="   43.261">  2  4  1 -1</clus>
<clus scale="  150.097">  1  6  2 -1</clus>
<clus scale="   43.261">  2  3  1 -1</clus>
</clustering>
</event>
<event>
 6    0  0.4796958E+002  0.9353703E+02  0.7546771E-02  0.1294505E+00
          1   -1    0    0  504    0 -0.00000000000E+00  0.00000000000E+00  0.18356991949E+04  0.18356991949E+04  0.00000000000E+00 0. -1.
         21   -1    0    0  503  502  0.00000000000E+00 -0.00000000000E+00 -0.10310582766E+04  0.10310582766E+04  0.00000000000E+00 0. -1.
         21    1    1    2  503  501 -0.65267919146E+02 -0.67999418193E+02 -0.44993606213E+03  0.45970238432E+03  0.00000000000E+00 0. -1.
         21    1    1    2  504  505  0.11533574946E+03  0.30076799222E+02  0.22829421569E+03  0.25753678936E+03  0.00000000000E+00 0.  1.
         21    1    1    2  505  502  0.32786420760E+02 -0.60436817146E+01 -0.55973620435E+03  0.56072818186E+03  0.00000000000E+00 0. -1.
          1    1    1    2  501    0 -0.82854251078E+02  0.43966300686E+02  0.15860189690E+04  0.15887901160E+04  0.00000000000E+00 0. -1.
<scales pt_clust_3="81.12150" pt_clust_4="14000.00000" pt_clust_5="33.33880" pt_clust_6="93.53703"></scales>
<clustering>
<clus scale="   33.339">  2  5  1 -1</clus>
<clus scale="   81.121">  2  3  1 -1</clus>
<clus scale="   93.537">  1  6  2 -1</clus>
<clus scale="   33.339">  2  3  1 -1</clus>
</clustering>
</event>
<event>
 6    0  0.4796958E+002  0.8183351E+02  0.7546771E-02  0.1323927E+00
          1   -1    0    0  503    0 -0.00000000000E+00  0.00000000000E+00  0.45030579187E+03  0.45030579187E+03  0.00000000000E+00 0. -1.
         21   -1    0    0  505  502  0.00000000000E+00 -0.00000000000E+00 -0.11068147201E+04  0.11068147201E+04  0.00000000000E+00 0. -1.
         21    1    1    2  503  502 -0.62313750501E+02  0.95037603160E+02 -0.74353533662E+03  0.75217015782E+03  0.00000000000E+00 0. -1.
         21    1    1    2  504  501 -0.62691582137E+02 -0.63299736437E+02 -0.95296030118E+02  0.13045468355E+03  0.00000000000E+00 0.  1.
         21    1    1    2  505  504  0.42771710109E+02 -0.22586267922E+02 -0.23965266037E+03  0.24448508402E+03  0.00000000000E+00 0.  1.
          1    1    1    2  501    0  0.82233622529E+02 -0.91515988015E+01  0.42197509892E+03  0.43001058654E+03  0.00000000000E+00 0. -1.
<scales pt_clust_3="79.63804" pt_clust_4="81.83351" pt_clust_5="48.36898" pt_clust_6="14000.00000"></scales>
<clustering>
<clus scale="   48.369">  2  5  1 -1</clus>
<clus scale="   79.638">  2  3  1 -1</clus>
<clus scale="   81.834">  2  4  1 -1</clus>
<clus scale="   48.369">  2  3  1 -1</clus>
</clustering>
</event>
<event>
 6    0  0.4796958E+002  0.1238003E+03  0.7546771E-02  0.1236956E+00
         21   -1    0    0  505  502  0.00000000000E+00  0.00000000000E+00  0.61117921695E+03  0.61117921695E+03  0.00000000000E+00 0. -1.
          2   -1    0    0  504    0 -0.00000000000E+00 -0.00000000000E+00 -0.61900021221E+03  0.61900021221E+03  0.00000000000E+00 0. -1.
         21    1    1    2  503  501 -0.10887221544E+03 -0.18943794059E+03  0.28575392779E+03  0.35971544292E+03  0.00000000000E+00 0. -1.
         21    1    1    2  504  502  0.73910718232E+01  0.30169202062E+02  0.65284853960E+00  0.31068229866E+02  0.00000000000E+00 0.  1.
         21    1    1    2  505  503  0.18922401573E+01  0.88384360858E+02  0.25855896952E+03  0.27325467340E+03  0.00000000000E+00 0. -1.
          2    1    1    2  501    0  0.99588903456E+02  0.70884377672E+02 -0.55278674110E+03  0.56614108297E+03  0.00000000000E+00 0. -1.
<scales pt_clust_3="14000.00000" pt_clust_4="31.06137" pt_clust_5="101.99214" pt_clust_6="123.80031"></scales>
<clustering>
<clus scale="   31.061">  1  4  2 -1</clus>
<clus scale="  101.992">  1  5  2 -1</clus>
<clus scale="  123.800">  2  6  1 -1</clus>
<clus scale="   31.061">  1  3  2 -1</clus>
</clustering>
</event>
<event>
 6    0  0.4796958E+002  0.8159910E+02  0.7546771E-02  0.1324574E+00
         21   -1    0    0  505  502  0.00000000000E+00  0.00000000000E+00  0.20090711651E+03  0.20090711651E+03  0.00000000000E+00 0.  1.
          2   -1    0    0  504    0 -0.00000000000E+00 -0.00000000000E+00 -0.61942093952E+03  0.61942093952E+03  0.00000000000E+00 0.  1.
         21    1    1    2  503  502 -0.58367959626E+02 -0.42788599930E+02  0.10793304507E+03  0.12995085691E+03  0.00000000000E+00 0.  1.
         21    1    1    2  504  503  0.97852344457E+02 -0.37632255756E+02  0.29195130079E+02  0.10882841361E+03  0.00000000000E+00 0.  1.
         21    1    1    2  505  501 -0.29779707867E+02  0.71667182759E+01 -0.11982336660E+02  0.32890260616E+02  0.00000000000E+00 0. -1.
          2    1    1    2  501    0 -0.97046769642E+01  0.73254137410E+02 -0.54365966149E+03  0.54865852489E+03  0.00000000000E+00 0.  1.
<scales pt_clust_3="81.59910" pt_clust_4="14000.00000" pt_clust_5="30.62993" pt_clust_6="74.03969"></scales>
<clustering>
<clus scale="   30.630">  1  5  2 -1</clus>
<clus scale="   74.040">  2  6  1 -1</clus>
<clus scale="   81.599">  1  3  2 -1</clus>
<clus scale="   30.630">  1  3  2 -1</clus>
</clustering>
</event>
<event>
 6    0  0.4796958E+002  0.1267406E+03  0.7546771E-02  0.1232374E+00
         21   -1    0    0  504  502  0.00000000000E+00  0.00000000000E+00  0.55771502871E+03  0.55771502871E+03  0.00000000000E+00 0. -1.
          1   -1    0    0  505    0 -0.00000000000E+00 -0.00000000000E+00 -0.34928270393E+04  0.34928270393E+04  0.00000000000E+00 0. -1.
         21    1    1    2  503  501  0.77795515299E+02 -0.14756991642E+02 -0.20287290008E+04  0.20302736933E+04  0.00000000000E+00 0. -1.
         21    1    1    2  504  503 -0.69199541801E+02  0.10941541326E+03 -0.10976498668E+03  0.16973114489E+03  0.00000000000E+00 0.  1.
         21    1    1    2  505  502 -0.33796286885E+02 -0.54292528729E+02  0.52458936679E+03  0.52847315110E+03  0.00000000000E+00 0. -1.
          1    1    1    2  501    0  0.25200313386E+02 -0.40365892888E+02 -0.13212073900E+04  0.13220640788E+04  0.00000000000E+00 0. -1.
<scales pt_clust_3="38.35618" pt_clust_4="116.68397" pt_clust_5="63.95207" pt_clust_6="38.35618"></scales>
<clustering>
<clus scale="   38.356">  3  6 -1 -1</clus>
<clus scale="   63.952">  1  5  2 -1</clus>
<clus scale="  116.684">  1  4  2 -1</clus>
<clus scale="   63.952">  1  3  2 -1</clus>
</clustering>
</event>
<event>
 6    0  0.4796958E+002  0.1137986E+03  0.7546771E-02  0.1253693E+00
         21   -1    0    0  505  502  0.00000000000E+00  0.00000000000E+00  0.52782868500E+03  0.52782868500E+03  0.00000000000E+00 0.  1.
          2   -1    0    0  504    0 -0.00000000000E+00 -0.00000000000E+00 -0.93409114387E+03  0.93409114387E+03  0.00000000000E+00 0. -1.
         21    1    1    2  503  501  0.10929294694E+03 -0.73674152032E+02  0.21590307703E+03  0.25295645396E+03  0.00000000000E+00 0.  1.
         21    1    1    2  504  502  0.31519913264E+02  0.15850004054E+02 -0.51274996916E+01  0.35651350799E+02  0.00000000000E+00 0. -1.
         21    1    1    2  505  503 -0.30358728556E+02  0.86867642913E+02  0.26674964472E+03  0.28217549990E+03  0.00000000000E+00 0.  1.
          2    1    1    2  501    0 -0.11045413165E+03 -0.29043494935E+02 -0.88378768093E+03  0.89113652420E+03  0.00000000000E+00 0. -1.
<scales pt_clust_3="113.79859" pt_clust_4="35.28070" pt_clust_5="96.30302" pt_clust_6="14000.00000"></scales>
<clustering>
<clus scale="   35.281">  1  4  2 -1</clus>
<clus scale="   96.303">  1  5  2 -1</clus>
<clus scale="  113.799">  1  3  2 -1</clus>
<clus scale="   35.281">  1  3  2 -1</clus>
</clustering>
</event>
<event>
 6    0  0.4796958E+002  0.7479269E+02  0.7546771E-02  0.1344514E+00
          2   -1    0    0  503    0 -0.00000000000E+00  0.00000000000E+00  0.76783076248E+03  0.76783076248E+03  0.00000000000E+00 0. -1.
         21   -1    0    0  504  502  0.00000000000E+00 -0.00000000000E+00 -0.39495855718E+02  0.39495855718E+02  0.00000000000E+00 0. -1.
         21    1    1    2  503  505 -0.13219133758E+02  0.53648237828E+02  0.53603064193E+02  0.76981604362E+02  0.00000000000E+00 0. -1.
         21    1    1    2  504  501 -0.55415703990E+02 -0.34576099204E+02  0.13933913079E+03  0.15388892180E+03  0.00000000000E+00 0. -1.
         21    1    1    2  505  502  0.74282138447E+02  0.31263882180E+02  0.65533205321E+02  0.10387428662E+03  0.00000000000E+00 0. -1.
          2    1    1    2  501    0 -0.56473006986E+01 -0.50336020803E+02  0.46985950646E+03  0.47258180541E+03  0.00000000000E+00 0. -1.
<scales pt_clust_3="44.95752" pt_clust_4="74.79269" pt_clust_5="14000.00000" pt_clust_6="50.65182"></scales>
<clustering>
<clus scale="   50.652">  1  6  2 -1</clus>
<clus scale="   44.958">  1  3  2 -1</clus>
<clus scale="   74.793">  1  4  2 -1</clus>
<clus scale="   74.793">  2  3  1 -1</clus>
</clustering>
</event>
<event>
 6    0  0.4796958E+002  0.7995337E+02  0.7546771E-02  0.1329184E+00
         21   -1    0    0  505  502  0.00000000000E+00  0.00000000000E+00  0.50302282696E+02  0.50302282696E+02  0.00000000000E+00 0.  1.
          2   -1    0    0  504    0 -0.00000000000E+00 -0.00000000000E+00 -0.58698954647E+03  0.58698954647E+03  0.00000000000E+00 0.  1.
         21    1    1    2  503  502 -0.41664142807E+02  0.43108876488E+02 -0.19663965922E+02  0.63094750841E+02  0.00000000000E+00 0.  1.
         21    1    1    2  504  503 -0.30801870741E+02  0.36454715470E+02 -0.13525306343E+03  0.14342626220E+03  0.00000000000E+00 0.  1.
         21    1    1    2  505  501  0.10079629345E+03  0.82481773175E+01 -0.14615834666E+03  0.17773628639E+03  0.00000000000E+00 0.  1.
          2    1    1    2  501    0 -0.28330279902E+02 -0.87811769276E+02 -0.23561188776E+03  0.25303452974E+03  0.00000000000E+00 0.  1.
<scales pt_clust_3="64.35469" pt_clust_4="47.72527" pt_clust_5="79.95337" pt_clust_6="14000.00000"></scales>
<clustering>
<clus scale="   47.725">  2  4  1 -1</clus>
<clus scale="   64.355">  1  3  2 -1</clus>
<clus scale="   79.953">  1  5  2 -1</clus>
<clus scale="   64.355">  1  3  2 -1</clus>
</clustering>
</event>
<event>
 6    0  0.4796958E+002  0.1020882E+03  0.7546771E-02  0.1275965E+00
         -3   -1    0    0    0  501 -0.00000000000E+00  0.00000000000E+00  0.15004513756E+04  0.15004513756E+04  0.00000000000E+00 0.  1.
         21   -1    0    0  504  502  0.00000000000E+00 -0.00000000000E+00 -0.40402498924E+03  0.40402498924E+03  0.00000000000E+00 0. -1.
         21    1    1    2  503  501  0.74384355315E+02  0.76899203532E+02 -0.92797353499E+02  0.14162580498E+03  0.00000000000E+00 0. -1.
         21    1    1    2  504  503 -0.39499955479E+02  0.26856066293E+02 -0.27696946072E+03  0.28105796013E+03  0.00000000000E+00 0. -1.
         21    1    1    2  505  502  0.82465459320E+01 -0.72073484852E+02  0.17433081695E+03  0.18882220864E+03  0.00000000000E+00 0. -1.
         -3    1    1    2    0  505 -0.43130945768E+02 -0.31681784973E+02  0.12918623836E+04  0.12929703911E+04  0.00000000000E+00 0.  1.
<scales pt_clust_3="102.08821" pt_clust_4="47.76500" pt_clust_5="14000.00000" pt_clust_6="53.58748"></scales>
<clustering>
<clus scale="   47.765">  2  4  1 -1</clus>
<clus scale="   53.587">  1  6  2 -1</clus>
<clus scale="  102.088">  2  3  1 -1</clus>
<clus scale="   47.765">  2  3  1 -1</clus>
</clustering>
</event>
<event>
 6    0  0.4796958E+002  0.7344845E+02  0.7546771E-02  0.1348744E+00
         21   -1    0    0  504  502  0.00000000000E+00  0.00000000000E+00  0.12755179392E+03  0.12755179392E+03  0.00000000000E+00 0. -1.
          1   -1    0    0  502    0 -0.00000000000E+00 -0.00000000000E+00 -0.96861184168E+03  0.96861184168E+03  0.00000000000E+00 0. -1.
         21    1    1    2  503  501 -0.63313512580E+02  0.10574644235E+03 -0.14678592550E+03  0.19166903472E+03  0.00000000000E+00 0. -1.
         21    1    1    2  504  505  0.17950713422E+02 -0.36855614517E+02  0.88188282509E+02  0.97250900282E+02  0.00000000000E+00 0. -1.
         21    1    1    2  505  503  0.44976912599E+02 -0.18088827274E+02 -0.39463560569E+02  0.62510006814E+02  0.00000000000E+00 0. -1.
          1    1    1    2  501    0  0.38588655872E+00 -0.50802000558E+02 -0.74299884419E+03  0.74473369378E+03  0.00000000000E+00 0. -1.
<scales pt_clust_3="73.44845" pt_clust_4="40.99469" pt_clust_5="14000.00000" pt_clust_6="51.72652"></scales>
<clustering>
<clus scale="   40.995">  1  4  2 -1</clus>
<clus scale="   51.727">  2  6  1 -1</clus>
<clus scale="   73.448">  2  3  1 -1</clus>
<clus scale="   40.995">  1  3  2 -1</clus>
</clustering>
</event>
<event>
 6    0  0.4796958E+002  0.1582013E+03  0.7546771E-02  0.1190743E+00
          1   -1    0    0  505    0 -0.00000000000E+00  0.00000000000E+00  0.95472192998E+03  0.95472192998E+03  0.00000000000E+00 0. -1.
         21   -1    0    0  504  502  0.00000000000E+00 -0.00000000000E+00 -0.12954738235E+04  0.12954738235E+04  0.00000000000E+00 0. -1.
         21    1    1    2  503  502 -0.29964647568E+02  0.15464509046E+03 -0.12060249199E+04  0.12162685113E+04  0.00000000000E+00 0. -1.
         21    1    1    2  504  501  0.48621017498E+02 -0.30007321442E+01  0.15917160741E+01  0.48739524987E+02  0.00000000000E+00 0. -1.
         21    1    1    2  505  503 -0.23148492410E+02 -0.18463974067E+03  0.82932260350E+02  0.20372885495E+03  0.00000000000E+00 0. -1.
          1    1    1    2  501    0  0.44921224802E+01  0.32995382353E+02  0.78074904995E+03  0.78145886227E+03  0.00000000000E+00 0. -1.
<scales pt_clust_3="14000.00000" pt_clust_4="49.30435" pt_clust_5="158.20134" pt_clust_6="33.29977"></scales>
<clustering>
<clus scale="   33.300">  1  6  2 -1</clus>
<clus scale="   49.304">  1  4  2 -1</clus>
<clus scale="  158.201">  1  5  2 -1</clus>
<clus scale="  158.201">  2  3  1 -1</clus>
</clustering>
</event>
<event>
 6    0  0.4796958E+002  0.9770688E+02  0.7546771E-02  0.1285193E+00
         21   -1    0    0  504  502  0.00000000000E+00  0.00000000000E+00  0.72849508493E+03  0.72849508493E+03  0.00000000000E+00 0.  1.
          2   -1    0    0  503    0 -0.00000000000E+00 -0.00000000000E+00 -0.99055499074E+03  0.99055499074E+03  0.00000000000E+00 0. -1.
         21    1    1    2  503  502  0.37745361917E+02 -0.26019743805E+02 -0.39635828049E+02  0.60603121034E+02  0.00000000000E+00 0.  1.
         21    1    1    2  504  505 -0.59418912310E+02 -0.77585777429E+02  0.70918473794E+03  0.71588627066E+03  0.00000000000E+00 0.  1.
         21    1    1    2  505  501  0.47627208655E+02  0.83392413212E+02 -0.46607896370E+03  0.47586998854E+03  0.00000000000E+00 0. -1.
          2    1    1    2  501    0 -0.25953658262E+02  0.20213108022E+02 -0.46552985199E+03  0.46669069544E+03  0.00000000000E+00 0. -1.
<scales pt_clust_3="42.70665" pt_clust_4="97.70688" pt_clust_5="14000.00000" pt_clust_6="32.89623"></scales>
<clustering>
<clus scale="   32.896">  2  6  1 -1</clus>
<clus scale="   42.707">  2  3  1 -1</clus>
<clus scale="   97.707">  1  4  2 -1</clus>
<clus scale="   97.707">  1  3  2 -1</clus>
</clustering>
</event>
<event>
 6    0  0.4796958E+002  0.6685722E+02  0.7546771E-02  0.1371119E+00
          2   -1    0    0  503    0 -0.00000000000E+00  0.00000000000E+00  0.33170054032E+04  0.33170054032E+04  0.00000000000E+00 0. -1.
         21   -1    0    0  504  502  0.00000000000E+00 -0.00000000000E+00 -0.15073553764E+02  0.15073553764E+02  0.00000000000E+00 0. -1.
         21    1    1    2  503  502  0.93906573903E+02 -0.28405515733E+02  0.95174051256E+03  0.95678384246E+03  0.00000000000E+00 0. -1.
         21    1    1    2  504  505 -0.30691304685E+01  0.46370165906E+02  0.40739344665E+02  0.61800534396E+02  0.00000000000E+00 0. -1.
         21    1    1    2  505  501 -0.42194842405E+02  0.31355146868E+02  0.50834163292E+03  0.51105260563E+03  0.00000000000E+00 0. -1.
          2    1    1    2  501    0 -0.48642601029E+02 -0.49319797041E+02  0.18011103593E+04  0.18024419745E+04  0.00000000000E+00 0. -1.
<scales pt_clust_3="66.85722" pt_clust_4="46.47162" pt_clust_5="62.45572" pt_clust_6="14000.00000"></scales>
<clustering>
<clus scale="   46.472">  2  4  1 -1</clus>
<clus scale="   62.456">  2  5  1 -1</clus>
<clus scale="   66.857">  2  3  1 -1</clus>
<clus scale="   46.472">  2  3  1 -1</clus>
</clustering>
</event>
<event>
 6    0  0.4796958E+002  0.1126845E+03  0.7546771E-02  0.1255678E+00
          1   -1    0    0  503    0 -0.00000000000E+00  0.00000000000E+00  0.26301439915E+03  0.26301439915E+03  0.00000000000E+00 0. -1.
         21   -1    0    0  504  502  0.00000000000E+00 -0.00000000000E+00 -0.39371527067E+03  0.39371527067E+03  0.00000000000E+00 0.  1.
         21    1    1    2  503  502  0.27200913894E+02 -0.25334968914E+02  0.16920871721E+02  0.40841966974E+02  0.00000000000E+00 0.  1.
         21    1    1    2  504  505 -0.24191735381E+02 -0.31143073352E+02 -0.23657596382E+03  0.23984019208E+03  0.00000000000E+00 0.  1.
         21    1    1    2  505  501 -0.64868071813E+02  0.10695941046E+03 -0.10689789971E+03  0.16454586956E+03  0.00000000000E+00 0.  1.
          1    1    1    2  501    0  0.61858893301E+02 -0.50481368193E+02  0.19585212028E+03  0.21150164121E+03  0.00000000000E+00 0. -1.
<scales pt_clust_3="37.17190" pt_clust_4="39.45915" pt_clust_5="112.68454" pt_clust_6="14000.00000"></scales>
<clustering>
<clus scale="   37.172">  1  3  2 -1</clus>
<clus scale="   39.459">  2  4  1 -1</clus>
<clus scale="  112.685">  2  5  1 -1</clus>
<clus scale="   39.459">  2  3  1 -1</clus>
</clustering>
</event>
<event>
 6    0  0.4796958E+002  0.1831135E+03  0.7546771E-02  0.1164823E+00
         -3   -1    0    0    0  501 -0.00000000000E+00  0.00000000000E+00  0.13803617605E+04  0.13803617605E+04  0.00000000000E+00 0.  1.
         21   -1    0    0  504  502  0.00000000000E+00 -0.00000000000E+00 -0.63150670712E+02  0.63150670712E+02  0.00000000000E+00 0.  1.
         21    1    1    2  503  502 -0.11146162632E+03 -0.52998028286E+02  0.16059752709E+03  0.20254394795E+03  0.00000000000E+00 0.  1.
         21    1    1    2  504  501  0.11027527405E+03  0.20767424645E+03  0.38875092884E+03  0.45433084133E+03  0.00000000000E+00 0.  1.
         21    1    1    2  505  503 -0.31234915316E+02 -0.51237455512E+02  0.21332462223E+03  0.22160390618E+03  0.00000000000E+00 0.  1.
         -3    1    1    2    0  505  0.32421267579E+02 -0.10343876265E+03  0.55453801158E+03  0.56503373571E+03  0.00000000000E+00 0.  1.
<scales pt_clust_3="123.41995" pt_clust_4="168.13965" pt_clust_5="53.95896" pt_clust_6="53.95896"></scales>
<clustering>
<clus scale="   53.959">  5  6 -1 -1</clus>
<clus scale="  123.420">  2  3  1 -1</clus>
<clus scale="  168.140">  2  4  1 -1</clus>
<clus scale="  123.420">  2  3  1 -1</clus>
</clustering>
</event>
<event>
 6    0  0.4796958E+002  0.8470908E+02  0.7546771E-02  0.1316195E+00
         -4   -1    0    0    0  501 -0.00000000000E+00  0.00000000000E+00  0.16624973283E+04  0.16624973283E+04  0.00000000000E+00 0.  1.
         21   -1    0    0  505  502  0.00000000000E+00 -0.00000000000E+00 -0.29404986127E+02  0.29404986127E+02  0.00000000000E+00 0. -1.
         21    1    1    2  503  502 -0.35491721840E+02  0.23489142542E+02  0.12835152049E+02  0.44453832957E+02  0.00000000000E+00 0. -1.
         21    1    1    2  504  503 -0.13983292510E+02 -0.70137117438E+02  0.30594993796E+03  0.31419756881E+03  0.00000000000E+00 0.  1.
         21    1    1    2  505  501  0.98122129375E+02  0.62639622167E+02  0.37741963877E+03  0.39496488232E+03  0.00000000000E+00 0. -1.
         -4    1    1    2    0  504 -0.48647115026E+02 -0.15991647271E+02  0.93688761335E+03  0.93828603029E+03  0.00000000000E+00 0.  1.
<scales pt_clust_3="42.56057" pt_clust_4="14000.00000" pt_clust_5="84.70908" pt_clust_6="52.59297"></scales>
<clustering>
<clus scale="   42.561">  2  3  1 -1</clus>
<clus scale="   52.593">  1  6  2 -1</clus>
<clus scale="   84.709">  1  5  2 -1</clus>
<clus scale="   42.561">  2  3  1 -1</clus>
</clustering>
</event>
<event>
 6    0  0.4796958E+002  0.7607680E+02  0.7546771E-02  0.1340569E+00
         21   -1    0    0  503  502  0.00000000000E+00  0.00000000000E+00  0.91327550693E+02  0.91327550693E+02  0.00000000000E+00 0.  1.
          1   -1    0    0  505    0 -0.00000000000E+00 -0.00000000000E+00 -0.18085977448E+04  0.18085977448E+04  0.00000000000E+00 0. -1.
         21    1    1    2  503  501  0.95633637660E+02  0.59353231231E+02  0.17126428140E+00  0.11255500007E+03  0.00000000000E+00 0.  1.
         21    1    1    2  504  502 -0.28974564458E+02 -0.90838556640E+01  0.21776633342E+02  0.37366610483E+02  0.00000000000E+00 0.  1.
         21    1    1    2  505  504 -0.29116551422E+02  0.15496531665E+02 -0.55341319538E+02  0.64424977366E+02  0.00000000000E+00 0. -1.
          1    1    1    2  501    0 -0.37542521781E+02 -0.65765907232E+02 -0.16838767722E+04  0.16855787076E+04  0.00000000000E+00 0. -1.
<scales pt_clust_3="76.07680" pt_clust_4="30.36514" pt_clust_5="34.58740" pt_clust_6="14000.00000"></scales>
<clustering>
<clus scale="   30.365">  1  4  2 -1</clus>
<clus scale="   34.587">  1  5  2 -1</clus>
<clus scale="   76.077">  1  3  2 -1</clus>
<clus scale="   30.365">  1  3  2 -1</clus>
</clustering>
</event>
<event>
 6    0  0.4796958E+002  0.1515300E+03  0.7546771E-02  0.1198605E+00
         21   -1    0    0  501  502  0.00000000000E+00  0.00000000000E+00  0.14616551457E+03  0.14616551457E+03  0.00000000000E+00 0. -1.
         -1   -1    0    0    0  501 -0.00000000000E+00 -0.00000000000E+00 -0.75044044550E+03  0.75044044550E+03  0.00000000000E+00 0. -1.
         21    1    1    2  503  504  0.19792022647E+02 -0.15797086971E+03 -0.12469886729E+02  0.15969351243E+03  0.00000000000E+00 0. -1.
         21    1    1    2  504  505  0.49312697651E+02  0.44646194177E+02  0.12104645347E+02  0.67613217962E+02  0.00000000000E+00 0. -1.
         21    1    1    2  505  502  0.15236099800E+01  0.74219197235E+02 -0.16086110018E+02  0.75957709030E+02  0.00000000000E+00 0. -1.
         -1    1    1    2    0  503 -0.70628330279E+02  0.39105478296E+02 -0.58782357953E+03  0.59334152065E+03  0.00000000000E+00 0. -1.
<scales pt_clust_3="138.12273" pt_clust_4="58.99073" pt_clust_5="58.99073" pt_clust_6="80.73165"></scales>
<clustering>
<clus scale="   58.991">  4  5 -1 -1</clus>
<clus scale="   80.732">  2  6  1 -1</clus>
<clus scale="  138.123">  2  3  1 -1</clus>
<clus scale="  151.530">  1  3  2 -1</clus>
</clustering>
</event>
<event>
 6    0  0.4796958E+002  0.1274029E+03  0.7546771E-02  0.1231361E+00
         21   -1    0    0  503  502  0.00000000000E+00  0.00000000000E+00  0.45266094300E+02  0.45266094300E+02  0.00000000000E+00 0. -1.
          2   -1    0    0  505    0 -0.00000000000E+00 -0.00000000000E+00 -0.25977042884E+04  0.25977042884E+04  0.00000000000E+00 0.  1.
         21    1    1    2  503  501 -0.35327869876E+02  0.14566478327E+02 -0.75003886928E+02  0.84177335045E+02  0.00000000000E+00 0. -1.
         21    1    1    2  504  502  0.36383313673E+02  0.22707570227E+02  0.11736123446E+02  0.44464770920E+02  0.00000000000E+00 0. -1.
         21    1    1    2  505  504  0.72602778274E+02  0.72538622388E+02 -0.23684896410E+03  0.25812874103E+03  0.00000000000E+00 0.  1.
          2    1    1    2  501    0 -0.73658222070E+02 -0.10981267094E+03 -0.22523214665E+04  0.22561995357E+04  0.00000000000E+00 0.  1.
<scales pt_clust_3="38.21310" pt_clust_4="34.89081" pt_clust_5="127.40295" pt_clust_6="14000.00000"></scales>
<clustering>
<clus scale="   38.213">  1  3  2 -1</clus>
<clus scale="   34.891">  1  4  2 -1</clus>
<clus scale="  127.403">  1  5  2 -1</clus>
<clus scale="   38.213">  1  3  2 -1</clus>
</clustering>
</event>
<event>
 6    0  0.4796958E+002  0.1124942E+03  0.7546771E-02  0.1256020E+00
          1   -1    0    0  503    0 -0.00000000000E+00  0.00000000000E+00  0.66899135191E+02  0.66899135191E+02  0.00000000000E+00 0. -1.
         21   -1    0    0  501  502  0.00000000000E+00 -0.00000000000E+00 -0.84684505832E+03  0.84684505832E+03  0.00000000000E+00 0.  1.
         21    1    1    2  503  504 -0.36079495631E+02 -0.11144352918E+02 -0.59383543565E+02  0.70372806206E+02  0.00000000000E+00 0. -1.
         21    1    1    2  504  505  0.60105989028E+01 -0.73187969896E+02 -0.47455814061E+03  0.48020624220E+03  0.00000000000E+00 0.  1.
         21    1    1    2  505  502 -0.28503318030E+02 -0.24846643831E+02 -0.23583859416E+03  0.23885065908E+03  0.00000000000E+00 0.  1.
          1    1    1    2  501    0  0.58572214758E+02  0.10917896664E+03 -0.10165644794E+02  0.12431448602E+03  0.00000000000E+00 0. -1.
<scales pt_clust_3="37.76144" pt_clust_4="34.13285" pt_clust_5="34.13285" pt_clust_6="101.94281"></scales>
<clustering>
<clus scale="   34.133">  4  5 -1 -1</clus>
<clus scale="   37.761">  1  3  2 -1</clus>
<clus scale="  101.943">  1  6  2 -1</clus>
<clus scale="  112.494">  2  3  1 -1</clus>
</clustering>
</event>
<event>
 6    0  0.4796958E+002  0.8706275E+02  0.7546771E-02  0.1310125E+00
          2   -1    0    0  505    0 -0.00000000000E+00  0.00000000000E+00  0.30811112436E+03  0.30811112436E+03  0.00000000000E+00 0.  1.
         21   -1    0    0  503  502  0.00000000000E+00 -0.00000000000E+00 -0.17273658716E+03  0.17273658716E+03  0.00000000000E+00 0. -1.
         21    1    1    2  503  501 -0.10816747076E+02 -0.10922334028E+03  0.56551612470E+02  0.12346993542E+03  0.00000000000E+00 0. -1.
         21    1    1    2  504  502 -0.43391054849E+02  0.74312133057E+02 -0.95675760841E+02  0.12868149818E+03  0.00000000000E+00 0. -1.
         21    1    1    2  505  504  0.20028162681E+02  0.55301834313E+02  0.10261188534E+02  0.59705210567E+02  0.00000000000E+00 0. -1.
          2    1    1    2  501    0  0.34179639244E+02 -0.20390627087E+02  0.16423749703E+03  0.16899106735E+03  0.00000000000E+00 0.  1.
<scales pt_clust_3="87.06275" pt_clust_4="14000.00000" pt_clust_5="57.76809" pt_clust_6="39.79982"></scales>
<clustering>
<clus scale="   39.800">  1  6  2 -1</clus>
<clus scale="   57.768">  1  5  2 -1</clus>
<clus scale="   87.063">  1  3  2 -1</clus>
<clus scale="   87.063">  2  3  1 -1</clus>
</clustering>
</event>
<event>
 6    0  0.4796958E+002  0.1118989E+03  0.7546771E-02  0.1257093E+00
          1   -1    0    0  503    0 -0.00000000000E+00  0.00000000000E+00  0.11654957614E+04  0.11654957614E+04  0.00000000000E+00 0. -1.
         21   -1    0    0  504  502  0.00000000000E+00 -0.00000000000E+00 -0.76356386751E+02  0.76356386751E+02  0.00000000000E+00 0. -1.
         21    1    1    2  503  505 -0.68396501625E+02 -0.94966478760E+02  0.36688949911E+03  0.38510338622E+03  0.00000000000E+00 0.  1.
         21    1    1    2  504  501 -0.16235740338E+01  0.15562382172E+03  0.70789668598E+02  0.17097539899E+03  0.00000000000E+00 0. -1.
         21    1    1    2  505  502  0.16444303055E+02 -0.53646632308E+02  0.33282578634E+02  0.65238840436E+02  0.00000000000E+00 0. -1.
          1    1    1    2  501    0  0.53575772604E+02 -0.70107106566E+01  0.61817762829E+03  0.62053452248E+03  0.00000000000E+00 0. -1.
<scales pt_clust_3="111.89888" pt_clust_4="14000.00000" pt_clust_5="58.30015" pt_clust_6="54.03252"></scales>
<clustering>
<clus scale="   54.033">  1  6  2 -1</clus>
<clus scale="   58.300">  2  5  1 -1</clus>
<clus scale="  111.899">  1  3  2 -1</clus>
<clus scale="   58.300">  2  3  1 -1</clus>
</clustering>
</event>
<event>
 6    0  0.4796958E+002  0.6586656E+02  0.7546771E-02  0.1374741E+00
          1   -1    0    0  504    0 -0.00000000000E+00  0.00000000000E+00  0.10780795132E+04  0.10780795132E+04  0.00000000000E+00 0. -1.
         21   -1    0    0  505  502  0.00000000000E+00 -0.00000000000E+00 -0.30287402296E+03  0.30287402296E+03  0.00000000000E+00 0.  1.
         21    1    1    2  503  502 -0.45056771462E+02 -0.79281545059E+02 -0.18123999827E+03  0.20288817859E+03  0.00000000000E+00 0.  1.
         21    1    1    2  504  503  0.38694183024E+02  0.97825392301E+02  0.26019063483E+03  0.28065319102E+03  0.00000000000E+00 0. -1.
         21    1    1    2  505  501  0.27003117203E+02  0.18789463443E+02 -0.97300386822E+02  0.10271113645E+03  0.00000000000E+00 0.  1.
          1    1    1    2  501    0 -0.20640528765E+02 -0.37333310685E+02  0.79355524052E+03  0.79470103012E+03  0.00000000000E+00 0. -1.
<scales pt_clust_3="65.86656" pt_clust_4="14000.00000" pt_clust_5="32.89699" pt_clust_6="42.57589"></scales>
<clustering>
<clus scale="   32.897">  2  5  1 -1</clus>
<clus scale="   42.576">  1  6  2 -1</clus>
<clus scale="   65.867">  2  3  1 -1</clus>
<clus scale="   32.897">  2  3  1 -1</clus>
</clustering>
</event>
<event>
 6    0  0.4796958E+002  0.1155973E+03  0.7546771E-02  0.1250542E+00
          1   -1    0    0  503    0 -0.00000000000E+00  0.00000000000E+00  0.10668063910E+04  0.10668063910E+04  0.00000000000E+00 0.  1.
         21   -1    0    0  504  502  0.00000000000E+00 -0.00000000000E+00 -0.28188820378E+03  0.28188820378E+03  0.00000000000E+00 0.  1.
         21    1    1    2  503  505  0.12775505407E+03 -0.10418309221E+01  0.53419716568E+02  0.13847781544E+03  0.00000000000E+00 0.  1.
         21    1    1    2  504  501  0.39871220757E+02  0.95114944462E+01 -0.13456855608E+03  0.14067295070E+03  0.00000000000E+00 0.  1.
         21    1    1    2  505  502 -0.82113511876E+02 -0.88700343853E+02 -0.60790060874E+02  0.13529897019E+03  0.00000000000E+00 0.  1.
          1    1    1    2  501    0 -0.85512762947E+02  0.80230680329E+02  0.92685708759E+03  0.93424485843E+03  0.00000000000E+00 0.  1.
<scales pt_clust_3="115.59726" pt_clust_4="40.99003" pt_clust_5="98.94278" pt_clust_6="14000.00000"></scales>
<clustering>
<clus scale="   40.990">  2  4  1 -1</clus>
<clus scale="   98.943">  2  5  1 -1</clus>
<clus scale="  115.597">  2  3  1 -1</clus>
<clus scale="   40.990">  2  3  1 -1</clus>
</clustering>
</event>
<event>
 6    0  0.4796958E+002  0.1462425E+03  0.7546771E-02  0.1205168E+00
          1   -1    0    0  504    0 -0.00000000000E+00  0.00000000000E+00  0.38306765881E+04  0.38306765881E+04  0.00000000000E+00 0.  1.
         21   -1    0    0  505  502  0.00000000000E+00 -0.00000000000E+00 -0.26535923814E+03  0.26535923814E+03  0.00000000000E+00 0.  1.
         21    1    1    2  503  502 -0.42078924804E+02  0.60286125952E+02 -0.21736796445E+03  0.22946434334E+03  0.00000000000E+00 0.  1.
         21    1    1    2  504  503  0.98406638215E+02 -0.75698218092E+02  0.43698638709E+03  0.45428095841E+03  0.00000000000E+00 0.  1.
         21    1    1    2  505  501 -0.12173205813E+03  0.27011088776E+02  0.84984291444E+02  0.15089937935E+03  0.00000000000E+00 0.  1.
          1    1    1    2  501    0  0.65404344724E+02 -0.11598996636E+02  0.32607146358E+04  0.32613911451E+04  0.00000000000E+00 0.  1.
<scales pt_clust_3="73.02231" pt_clust_4="14000.00000" pt_clust_5="146.24254" pt_clust_6="66.42488"></scales>
<clustering>
<clus scale="   66.425">  1  6  2 -1</clus>
<clus scale="   73.022">  2  3  1 -1</clus>
<clus scale="  146.243">  2  5  1 -1</clus>
<clus scale="   73.022">  2  3  1 -1</clus>
</clustering>
</event>
<event>
 6    0  0.4796958E+002  0.1165835E+03  0.7546771E-02  0.1248842E+00
          2   -1    0    0  504    0 -0.00000000000E+00  0.00000000000E+00  0.29678478414E+04  0.29678478414E+04  0.00000000000E+00 0.  1.
         21   -1    0    0  505  502  0.00000000000E+00 -0.00000000000E+00 -0.89209069214E+02  0.89209069214E+02  0.00000000000E+00 0. -1.
         21    1    1    2  503  501  0.16559605776E+03  0.84111167702E+02  0.46683133062E+03  0.50242236627E+03  0.00000000000E+00 0. -1.
         21    1    1    2  504  502 -0.15013046597E+03 -0.18859169807E+02  0.62717201263E+02  0.16379338336E+03  0.00000000000E+00 0. -1.
         21    1    1    2  505  503  0.62673895538E+02  0.14982570651E+02  0.33655373048E+02  0.72699234798E+02  0.00000000000E+00 0. -1.
          2    1    1    2  501    0 -0.78139487335E+02 -0.80234568547E+02  0.23154348672E+04  0.23181419262E+04  0.00000000000E+00 0.  1.
<scales pt_clust_3="116.58347" pt_clust_4="104.98324" pt_clust_5="64.43985" pt_clust_6="14000.00000"></scales>
<clustering>
<clus scale="   64.440">  2  5  1 -1</clus>
<clus scale="  104.983">  2  4  1 -1</clus>
<clus scale="  116.583">  2  3  1 -1</clus>
<clus scale="   64.440">  2  3  1 -1</clus>
</clustering>
</event>
<event>
 6    0  0.4796958E+002  0.1386579E+03  0.7546771E-02  0.1215146E+00
         21   -1    0    0  505  502  0.00000000000E+00  0.00000000000E+00  0.62795940283E+03  0.62795940283E+03  0.00000000000E+00 0. -1.
          1   -1    0    0  504    0 -0.00000000000E+00 -0.00000000000E+00 -0.46017694886E+03  0.46017694886E+03  0.00000000000E+00 0. -1.
         21    1    1    2  503  502 -0.36783171591E+02 -0.10589332846E+02  0.11069510874E+02  0.39845573824E+02  0.00000000000E+00 0.  1.
         21    1    1    2  504  503 -0.33087291458E+02  0.88646836224E+02 -0.28861194491E+03  0.30372666194E+03  0.00000000000E+00 0. -1.
         21    1    1    2  505  501 -0.97938419799E+02 -0.31313694818E+02  0.53766292184E+03  0.54740652085E+03  0.00000000000E+00 0. -1.
          1    1    1    2  501    0  0.16780888285E+03 -0.46743808560E+02 -0.92338033833E+02  0.19715759507E+03  0.00000000000E+00 0. -1.
<scales pt_clust_3="38.27709" pt_clust_4="94.65856" pt_clust_5="14000.00000" pt_clust_6="138.65790"></scales>
<clustering>
<clus scale="   38.277">  1  3  2 -1</clus>
<clus scale="   94.659">  2  4  1 -1</clus>
<clus scale="  138.658">  2  6  1 -1</clus>
<clus scale="   38.277">  1  3  2 -1</clus>
</clustering>
</event>
<event>
 6    0  0.4796958E+002  0.1006749E+03  0.7546771E-02  0.1278883E+00
          1   -1    0    0  504    0 -0.00000000000E+00  0.00000000000E+00  0.43458045336E+03  0.43458045336E+03  0.00000000000E+00 0. -1.
         21   -1    0    0  505  502  0.00000000000E+00 -0.00000000000E+00 -0.10121069121E+03  0.10121069121E+03  0.00000000000E+00 0. -1.
         21    1    1    2  503  501 -0.25629595099E+02 -0.88349162113E+02 -0.55812597395E+00  0.91993272013E+02  0.00000000000E+00 0. -1.
         21    1    1    2  504  502  0.17622348307E+02  0.89748985721E+02  0.11178681076E+03  0.14443586347E+03  0.00000000000E+00 0. -1.
         21    1    1    2  505  503 -0.36340558378E+02 -0.17683230095E+02 -0.25148489402E+02  0.47600203035E+02  0.00000000000E+00 0. -1.
          1    1    1    2  501    0  0.44347805170E+02  0.16283406487E+02  0.24728956677E+03  0.25176180604E+03  0.00000000000E+00 0. -1.
<scales pt_clust_3="14000.00000" pt_clust_4="100.67493" pt_clust_5="40.41451" pt_clust_6="45.85622"></scales>
<clustering>
<clus scale="   40.415">  2  5  1 -1</clus>
<clus scale="   45.856">  1  6  2 -1</clus>
<clus scale="  100.675">  1  4  2 -1</clus>
<clus scale="   40.415">  2  3  1 -1</clus>
</clustering>
</event>
<event>
 6    0  0.4796958E+002  0.7131547E+02  0.7546771E-02  0.1355676E+00
          1   -1    0    0  503    0 -0.00000000000E+00  0.00000000000E+00  0.19922232465E+04  0.19922232465E+04  0.00000000000E+00 0. -1.
         21   -1    0    0  504  502  0.00000000000E+00 -0.00000000000E+00 -0.60476349577E+02  0.60476349577E+02  0.00000000000E+00 0.  1.
         21    1    1    2  503  505 -0.46557849395E+02  0.38337000107E+02  0.70227399739E+02  0.92570225189E+02  0.00000000000E+00 0.  1.
         21    1    1    2  504  501  0.66314030266E+02  0.60291601398E+02  0.62662655331E+02  0.10935829270E+03  0.00000000000E+00 0.  1.
         21    1    1    2  505  502  0.13191288619E+01 -0.71446871407E+02  0.23708227577E+02  0.75289279380E+02  0.00000000000E+00 0.  1.
          1    1    1    2  501    0 -0.21075309733E+02 -0.27181730098E+02  0.17751486143E+04  0.17754817989E+04  0.00000000000E+00 0. -1.
<scales pt_clust_3="61.30491" pt_clust_4="71.31547" pt_clust_5="14000.00000" pt_clust_6="34.39499"></scales>
<clustering>
<clus scale="   34.395">  1  6  2 -1</clus>
<clus scale="   61.305">  1  3  2 -1</clus>
<clus scale="   71.315">  1  4  2 -1</clus>
<clus scale="   71.315">  2  3  1 -1</clus>
</clustering>
</event>
<event>
 6    0  0.4796958E+002  0.1129557E+03  0.7546771E-02  0.1255192E+00
          2   -1    0    0  504    0 -0.00000000000E+00  0.00000000000E+00  0.16190706434E+04  0.16190706434E+04  0.00000000000E+00 0. -1.
         21   -1    0    0  505  502  0.00000000000E+00 -0.00000000000E+00 -0.10547719707E+03  0.10547719707E+03  0.00000000000E+00 0.  1.
         21    1    1    2  503  501  0.34812683829E+02  0.10323434134E+03  0.40380865450E+03  0.41824715377E+03  0.00000000000E+00 0.  1.
         21    1    1    2  504  502 -0.45073091477E+02 -0.15445908735E+03  0.25161424493E+03  0.29866188490E+03  0.00000000000E+00 0.  1.
         21    1    1    2  505  503 -0.11541945327E+02  0.77565722191E+02 -0.53753346813E+02  0.95074076670E+02  0.00000000000E+00 0.  1.
          2    1    1    2  501    0  0.21802352975E+02 -0.26340976176E+02  0.91192389372E+03  0.91256472513E+03  0.00000000000E+00 0. -1.
<scales pt_clust_3="14000.00000" pt_clust_4="112.95568" pt_clust_5="77.56613" pt_clust_6="34.19341"></scales>
<clustering>
<clus scale="   34.193">  1  6  2 -1</clus>
<clus scale="   77.566">  2  5  1 -1</clus>
<clus scale="  112.956">  2  4  1 -1</clus>
<clus scale="   77.566">  2  3  1 -1</clus>
</clustering>
</event>
<event>
 6    0  0.4796958E+002  0.1222377E+03  0.7546771E-02  0.1239451E+00
         -1   -1    0    0    0  501 -0.00000000000E+00  0.00000000000E+00  0.10328004995E+03  0.10328004995E+03  0.00000000000E+00 0. -1.
         21   -1    0    0  503  502  0.00000000000E+00 -0.00000000000E+00 -0.25973058569E+03  0.25973058569E+03  0.00000000000E+00 0.  1.
         21    1    1    2  503  504 -0.13535125839E+02 -0.79038033662E+02 -0.65917488209E+02  0.10380426604E+03  0.00000000000E+00 0.  1.
         21    1    1    2  504  501  0.95536315780E+02 -0.18282002261E+02 -0.62180566131E+02  0.11544627341E+03  0.00000000000E+00 0.  1.
         21    1    1    2  505  502 -0.43149550988E+02  0.46702051981E+02 -0.44900778242E+02  0.77839869582E+02  0.00000000000E+00 0. -1.
         -1    1    1    2    0  505 -0.38851638953E+02  0.50617983941E+02  0.16548296849E+02  0.65920226609E+02  0.00000000000E+00 0. -1.
<scales pt_clust_3="80.18859" pt_clust_4="106.18067" pt_clust_5="60.45481" pt_clust_6="60.45481"></scales>
<clustering>
<clus scale="   60.455">  5  6 -1 -1</clus>
<clus scale="   80.189">  2  3  1 -1</clus>
<clus scale="  106.181">  2  4  1 -1</clus>
<clus scale="   80.189">  2  3  1 -1</clus>
</clustering>
</event>
<event>
 6    0  0.4796958E+002  0.9388057E+02  0.7546771E-02  0.1293717E+00
         -1   -1    0    0    0  501 -0.00000000000E+00  0.00000000000E+00  0.23166910329E+03  0.23166910329E+03  0.00000000000E+00 0.  1.
         21   -1    0    0  504  502  0.00000000000E+00 -0.00000000000E+00 -0.13128755919E+04  0.13128755919E+04  0.00000000000E+00 0.  1.
         21    1    1    2  503  501  0.22167989442E+02  0.26068845893E+02 -0.11595619939E+02  0.36131189903E+02  0.00000000000E+00 0.  1.
         21    1    1    2  504  503 -0.64150436706E+02 -0.35138225037E+02 -0.46307604929E+02  0.86570015956E+02  0.00000000000E+00 0.  1.
         21    1    1    2  505  502 -0.50139664529E+01  0.93808200161E+02 -0.12088626641E+04  0.12125073439E+04  0.00000000000E+00 0.  1.
         -1    1    1    2    0  505  0.46996413717E+02 -0.84738821017E+02  0.18555940042E+03  0.20933614541E+03  0.00000000000E+00 0.  1.
<scales pt_clust_3="34.21994" pt_clust_4="70.21942" pt_clust_5="14000.00000" pt_clust_6="93.88057"></scales>
<clustering>
<clus scale="   34.220">  1  3  2 -1</clus>
<clus scale="   70.219">  1  4  2 -1</clus>
<clus scale="   93.881">  1  6  2 -1</clus>
<clus scale="   93.881">  2  3  1 -1</clus>
</clustering>
</event>
<event>
 6    0  0.5011389E+002  0.1142245E+03  0.7546771E-02  0.1252941E+00
          2   -1    0    0  505    0 -0.00000000000E+00  0.00000000000E+00  0.23611256226E+04  0.23611256226E+04  0.00000000000E+00 0.  1.
         21   -1    0    0  504  502  0.00000000000E+00 -0.00000000000E+00 -0.21054477912E+03  0.21054477912E+03  0.00000000000E+00 0.  1.
         21    1    1    2  503  502  0.77313975452E+01  0.39146431224E+02  0.48763572994E+02  0.63008758413E+02  0.00000000000E+00 0.  1.
         21    1    1    2  504  501 -0.81687316554E+02 -0.28469341428E+02 -0.16233549369E+03  0.18394600729E+03  0.00000000000E+00 0.  1.
         21    1    1    2  505  503 -0.40503040022E+02 -0.13310094023E+02 -0.13088803569E+02  0.44597888210E+02  0.00000000000E+00 0.  1.
          2    1    1    2  501    0  0.11445895903E+03  0.26330042268E+01  0.22772415677E+04  0.22801177478E+04  0.00000000000E+00 0.  1.
<scales pt_clust_3="39.90260" pt_clust_4="114.22446" pt_clust_5="40.16349" pt_clust_6="14000.00000"></scales>
<clustering>
<clus scale="   39.903">  2  3  1 -1</clus>
<clus scale="   40.163">  2  5  1 -1</clus>
<clus scale="  114.224">  2  4  1 -1</clus>
<clus scale="   39.903">  2  3  1 -1</clus>
</clustering>
</event>
<event>
 6    0  0.4796958E+002  0.1523810E+03  0.7546771E-02  0.1197577E+00
          1   -1    0    0  503    0 -0.00000000000E+00  0.00000000000E+00  0.54864988792E+03  0.54864988792E+03  0.00000000000E+00 0.  1.
         21   -1    0    0  504  502  0.00000000000E+00 -0.00000000000E+00 -0.57387851210E+03  0.57387851210E+03  0.00000000000E+00 0. -1.
         21    1    1    2  503  505  0.37987055701E+02 -0.87556447786E+02  0.16310437458E+03  0.18897667835E+03  0.00000000000E+00 0. -1.
         21    1    1    2  504  501  0.38144604310E+02  0.63828108853E+01 -0.19033817625E+03  0.19422763050E+03  0.00000000000E+00 0. -1.
         21    1    1    2  505  502  0.94607167913E+01  0.14331974959E+03 -0.34651650897E+03  0.37510498100E+03  0.00000000000E+00 0. -1.
          1    1    1    2  501    0 -0.85592376803E+02 -0.62146112689E+02  0.34852168645E+03  0.36421911017E+03  0.00000000000E+00 0.  1.
<scales pt_clust_3="95.76648" pt_clust_4="38.67494" pt_clust_5="152.38098" pt_clust_6="14000.00000"></scales>
<clustering>
<clus scale="   38.675">  2  4  1 -1</clus>
<clus scale="   95.766">  1  3  2 -1</clus>
<clus scale="  152.381">  2  5  1 -1</clus>
<clus scale="   38.675">  2  3  1 -1</clus>
</clustering>
</event>
<event>
 6    0  0.4796958E+002  0.1313027E+03  0.7546771E-02  0.1225535E+00
         21   -1    0    0  504  502  0.00000000000E+00  0.00000000000E+00  0.33922354155E+04  0.33922354155E+04  0.00000000000E+00 0.  1.
          2   -1    0    0  505    0 -0.00000000000E+00 -0.00000000000E+00 -0.30367980348E+03  0.30367980348E+03  0.00000000000E+00 0. -1.
         21    1    1    2  503  501  0.13047371364E+02  0.65688875282E+02  0.13327049740E+04  0.13343866793E+04  0.00000000000E+00 0.  1.
         21    1    1    2  504  503 -0.14099988038E+02  0.58294029341E+02  0.20167043611E+04  0.20175959664E+04  0.00000000000E+00 0.  1.
         21    1    1    2  505  502  0.73425442783E+02 -0.12108587416E+03 -0.12028252270E+03  0.18579819653E+03  0.00000000000E+00 0. -1.
          2    1    1    2  501    0 -0.72372826109E+02 -0.28970304664E+01 -0.14057120035E+03  0.15813437676E+03  0.00000000000E+00 0. -1.
<scales pt_clust_3="40.94293" pt_clust_4="40.94293" pt_clust_5="123.96981" pt_clust_6="72.43079"></scales>
<clustering>
<clus scale="   40.943">  3  4 -1 -1</clus>
<clus scale="   72.431">  2  6  1 -1</clus>
<clus scale="  123.970">  2  5  1 -1</clus>
<clus scale="  131.303">  1  3  2 -1</clus>
</clustering>
</event>
<event>
 6    0  0.4796958E+002  0.8675145E+02  0.7546771E-02  0.1310915E+00
         -2   -1    0    0    0  501 -0.00000000000E+00  0.00000000000E+00  0.46631329872E+03  0.46631329872E+03  0.00000000000E+00 0. -1.
         21   -1    0    0  503  502  0.00000000000E+00 -0.00000000000E+00 -0.20136415264E+03  0.20136415264E+03  0.00000000000E+00 0.  1.
         21    1    1    2  503  501  0.13111227418E+02 -0.55436569769E+02 -0.11457784660E+02  0.58106784298E+02  0.00000000000E+00 0.  1.
         21    1    1    2  504  502  0.15761577225E+01 -0.39134555402E+02 -0.13412000578E+03  0.13972177229E+03  0.00000000000E+00 0.  1.
         21    1    1    2  505  504 -0.44150909846E+02  0.11542718372E+03  0.10491013209E+03  0.16210759821E+03  0.00000000000E+00 0.  1.
         -2    1    1    2    0  505  0.29463524705E+02 -0.20856058548E+02  0.30561680444E+03  0.30774129658E+03  0.00000000000E+00 0. -1.
<scales pt_clust_3="14000.00000" pt_clust_4="39.55591" pt_clust_5="86.75145" pt_clust_6="36.09812"></scales>
<clustering>
<clus scale="   36.098">  1  6  2 -1</clus>
<clus scale="   39.556">  2  4  1 -1</clus>
<clus scale="   86.751">  1  5  2 -1</clus>
<clus scale="   39.556">  2  3  1 -1</clus>
</clustering>
</event>
<event>
 6    0  0.4796958E+002  0.2227586E+03  0.7546771E-02  0.1131843E+00
         21   -1    0    0  504  502  0.00000000000E+00  0.00000000000E+00  0.44954168384E+03  0.44954168384E+03  0.00000000000E+00 0.  1.
         -3   -1    0    0    0  501 -0.00000000000E+00 -0.00000000000E+00 -0.19205726274E+03  0.19205726274E+03  0.00000000000E+00 0.  1.
         21    1    1    2  503  501 -0.18321951453E+03 -0.46119831356E+02  0.39545055391E+02  0.19302911893E+03  0.00000000000E+00 0.  1.
         21    1    1    2  504  505  0.78294185465E+02 -0.10780925650E+02  0.17962460110E+03  0.19624272001E+03  0.00000000000E+00 0.  1.
         21    1    1    2  505  503  0.13329539117E+03  0.11266225090E+02  0.10256770125E+03  0.16856667071E+03  0.00000000000E+00 0.  1.
         -3    1    1    2    0  502 -0.28370062105E+02  0.45634531915E+02 -0.64252936647E+02  0.83760436930E+02  0.00000000000E+00 0.  1.
<scales pt_clust_3="202.33239" pt_clust_4="72.21873" pt_clust_5="72.21873" pt_clust_6="53.73426"></scales>
<clustering>
<clus scale="   53.734">  2  6  1 -1</clus>
<clus scale="   72.219">  4  5 -1 -1</clus>
<clus scale="  202.332">  2  3  1 -1</clus>
<clus scale="  222.759">  1  3  2 -1</clus>
</clustering>
</event>
<event>
 6    0  0.4796958E+002  0.8086483E+02  0.7546771E-02  0.1326615E+00
          2   -1    0    0  505    0 -0.00000000000E+00  0.00000000000E+00  0.49639736857E+03  0.49639736857E+03  0.00000000000E+00 0.  1.
         21   -1    0    0  501  502  0.00000000000E+00 -0.00000000000E+00 -0.15133084743E+03  0.15133084743E+03  0.00000000000E+00 0.  1.
         21    1    1    2  503  504 -0.29530983265E+02  0.44000956356E+02  0.93577863970E+01  0.53811999583E+02  0.00000000000E+00 0.  1.
         21    1    1    2  504  502 -0.16898518254E+02  0.30012179094E+02 -0.10800171859E+03  0.11336076055E+03  0.00000000000E+00 0.  1.
         21    1    1    2  505  503  0.93143489947E+02 -0.84448551161E+02  0.23599701930E+03  0.26739831830E+03  0.00000000000E+00 0.  1.
          2    1    1    2  501    0 -0.46713988429E+02  0.10435415712E+02  0.20771343403E+03  0.21315713756E+03  0.00000000000E+00 0.  1.
<scales pt_clust_3="14000.00000" pt_clust_4="34.44257" pt_clust_5="80.86483" pt_clust_6="49.43753"></scales>
<clustering>
<clus scale="   34.443">  2  4  1 -1</clus>
<clus scale="   49.438">  1  6  2 -1</clus>
<clus scale="   80.865">  1  5  2 -1</clus>
<clus scale="   34.443">  2  3  1 -1</clus>
</clustering>
</event>
<event>
 6    0  0.4796958E+002  0.1290697E+03  0.7546771E-02  0.1228843E+00
         21   -1    0    0  504  502  0.00000000000E+00  0.00000000000E+00  0.44145205764E+02  0.44145205764E+02  0.00000000000E+00 0. -1.
          2   -1    0    0  502    0 -0.00000000000E+00 -0.00000000000E+00 -0.14663249447E+04  0.14663249447E+04  0.00000000000E+00 0. -1.
         21    1    1    2  503  505 -0.31970975576E+02 -0.40699069333E+02 -0.14855314876E+03  0.15731050674E+03  0.00000000000E+00 0.  1.
         21    1    1    2  504  503  0.34814915132E+02 -0.16392674590E+02 -0.40851602587E+01  0.38697372394E+02  0.00000000000E+00 0. -1.
         21    1    1    2  505  501  0.11504119008E+03 -0.68813551713E+01 -0.16189878659E+03  0.19872857259E+03  0.00000000000E+00 0. -1.
          2    1    1    2  501    0 -0.11788512963E+03  0.63973099094E+02 -0.11076426434E+04  0.11157336988E+04  0.00000000000E+00 0. -1.
<scales pt_clust_3="50.71960" pt_clust_4="38.48114" pt_clust_5="14000.00000" pt_clust_6="129.06972"></scales>
<clustering>
<clus scale="   38.481">  1  4  2 -1</clus>
<clus scale="   50.720">  1  3  2 -1</clus>
<clus scale="  129.070">  2  6  1 -1</clus>
<clus scale="   38.481">  1  3  2 -1</clus>
</clustering>
</event>
<event>
 6    0  0.4796958E+002  0.1395851E+03  0.7546771E-02  0.1213888E+00
          2   -1    0    0  504    0 -0.00000000000E+00  0.00000000000E+00  0.69927136006E+03  0.69927136006E+03  0.00000000000E+00 0.  1.
         21   -1    0    0  503  502  0.00000000000E+00 -0.00000000000E+00 -0.20527514723E+03  0.20527514723E+03  0.00000000000E+00 0. -1.
         21    1    1    2  503  505 -0.53185408688E+02 -0.13324560579E+03 -0.10753898804E+03  0.17929783353E+03  0.00000000000E+00 0. -1.
         21    1    1    2  504  502 -0.18696098959E+02  0.32660903260E+02 -0.48019885715E+02  0.61009738093E+02  0.00000000000E+00 0.  1.
         21    1    1    2  505  501  0.60628621556E+02  0.52656138475E+02  0.50935187765E+03  0.51564312653E+03  0.00000000000E+00 0.  1.
          2    1    1    2  501    0  0.11252886092E+02  0.47928564059E+02  0.14020320893E+03  0.14859580913E+03  0.00000000000E+00 0.  1.
<scales pt_clust_3="124.40527" pt_clust_4="37.63348" pt_clust_5="49.90442" pt_clust_6="49.90442"></scales>
<clustering>
<clus scale="   37.633">  2  4  1 -1</clus>
<clus scale="   49.904">  5  6 -1 -1</clus>
<clus scale="  124.405">  2  3  1 -1</clus>
<clus scale="   37.633">  2  3  1 -1</clus>
</clustering>
</event>
<event>
 6    0  0.4796958E+002  0.8356787E+02  0.7546771E-02  0.1319221E+00
         21   -1    0    0  503  502  0.00000000000E+00  0.00000000000E+00  0.55525667237E+03  0.55525667237E+03  0.00000000000E+00 0. -1.
          2   -1    0    0  505    0 -0.00000000000E+00 -0.00000000000E+00 -0.43089131953E+03  0.43089131953E+03  0.00000000000E+00 0. -1.
         21    1    1    2  503  504 -0.75799024926E+02  0.28490866221E+02  0.46451159959E+03  0.47151696447E+03  0.00000000000E+00 0. -1.
         21    1    1    2  504  501  0.12373504961E+03 -0.28156013071E+02  0.13335202419E+02  0.12759683067E+03  0.00000000000E+00 0.  1.
         21    1    1    2  505  502 -0.15723353944E+02  0.50395461390E+02 -0.35957746763E+02  0.63873984847E+02  0.00000000000E+00 0.  1.
          2    1    1    2  501    0 -0.32212670739E+02 -0.50730314540E+02 -0.31752370240E+03  0.32316021190E+03  0.00000000000E+00 0. -1.
<scales pt_clust_3="14000.00000" pt_clust_4="83.56787" pt_clust_5="52.79135" pt_clust_6="46.19552"></scales>
<clustering>
<clus scale="   52.791">  2  5  1 -1</clus>
<clus scale="   46.196">  2  6  1 -1</clus>
<clus scale="   83.568">  2  4  1 -1</clus>
<clus scale="   83.568">  1  3  2 -1</clus>
</clustering>
</event>
<event>
 6    0  0.4796958E+002  0.9957720E+02  0.7546771E-02  0.1281188E+00
         21   -1    0    0  505  502  0.00000000000E+00  0.00000000000E+00  0.68394705253E+03  0.68394705253E+03  0.00000000000E+00 0.  1.
          3   -1    0    0  503    0 -0.00000000000E+00 -0.00000000000E+00 -0.48921145872E+03  0.48921145872E+03  0.00000000000E+00 0.  1.
         21    1    1    2  503  502  0.53856001415E+01 -0.11261755782E+03 -0.24115371714E+02  0.11529644474E+03  0.00000000000E+00 0. -1.
         21    1    1    2  504  501 -0.73063990549E+02  0.16939514743E+02  0.24312334346E+03  0.25442927113E+03  0.00000000000E+00 0.  1.
         21    1    1    2  505  504 -0.23047431530E+02  0.41765721785E+02  0.38134187535E+03  0.38431391532E+03  0.00000000000E+00 0.  1.
          3    1    1    2  501    0  0.90725821938E+02  0.53912321289E+02 -0.40561425328E+03  0.41911888006E+03  0.00000000000E+00 0.  1.
<scales pt_clust_3="99.57720" pt_clust_4="105.49865" pt_clust_5="47.70283" pt_clust_6="14000.00000"></scales>
<clustering>
<clus scale="   47.703">  1  5  2 -1</clus>
<clus scale="  105.499">  1  4  2 -1</clus>
<clus scale="   99.577">  1  3  2 -1</clus>
<clus scale="   47.703">  1  3  2 -1</clus>
</clustering>
</event>
<event>
 6    0  0.4796958E+002  0.9366739E+02  0.7546771E-02  0.1294206E+00
         -4   -1    0    0    0  501 -0.00000000000E+00  0.00000000000E+00  0.20638944942E+04  0.20638944942E+04  0.00000000000E+00 0.  1.
         21   -1    0    0  504  502  0.00000000000E+00 -0.00000000000E+00 -0.83349069249E+02  0.83349069249E+02  0.00000000000E+00 0.  1.
         21    1    1    2  503  501 -0.13152183555E+03  0.10585497117E+03  0.55605984771E+03  0.58112461863E+03  0.00000000000E+00 0. -1.
         21    1    1    2  504  503  0.31049001860E+02 -0.68345882301E+01  0.46536264246E+02  0.56359347075E+02  0.00000000000E+00 0. -1.
         21    1    1    2  505  502  0.35205501025E+02 -0.51920448711E+02 -0.49582907926E+02  0.79960146668E+02  0.00000000000E+00 0.  1.
         -4    1    1    2    0  505  0.65267332664E+02 -0.47099934226E+02  0.14275322209E+04  0.14297994511E+04  0.00000000000E+00 0.  1.
<scales pt_clust_3="14000.00000" pt_clust_4="31.79233" pt_clust_5="93.66739" pt_clust_6="80.90933"></scales>
<clustering>
<clus scale="   31.792">  2  4  1 -1</clus>
<clus scale="   80.909">  1  6  2 -1</clus>
<clus scale="   93.667">  2  5  1 -1</clus>
<clus scale="   31.792">  2  3  1 -1</clus>
</clustering>
</event>
<event>
 6    0  0.4796958E+002  0.7443352E+02  0.7546771E-02  0.1345634E+00
         21   -1    0    0  504  502  0.00000000000E+00  0.00000000000E+00  0.36895298109E+02  0.36895298109E+02  0.00000000000E+00 0. -1.
         -3   -1    0    0    0  501 -0.00000000000E+00 -0.00000000000E+00 -0.10170306171E+04  0.10170306171E+04  0.00000000000E+00 0. -1.
         21    1    1    2  503  501  0.37779471720E+01 -0.41195219020E+02 -0.25127958390E+03  0.25466202747E+03  0.00000000000E+00 0. -1.
         21    1    1    2  504  503  0.11226719093E+03  0.45502164668E+02 -0.25310765439E+03  0.28060266188E+03  0.00000000000E+00 0. -1.
         21    1    1    2  505  502 -0.65741365604E+02  0.17975794549E+02 -0.39126955261E+02  0.78587371563E+02  0.00000000000E+00 0. -1.
         -3    1    1    2    0  505 -0.50303772494E+02 -0.22282740197E+02 -0.43662112548E+03  0.44007385432E+03  0.00000000000E+00 0. -1.
<scales pt_clust_3="41.36809" pt_clust_4="74.43352" pt_clust_5="14000.00000" pt_clust_6="66.52411"></scales>
<clustering>
<clus scale="   41.368">  2  3  1 -1</clus>
<clus scale="   66.524">  2  6  1 -1</clus>
<clus scale="   74.434">  2  4  1 -1</clus>
<clus scale="   74.434">  1  3  2 -1</clus>
</clustering>
</event>
<event>
 6    0  0.4796958E+002  0.3059328E+03  0.7546771E-02  0.1082312E+00
          1   -1    0    0  503    0 -0.00000000000E+00  0.00000000000E+00  0.33430002779E+04  0.33430002779E+04  0.00000000000E+00 0.  1.
         21   -1    0    0  501  502  0.00000000000E+00 -0.00000000000E+00 -0.11233544525E+03  0.11233544525E+03  0.00000000000E+00 0.  1.
         21    1    1    2  503  504 -0.71304652954E+02  0.68804064463E+02  0.12999489216E+04  0.13037198900E+04  0.00000000000E+00 0.  1.
         21    1    1    2  504  505 -0.22238700866E+03  0.16145759567E+03  0.73353965652E+03  0.78332940996E+03  0.00000000000E+00 0.  1.
         21    1    1    2  505  502  0.24071300719E+03 -0.20858654697E+03  0.21464226776E+03  0.38408645188E+03  0.00000000000E+00 0.  1.
          1    1    1    2  501    0  0.52978654422E+02 -0.21675113166E+02  0.98253398675E+03  0.98419997128E+03  0.00000000000E+00 0.  1.
<scales pt_clust_3="70.72342" pt_clust_4="305.93277" pt_clust_5="14000.00000" pt_clust_6="57.24114"></scales>
<clustering>
<clus scale="   57.241">  1  6  2 -1</clus>
<clus scale="   70.723">  1  3  2 -1</clus>
<clus scale="  305.933">  1  4  2 -1</clus>
<clus scale="  305.933">  2  3  1 -1</clus>
</clustering>
</event>
<event>
 6    0  0.4796958E+002  0.7383048E+02  0.7546771E-02  0.1347531E+00
          2   -1    0    0  504    0 -0.00000000000E+00  0.00000000000E+00  0.14671310287E+04  0.14671310287E+04  0.00000000000E+00 0.  1.
         21   -1    0    0  503  502  0.00000000000E+00 -0.00000000000E+00 -0.59211014931E+02  0.59211014931E+02  0.00000000000E+00 0. -1.
         21    1    1    2  503  505 -0.21956354634E+00  0.73259310395E+02 -0.20703774580E+02  0.76128976412E+02  0.00000000000E+00 0. -1.
         21    1    1    2  504  502  0.77380380239E+02 -0.26830300484E+01  0.23719316701E+03  0.24951056165E+03  0.00000000000E+00 0.  1.
         21    1    1    2  505  501 -0.42135805275E+02 -0.84629371139E+02  0.54252563366E+03  0.55070102571E+03  0.00000000000E+00 0.  1.
          2    1    1    2  501    0 -0.35025011418E+02  0.14053090793E+02  0.64890498767E+03  0.65000147985E+03  0.00000000000E+00 0.  1.
<scales pt_clust_3="73.83048" pt_clust_4="66.97325" pt_clust_5="14000.00000" pt_clust_6="37.73911"></scales>
<clustering>
<clus scale="   37.739">  1  6  2 -1</clus>
<clus scale="   66.973">  1  4  2 -1</clus>
<clus scale="   73.830">  2  3  1 -1</clus>
<clus scale="   73.830">  2  3  1 -1</clus>
</clustering>
</event>
<event>
 6    0  0.4796958E+002  0.9411588E+02  0.7546771E-02  0.1293180E+00
          2   -1    0    0  505    0 -0.00000000000E+00  0.00000000000E+00  0.18386428123E+04  0.18386428123E+04  0.00000000000E+00 0. -1.
         21   -1    0    0  503  502  0.00000000000E+00 -0.00000000000E+00 -0.11747919090E+04  0.11747919090E+04  0.00000000000E+00 0. -1.
         21    1    1    2  503  504  0.71229693841E+02 -0.83318710418E+02 -0.34472263391E+03  0.36173107569E+03  0.00000000000E+00 0. -1.
         21    1    1    2  504  501 -0.11007405624E+03  0.13884432625E+02  0.35157419776E+03  0.36866447057E+03  0.00000000000E+00 0. -1.
         21    1    1    2  505  502 -0.11183632489E+01  0.95235982849E+02 -0.80984371047E+03  0.81542502939E+03  0.00000000000E+00 0. -1.
          2    1    1    2  501    0  0.39962725650E+02 -0.25801705056E+02  0.14668430500E+04  0.14676141457E+04  0.00000000000E+00 0. -1.
<scales pt_clust_3="14000.00000" pt_clust_4="72.19018" pt_clust_5="94.11588" pt_clust_6="47.56834"></scales>
<clustering>
<clus scale="   47.568">  1  6  2 -1</clus>
<clus scale="   72.190">  1  4  2 -1</clus>
<clus scale="   94.116">  2  5  1 -1</clus>
<clus scale="   94.116">  2  3  1 -1</clus>
</clustering>
</event>
<event>
 6    0  0.4796958E+002  0.9412768E+02  0.7546771E-02  0.1293153E+00
          1   -1    0    0  503    0 -0.00000000000E+00  0.00000000000E+00  0.13391395582E+03  0.13391395582E+03  0.00000000000E+00 0. -1.
         21   -1    0    0  505  502  0.00000000000E+00 -0.00000000000E+00 -0.58678373492E+03  0.58678373492E+03  0.00000000000E+00 0.  1.
         21    1    1    2  503  502  0.79298132485E+02  0.21192376947E+02 -0.39494597791E+03  0.40338522050E+03  0.00000000000E+00 0.  1.
         21    1    1    2  504  501 -0.11479820112E+03 -0.45852318575E+02 -0.46737004593E+02  0.13215676183E+03  0.00000000000E+00 0.  1.
         21    1    1    2  505  504 -0.36640040646E+01  0.31242237794E+02 -0.90850360289E+02  0.96142031978E+02  0.00000000000E+00 0.  1.
          1    1    1    2  501    0  0.39164072699E+02 -0.65822961666E+01  0.79663563680E+02  0.89013676429E+02  0.00000000000E+00 0. -1.
<scales pt_clust_3="14000.00000" pt_clust_4="94.12768" pt_clust_5="31.45636" pt_clust_6="39.63108"></scales>
<clustering>
<clus scale="   31.456">  2  5  1 -1</clus>
<clus scale="   39.631">  1  6  2 -1</clus>
<clus scale="   94.128">  1  4  2 -1</clus>
<clus scale="   31.456">  2  3  1 -1</clus>
</clustering>
</event>
<event>
 6    0  0.4796958E+002  0.1016517E+03  0.7546771E-02  0.1276860E+00
          2   -1    0    0  503    0 -0.00000000000E+00  0.00000000000E+00  0.43116396789E+03  0.43116396789E+03  0.00000000000E+00 0. -1.
         21   -1    0    0  504  502  0.00000000000E+00 -0.00000000000E+00 -0.30582908156E+03  0.30582908156E+03  0.00000000000E+00 0. -1.
         21    1    1    2  503  505  0.30227522756E+02  0.29784016755E+02  0.37214599580E+01  0.42598592116E+02  0.00000000000E+00 0. -1.
         21    1    1    2  504  501 -0.63769627638E+02 -0.94473011785E+02 -0.13048978233E+03  0.17326078223E+03  0.00000000000E+00 0. -1.
         21    1    1    2  505  502  0.63932316266E+02  0.67478162876E+02 -0.11775253173E+03  0.15002100605E+03  0.00000000000E+00 0. -1.
          2    1    1    2  501    0 -0.30390211384E+02 -0.27891678456E+01  0.36985574043E+03  0.37111266906E+03  0.00000000000E+00 0. -1.
<scales pt_clust_3="34.23187" pt_clust_4="14000.00000" pt_clust_5="101.65172" pt_clust_6="30.51794"></scales>
<clustering>
<clus scale="   30.518">  1  6  2 -1</clus>
<clus scale="   34.232">  1  3  2 -1</clus>
<clus scale="  101.652">  2  5  1 -1</clus>
<clus scale="  101.652">  2  3  1 -1</clus>
</clustering>
</event>
<event>
 6    0  0.4796958E+002  0.2501371E+03  0.7546771E-02  0.1113218E+00
         21   -1    0    0  505  502  0.00000000000E+00  0.00000000000E+00  0.21313742331E+03  0.21313742331E+03  0.00000000000E+00 0.  1.
          1   -1    0    0  503    0 -0.00000000000E+00 -0.00000000000E+00 -0.10553493107E+04  0.10553493107E+04  0.00000000000E+00 0.  1.
         21    1    1    2  503  504  0.12607922646E+03 -0.26566744157E+03 -0.11623044809E+03  0.31620353875E+03  0.00000000000E+00 0.  1.
         21    1    1    2  504  502  0.13808434302E+02 -0.42529941548E+02  0.43505015658E+02  0.62387139487E+02  0.00000000000E+00 0. -1.
         21    1    1    2  505  501 -0.42891083585E+02  0.86652694827E+02 -0.15310929378E+02  0.97891568229E+02  0.00000000000E+00 0.  1.
          1    1    1    2  501    0 -0.96996577181E+02  0.22154468829E+03 -0.75417552554E+03  0.79200448749E+03  0.00000000000E+00 0.  1.
<scales pt_clust_3="14000.00000" pt_clust_4="44.71542" pt_clust_5="85.29961" pt_clust_6="250.13708"></scales>
<clustering>
<clus scale="   44.715">  1  4  2 -1</clus>
<clus scale="   85.300">  1  5  2 -1</clus>
<clus scale="  250.137">  2  6  1 -1</clus>
<clus scale="   44.715">  1  3  2 -1</clus>
</clustering>
</event>
<event>
 6    0  0.4796958E+002  0.8965419E+02  0.7546771E-02  0.1303691E+00
          2   -1    0    0  504    0 -0.00000000000E+00  0.00000000000E+00  0.19243291367E+04  0.19243291367E+04  0.00000000000E+00 0.  1.
         21   -1    0    0  503  502  0.00000000000E+00 -0.00000000000E+00 -0.33449320722E+02  0.33449320722E+02  0.00000000000E+00 0.  1.
         21    1    1    2  503  505 -0.31505196220E+02 -0.41425744690E+02  0.41682257190E+02  0.66678934278E+02  0.00000000000E+00 0.  1.
         21    1    1    2  504  502  0.11890102559E+03  0.11963866954E+02  0.17326039192E+03  0.21047506125E+03  0.00000000000E+00 0.  1.
         21    1    1    2  505  501 -0.59978082407E+02  0.46445164627E+02  0.68953918028E+03  0.69369936199E+03  0.00000000000E+00 0.  1.
          2    1    1    2  501    0 -0.27417746958E+02 -0.16983286891E+02  0.98639798660E+03  0.98692509992E+03  0.00000000000E+00 0.  1.
<scales pt_clust_3="53.78915" pt_clust_4="89.65419" pt_clust_5="14000.00000" pt_clust_6="32.25159"></scales>
<clustering>
<clus scale="   32.252">  1  6  2 -1</clus>
<clus scale="   53.789">  2  3  1 -1</clus>
<clus scale="   89.654">  2  4  1 -1</clus>
<clus scale="   53.789">  2  3  1 -1</clus>
</clustering>
</event>
<event>
 6    0  0.4796958E+002  0.9467020E+02  0.7546771E-02  0.1291921E+00
         21   -1    0    0  504  502  0.00000000000E+00  0.00000000000E+00  0.12300273539E+04  0.12300273539E+04  0.00000000000E+00 0. -1.
          3   -1    0    0  503    0 -0.00000000000E+00 -0.00000000000E+00 -0.35979740789E+03  0.35979740789E+03  0.00000000000E+00 0.  1.
         21    1    1    2  503  505 -0.58240411537E+02  0.20296874364E+02  0.97614795043E+02  0.11546669154E+03  0.00000000000E+00 0. -1.
         21    1    1    2  504  501  0.10086517424E+03 -0.15483766142E+03  0.13981987681E+03  0.23172846765E+03  0.00000000000E+00 0.  1.
         21    1    1    2  505  502 -0.25629437597E+02  0.87001888513E+02  0.93340943683E+03  0.93780561602E+03  0.00000000000E+00 0. -1.
          3    1    1    2  501    0 -0.16995325106E+02  0.47538898547E+02 -0.30061416271E+03  0.30482398654E+03  0.00000000000E+00 0.  1.
<scales pt_clust_3="66.91484" pt_clust_4="14000.00000" pt_clust_5="94.67020" pt_clust_6="50.48552"></scales>
<clustering>
<clus scale="   50.486">  2  6  1 -1</clus>
<clus scale="   66.915">  2  3  1 -1</clus>
<clus scale="   94.670">  1  5  2 -1</clus>
<clus scale="   94.670">  1  3  2 -1</clus>
</clustering>
</event>
<event>
 6    0  0.4796958E+002  0.1297767E+03  0.7546771E-02  0.1227788E+00
          2   -1    0    0  504    0 -0.00000000000E+00  0.00000000000E+00  0.28353550947E+04  0.28353550947E+04  0.00000000000E+00 0. -1.
         21   -1    0    0  503  502  0.00000000000E+00 -0.00000000000E+00 -0.11871820683E+03  0.11871820683E+03  0.00000000000E+00 0. -1.
         21    1    1    2  503  505 -0.13158868149E+03  0.24461008344E+02 -0.73946241183E+02  0.15291163661E+03  0.00000000000E+00 0. -1.
         21    1    1    2  504  502  0.45792090405E+02  0.31750768482E+02  0.31492513000E+03  0.31981692317E+03  0.00000000000E+00 0.  1.
         21    1    1    2  505  501  0.55463876411E+02 -0.60351920813E+02  0.61538489184E+03  0.62081974923E+03  0.00000000000E+00 0. -1.
          2    1    1    2  501    0  0.30332714670E+02  0.41401439866E+01  0.18602731073E+04  0.18605249926E+04  0.00000000000E+00 0. -1.
<scales pt_clust_3="129.77666" pt_clust_4="64.76283" pt_clust_5="14000.00000" pt_clust_6="30.61396"></scales>
<clustering>
<clus scale="   30.614">  1  6  2 -1</clus>
<clus scale="   64.763">  1  4  2 -1</clus>
<clus scale="  129.777">  2  3  1 -1</clus>
<clus scale="  129.777">  2  3  1 -1</clus>
</clustering>
</event>
<event>
 6    0  0.4796958E+002  0.7867169E+02  0.7546771E-02  0.1332864E+00
         21   -1    0    0  503  502  0.00000000000E+00  0.00000000000E+00  0.50586502453E+03  0.50586502453E+03  0.00000000000E+00 0. -1.
         -3   -1    0    0    0  501 -0.00000000000E+00 -0.00000000000E+00 -0.10013739817E+04  0.10013739817E+04  0.00000000000E+00 0.  1.
         21    1    1    2  503  505 -0.58490879852E+02 -0.49868075652E+02  0.45147833202E+03  0.45797455418E+03  0.00000000000E+00 0. -1.
         21    1    1    2  504  501 -0.37140435572E+02  0.30084658815E+02 -0.17852051702E+03  0.18480820774E+03  0.00000000000E+00 0. -1.
         21    1    1    2  505  504  0.12744837428E+03  0.65143964134E+02 -0.62272786604E+02  0.15609203734E+03  0.00000000000E+00 0. -1.
         -3    1    1    2    0  502 -0.31817058853E+02 -0.45360547298E+02 -0.70619398558E+03  0.70836420700E+03  0.00000000000E+00 0.  1.
<scales pt_clust_3="14000.00000" pt_clust_4="47.79643" pt_clust_5="78.67169" pt_clust_6="66.74560"></scales>
<clustering>
<clus scale="   47.796">  2  4  1 -1</clus>
<clus scale="   66.746">  2  6  1 -1</clus>
<clus scale="   78.672">  2  5  1 -1</clus>
<clus scale="   78.672">  1  3  2 -1</clus>
</clustering>
</event>
<event>
 6    0  0.4796958E+002  0.1500353E+03  0.7546771E-02  0.1200430E+00
         21   -1    0    0  505  502  0.00000000000E+00  0.00000000000E+00  0.25825033781E+02  0.25825033781E+02  0.00000000000E+00 0.  1.
          2   -1    0    0  504    0 -0.00000000000E+00 -0.00000000000E+00 -0.14964605715E+04  0.14964605715E+04  0.00000000000E+00 0.  1.
         21    1    1    2  503  502  0.80541852738E+01  0.60241764854E+02 -0.76038755333E+02  0.97343887562E+02  0.00000000000E+00 0.  1.
         21    1    1    2  504  503 -0.12814171927E+03  0.27034813832E+02 -0.60458863733E+03  0.61861021796E+03  0.00000000000E+00 0.  1.
         21    1    1    2  505  501  0.52545179854E+02 -0.18197691214E+02 -0.43018068280E+03  0.43375980882E+03  0.00000000000E+00 0. -1.
          2    1    1    2  501    0  0.67542354142E+02 -0.69078887472E+02 -0.35982746231E+03  0.37257169099E+03  0.00000000000E+00 0.  1.
<scales pt_clust_3="60.77779" pt_clust_4="135.98227" pt_clust_5="48.09839" pt_clust_6="48.09839"></scales>
<clustering>
<clus scale="   48.098">  5  6 -1 -1</clus>
<clus scale="   60.778">  1  3  2 -1</clus>
<clus scale="  135.982">  2  4  1 -1</clus>
<clus scale="   60.778">  1  3  2 -1</clus>
</clustering>
</event>
<event>
 6    0  0.4796958E+002  0.8596354E+02  0.7546771E-02  0.1312932E+00
          2   -1    0    0  503    0 -0.00000000000E+00  0.00000000000E+00  0.14023973423E+04  0.14023973423E+04  0.00000000000E+00 0. -1.
         21   -1    0    0  504  502  0.00000000000E+00 -0.00000000000E+00 -0.36047437860E+03  0.36047437860E+03  0.00000000000E+00 0. -1.
         21    1    1    2  503  502  0.25427740535E+02  0.32287888094E+02 -0.33984471917E+03  0.34232077187E+03  0.00000000000E+00 0. -1.
         21    1    1    2  504  505  0.62064171894E+02 -0.39721561584E+02  0.99976733741E+02  0.12419787107E+03  0.00000000000E+00 0. -1.
         21    1    1    2  505  501 -0.95577134580E+02  0.56165942072E+02  0.46352269645E+03  0.47659510261E+03  0.00000000000E+00 0. -1.
          2    1    1    2  501    0  0.80852221510E+01 -0.48732268583E+02  0.81826825265E+03  0.81975797533E+03  0.00000000000E+00 0. -1.
<scales pt_clust_3="41.09839" pt_clust_4="85.96354" pt_clust_5="14000.00000" pt_clust_6="48.34887"></scales>
<clustering>
<clus scale="   41.098">  2  3  1 -1</clus>
<clus scale="   48.349">  1  6  2 -1</clus>
<clus scale="   85.964">  2  4  1 -1</clus>
<clus scale="   41.098">  2  3  1 -1</clus>
</clustering>
</event>
<event>
 6    0  0.5191364E+002  0.1228054E+03  0.7546771E-02  0.1238539E+00
         21   -1    0    0  504  502  0.00000000000E+00  0.00000000000E+00  0.68140184150E+03  0.68140184150E+03  0.00000000000E+00 0. -1.
          2   -1    0    0  503    0 -0.00000000000E+00 -0.00000000000E+00 -0.13246934763E+04  0.13246934763E+04  0.00000000000E+00 0.  1.
         21    1    1    2  503  505  0.52182599373E+02 -0.33814755166E+02 -0.21562587976E+03  0.22441252498E+03  0.00000000000E+00 0.  1.
         21    1    1    2  504  501 -0.93389637274E+02  0.13528170056E+02  0.52325938552E+03  0.53170012250E+03  0.00000000000E+00 0. -1.
         21    1    1    2  505  502 -0.18624234902E+02  0.39090763143E+02  0.14547895086E+03  0.15178628078E+03  0.00000000000E+00 0. -1.
          2    1    1    2  501    0  0.59831272803E+02 -0.18804178033E+02 -0.10964040914E+04  0.10981963895E+04  0.00000000000E+00 0.  1.
<scales pt_clust_3="61.87698" pt_clust_4="122.80544" pt_clust_5="43.30069" pt_clust_6="14000.00000"></scales>
<clustering>
<clus scale="   43.301">  1  5  2 -1</clus>
<clus scale="   61.877">  2  3  1 -1</clus>
<clus scale="  122.805">  1  4  2 -1</clus>
<clus scale="   43.301">  1  3  2 -1</clus>
</clustering>
</event>
<event>
 6    0  0.4796958E+002  0.9312130E+02  0.7546771E-02  0.1295464E+00
         -3   -1    0    0    0  501 -0.00000000000E+00  0.00000000000E+00  0.10848823657E+04  0.10848823657E+04  0.00000000000E+00 0.  1.
         21   -1    0    0  505  502  0.00000000000E+00 -0.00000000000E+00 -0.46853585567E+03  0.46853585567E+03  0.00000000000E+00 0.  1.
         21    1    1    2  503  504  0.12405032327E+03 -0.23153753587E+00 -0.18297368941E+03  0.22106086793E+03  0.00000000000E+00 0.  1.
         21    1    1    2  504  502 -0.73925742177E+02 -0.99100023520E+01 -0.21246335884E+03  0.22517527030E+03  0.00000000000E+00 0.  1.
         21    1    1    2  505  501 -0.86724517048E+01  0.30062255585E+02 -0.42012345883E+02  0.52383087309E+02  0.00000000000E+00 0.  1.
         -3    1    1    2    0  503 -0.41452129390E+02 -0.19920715697E+02  0.10537959042E+04  0.10547989958E+04  0.00000000000E+00 0.  1.
<scales pt_clust_3="14000.00000" pt_clust_4="93.12130" pt_clust_5="31.28819" pt_clust_6="45.98419"></scales>
<clustering>
<clus scale="   31.288">  2  5  1 -1</clus>
<clus scale="   45.984">  1  6  2 -1</clus>
<clus scale="   93.121">  2  4  1 -1</clus>
<clus scale="   31.288">  2  3  1 -1</clus>
</clustering>
</event>
<event>
 6    0  0.4796958E+002  0.9123676E+02  0.7546771E-02  0.1299884E+00
         21   -1    0    0  504  502  0.00000000000E+00  0.00000000000E+00  0.42096952812E+03  0.42096952812E+03  0.00000000000E+00 0.  1.
          2   -1    0    0  503    0 -0.00000000000E+00 -0.00000000000E+00 -0.51824455693E+03  0.51824455693E+03  0.00000000000E+00 0. -1.
         21    1    1    2  503  502 -0.23656249819E+02  0.25396576513E+02 -0.13747862611E+02  0.37331059192E+02  0.00000000000E+00 0.  1.
         21    1    1    2  504  505  0.66811566300E+01  0.37158566074E+02  0.37990263996E+03  0.38177403360E+03  0.00000000000E+00 0.  1.
         21    1    1    2  505  501 -0.16586637172E+02 -0.12056755701E+03 -0.12259053877E+03  0.17274285089E+03  0.00000000000E+00 0.  1.
          2    1    1    2  501    0  0.33561730360E+02  0.58012414424E+02 -0.34083926739E+03  0.34736614136E+03  0.00000000000E+00 0. -1.
<scales pt_clust_3="34.70741" pt_clust_4="37.79398" pt_clust_5="14000.00000" pt_clust_6="91.23676"></scales>
<clustering>
<clus scale="   34.707">  2  3  1 -1</clus>
<clus scale="   37.794">  1  4  2 -1</clus>
<clus scale="   91.237">  2  6  1 -1</clus>
<clus scale="   37.794">  1  3  2 -1</clus>
</clustering>
</event>
<event>
 6    0  0.4796958E+002  0.1343849E+03  0.7546771E-02  0.1221091E+00
         21   -1    0    0  504  502  0.00000000000E+00  0.00000000000E+00  0.12590388869E+04  0.12590388869E+04  0.00000000000E+00 0. -1.
          2   -1    0    0  505    0 -0.00000000000E+00 -0.00000000000E+00 -0.26424262881E+04  0.26424262881E+04  0.00000000000E+00 0. -1.
         21    1    1    2  503  501 -0.89560573549E+02 -0.29479403977E+01 -0.16045963875E+03  0.18378542476E+03  0.00000000000E+00 0. -1.
         21    1    1    2  504  503 -0.55493150181E+02 -0.10307654675E+03  0.41474553783E+03  0.43095025857E+03  0.00000000000E+00 0. -1.
         21    1    1    2  505  502  0.10600405923E+03  0.10847016240E+03  0.81739641396E+03  0.83134802235E+03  0.00000000000E+00 0. -1.
          2    1    1    2  501    0  0.39049664501E+02 -0.24456752507E+01 -0.24550697143E+04  0.24553814693E+04  0.00000000000E+00 0. -1.
<scales pt_clust_3="53.90724" pt_clust_4="134.38490" pt_clust_5="14000.00000" pt_clust_6="39.12618"></scales>
<clustering>
<clus scale="   39.126">  2  6  1 -1</clus>
<clus scale="   53.907">  2  3  1 -1</clus>
<clus scale="  134.385">  2  4  1 -1</clus>
<clus scale="  134.385">  1  3  2 -1</clus>
</clustering>
</event>
<event>
 6    0  0.4796958E+002  0.9921194E+02  0.7546771E-02  0.1281962E+00
          1   -1    0    0  503    0 -0.00000000000E+00  0.00000000000E+00  0.17477858074E+04  0.17477858074E+04  0.00000000000E+00 0.  1.
         21   -1    0    0  504  502  0.00000000000E+00 -0.00000000000E+00 -0.40770431618E+02  0.40770431618E+02  0.00000000000E+00 0.  1.
         21    1    1    2  503  505  0.10762101767E+03  0.79380719087E+02  0.60686416580E+03  0.62142392756E+03  0.00000000000E+00 0.  1.
         21    1    1    2  504  501  0.44157279753E+00 -0.39802364424E+02  0.88293439624E+02  0.96851198655E+02  0.00000000000E+00 0.  1.
         21    1    1    2  505  502 -0.84156276039E+02 -0.50282848950E+01  0.33020149141E+02  0.90542214989E+02  0.00000000000E+00 0.  1.
          1    1    1    2  501    0 -0.23906314426E+02 -0.34550069768E+02  0.97883762123E+03  0.97973889784E+03  0.00000000000E+00 0.  1.
<scales pt_clust_3="99.21194" pt_clust_4="39.80481" pt_clust_5="14000.00000" pt_clust_6="42.41656"></scales>
<clustering>
<clus scale="   39.805">  2  4  1 -1</clus>
<clus scale="   42.417">  1  6  2 -1</clus>
<clus scale="   99.212">  1  3  2 -1</clus>
<clus scale="   39.805">  2  3  1 -1</clus>
</clustering>
</event>
<event>
 6    0  0.4796958E+002  0.1527597E+03  0.7546771E-02  0.1197122E+00
         21   -1    0    0  503  502  0.00000000000E+00  0.00000000000E+00  0.43059794904E+03  0.43059794904E+03  0.00000000000E+00 0.  1.
          2   -1    0    0  504    0 -0.00000000000E+00 -0.00000000000E+00 -0.13583601454E+04  0.13583601454E+04  0.00000000000E+00 0. -1.
         21    1    1    2  503  501 -0.36974286691E+02  0.25409146654E+02  0.89467365427E+01  0.45746767151E+02  0.00000000000E+00 0.  1.
         21    1    1    2  504  505  0.17749594666E+02 -0.15457211339E+03 -0.81689872830E+03  0.83158350070E+03  0.00000000000E+00 0. -1.
         21    1    1    2  505  502  0.90073544870E+02  0.11872624065E+03  0.37923747026E+03  0.40746806323E+03  0.00000000000E+00 0.  1.
          2    1    1    2  501    0 -0.70848852845E+02  0.10436726087E+02 -0.49904767487E+03  0.50415976336E+03  0.00000000000E+00 0. -1.
<scales pt_clust_3="44.86338" pt_clust_4="152.75969" pt_clust_5="14000.00000" pt_clust_6="71.86889"></scales>
<clustering>
<clus scale="   44.863">  1  3  2 -1</clus>
<clus scale="   71.869">  2  6  1 -1</clus>
<clus scale="  152.760">  2  4  1 -1</clus>
<clus scale="   44.863">  1  3  2 -1</clus>
</clustering>
</event>
<event>
 6    0  0.4796958E+002  0.9157162E+02  0.7546771E-02  0.1299090E+00
         21   -1    0    0  505  502  0.00000000000E+00  0.00000000000E+00  0.17368350777E+04  0.17368350777E+04  0.00000000000E+00 0.  1.
          2   -1    0    0  503    0 -0.00000000000E+00 -0.00000000000E+00 -0.15143313314E+03  0.15143313314E+03  0.00000000000E+00 0.  1.
         21    1    1    2  503  502  0.23196517719E+02 -0.41514802367E+02  0.35484176738E+03  0.35801429737E+03  0.00000000000E+00 0.  1.
         21    1    1    2  504  501  0.88047133554E+02  0.12710890003E+03  0.35466239791E+03  0.38690358836E+03  0.00000000000E+00 0.  1.
         21    1    1    2  505  504 -0.83855080417E+02 -0.14018495062E+02  0.99668375046E+03  0.10003032996E+04  0.00000000000E+00 0.  1.
          2    1    1    2  501    0 -0.27388570856E+02 -0.71575602602E+02 -0.12078597114E+03  0.14304702558E+03  0.00000000000E+00 0.  1.
<scales pt_clust_3="47.55583" pt_clust_4="91.57162" pt_clust_5="14000.00000" pt_clust_6="76.88317"></scales>
<clustering>
<clus scale="   47.556">  1  3  2 -1</clus>
<clus scale="   76.883">  2  6  1 -1</clus>
<clus scale="   91.572">  2  4  1 -1</clus>
<clus scale="   47.556">  1  3  2 -1</clus>
</clustering>
</event>
<event>
 6    0  0.4796958E+002  0.8601252E+02  0.7546771E-02  0.1312806E+00
         21   -1    0    0  504  502  0.00000000000E+00  0.00000000000E+00  0.28034485597E+02  0.28034485597E+02  0.00000000000E+00 0. -1.
          2   -1    0    0  505    0 -0.00000000000E+00 -0.00000000000E+00 -0.32994950216E+04  0.32994950216E+04  0.00000000000E+00 0. -1.
         21    1    1    2  503  502 -0.16303931547E+02  0.61473369560E+02 -0.11531949964E+03  0.13169426847E+03  0.00000000000E+00 0.  1.
         21    1    1    2  504  501  0.84602810450E+02 -0.99153619351E+00 -0.81515436117E+02  0.11748780790E+03  0.00000000000E+00 0. -1.
         21    1    1    2  505  503 -0.46872831267E+02  0.85299333129E+01 -0.41264637838E+03  0.41538759691E+03  0.00000000000E+00 0. -1.
          2    1    1    2  501    0 -0.21426047636E+02 -0.69011766680E+02 -0.26619792219E+04  0.26629598340E+04  0.00000000000E+00 0. -1.
<scales pt_clust_3="64.49234" pt_clust_4="14000.00000" pt_clust_5="47.64265" pt_clust_6="86.01252"></scales>
<clustering>
<clus scale="   47.643">  2  5  1 -1</clus>
<clus scale="   64.492">  1  3  2 -1</clus>
<clus scale="   86.013">  2  6  1 -1</clus>
<clus scale="   64.492">  1  3  2 -1</clus>
</clustering>
</event>
<event>
 6    0  0.4796958E+002  0.1656256E+03  0.7546771E-02  0.1182488E+00
         21   -1    0    0  503  502  0.00000000000E+00  0.00000000000E+00  0.80428847576E+02  0.80428847576E+02  0.00000000000E+00 0. -1.
          1   -1    0    0  504    0 -0.00000000000E+00 -0.00000000000E+00 -0.87762010818E+03  0.87762010818E+03  0.00000000000E+00 0. -1.
         21    1    1    2  503  505 -0.55433759295E+02 -0.35845982401E+02 -0.38643474638E+01  0.66126918159E+02  0.00000000000E+00 0. -1.
         21    1    1    2  504  502  0.11847761201E+03  0.16273538996E+03 -0.22033888683E+03  0.29844426069E+03  0.00000000000E+00 0. -1.
         21    1    1    2  505  501 -0.32204291226E+02 -0.83500835077E+02 -0.23768835266E+03  0.25397885507E+03  0.00000000000E+00 0. -1.
          1    1    1    2  501    0 -0.30839561489E+02 -0.43388572481E+02 -0.33529967366E+03  0.33949892184E+03  0.00000000000E+00 0. -1.
<scales pt_clust_3="66.01391" pt_clust_4="153.64471" pt_clust_5="47.69896" pt_clust_6="47.69896"></scales>
<clustering>
<clus scale="   47.699">  5  6 -1 -1</clus>
<clus scale="   66.014">  1  3  2 -1</clus>
<clus scale="  153.645">  1  4  2 -1</clus>
<clus scale="   66.014">  1  3  2 -1</clus>
</clustering>
</event>
<event>
 6    0  0.4796958E+002  0.9758780E+02  0.7546771E-02  0.1285452E+00
          2   -1    0    0  504    0 -0.00000000000E+00  0.00000000000E+00  0.55787743161E+03  0.55787743161E+03  0.00000000000E+00 0. -1.
         21   -1    0    0  505  502  0.00000000000E+00 -0.00000000000E+00 -0.21159898166E+03  0.21159898166E+03  0.00000000000E+00 0. -1.
         21    1    1    2  503  502 -0.60762927041E+02 -0.13806994320E+02 -0.16302816962E+03  0.17453065772E+03  0.00000000000E+00 0. -1.
         21    1    1    2  504  503  0.10506575343E+03  0.63044310334E+02  0.21227600163E+03  0.24510099648E+03  0.00000000000E+00 0. -1.
         21    1    1    2  505  501 -0.38430211677E+02  0.35027321320E+01 -0.86874613045E+01  0.39555306671E+02  0.00000000000E+00 0.  1.
          2    1    1    2  501    0 -0.58726147129E+01 -0.52740048145E+02  0.30571807925E+03  0.31028945239E+03  0.00000000000E+00 0. -1.
<scales pt_clust_3="14000.00000" pt_clust_4="97.58780" pt_clust_5="38.58951" pt_clust_6="53.07749"></scales>
<clustering>
<clus scale="   38.590">  2  5  1 -1</clus>
<clus scale="   53.077">  1  6  2 -1</clus>
<clus scale="   97.588">  1  4  2 -1</clus>
<clus scale="   38.590">  2  3  1 -1</clus>
</clustering>
</event>
<event>
 6    0  0.4796958E+002  0.7310232E+02  0.7546771E-02  0.1349850E+00
          1   -1    0    0  505    0 -0.00000000000E+00  0.00000000000E+00  0.80387444413E+03  0.80387444413E+03  0.00000000000E+00 0.  1.
         21   -1    0    0  503  502  0.00000000000E+00 -0.00000000000E+00 -0.77542379511E+03  0.77542379511E+03  0.00000000000E+00 0.  1.
         21    1    1    2  503  504 -0.71158410083E+01 -0.31170551363E+02 -0.37968736278E+03  0.38103114298E+03  0.00000000000E+00 0.  1.
         21    1    1    2  504  501 -0.40106332735E+01 -0.94667525158E+02 -0.30815260728E+03  0.32239115198E+03  0.00000000000E+00 0.  1.
         21    1    1    2  505  502  0.47075882046E+02  0.62232504319E+02 -0.58576689883E+02  0.97571777999E+02  0.00000000000E+00 0.  1.
          1    1    1    2  501    0 -0.35949407764E+02  0.63605572203E+02  0.77486730897E+03  0.77830416628E+03  0.00000000000E+00 0.  1.
<scales pt_clust_3="31.97246" pt_clust_4="14000.00000" pt_clust_5="72.31759" pt_clust_6="73.10232"></scales>
<clustering>
<clus scale="   31.972">  2  3  1 -1</clus>
<clus scale="   72.318">  2  5  1 -1</clus>
<clus scale="   73.102">  1  6  2 -1</clus>
<clus scale="   31.972">  2  3  1 -1</clus>
</clustering>
</event>
<event>
 6    0  0.4796958E+002  0.8355026E+02  0.7546771E-02  0.1319268E+00
          2   -1    0    0  503    0 -0.00000000000E+00  0.00000000000E+00  0.12456453991E+04  0.12456453991E+04  0.00000000000E+00 0.  1.
         21   -1    0    0  504  502  0.00000000000E+00 -0.00000000000E+00 -0.15321224186E+03  0.15321224186E+03  0.00000000000E+00 0. -1.
         21    1    1    2  503  502  0.46967997202E+02 -0.12232135591E+03  0.84136530646E+02  0.15571596791E+03  0.00000000000E+00 0. -1.
         21    1    1    2  504  505 -0.11317251637E+02  0.37453293718E+02 -0.84520103579E+02  0.93136874030E+02  0.00000000000E+00 0. -1.
         21    1    1    2  505  501 -0.38484448044E+02  0.38700344485E+02 -0.16092346826E+01  0.54601822687E+02  0.00000000000E+00 0. -1.
          2    1    1    2  501    0  0.28337024791E+01  0.46167717704E+02  0.10944259649E+04  0.10954029764E+04  0.00000000000E+00 0.  1.
<scales pt_clust_3="14000.00000" pt_clust_4="39.12581" pt_clust_5="83.55026" pt_clust_6="46.53309"></scales>
<clustering>
<clus scale="   39.126">  2  4  1 -1</clus>
<clus scale="   46.533">  1  6  2 -1</clus>
<clus scale="   83.550">  2  5  1 -1</clus>
<clus scale="   39.126">  2  3  1 -1</clus>
</clustering>
</event>
<event>
 6    0  0.4796958E+002  0.1485456E+03  0.7546771E-02  0.1202272E+00
          1   -1    0    0  504    0 -0.00000000000E+00  0.00000000000E+00  0.84396744919E+03  0.84396744919E+03  0.00000000000E+00 0.  1.
         21   -1    0    0  503  502  0.00000000000E+00 -0.00000000000E+00 -0.17089150148E+03  0.17089150148E+03  0.00000000000E+00 0. -1.
         21    1    1    2  503  501 -0.78286411738E+02 -0.14991375418E+03  0.10996973043E+03  0.20173308495E+03  0.00000000000E+00 0.  1.
         21    1    1    2  504  505 -0.14433376640E+02  0.80428977005E+02  0.40559715374E+03  0.41374653331E+03  0.00000000000E+00 0.  1.
         21    1    1    2  505  502  0.12207140603E+03  0.82069236088E+02 -0.74706317781E+02  0.16497824583E+03  0.00000000000E+00 0. -1.
          1    1    1    2  501    0 -0.29351617649E+02 -0.12584458918E+02  0.23221538133E+03  0.23440108658E+03  0.00000000000E+00 0.  1.
<scales pt_clust_3="148.54558" pt_clust_4="79.66510" pt_clust_5="14000.00000" pt_clust_6="31.93566"></scales>
<clustering>
<clus scale="   31.936">  1  6  2 -1</clus>
<clus scale="   79.665">  1  4  2 -1</clus>
<clus scale="  148.546">  1  3  2 -1</clus>
<clus scale="  148.546">  2  3  1 -1</clus>
</clustering>
</event>
<event>
 6    0  0.4796958E+002  0.1362788E+03  0.7546771E-02  0.1218426E+00
         21   -1    0    0  504  502  0.00000000000E+00  0.00000000000E+00  0.46190764552E+02  0.46190764552E+02  0.00000000000E+00 0.  1.
          1   -1    0    0  502    0 -0.00000000000E+00 -0.00000000000E+00 -0.13018179476E+04  0.13018179476E+04  0.00000000000E+00 0.  1.
         21    1    1    2  503  501 -0.92980014912E+01  0.97746278718E+02 -0.76681452446E+03  0.77307522451E+03  0.00000000000E+00 0.  1.
         21    1    1    2  504  505  0.27890468619E+02 -0.60884064564E+02 -0.76095854661E+02  0.10136728592E+03  0.00000000000E+00 0.  1.
         21    1    1    2  505  503 -0.54146482247E+02 -0.62834876351E+02 -0.29816146448E+02  0.88142304342E+02  0.00000000000E+00 0.  1.
          1    1    1    2  501    0  0.35554015119E+02  0.25972662197E+02 -0.38290065746E+03  0.38542389736E+03  0.00000000000E+00 0.  1.
<scales pt_clust_3="43.80687" pt_clust_4="66.96826" pt_clust_5="119.55102" pt_clust_6="43.80687"></scales>
<clustering>
<clus scale="   43.807">  3  6 -1 -1</clus>
<clus scale="   66.968">  1  4  2 -1</clus>
<clus scale="  119.551">  1  5  2 -1</clus>
<clus scale="   66.968">  1  3  2 -1</clus>
</clustering>
</event>
<event>
 6    0  0.4796958E+002  0.2599114E+03  0.7546771E-02  0.1107196E+00
          1   -1    0    0  503    0 -0.00000000000E+00  0.00000000000E+00  0.11337174680E+04  0.11337174680E+04  0.00000000000E+00 0. -1.
         21   -1    0    0  504  502  0.00000000000E+00 -0.00000000000E+00 -0.55345367195E+03  0.55345367195E+03  0.00000000000E+00 0.  1.
         21    1    1    2  503  505  0.35974711762E+02  0.27309596885E+03  0.39955238558E+03  0.48530165559E+03  0.00000000000E+00 0.  1.
         21    1    1    2  504  501 -0.42525740101E+02 -0.27621413744E+03  0.24596081764E+03  0.37228941982E+03  0.00000000000E+00 0. -1.
         21    1    1    2  505  502 -0.43626518045E+02  0.76485628987E+02 -0.43780295785E+03  0.44656998827E+03  0.00000000000E+00 0.  1.
          1    1    1    2  501    0  0.50177546385E+02 -0.73367460396E+02  0.37255355064E+03  0.38301007624E+03  0.00000000000E+00 0. -1.
<scales pt_clust_3="259.91142" pt_clust_4="14000.00000" pt_clust_5="88.05296" pt_clust_6="84.76209"></scales>
<clustering>
<clus scale="   88.053">  2  5  1 -1</clus>
<clus scale="   84.762">  1  6  2 -1</clus>
<clus scale="  259.911">  1  3  2 -1</clus>
<clus scale="   88.053">  2  3  1 -1</clus>
</clustering>
</event>
<event>
 6    0  0.4796958E+002  0.1677966E+03  0.7546771E-02  0.1180165E+00
         -1   -1    0    0    0  501 -0.00000000000E+00  0.00000000000E+00  0.88139401631E+03  0.88139401631E+03  0.00000000000E+00 0.  1.
         21   -1    0    0  505  502  0.00000000000E+00 -0.00000000000E+00 -0.24684287707E+03  0.24684287707E+03  0.00000000000E+00 0.  1.
         21    1    1    2  503  502 -0.38546384555E+02  0.16593243133E+03  0.53324377826E+02  0.17850177814E+03  0.00000000000E+00 0.  1.
         21    1    1    2  504  501 -0.81442536027E+02 -0.16559260608E+03  0.12295549186E+03  0.22174726794E+03  0.00000000000E+00 0.  1.
         21    1    1    2  505  504  0.76307779959E+02  0.32778373604E+01 -0.12315250485E+03  0.14491432279E+03  0.00000000000E+00 0.  1.
         -1    1    1    2    0  503  0.43681140623E+02 -0.36176626123E+01  0.58142377441E+03  0.58307352450E+03  0.00000000000E+00 0.  1.
<scales pt_clust_3="14000.00000" pt_clust_4="167.79658" pt_clust_5="77.96012" pt_clust_6="43.83069"></scales>
<clustering>
<clus scale="   43.831">  1  6  2 -1</clus>
<clus scale="   77.960">  2  5  1 -1</clus>
<clus scale="  167.797">  1  4  2 -1</clus>
<clus scale="   77.960">  2  3  1 -1</clus>
</clustering>
</event>
<event>
 6    0  0.4796958E+002  0.1427090E+03  0.7546771E-02  0.1209730E+00
         21   -1    0    0  505  502  0.00000000000E+00  0.00000000000E+00  0.48078653794E+03  0.48078653794E+03  0.00000000000E+00 0.  1.
          1   -1    0    0  503    0 -0.00000000000E+00 -0.00000000000E+00 -0.91876236559E+03  0.91876236559E+03  0.00000000000E+00 0.  1.
         21    1    1    2  503  502  0.10716306554E+02 -0.40003538773E+02  0.69071728022E+01  0.41986085512E+02  0.00000000000E+00 0. -1.
         21    1    1    2  504  501  0.18587421217E+03  0.14303001483E+02  0.82471443007E+02  0.20385126322E+03  0.00000000000E+00 0.  1.
         21    1    1    2  505  504 -0.56992325706E+02  0.44879467725E+02  0.30296082422E+03  0.31152456215E+03  0.00000000000E+00 0.  1.
          1    1    1    2  501    0 -0.13959819302E+03 -0.19178930435E+02 -0.83031526767E+03  0.84218699265E+03  0.00000000000E+00 0.  1.
<scales pt_clust_3="41.41404" pt_clust_4="142.70896" pt_clust_5="52.91351" pt_clust_6="14000.00000"></scales>
<clustering>
<clus scale="   41.414">  1  3  2 -1</clus>
<clus scale="   52.914">  1  5  2 -1</clus>
<clus scale="  142.709">  1  4  2 -1</clus>
<clus scale="   41.414">  1  3  2 -1</clus>
</clustering>
</event>
<event>
 6    0  0.4796958E+002  0.1057115E+03  0.7546771E-02  0.1268724E+00
         21   -1    0    0  505  502  0.00000000000E+00  0.00000000000E+00  0.30406725907E+03  0.30406725907E+03  0.00000000000E+00 0.  1.
         -1   -1    0    0    0  501 -0.00000000000E+00 -0.00000000000E+00 -0.39678341300E+03  0.39678341300E+03  0.00000000000E+00 0.  1.
         21    1    1    2  503  502 -0.47001120880E+02 -0.60828941821E+02  0.50638468954E+02  0.92051724943E+02  0.00000000000E+00 0.  1.
         21    1    1    2  504  501  0.59878067069E+02  0.11428213359E+03 -0.15677957481E+03  0.20304094181E+03  0.00000000000E+00 0.  1.
         21    1    1    2  505  504 -0.32137140274E+02 -0.18654260235E+02  0.20589507657E+03  0.20922131767E+03  0.00000000000E+00 0.  1.
         -1    1    1    2    0  503  0.19260194085E+02 -0.34798931537E+02 -0.19247012465E+03  0.19653668765E+03  0.00000000000E+00 0.  1.
<scales pt_clust_3="14000.00000" pt_clust_4="105.71145" pt_clust_5="37.15881" pt_clust_6="39.79705"></scales>
<clustering>
<clus scale="   37.159">  1  5  2 -1</clus>
<clus scale="   39.797">  2  6  1 -1</clus>
<clus scale="  105.711">  2  4  1 -1</clus>
<clus scale="   37.159">  1  3  2 -1</clus>
</clustering>
</event>
<event>
 6    0  0.4796958E+002  0.1441540E+03  0.7546771E-02  0.1207846E+00
         21   -1    0    0  504  502  0.00000000000E+00  0.00000000000E+00  0.50703049944E+02  0.50703049944E+02  0.00000000000E+00 0. -1.
          2   -1    0    0  505    0 -0.00000000000E+00 -0.00000000000E+00 -0.11115193927E+04  0.11115193927E+04  0.00000000000E+00 0. -1.
         21    1    1    2  503  501 -0.53513514092E+02  0.35507784167E+02 -0.15842710112E+03  0.17094924772E+03  0.00000000000E+00 0.  1.
         21    1    1    2  504  503 -0.37271366207E+02  0.25548478781E+02 -0.49653632895E+02  0.67136895717E+02  0.00000000000E+00 0.  1.
         21    1    1    2  505  502  0.16639328776E+03 -0.44853145294E+02 -0.18845349692E+03  0.25536885354E+03  0.00000000000E+00 0. -1.
          2    1    1    2  501    0 -0.75608407465E+02 -0.16203117655E+02 -0.66428211184E+03  0.66876744569E+03  0.00000000000E+00 0. -1.
<scales pt_clust_3="31.58279" pt_clust_4="31.58279" pt_clust_5="139.14997" pt_clust_6="77.32511"></scales>
<clustering>
<clus scale="   31.583">  3  4 -1 -1</clus>
<clus scale="   77.325">  2  6  1 -1</clus>
<clus scale="  139.150">  2  5  1 -1</clus>
<clus scale="  144.154">  1  3  2 -1</clus>
</clustering>
</event>
<event>
 6    0  0.4796958E+002  0.1879113E+03  0.7546771E-02  0.1160359E+00
          1   -1    0    0  504    0 -0.00000000000E+00  0.00000000000E+00  0.35407477304E+04  0.35407477304E+04  0.00000000000E+00 0. -1.
         21   -1    0    0  505  502  0.00000000000E+00 -0.00000000000E+00 -0.66766877748E+03  0.66766877748E+03  0.00000000000E+00 0.  1.
         21    1    1    2  503  502  0.17241728976E+03  0.68611670114E+02 -0.51720363137E+03  0.54948601382E+03  0.00000000000E+00 0.  1.
         21    1    1    2  504  503  0.86927831434E+02  0.21253128923E+02 -0.51391218741E+02  0.10319496466E+03  0.00000000000E+00 0.  1.
         21    1    1    2  505  501 -0.20211326451E+03 -0.82825295792E+02  0.15329323930E+03  0.26684943044E+03  0.00000000000E+00 0. -1.
          1    1    1    2  501    0 -0.57231856687E+02 -0.70395032454E+01  0.32883805638E+04  0.32888860990E+04  0.00000000000E+00 0. -1.
<scales pt_clust_3="187.91129" pt_clust_4="83.60766" pt_clust_5="14000.00000" pt_clust_6="57.66316"></scales>
<clustering>
<clus scale="   57.663">  1  6  2 -1</clus>
<clus scale="   83.608">  1  4  2 -1</clus>
<clus scale="  187.911">  2  3  1 -1</clus>
<clus scale="  187.911">  2  3  1 -1</clus>
</clustering>
</event>
<event>
 6    0  0.4796958E+002  0.1768456E+03  0.7546771E-02  0.1170891E+00
          2   -1    0    0  505    0 -0.00000000000E+00  0.00000000000E+00  0.20729224845E+04  0.20729224845E+04  0.00000000000E+00 0. -1.
         21   -1    0    0  503  502  0.00000000000E+00 -0.00000000000E+00 -0.83108700408E+03  0.83108700408E+03  0.00000000000E+00 0. -1.
         21    1    1    2  503  504 -0.39421596565E+02 -0.16167072865E+02 -0.56652702433E+03  0.56812701557E+03  0.00000000000E+00 0. -1.
         21    1    1    2  504  501  0.29876214709E+02 -0.40215012079E+02 -0.24569284697E+03  0.25074850041E+03  0.00000000000E+00 0.  1.
         21    1    1    2  505  502 -0.17660440105E+02 -0.14856927802E+03  0.74809539972E+03  0.76290985614E+03  0.00000000000E+00 0. -1.
          2    1    1    2  501    0  0.27205821960E+02  0.20495136296E+03  0.13059599521E+04  0.13222241165E+04  0.00000000000E+00 0. -1.
<scales pt_clust_3="42.60794" pt_clust_4="55.89822" pt_clust_5="14000.00000" pt_clust_6="176.84559"></scales>
<clustering>
<clus scale="   42.608">  2  3  1 -1</clus>
<clus scale="   55.898">  2  4  1 -1</clus>
<clus scale="  176.846">  2  6  1 -1</clus>
<clus scale="   42.608">  2  3  1 -1</clus>
</clustering>
</event>
<event>
 6    0  0.4796958E+002  0.2247996E+03  0.7546771E-02  0.1130355E+00
          1   -1    0    0  505    0 -0.00000000000E+00  0.00000000000E+00  0.85282594478E+03  0.85282594478E+03  0.00000000000E+00 0.  1.
         21   -1    0    0  501  502  0.00000000000E+00 -0.00000000000E+00 -0.44999115817E+03  0.44999115817E+03  0.00000000000E+00 0.  1.
         21    1    1    2  503  502 -0.49900624175E+02 -0.68973838802E+02 -0.21715171856E+03  0.23324307408E+03  0.00000000000E+00 0.  1.
         21    1    1    2  504  503 -0.25994089776E+02 -0.16040007675E+03 -0.62801065169E+02  0.17420634636E+03  0.00000000000E+00 0. -1.
         21    1    1    2  505  504  0.26662034266E+03  0.25490953741E+03  0.33695148368E+03  0.49960142288E+03  0.00000000000E+00 0.  1.
          1    1    1    2  501    0 -0.19072562871E+03 -0.25535621861E+02  0.34583608666E+03  0.39576625963E+03  0.00000000000E+00 0.  1.
<scales pt_clust_3="85.13203" pt_clust_4="224.79959" pt_clust_5="14000.00000" pt_clust_6="199.05496"></scales>
<clustering>
<clus scale="   85.132">  2  3  1 -1</clus>
<clus scale="  199.055">  1  6  2 -1</clus>
<clus scale="  224.800">  2  4  1 -1</clus>
<clus scale="   85.132">  2  3  1 -1</clus>
</clustering>
</event>
<event>
 6    0  0.4796958E+002  0.1924614E+03  0.7546771E-02  0.1156260E+00
         21   -1    0    0  501  502  0.00000000000E+00  0.00000000000E+00  0.22207834606E+03  0.22207834606E+03  0.00000000000E+00 0.  1.
          2   -1    0    0  505    0 -0.00000000000E+00 -0.00000000000E+00 -0.29278343030E+04  0.29278343030E+04  0.00000000000E+00 0.  1.
         21    1    1    2  503  502  0.83283914002E+02 -0.51492210083E+02  0.11371687933E+03  0.15006394196E+03  0.00000000000E+00 0.  1.
         21    1    1    2  504  503  0.84798252238E+02 -0.33178337170E+02  0.54767722951E+02  0.10625934838E+03  0.00000000000E+00 0.  1.
         21    1    1    2  505  504 -0.76227378974E+02 -0.54471736796E+02 -0.30790306124E+03  0.32184169794E+03  0.00000000000E+00 0.  1.
          2    1    1    2  501    0 -0.91854787266E+02  0.13914228405E+03 -0.25663374980E+04  0.25717476608E+04  0.00000000000E+00 0.  1.
<scales pt_clust_3="41.96659" pt_clust_4="41.96659" pt_clust_5="93.68983" pt_clust_6="187.47675"></scales>
<clustering>
<clus scale="   41.967">  3  4 -1 -1</clus>
<clus scale="   93.690">  2  5  1 -1</clus>
<clus scale="  187.477">  2  6  1 -1</clus>
<clus scale="  192.461">  1  3  2 -1</clus>
</clustering>
</event>
<event>
 6    0  0.4796958E+002  0.9174864E+02  0.7546771E-02  0.1298672E+00
         21   -1    0    0  503  502  0.00000000000E+00  0.00000000000E+00  0.23566002720E+03  0.23566002720E+03  0.00000000000E+00 0.  1.
          2   -1    0    0  502    0 -0.00000000000E+00 -0.00000000000E+00 -0.11794909305E+04  0.11794909305E+04  0.00000000000E+00 0.  1.
         21    1    1    2  503  505  0.50741295850E+02  0.38686704198E+01  0.14823993209E+03  0.15673137268E+03  0.00000000000E+00 0.  1.
         21    1    1    2  504  501  0.55545747971E+02 -0.14046320690E+02 -0.14945500822E+03  0.16006070325E+03  0.00000000000E+00 0.  1.
         21    1    1    2  505  504 -0.14671272520E+03  0.18672906359E+00  0.79056443689E+01  0.14692568808E+03  0.00000000000E+00 0.  1.
          2    1    1    2  501    0  0.40425681381E+02  0.99909212062E+01 -0.95052147149E+03  0.95143319366E+03  0.00000000000E+00 0.  1.
<scales pt_clust_3="51.65176" pt_clust_4="91.74864" pt_clust_5="14000.00000" pt_clust_6="41.64198"></scales>
<clustering>
<clus scale="   41.642">  2  6  1 -1</clus>
<clus scale="   51.652">  1  3  2 -1</clus>
<clus scale="   91.749">  2  4  1 -1</clus>
<clus scale="   51.652">  1  3  2 -1</clus>
</clustering>
</event>
<event>
 6    0  0.4796958E+002  0.6571756E+02  0.7546771E-02  0.1375292E+00
         21   -1    0    0  505  502  0.00000000000E+00  0.00000000000E+00  0.40845312685E+02  0.40845312685E+02  0.00000000000E+00 0.  1.
         -1   -1    0    0    0  501 -0.00000000000E+00 -0.00000000000E+00 -0.69073275186E+03  0.69073275186E+03  0.00000000000E+00 0. -1.
         21    1    1    2  503  501  0.11191550675E+03  0.61478965178E+02 -0.22490369227E+03  0.25862407971E+03  0.00000000000E+00 0.  1.
         21    1    1    2  504  502 -0.16617375057E+02 -0.27044916655E+02 -0.50547401538E+02  0.59687557103E+02  0.00000000000E+00 0. -1.
         21    1    1    2  505  503 -0.42244939756E+02 -0.12294268855E+02 -0.11054021707E+02  0.45364913508E+02  0.00000000000E+00 0. -1.
         -1    1    1    2    0  504 -0.53053191935E+02 -0.22139779668E+02 -0.36338232366E+03  0.36790151422E+03  0.00000000000E+00 0. -1.
<scales pt_clust_3="65.71756" pt_clust_4="31.74216" pt_clust_5="56.03224" pt_clust_6="14000.00000"></scales>
<clustering>
<clus scale="   31.742">  1  4  2 -1</clus>
<clus scale="   56.032">  1  5  2 -1</clus>
<clus scale="   65.718">  1  3  2 -1</clus>
<clus scale="   31.742">  1  3  2 -1</clus>
</clustering>
</event>
<event>
 6    0  0.4796958E+002  0.1434342E+03  0.7546771E-02  0.1208781E+00
          3   -1    0    0  505    0 -0.00000000000E+00  0.00000000000E+00  0.30841660657E+03  0.30841660657E+03  0.00000000000E+00 0. -1.
         21   -1    0    0  503  502  0.00000000000E+00 -0.00000000000E+00 -0.21564917853E+03  0.21564917853E+03  0.00000000000E+00 0.  1.
         21    1    1    2  503  501 -0.10583903066E+03 -0.50769526534E+02  0.47921990316E+02  0.12679101858E+03  0.00000000000E+00 0. -1.
         21    1    1    2  504  502  0.31246306457E+02 -0.28510645002E+02 -0.42848943278E+02  0.60209803900E+02  0.00000000000E+00 0.  1.
         21    1    1    2  505  504  0.89545229957E+02  0.14763039905E+03 -0.52425312202E+02  0.18044804319E+03  0.00000000000E+00 0.  1.
          3    1    1    2  501    0 -0.14952505750E+02 -0.68350227510E+02  0.14011969320E+03  0.15661691943E+03  0.00000000000E+00 0. -1.
<scales pt_clust_3="14000.00000" pt_clust_4="42.29880" pt_clust_5="143.43424" pt_clust_6="71.05470"></scales>
<clustering>
<clus scale="   42.299">  2  4  1 -1</clus>
<clus scale="   71.055">  1  6  2 -1</clus>
<clus scale="  143.434">  2  5  1 -1</clus>
<clus scale="   42.299">  2  3  1 -1</clus>
</clustering>
</event>
<event>
 6    0  0.4796958E+002  0.1205681E+03  0.7546771E-02  0.1242163E+00
         21   -1    0    0  503  502  0.00000000000E+00  0.00000000000E+00  0.87066512810E+03  0.87066512810E+03  0.00000000000E+00 0. -1.
          2   -1    0    0  505    0 -0.00000000000E+00 -0.00000000000E+00 -0.22292753817E+03  0.22292753817E+03  0.00000000000E+00 0. -1.
         21    1    1    2  503  504 -0.11805372456E+03 -0.15604379116E+02  0.63182980654E+03  0.64295340653E+03  0.00000000000E+00 0. -1.
         21    1    1    2  504  501 -0.13492478117E+02 -0.29194437050E+02  0.14911100261E+03  0.15254000531E+03  0.00000000000E+00 0.  1.
         21    1    1    2  505  502  0.31181359478E+02  0.18002364985E+02  0.65009913395E+02  0.74314542073E+02  0.00000000000E+00 0.  1.
          2    1    1    2  501    0  0.10036484320E+03  0.26796451181E+02 -0.19821313262E+03  0.22378471236E+03  0.00000000000E+00 0. -1.
<scales pt_clust_3="31.31079" pt_clust_4="31.31079" pt_clust_5="36.00503" pt_clust_6="104.43558"></scales>
<clustering>
<clus scale="   31.311">  3  4 -1 -1</clus>
<clus scale="   36.005">  1  5  2 -1</clus>
<clus scale="  104.436">  2  6  1 -1</clus>
<clus scale="   36.005">  1  3  2 -1</clus>
</clustering>
</event>
<event>
 6    0  0.4796958E+002  0.1020503E+03  0.7546771E-02  0.1276043E+00
         -1   -1    0    0    0  501 -0.00000000000E+00  0.00000000000E+00  0.13191557918E+04  0.13191557918E+04  0.00000000000E+00 0. -1.
         21   -1    0    0  505  502  0.00000000000E+00 -0.00000000000E+00 -0.52430457103E+03  0.52430457103E+03  0.00000000000E+00 0.  1.
         21    1    1    2  503  502 -0.21318576690E+02 -0.42386303020E+02 -0.49908060838E+03  0.50133076313E+03  0.00000000000E+00 0.  1.
         21    1    1    2  504  503  0.83274726474E+02 -0.50770199128E+02  0.93753126180E+02  0.13528466971E+03  0.00000000000E+00 0. -1.
         21    1    1    2  505  501 -0.10101487144E+02  0.49281845444E+02  0.30771433561E+03  0.31179937888E+03  0.00000000000E+00 0.  1.
         -1    1    1    2    0  504 -0.51854662640E+02  0.43874656704E+02  0.89246436742E+03  0.89504555116E+03  0.00000000000E+00 0. -1.
<scales pt_clust_3="47.44555" pt_clust_4="14000.00000" pt_clust_5="47.21574" pt_clust_6="102.05032"></scales>
<clustering>
<clus scale="   47.446">  2  3  1 -1</clus>
<clus scale="   47.216">  1  5  2 -1</clus>
<clus scale="  102.050">  1  6  2 -1</clus>
<clus scale="   47.446">  2  3  1 -1</clus>
</clustering>
</event>
<event>
 6    0  0.4796958E+002  0.8227626E+02  0.7546771E-02  0.1322713E+00
         21   -1    0    0  503  502  0.00000000000E+00  0.00000000000E+00  0.94272045435E+03  0.94272045435E+03  0.00000000000E+00 0.  1.
          1   -1    0    0  504    0 -0.00000000000E+00 -0.00000000000E+00 -0.27249316892E+04  0.27249316892E+04  0.00000000000E+00 0. -1.
         21    1    1    2  503  501 -0.10004160135E+03  0.42590387480E+02  0.63486888630E+02  0.12590809400E+03  0.00000000000E+00 0.  1.
         21    1    1    2  504  505 -0.78122389168E+01 -0.66083330179E+02 -0.66468758135E+02  0.94053885685E+02  0.00000000000E+00 0. -1.
         21    1    1    2  505  502  0.73990031361E+02  0.37412293696E+02  0.83204170643E+03  0.83616242782E+03  0.00000000000E+00 0.  1.
          1    1    1    2  501    0  0.33863808906E+02 -0.13919350998E+02 -0.26112710717E+04  0.26115277360E+04  0.00000000000E+00 0. -1.
<scales pt_clust_3="82.27626" pt_clust_4="77.61760" pt_clust_5="14000.00000" pt_clust_6="36.61292"></scales>
<clustering>
<clus scale="   36.613">  2  6  1 -1</clus>
<clus scale="   77.618">  2  4  1 -1</clus>
<clus scale="   82.276">  2  3  1 -1</clus>
<clus scale="   82.276">  1  3  2 -1</clus>
</clustering>
</event>
<event>
 6    0  0.4796958E+002  0.7958182E+02  0.7546771E-02  0.1330242E+00
         21   -1    0    0  501  502  0.00000000000E+00  0.00000000000E+00  0.66498148119E+03  0.66498148119E+03  0.00000000000E+00 0.  1.
          1   -1    0    0  503    0 -0.00000000000E+00 -0.00000000000E+00 -0.10545369241E+04  0.10545369241E+04  0.00000000000E+00 0. -1.
         21    1    1    2  503  504 -0.49285149609E+02  0.44462958756E+02 -0.99939823713E+02  0.11997478501E+03  0.00000000000E+00 0.  1.
         21    1    1    2  504  505  0.11055235853E+03 -0.65883364438E+02 -0.77572314472E+02  0.15026611613E+03  0.00000000000E+00 0.  1.
         21    1    1    2  505  502 -0.42439545227E+02  0.66383030028E+02  0.61538813954E+03  0.62041146344E+03  0.00000000000E+00 0.  1.
          1    1    1    2  501    0 -0.18827663690E+02 -0.44962624346E+02 -0.82743144424E+03  0.82886604070E+03  0.00000000000E+00 0. -1.
<scales pt_clust_3="62.65707" pt_clust_4="79.58182" pt_clust_5="14000.00000" pt_clust_6="48.74545"></scales>
<clustering>
<clus scale="   48.745">  2  6  1 -1</clus>
<clus scale="   62.657">  2  3  1 -1</clus>
<clus scale="   79.582">  2  4  1 -1</clus>
<clus scale="   79.582">  1  3  2 -1</clus>
</clustering>
</event>
<event>
 6    0  0.4796958E+002  0.7649043E+02  0.7546771E-02  0.1339317E+00
         21   -1    0    0  504  502  0.00000000000E+00  0.00000000000E+00  0.51690785866E+03  0.51690785866E+03  0.00000000000E+00 0. -1.
          2   -1    0    0  503    0 -0.00000000000E+00 -0.00000000000E+00 -0.10417682308E+04  0.10417682308E+04  0.00000000000E+00 0.  1.
         21    1    1    2  503  502  0.35808134700E+02 -0.15897053400E+00 -0.16132311804E+03  0.16524949681E+03  0.00000000000E+00 0.  1.
         21    1    1    2  504  505  0.16085880895E+02  0.73962739131E+02  0.48510942479E+03  0.49097901825E+03  0.00000000000E+00 0. -1.
         21    1    1    2  505  501 -0.15985236733E+02 -0.10455202068E+03 -0.80676926450E+02  0.13302413046E+03  0.00000000000E+00 0.  1.
          2    1    1    2  501    0 -0.35908778862E+02  0.30748252086E+02 -0.76796975245E+03  0.76942344394E+03  0.00000000000E+00 0.  1.
<scales pt_clust_3="35.80849" pt_clust_4="14000.00000" pt_clust_5="76.49043" pt_clust_6="30.94926"></scales>
<clustering>
<clus scale="   35.808">  2  3  1 -1</clus>
<clus scale="   30.949">  2  6  1 -1</clus>
<clus scale="   76.490">  2  5  1 -1</clus>
<clus scale="   76.490">  1  3  2 -1</clus>
</clustering>
</event>
<event>
 6    0  0.4796958E+002  0.7916400E+02  0.7546771E-02  0.1331441E+00
         21   -1    0    0  505  502  0.00000000000E+00  0.00000000000E+00  0.11642741676E+03  0.11642741676E+03  0.00000000000E+00 0.  1.
          1   -1    0    0  504    0 -0.00000000000E+00 -0.00000000000E+00 -0.16180285365E+04  0.16180285365E+04  0.00000000000E+00 0. -1.
         21    1    1    2  503  502  0.86232476107E+01 -0.63527112779E+02  0.28364087283E+01  0.64172421427E+02  0.00000000000E+00 0.  1.
         21    1    1    2  504  503 -0.38868393826E+02  0.29405906823E+02 -0.30742796291E+03  0.31126742807E+03  0.00000000000E+00 0.  1.
         21    1    1    2  505  501  0.59202739158E+02  0.10401673698E+03  0.34990852368E+02  0.12469485012E+03  0.00000000000E+00 0.  1.
          1    1    1    2  501    0 -0.28957592942E+02 -0.69895531026E+02 -0.12320004180E+04  0.12343212537E+04  0.00000000000E+00 0. -1.
<scales pt_clust_3="63.30953" pt_clust_4="48.73868" pt_clust_5="79.16400" pt_clust_6="14000.00000"></scales>
<clustering>
<clus scale="   48.739">  2  4  1 -1</clus>
<clus scale="   63.310">  1  3  2 -1</clus>
<clus scale="   79.164">  1  5  2 -1</clus>
<clus scale="   63.310">  1  3  2 -1</clus>
</clustering>
</event>
<event>
 6    0  0.4796958E+002  0.1942805E+03  0.7546771E-02  0.1154656E+00
          1   -1    0    0  502    0 -0.00000000000E+00  0.00000000000E+00  0.70562331227E+02  0.70562331227E+02  0.00000000000E+00 0.  1.
         21   -1    0    0  503  502  0.00000000000E+00 -0.00000000000E+00 -0.22901715199E+04  0.22901715199E+04  0.00000000000E+00 0.  1.
         21    1    1    2  503  505 -0.18632115432E+03 -0.22018809420E+01 -0.14964738992E+04  0.15080300235E+04  0.00000000000E+00 0.  1.
         21    1    1    2  504  501 -0.49005870560E+02 -0.24372377384E+02 -0.64464970653E+02  0.84565480960E+02  0.00000000000E+00 0. -1.
         21    1    1    2  505  504  0.21609365828E+03  0.69398798574E+02 -0.67977770646E+03  0.71666616537E+03  0.00000000000E+00 0.  1.
          1    1    1    2  501    0  0.19233366610E+02 -0.42824540248E+02  0.21107387601E+02  0.51472181321E+02  0.00000000000E+00 0.  1.
<scales pt_clust_3="194.28048" pt_clust_4="56.96007" pt_clust_5="14000.00000" pt_clust_6="46.94533"></scales>
<clustering>
<clus scale="   46.945">  1  6  2 -1</clus>
<clus scale="   56.960">  1  4  2 -1</clus>
<clus scale="  194.280">  2  3  1 -1</clus>
<clus scale="  194.280">  2  3  1 -1</clus>
</clustering>
</event>
<event>
 6    0  0.4796958E+002  0.1667998E+03  0.7546771E-02  0.1181227E+00
         21   -1    0    0  505  502  0.00000000000E+00  0.00000000000E+00  0.13502775871E+04  0.13502775871E+04  0.00000000000E+00 0. -1.
         -1   -1    0    0    0  501 -0.00000000000E+00 -0.00000000000E+00 -0.36517402282E+03  0.36517402282E+03  0.00000000000E+00 0.  1.
         21    1    1    2  503  504 -0.93730007101E+02 -0.38500442399E+02  0.66455271524E+03  0.67223352313E+03  0.00000000000E+00 0. -1.
         21    1    1    2  504  501  0.18865075677E+03 -0.30420094012E+02 -0.80204600962E+02  0.20723722678E+03  0.00000000000E+00 0.  1.
         21    1    1    2  505  503 -0.58093219309E+02  0.18808259226E+02  0.61237541552E+03  0.61541223767E+03  0.00000000000E+00 0. -1.
         -1    1    1    2    0  502 -0.36827530358E+02  0.50112277185E+02 -0.21161996556E+03  0.22056862229E+03  0.00000000000E+00 0.  1.
<scales pt_clust_3="49.39045" pt_clust_4="154.18850" pt_clust_5="49.39045" pt_clust_6="62.18929"></scales>
<clustering>
<clus scale="   49.390">  3  5 -1 -1</clus>
<clus scale="   62.189">  2  6  1 -1</clus>
<clus scale="  154.189">  2  4  1 -1</clus>
<clus scale="  166.800">  1  3  2 -1</clus>
</clustering>
</event>
<event>
 6    0  0.4796958E+002  0.1692159E+03  0.7546771E-02  0.1178668E+00
         21   -1    0    0  505  502  0.00000000000E+00  0.00000000000E+00  0.59976678970E+02  0.59976678970E+02  0.00000000000E+00 0.  1.
          2   -1    0    0  503    0 -0.00000000000E+00 -0.00000000000E+00 -0.26325867228E+04  0.26325867228E+04  0.00000000000E+00 0. -1.
         21    1    1    2  503  504 -0.91270705621E+02  0.20205829569E+02 -0.11314324615E+03  0.14676515732E+03  0.00000000000E+00 0.  1.
         21    1    1    2  504  502 -0.63705019736E+02 -0.34667314179E+02 -0.36961188158E+02  0.81401975664E+02  0.00000000000E+00 0.  1.
         21    1    1    2  505  501  0.14907164277E+03 -0.37182800172E+02 -0.26538773898E+03  0.30665219274E+03  0.00000000000E+00 0.  1.
          2    1    1    2  501    0  0.59040825856E+01  0.51644284782E+02 -0.21571178705E+04  0.21577440760E+04  0.00000000000E+00 0. -1.
<scales pt_clust_3="61.73667" pt_clust_4="61.73667" pt_clust_5="152.74728" pt_clust_6="51.98067"></scales>
<clustering>
<clus scale="   51.981">  2  6  1 -1</clus>
<clus scale="   61.737">  3  4 -1 -1</clus>
<clus scale="  152.747">  2  5  1 -1</clus>
<clus scale="  169.216">  1  3  2 -1</clus>
</clustering>
</event>
<event>
 6    0  0.4796958E+002  0.9401157E+02  0.7546771E-02  0.1293418E+00
          2   -1    0    0  504    0 -0.00000000000E+00  0.00000000000E+00  0.86977484133E+03  0.86977484133E+03  0.00000000000E+00 0. -1.
         21   -1    0    0  503  502  0.00000000000E+00 -0.00000000000E+00 -0.53901998261E+03  0.53901998261E+03  0.00000000000E+00 0.  1.
         21    1    1    2  503  501  0.92489352179E+02  0.91372048261E+01  0.83591597679E+02  0.12500129592E+03  0.00000000000E+00 0.  1.
         21    1    1    2  504  505 -0.55335338937E+02  0.14918537537E+02  0.33745659102E+02  0.66508134884E+02  0.00000000000E+00 0.  1.
         21    1    1    2  505  502  0.62975935328E+01 -0.80892658966E+02 -0.49684609039E+03  0.50342757125E+03  0.00000000000E+00 0.  1.
          2    1    1    2  501    0 -0.43451606775E+02  0.56836916603E+02  0.71026369234E+03  0.71385782189E+03  0.00000000000E+00 0. -1.
<scales pt_clust_3="94.01157" pt_clust_4="57.31110" pt_clust_5="81.06076" pt_clust_6="14000.00000"></scales>
<clustering>
<clus scale="   57.311">  1  4  2 -1</clus>
<clus scale="   81.061">  2  5  1 -1</clus>
<clus scale="   94.012">  2  3  1 -1</clus>
<clus scale="   81.061">  2  3  1 -1</clus>
</clustering>
</event>
<event>
 6    0  0.4796958E+002  0.2197165E+03  0.7546771E-02  0.1134095E+00
          1   -1    0    0  504    0 -0.00000000000E+00  0.00000000000E+00  0.27406589433E+04  0.27406589433E+04  0.00000000000E+00 0.  1.
         21   -1    0    0  505  502  0.00000000000E+00 -0.00000000000E+00 -0.29996248821E+03  0.29996248821E+03  0.00000000000E+00 0.  1.
         21    1    1    2  503  502  0.90038154074E+02  0.17489324693E+03 -0.13152235759E+03  0.23662765595E+03  0.00000000000E+00 0.  1.
         21    1    1    2  504  503  0.69098735143E+02  0.24388800335E+02  0.28800446639E+03  0.29718011616E+03  0.00000000000E+00 0.  1.
         21    1    1    2  505  501 -0.20224959328E+03 -0.26554879688E+03  0.14135182977E+03  0.36249331206E+03  0.00000000000E+00 0.  1.
          1    1    1    2  501    0  0.43112704061E+02  0.66266749610E+02  0.21428625165E+04  0.21443203474E+04  0.00000000000E+00 0.  1.
<scales pt_clust_3="219.71647" pt_clust_4="73.27652" pt_clust_5="14000.00000" pt_clust_6="135.69898"></scales>
<clustering>
<clus scale="   73.277">  1  4  2 -1</clus>
<clus scale="  135.699">  1  6  2 -1</clus>
<clus scale="  219.716">  2  3  1 -1</clus>
<clus scale="  219.716">  2  3  1 -1</clus>
</clustering>
</event>
<event>
 6    0  0.4796958E+002  0.2544610E+03  0.7546771E-02  0.1110518E+00
         21   -1    0    0  501  502  0.00000000000E+00  0.00000000000E+00  0.14644048383E+03  0.14644048383E+03  0.00000000000E+00 0. -1.
          2   -1    0    0  505    0 -0.00000000000E+00 -0.00000000000E+00 -0.15350476517E+04  0.15350476517E+04  0.00000000000E+00 0.  1.
         21    1    1    2  503  502  0.18456295114E+03  0.11075510249E+03 -0.44839265351E+02  0.21986526642E+03  0.00000000000E+00 0. -1.
         21    1    1    2  504  503 -0.25546146312E+03 -0.97537798640E+02 -0.40753385193E+03  0.49077288206E+03  0.00000000000E+00 0.  1.
         21    1    1    2  505  504 -0.34241171476E+02 -0.15847731674E+02 -0.10505153561E+02  0.39165886619E+02  0.00000000000E+00 0. -1.
          2    1    1    2  501    0  0.10513968346E+03  0.26304278246E+01 -0.92572889705E+03  0.93168410045E+03  0.00000000000E+00 0.  1.
<scales pt_clust_3="235.49054" pt_clust_4="35.81170" pt_clust_5="35.81170" pt_clust_6="105.17258"></scales>
<clustering>
<clus scale="   35.812">  4  5 -1 -1</clus>
<clus scale="  105.173">  2  6  1 -1</clus>
<clus scale="  235.491">  1  3  2 -1</clus>
<clus scale="  235.491">  1  3  2 -1</clus>
</clustering>
</event>
<event>
 6    0  0.4796958E+002  0.1150647E+03  0.7546771E-02  0.1251468E+00
         -1   -1    0    0    0  501 -0.00000000000E+00  0.00000000000E+00  0.11087971531E+04  0.11087971531E+04  0.00000000000E+00 0.  1.
         21   -1    0    0  504  502  0.00000000000E+00 -0.00000000000E+00 -0.47469770438E+02  0.47469770438E+02  0.00000000000E+00 0.  1.
         21    1    1    2  503  505 -0.50664643878E+02  0.17929481616E+02  0.50325379115E+02  0.73627550776E+02  0.00000000000E+00 0.  1.
         21    1    1    2  504  503 -0.54632276247E+02 -0.57402681835E+01  0.26790124663E+01  0.54998303561E+02  0.00000000000E+00 0.  1.
         21    1    1    2  505  501  0.96275359123E+02  0.56283705242E+02  0.39497605832E+03  0.41041794173E+03  0.00000000000E+00 0.  1.
         -1    1    1    2    0  502  0.90215610018E+01 -0.68472918674E+02  0.61334693274E+03  0.61722312744E+03  0.00000000000E+00 0.  1.
<scales pt_clust_3="49.44709" pt_clust_4="49.44709" pt_clust_5="103.63761" pt_clust_6="69.06467"></scales>
<clustering>
<clus scale="   49.447">  3  4 -1 -1</clus>
<clus scale="   69.065">  1  6  2 -1</clus>
<clus scale="  103.638">  1  5  2 -1</clus>
<clus scale="  115.065">  2  3  1 -1</clus>
</clustering>
</event>
<event>
 6    0  0.4796958E+002  0.1611445E+03  0.7546771E-02  0.1187411E+00
         21   -1    0    0  505  502  0.00000000000E+00  0.00000000000E+00  0.12883100679E+04  0.12883100679E+04  0.00000000000E+00 0. -1.
          2   -1    0    0  503    0 -0.00000000000E+00 -0.00000000000E+00 -0.19723168908E+04  0.19723168908E+04  0.00000000000E+00 0. -1.
         21    1    1    2  503  502  0.37964113744E+02 -0.71497305250E+02  0.11641041309E+04  0.11669154066E+04  0.00000000000E+00 0. -1.
         21    1    1    2  504  501 -0.67915186859E+01  0.13683382779E+03 -0.46534805644E+03  0.48509631495E+03  0.00000000000E+00 0.  1.
         21    1    1    2  505  504 -0.13056716304E+02 -0.99309706578E+02  0.90413889853E+02  0.13493541840E+03  0.00000000000E+00 0. -1.
          2    1    1    2  501    0 -0.18115878754E+02  0.33973184041E+02 -0.14731767871E+04  0.14736798188E+04  0.00000000000E+00 0. -1.
<scales pt_clust_3="80.84298" pt_clust_4="161.14455" pt_clust_5="14000.00000" pt_clust_6="38.50146"></scales>
<clustering>
<clus scale="   38.501">  2  6  1 -1</clus>
<clus scale="   80.843">  1  3  2 -1</clus>
<clus scale="  161.145">  2  4  1 -1</clus>
<clus scale="   80.843">  1  3  2 -1</clus>
</clustering>
</event>
<event>
 6    0  0.4796958E+002  0.8713861E+02  0.7546771E-02  0.1309933E+00
         -1   -1    0    0    0  501 -0.00000000000E+00  0.00000000000E+00  0.18476597635E+04  0.18476597635E+04  0.00000000000E+00 0.  1.
         21   -1    0    0  505  502  0.00000000000E+00 -0.00000000000E+00 -0.83330663054E+02  0.83330663054E+02  0.00000000000E+00 0.  1.
         21    1    1    2  503  502  0.95477591573E+02  0.16343349316E+02  0.14614353899E+03  0.17533114255E+03  0.00000000000E+00 0.  1.
         21    1    1    2  504  501 -0.10046615205E+03  0.58669279579E+02  0.83895210000E+02  0.14343618210E+03  0.00000000000E+00 0.  1.
         21    1    1    2  505  504  0.36101199287E+02 -0.65436223580E+02 -0.28014224451E+01  0.74786655989E+02  0.00000000000E+00 0.  1.
         -1    1    1    2    0  503 -0.31112638809E+02 -0.95764053149E+01  0.15370917739E+04  0.15374364460E+04  0.00000000000E+00 0.  1.
<scales pt_clust_3="87.13861" pt_clust_4="14000.00000" pt_clust_5="74.05596" pt_clust_6="32.55309"></scales>
<clustering>
<clus scale="   32.553">  1  6  2 -1</clus>
<clus scale="   74.056">  2  5  1 -1</clus>
<clus scale="   87.139">  1  3  2 -1</clus>
<clus scale="   74.056">  2  3  1 -1</clus>
</clustering>
</event>
<event>
 6    0  0.4796958E+002  0.8445570E+02  0.7546771E-02  0.1316862E+00
          2   -1    0    0  505    0 -0.00000000000E+00  0.00000000000E+00  0.19047446063E+04  0.19047446063E+04  0.00000000000E+00 0.  1.
         21   -1    0    0  504  502  0.00000000000E+00 -0.00000000000E+00 -0.15826878574E+04  0.15826878574E+04  0.00000000000E+00 0.  1.
         21    1    1    2  503  501 -0.49258075555E+02 -0.80448761460E+02  0.94311641187E+02  0.13339058022E+03  0.00000000000E+00 0. -1.
         21    1    1    2  504  503 -0.35445776719E+02  0.39776300426E+02 -0.14441667571E+04  0.14451491894E+04  0.00000000000E+00 0.  1.
         21    1    1    2  505  502  0.10200415196E+03  0.99459348358E+01 -0.96120040528E+02  0.14050918414E+03  0.00000000000E+00 0. -1.
          2    1    1    2  501    0 -0.17300299689E+02  0.30726526198E+02  0.17680319053E+04  0.17683835099E+04  0.00000000000E+00 0.  1.
<scales pt_clust_3="14000.00000" pt_clust_4="53.40206" pt_clust_5="84.45570" pt_clust_6="35.26216"></scales>
<clustering>
<clus scale="   35.262">  1  6  2 -1</clus>
<clus scale="   53.402">  2  4  1 -1</clus>
<clus scale="   84.456">  2  5  1 -1</clus>
<clus scale="   53.402">  2  3  1 -1</clus>
</clustering>
</event>
<event>
 6    0  0.4796958E+002  0.9051204E+02  0.7546771E-02  0.1301616E+00
         21   -1    0    0  504  502  0.00000000000E+00  0.00000000000E+00  0.22215319382E+03  0.22215319382E+03  0.00000000000E+00 0.  1.
          1   -1    0    0  505    0 -0.00000000000E+00 -0.00000000000E+00 -0.56258084476E+03  0.56258084476E+03  0.00000000000E+00 0. -1.
         21    1    1    2  503  502  0.55311339033E+02 -0.18663955178E+02 -0.36196222049E+02  0.68686635812E+02  0.00000000000E+00 0. -1.
         21    1    1    2  504  501 -0.27417551839E+02 -0.38184052788E+02  0.18346788846E+03  0.18939432445E+03  0.00000000000E+00 0.  1.
         21    1    1    2  505  503  0.70936668644E+02  0.54066427062E+02 -0.14742335808E+03  0.17230448631E+03  0.00000000000E+00 0. -1.
          1    1    1    2  501    0 -0.98830455838E+02  0.27815809038E+01 -0.34027595928E+03  0.35434859201E+03  0.00000000000E+00 0. -1.
<scales pt_clust_3="55.97834" pt_clust_4="47.00791" pt_clust_5="90.51204" pt_clust_6="14000.00000"></scales>
<clustering>
<clus scale="   47.008">  1  4  2 -1</clus>
<clus scale="   55.978">  1  3  2 -1</clus>
<clus scale="   90.512">  1  5  2 -1</clus>
<clus scale="   47.008">  1  3  2 -1</clus>
</clustering>
</event>
<event>
 6    0  0.4796958E+002  0.1107250E+03  0.7546771E-02  0.1259233E+00
         21   -1    0    0  505  502  0.00000000000E+00  0.00000000000E+00  0.27843231892E+03  0.27843231892E+03  0.00000000000E+00 0.  1.
         -3   -1    0    0    0  501 -0.00000000000E+00 -0.00000000000E+00 -0.17534084119E+04  0.17534084119E+04  0.00000000000E+00 0. -1.
         21    1    1    2  503  501  0.39773637881E+02 -0.10305334364E+02 -0.20408311780E+03  0.20817795551E+03  0.00000000000E+00 0. -1.
         21    1    1    2  504  503 -0.43461561653E+02 -0.49542503261E+02  0.24549517443E+03  0.25418742621E+03  0.00000000000E+00 0.  1.
         21    1    1    2  505  504 -0.59296630501E+02  0.39598541782E+01 -0.94368650062E+01  0.60173293537E+02  0.00000000000E+00 0. -1.
         -3    1    1    2    0  502  0.62984554274E+02  0.55887983446E+02 -0.15069512846E+04  0.15093020555E+04  0.00000000000E+00 0. -1.
<scales pt_clust_3="41.08701" pt_clust_4="110.72500" pt_clust_5="58.52081" pt_clust_6="14000.00000"></scales>
<clustering>
<clus scale="   41.087">  2  3  1 -1</clus>
<clus scale="   58.521">  1  5  2 -1</clus>
<clus scale="  110.725">  1  4  2 -1</clus>
<clus scale="   58.521">  1  3  2 -1</clus>
</clustering>
</event>
<event>
 6    0  0.4796958E+002  0.8728533E+02  0.7546771E-02  0.1309562E+00
         21   -1    0    0  504  502  0.00000000000E+00  0.00000000000E+00  0.71268436381E+02  0.71268436381E+02  0.00000000000E+00 0.  1.
          1   -1    0    0  505    0 -0.00000000000E+00 -0.00000000000E+00 -0.82416839466E+03  0.82416839466E+03  0.00000000000E+00 0. -1.
         21    1    1    2  503  502  0.76921520547E+02 -0.54921477510E+02 -0.10082305848E+02  0.95052311420E+02  0.00000000000E+00 0.  1.
         21    1    1    2  504  501  0.20648742788E+02  0.84489977816E+02 -0.59098247362E+02  0.10515478958E+03  0.00000000000E+00 0.  1.
         21    1    1    2  505  503 -0.44317846504E+02 -0.21279998116E+02 -0.13154469012E+03  0.14043117652E+03  0.00000000000E+00 0. -1.
          1    1    1    2  501    0 -0.53252416832E+02 -0.82885021902E+01 -0.55217471495E+03  0.55479855353E+03  0.00000000000E+00 0. -1.
<scales pt_clust_3="14000.00000" pt_clust_4="83.37748" pt_clust_5="49.16208" pt_clust_6="87.28533"></scales>
<clustering>
<clus scale="   49.162">  2  5  1 -1</clus>
<clus scale="   83.377">  1  4  2 -1</clus>
<clus scale="   87.285">  2  6  1 -1</clus>
<clus scale="   83.377">  1  3  2 -1</clus>
</clustering>
</event>
<event>
 6    0  0.4796958E+002  0.8550959E+02  0.7546771E-02  0.1314105E+00
          2   -1    0    0  503    0 -0.00000000000E+00  0.00000000000E+00  0.70734937796E+02  0.70734937796E+02  0.00000000000E+00 0.  1.
         21   -1    0    0  505  502  0.00000000000E+00 -0.00000000000E+00 -0.11215866049E+04  0.11215866049E+04  0.00000000000E+00 0.  1.
         21    1    1    2  503  502  0.24423219766E+02 -0.56060027761E+02 -0.13856621762E+03  0.15145896158E+03  0.00000000000E+00 0.  1.
         21    1    1    2  504  501 -0.80400231802E+02  0.42541427895E+01 -0.25499868991E+03  0.26740723038E+03  0.00000000000E+00 0.  1.
         21    1    1    2  505  504  0.62948163914E+02  0.82788826846E+02 -0.70692121616E+03  0.71453066207E+03  0.00000000000E+00 0.  1.
          2    1    1    2  501    0 -0.69711518785E+01 -0.30982941874E+02  0.49634456620E+02  0.58924688626E+02  0.00000000000E+00 0.  1.
<scales pt_clust_3="71.56439" pt_clust_4="85.50959" pt_clust_5="14000.00000" pt_clust_6="31.75751"></scales>
<clustering>
<clus scale="   31.758">  1  6  2 -1</clus>
<clus scale="   71.564">  1  3  2 -1</clus>
<clus scale="   85.510">  1  4  2 -1</clus>
<clus scale="   85.510">  2  3  1 -1</clus>
</clustering>
</event>
<event>
 6    0  0.4796958E+002  0.1642169E+03  0.7546771E-02  0.1184017E+00
         21   -1    0    0  503  502  0.00000000000E+00  0.00000000000E+00  0.34084960634E+03  0.34084960634E+03  0.00000000000E+00 0.  1.
          1   -1    0    0  504    0 -0.00000000000E+00 -0.00000000000E+00 -0.46146998781E+03  0.46146998781E+03  0.00000000000E+00 0.  1.
         21    1    1    2  503  501  0.44885399847E+02 -0.14760151891E+03  0.11793832495E+03  0.19419154461E+03  0.00000000000E+00 0.  1.
         21    1    1    2  504  505 -0.13930254082E+03 -0.14071152594E+02 -0.25059245387E+03  0.28705360676E+03  0.00000000000E+00 0.  1.
         21    1    1    2  505  502 -0.72641833802E+01  0.18349859737E+03  0.76255935986E+02  0.19884534535E+03  0.00000000000E+00 0.  1.
          1    1    1    2  501    0  0.10168132435E+03 -0.21825925860E+02 -0.64222188532E+02  0.12222909744E+03  0.00000000000E+00 0.  1.
<scales pt_clust_3="14000.00000" pt_clust_4="71.65802" pt_clust_5="164.21687" pt_clust_6="103.99742"></scales>
<clustering>
<clus scale="  103.997">  2  6  1 -1</clus>
<clus scale="   71.658">  2  4  1 -1</clus>
<clus scale="  164.217">  2  5  1 -1</clus>
<clus scale="  164.217">  1  3  2 -1</clus>
</clustering>
</event>
<event>
 6    0  0.4796958E+002  0.8640879E+02  0.7546771E-02  0.1311789E+00
          1   -1    0    0  504    0 -0.00000000000E+00  0.00000000000E+00  0.28810068651E+04  0.28810068651E+04  0.00000000000E+00 0. -1.
         21   -1    0    0  505  502  0.00000000000E+00 -0.00000000000E+00 -0.20777505321E+03  0.20777505321E+03  0.00000000000E+00 0. -1.
         21    1    1    2  503  501  0.11168908901E+03 -0.75739140624E+01  0.56302572581E+01  0.11208709370E+03  0.00000000000E+00 0.  1.
         21    1    1    2  504  502 -0.54792459883E+02  0.73093866140E+02 -0.11322226683E+03  0.14547923781E+03  0.00000000000E+00 0. -1.
         21    1    1    2  505  503 -0.13802638809E+02 -0.39073471950E+02 -0.77713192462E+01  0.42162097329E+02  0.00000000000E+00 0.  1.
          1    1    1    2  501    0 -0.43093990318E+02 -0.26446480127E+02  0.27885951407E+04  0.27890534894E+04  0.00000000000E+00 0. -1.
<scales pt_clust_3="14000.00000" pt_clust_4="86.40879" pt_clust_5="41.43970" pt_clust_6="50.60230"></scales>
<clustering>
<clus scale="   41.440">  2  5  1 -1</clus>
<clus scale="   50.602">  1  6  2 -1</clus>
<clus scale="   86.409">  2  4  1 -1</clus>
<clus scale="   41.440">  2  3  1 -1</clus>
</clustering>
</event>
<event>
 6    0  0.4796958E+002  0.1564468E+03  0.7546771E-02  0.1192768E+00
         21   -1    0    0  503  502  0.00000000000E+00  0.00000000000E+00  0.56078309221E+03  0.56078309221E+03  0.00000000000E+00 0.  1.
          1   -1    0    0  504    0 -0.00000000000E+00 -0.00000000000E+00 -0.10221171444E+04  0.10221171444E+04  0.00000000000E+00 0.  1.
         21    1    1    2  503  501 -0.15495141719E+01 -0.43389860332E+02  0.17639988991E+03  0.18166453185E+03  0.00000000000E+00 0.  1.
         21    1    1    2  504  505  0.10947891529E+03  0.19061517427E+02 -0.13856313616E+02  0.11198648028E+03  0.00000000000E+00 0.  1.
         21    1    1    2  505  502  0.55135150128E+02  0.16728624693E+02  0.32315460289E+03  0.32825086296E+03  0.00000000000E+00 0.  1.
          1    1    1    2  501    0 -0.16306455124E+03  0.75997182130E+01 -0.94703223132E+03  0.96099836147E+03  0.00000000000E+00 0.  1.
<scales pt_clust_3="43.41752" pt_clust_4="14000.00000" pt_clust_5="57.51147" pt_clust_6="156.44679"></scales>
<clustering>
<clus scale="   43.418">  1  3  2 -1</clus>
<clus scale="   57.511">  1  5  2 -1</clus>
<clus scale="  156.447">  2  6  1 -1</clus>
<clus scale="   43.418">  1  3  2 -1</clus>
</clustering>
</event>
<event>
 6    0  0.4796958E+002  0.1383183E+03  0.7546771E-02  0.1215610E+00
          2   -1    0    0  503    0 -0.00000000000E+00  0.00000000000E+00  0.25346973675E+04  0.25346973675E+04  0.00000000000E+00 0.  1.
         21   -1    0    0  504  502  0.00000000000E+00 -0.00000000000E+00 -0.72716325749E+02  0.72716325749E+02  0.00000000000E+00 0. -1.
         21    1    1    2  503  505 -0.16605520105E+03 -0.99390988436E+02  0.14904137792E+04  0.15029258570E+04  0.00000000000E+00 0.  1.
         21    1    1    2  504  501  0.11195138179E+02  0.80313364110E+02 -0.18526974975E+02  0.83179422788E+02  0.00000000000E+00 0. -1.
         21    1    1    2  505  502  0.37390014516E+02  0.32535525976E+02  0.39471519435E+02  0.63360669840E+02  0.00000000000E+00 0. -1.
          2    1    1    2  501    0  0.11747004835E+03 -0.13457901650E+02  0.95062271803E+03  0.95794774357E+03  0.00000000000E+00 0.  1.
<scales pt_clust_3="14000.00000" pt_clust_4="115.62599" pt_clust_5="49.56383" pt_clust_6="138.31834"></scales>
<clustering>
<clus scale="   49.564">  2  5  1 -1</clus>
<clus scale="  115.626">  2  4  1 -1</clus>
<clus scale="  138.318">  1  6  2 -1</clus>
<clus scale="   49.564">  2  3  1 -1</clus>
</clustering>
</event>
<event>
 6    0  0.4796958E+002  0.7223889E+02  0.7546771E-02  0.1352641E+00
          2   -1    0    0  504    0 -0.00000000000E+00  0.00000000000E+00  0.45045839885E+03  0.45045839885E+03  0.00000000000E+00 0.  1.
         21   -1    0    0  503  502  0.00000000000E+00 -0.00000000000E+00 -0.75943697670E+03  0.75943697670E+03  0.00000000000E+00 0.  1.
         21    1    1    2  503  501 -0.49812192324E+02  0.95728558449E+01 -0.68273791420E+03  0.68461956849E+03  0.00000000000E+00 0.  1.
         21    1    1    2  504  505  0.87283429620E+02 -0.10511309938E+02  0.14369383673E+03  0.16845415826E+03  0.00000000000E+00 0.  1.
         21    1    1    2  505  502  0.19347635150E+02 -0.38929321374E+02 -0.51172438776E+02  0.67144929361E+02  0.00000000000E+00 0.  1.
          2    1    1    2  501    0 -0.56818872447E+02  0.39867775467E+02  0.28123793840E+03  0.28967671943E+03  0.00000000000E+00 0.  1.
<scales pt_clust_3="42.00853" pt_clust_4="14000.00000" pt_clust_5="43.47210" pt_clust_6="72.23889"></scales>
<clustering>
<clus scale="   43.472">  2  5  1 -1</clus>
<clus scale="   42.009">  2  3  1 -1</clus>
<clus scale="   72.239">  1  6  2 -1</clus>
<clus scale="   43.472">  2  3  1 -1</clus>
</clustering>
</event>
<event>
 6    0  0.4796958E+002  0.9642501E+02  0.7546771E-02  0.1287998E+00
         -1   -1    0    0    0  501 -0.00000000000E+00  0.00000000000E+00  0.15326437732E+04  0.15326437732E+04  0.00000000000E+00 0.  1.
         21   -1    0    0  501  502  0.00000000000E+00 -0.00000000000E+00 -0.13019656084E+03  0.13019656084E+03  0.00000000000E+00 0.  1.
         21    1    1    2  503  505  0.13493414710E+03  0.76553100895E+02  0.11313898062E+03  0.19201049515E+03  0.00000000000E+00 0.  1.
         21    1    1    2  504  502 -0.48423598203E+01 -0.51015180551E+02  0.15921043223E+02  0.53660755796E+02  0.00000000000E+00 0.  1.
         21    1    1    2  505  504 -0.71632931364E+02  0.95089701211E+01 -0.52633441442E+02  0.89397855268E+02  0.00000000000E+00 0.  1.
         -1    1    1    2    0  503 -0.58458855915E+02 -0.35046890466E+02  0.13260206299E+04  0.13277712278E+04  0.00000000000E+00 0.  1.
<scales pt_clust_3="96.42501" pt_clust_4="51.24448" pt_clust_5="14000.00000" pt_clust_6="68.39920"></scales>
<clustering>
<clus scale="   51.244">  2  4  1 -1</clus>
<clus scale="   68.399">  1  6  2 -1</clus>
<clus scale="   96.425">  1  3  2 -1</clus>
<clus scale="   51.244">  2  3  1 -1</clus>
</clustering>
</event>
<event>
 6    0  0.4796958E+002  0.1784333E+03  0.7546771E-02  0.1169328E+00
         21   -1    0    0  504  502  0.00000000000E+00  0.00000000000E+00  0.12108431435E+04  0.12108431435E+04  0.00000000000E+00 0. -1.
          2   -1    0    0  505    0 -0.00000000000E+00 -0.00000000000E+00 -0.24491167710E+04  0.24491167710E+04  0.00000000000E+00 0. -1.
         21    1    1    2  503  502  0.44049399647E+02  0.56912216835E+02  0.16928117225E+03  0.18394419076E+03  0.00000000000E+00 0. -1.
         21    1    1    2  504  501 -0.39308453133E+02 -0.26795606518E+02  0.10204228335E+04  0.10215311636E+04  0.00000000000E+00 0. -1.
         21    1    1    2  505  503  0.17590549481E+03 -0.20002406559E+01 -0.12826502872E+04  0.12946576780E+04  0.00000000000E+00 0. -1.
          2    1    1    2  501    0 -0.18064644133E+03 -0.28116369662E+02 -0.11453273460E+04  0.11598268821E+04  0.00000000000E+00 0. -1.
<scales pt_clust_3="32.85110" pt_clust_4="47.57267" pt_clust_5="14000.00000" pt_clust_6="178.43332"></scales>
<clustering>
<clus scale="   47.573">  1  4  2 -1</clus>
<clus scale="   32.851">  1  3  2 -1</clus>
<clus scale="  178.433">  1  6  2 -1</clus>
<clus scale="   47.573">  1  3  2 -1</clus>
</clustering>
</event>
<event>
 6    0  0.4796958E+002  0.1029641E+03  0.7546771E-02  0.1274184E+00
         21   -1    0    0  504  502  0.00000000000E+00  0.00000000000E+00  0.48097856900E+02  0.48097856900E+02  0.00000000000E+00 0. -1.
         -1   -1    0    0    0  501 -0.00000000000E+00 -0.00000000000E+00 -0.53433239144E+03  0.53433239144E+03  0.00000000000E+00 0. -1.
         21    1    1    2  503  501 -0.97612764862E+02 -0.14261059428E+02 -0.56070778878E+02  0.11347053328E+03  0.00000000000E+00 0. -1.
         21    1    1    2  504  503 -0.32340738239E+02  0.16421806931E+02 -0.59700901650E+02  0.69855542017E+02  0.00000000000E+00 0.  1.
         21    1    1    2  505  502  0.27051993634E+02 -0.18257180436E+02 -0.35047210595E+02  0.47889894211E+02  0.00000000000E+00 0.  1.
         -1    1    1    2    0  505  0.10290150947E+03  0.16096432933E+02 -0.33541564341E+03  0.35121427882E+03  0.00000000000E+00 0. -1.
<scales pt_clust_3="102.96408" pt_clust_4="32.32937" pt_clust_5="32.63641" pt_clust_6="14000.00000"></scales>
<clustering>
<clus scale="   32.636">  1  5  2 -1</clus>
<clus scale="   32.329">  1  4  2 -1</clus>
<clus scale="  102.964">  1  3  2 -1</clus>
<clus scale="   32.636">  1  3  2 -1</clus>
</clustering>
</event>
<event>
 6    0  0.4796958E+002  0.7033424E+02  0.7546771E-02  0.1358960E+00
          2   -1    0    0  505    0 -0.00000000000E+00  0.00000000000E+00  0.21261334049E+04  0.21261334049E+04  0.00000000000E+00 0.  1.
         21   -1    0    0  504  502  0.00000000000E+00 -0.00000000000E+00 -0.11607826174E+03  0.11607826174E+03  0.00000000000E+00 0.  1.
         21    1    1    2  503  502 -0.66116535833E+02  0.91778686526E+01  0.67914295545E+00  0.66753957326E+02  0.00000000000E+00 0.  1.
         21    1    1    2  504  501  0.63935190385E+02  0.49910260164E+02 -0.58728080384E+02  0.10013855434E+03  0.00000000000E+00 0.  1.
         21    1    1    2  505  503 -0.51566105724E+02 -0.88654166898E+02  0.15886000458E+04  0.15919072618E+04  0.00000000000E+00 0.  1.
          2    1    1    2  501    0  0.53747451172E+02  0.29566038081E+02  0.47950403479E+03  0.48341189321E+03  0.00000000000E+00 0.  1.
<scales pt_clust_3="70.33424" pt_clust_4="14000.00000" pt_clust_5="60.06781" pt_clust_6="61.34280"></scales>
<clustering>
<clus scale="   61.343">  1  6  2 -1</clus>
<clus scale="   60.068">  1  5  2 -1</clus>
<clus scale="   70.334">  1  3  2 -1</clus>
<clus scale="   70.334">  2  3  1 -1</clus>
</clustering>
</event>
<event>
 6    0  0.4796958E+002  0.7601246E+02  0.7546771E-02  0.1340764E+00
         21   -1    0    0  503  502  0.00000000000E+00  0.00000000000E+00  0.64396272080E+02  0.64396272080E+02  0.00000000000E+00 0.  1.
          1   -1    0    0  505    0 -0.00000000000E+00 -0.00000000000E+00 -0.23664367810E+04  0.23664367810E+04  0.00000000000E+00 0.  1.
         21    1    1    2  503  501  0.64584221780E+02  0.55722594457E+02 -0.16257039551E+03  0.18358993092E+03  0.00000000000E+00 0.  1.
         21    1    1    2  504  502 -0.77938619311E+02  0.12775238568E+02  0.21987954159E+02  0.81982347055E+02  0.00000000000E+00 0.  1.
         21    1    1    2  505  504 -0.11660494519E+02 -0.92522443876E+02 -0.15036135613E+04  0.15065026092E+04  0.00000000000E+00 0.  1.
          1    1    1    2  501    0  0.25014892050E+02  0.24024610851E+02 -0.65784450628E+03  0.65875816594E+03  0.00000000000E+00 0.  1.
<scales pt_clust_3="76.01246" pt_clust_4="14000.00000" pt_clust_5="72.10518" pt_clust_6="34.68323"></scales>
<clustering>
<clus scale="   34.683">  2  6  1 -1</clus>
<clus scale="   72.105">  2  5  1 -1</clus>
<clus scale="   76.012">  2  3  1 -1</clus>
<clus scale="   76.012">  1  3  2 -1</clus>
</clustering>
</event>
<event>
 6    0  0.4796958E+002  0.1364218E+03  0.7546771E-02  0.1218226E+00
          2   -1    0    0  503    0 -0.00000000000E+00  0.00000000000E+00  0.16594759662E+04  0.16594759662E+04  0.00000000000E+00 0. -1.
         21   -1    0    0  504  502  0.00000000000E+00 -0.00000000000E+00 -0.11316351907E+04  0.11316351907E+04  0.00000000000E+00 0.  1.
         21    1    1    2  503  505 -0.65245758399E+02 -0.44702751493E+02 -0.29361516707E+03  0.30408092889E+03  0.00000000000E+00 0.  1.
         21    1    1    2  504  501  0.57189815591E+02 -0.27307119006E+02 -0.31669402497E+03  0.32297284593E+03  0.00000000000E+00 0.  1.
         21    1    1    2  505  502 -0.91486657523E+02  0.30936351273E+01 -0.50662705067E+03  0.51483040659E+03  0.00000000000E+00 0.  1.
          2    1    1    2  501    0  0.99542600331E+02  0.68916235371E+02  0.16447770183E+04  0.16492269755E+04  0.00000000000E+00 0. -1.
<scales pt_clust_3="58.28483" pt_clust_4="63.37471" pt_clust_5="58.28483" pt_clust_6="121.15732"></scales>
<clustering>
<clus scale="   58.285">  3  5 -1 -1</clus>
<clus scale="   63.375">  2  4  1 -1</clus>
<clus scale="  121.157">  1  6  2 -1</clus>
<clus scale="   63.375">  2  3  1 -1</clus>
</clustering>
</event>
<event>
 6    0  0.4796958E+002  0.2007797E+03  0.7546771E-02  0.1149083E+00
          2   -1    0    0  505    0 -0.00000000000E+00  0.00000000000E+00  0.31352460517E+04  0.31352460517E+04  0.00000000000E+00 0. -1.
         21   -1    0    0  503  502  0.00000000000E+00 -0.00000000000E+00 -0.18744201842E+03  0.18744201842E+03  0.00000000000E+00 0.  1.
         21    1    1    2  503  504 -0.29679408846E+02  0.42678335006E+02 -0.37154257569E+02  0.63896372697E+02  0.00000000000E+00 0. -1.
         21    1    1    2  504  501 -0.15040806360E+03 -0.12201050445E+03 -0.34796860833E+02  0.19677390660E+03  0.00000000000E+00 0.  1.
         21    1    1    2  505  502  0.25914961585E+03  0.27763477823E+02  0.82404874761E+03  0.86428332885E+03  0.00000000000E+00 0.  1.
          2    1    1    2  501    0 -0.79062143398E+02  0.51568691622E+02  0.21957064041E+04  0.21977344620E+04  0.00000000000E+00 0. -1.
<scales pt_clust_3="51.98372" pt_clust_4="200.77974" pt_clust_5="14000.00000" pt_clust_6="94.75050"></scales>
<clustering>
<clus scale="   51.984">  2  3  1 -1</clus>
<clus scale="   94.751">  1  6  2 -1</clus>
<clus scale="  200.780">  2  4  1 -1</clus>
<clus scale="   51.984">  2  3  1 -1</clus>
</clustering>
</event>
<event>
 6    0  0.4796958E+002  0.1417701E+03  0.7546771E-02  0.1210967E+00
          2   -1    0    0  502    0 -0.00000000000E+00  0.00000000000E+00  0.17604171365E+04  0.17604171365E+04  0.00000000000E+00 0. -1.
         21   -1    0    0  503  502  0.00000000000E+00 -0.00000000000E+00 -0.38201647351E+03  0.38201647351E+03  0.00000000000E+00 0.  1.
         21    1    1    2  503  505 -0.23762300509E+02  0.62001973550E+02 -0.15510516598E+03  0.16872019488E+03  0.00000000000E+00 0.  1.
         21    1    1    2  504  501  0.11067876612E+03 -0.21032643912E+02  0.42788441144E+03  0.44246720888E+03  0.00000000000E+00 0. -1.
         21    1    1    2  505  504 -0.11812253376E+03 -0.29544799574E+02 -0.19516625335E+03  0.23003411619E+03  0.00000000000E+00 0.  1.
          2    1    1    2  501    0  0.31206068151E+02 -0.11424530064E+02  0.13007876708E+04  0.13012120900E+04  0.00000000000E+00 0. -1.
<scales pt_clust_3="66.07697" pt_clust_4="14000.00000" pt_clust_5="141.77007" pt_clust_6="33.23159"></scales>
<clustering>
<clus scale="   33.232">  1  6  2 -1</clus>
<clus scale="   66.077">  2  3  1 -1</clus>
<clus scale="  141.770">  2  5  1 -1</clus>
<clus scale="   66.077">  2  3  1 -1</clus>
</clustering>
</event>
<event>
 6    0  0.4796958E+002  0.1517966E+03  0.7546771E-02  0.1198283E+00
          2   -1    0    0  503    0 -0.00000000000E+00  0.00000000000E+00  0.26380417236E+04  0.26380417236E+04  0.00000000000E+00 0. -1.
         21   -1    0    0  504  502  0.00000000000E+00 -0.00000000000E+00 -0.12686724740E+03  0.12686724740E+03  0.00000000000E+00 0. -1.
         21    1    1    2  503  505  0.22831641133E+03 -0.95832519360E+02  0.48565731158E+03  0.54513785389E+03  0.00000000000E+00 0. -1.
         21    1    1    2  504  501 -0.94219337770E+02 -0.17964852012E+02  0.20321240138E+03  0.22471159203E+03  0.00000000000E+00 0. -1.
         21    1    1    2  505  502 -0.19797446260E+02  0.26714798764E+02 -0.80364655494E+02  0.86971818447E+02  0.00000000000E+00 0. -1.
          2    1    1    2  501    0 -0.11429962730E+03  0.87082572608E+02  0.19026694188E+04  0.19080877067E+04  0.00000000000E+00 0. -1.
<scales pt_clust_3="14000.00000" pt_clust_4="99.78953" pt_clust_5="33.25085" pt_clust_6="151.79659"></scales>
<clustering>
<clus scale="   33.251">  2  5  1 -1</clus>
<clus scale="   99.790">  2  4  1 -1</clus>
<clus scale="  151.797">  1  6  2 -1</clus>
<clus scale="   33.251">  2  3  1 -1</clus>
</clustering>
</event>
<event>
 6    0  0.4796958E+002  0.5593576E+02  0.7546771E-02  0.1415725E+00
         21   -1    0    0  503  502  0.00000000000E+00  0.00000000000E+00  0.78029843017E+02  0.78029843017E+02  0.00000000000E+00 0. -1.
          2   -1    0    0  504    0 -0.00000000000E+00 -0.00000000000E+00 -0.16055590298E+04  0.16055590298E+04  0.00000000000E+00 0. -1.
         21    1    1    2  503  505  0.37748238771E+02  0.34478305082E+02 -0.13182790922E+01  0.51141186058E+02  0.00000000000E+00 0. -1.
         21    1    1    2  504  502 -0.74496259764E+02  0.45093130096E+01  0.19921889074E+02  0.77245765495E+02  0.00000000000E+00 0. -1.
         21    1    1    2  505  501  0.21439407653E+02 -0.87261030211E+02 -0.51165722016E+03  0.51948748449E+03  0.00000000000E+00 0. -1.
          2    1    1    2  501    0  0.15308613340E+02  0.48273412119E+02 -0.10344755766E+04  0.10357144368E+04  0.00000000000E+00 0. -1.
<scales pt_clust_3="53.15357" pt_clust_4="55.93576" pt_clust_5="14000.00000" pt_clust_6="50.64263"></scales>
<clustering>
<clus scale="   50.643">  2  6  1 -1</clus>
<clus scale="   53.154">  1  3  2 -1</clus>
<clus scale="   55.936">  1  4  2 -1</clus>
<clus scale="   53.154">  1  3  2 -1</clus>
</clustering>
</event>
<event>
 6    0  0.4796958E+002  0.8653272E+02  0.7546771E-02  0.1311472E+00
         21   -1    0    0  503  502  0.00000000000E+00  0.00000000000E+00  0.12096974341E+04  0.12096974341E+04  0.00000000000E+00 0.  1.
          1   -1    0    0  504    0 -0.00000000000E+00 -0.00000000000E+00 -0.13492744287E+04  0.13492744287E+04  0.00000000000E+00 0. -1.
         21    1    1    2  503  505 -0.16330450319E+02  0.27924387704E+02  0.10342207682E+04  0.10347265593E+04  0.00000000000E+00 0.  1.
         21    1    1    2  504  502 -0.60364520657E+02 -0.10344470530E+03  0.69374828694E+02  0.13841079895E+03  0.00000000000E+00 0.  1.
         21    1    1    2  505  501  0.24394312667E+02  0.60069145098E+02  0.55907772516E+02  0.85609951004E+02  0.00000000000E+00 0.  1.
          1    1    1    2  501    0  0.52300658309E+02  0.15451172498E+02 -0.12990803640E+04  0.13002245536E+04  0.00000000000E+00 0. -1.
<scales pt_clust_3="32.34896" pt_clust_4="14000.00000" pt_clust_5="86.53272" pt_clust_6="54.51008"></scales>
<clustering>
<clus scale="   32.349">  1  3  2 -1</clus>
<clus scale="   54.510">  2  6  1 -1</clus>
<clus scale="   86.533">  1  5  2 -1</clus>
<clus scale="   32.349">  1  3  2 -1</clus>
</clustering>
</event>
<event>
 6    0  0.4796958E+002  0.1120274E+03  0.7546771E-02  0.1256861E+00
         -3   -1    0    0    0  501 -0.00000000000E+00  0.00000000000E+00  0.92816724290E+02  0.92816724290E+02  0.00000000000E+00 0. -1.
         21   -1    0    0  503  502  0.00000000000E+00 -0.00000000000E+00 -0.12331784286E+04  0.12331784286E+04  0.00000000000E+00 0. -1.
         21    1    1    2  503  504  0.96344259131E+02 -0.11193860456E+02 -0.57812674817E+03  0.58620649581E+03  0.00000000000E+00 0. -1.
         21    1    1    2  504  501  0.39939559455E+02 -0.80717921879E+02 -0.35157290947E+02  0.96677745261E+02  0.00000000000E+00 0. -1.
         21    1    1    2  505  502 -0.14217896086E+03  0.54984488424E+02 -0.56775083118E+03  0.58785981083E+03  0.00000000000E+00 0. -1.
         -3    1    1    2    0  505  0.58951422765E+01  0.36927293911E+02  0.40673165943E+02  0.55251101038E+02  0.00000000000E+00 0. -1.
<scales pt_clust_3="14000.00000" pt_clust_4="70.73149" pt_clust_5="112.02739" pt_clust_6="37.39489"></scales>
<clustering>
<clus scale="   37.395">  1  6  2 -1</clus>
<clus scale="   70.731">  1  4  2 -1</clus>
<clus scale="  112.027">  1  5  2 -1</clus>
<clus scale="  112.027">  2  3  1 -1</clus>
</clustering>
</event>
<event>
 6    0  0.4796958E+002  0.1461403E+03  0.7546771E-02  0.1205298E+00
         -1   -1    0    0    0  501 -0.00000000000E+00  0.00000000000E+00  0.16205854979E+04  0.16205854979E+04  0.00000000000E+00 0. -1.
         21   -1    0    0  503  502  0.00000000000E+00 -0.00000000000E+00 -0.30059602438E+03  0.30059602438E+03  0.00000000000E+00 0. -1.
         21    1    1    2  503  505  0.75195007358E+02 -0.64020953780E+01 -0.29457571883E+02  0.81012495937E+02  0.00000000000E+00 0. -1.
         21    1    1    2  504  502 -0.18931079449E+03  0.97686912690E+02 -0.18557533596E+03  0.28252347714E+03  0.00000000000E+00 0. -1.
         21    1    1    2  505  501  0.11182418269E+03 -0.56063137418E+02  0.34295873819E+03  0.36505947367E+03  0.00000000000E+00 0.  1.
         -1    1    1    2    0  504  0.22916044391E+01 -0.35221679894E+02  0.11920636432E+04  0.11925860755E+04  0.00000000000E+00 0. -1.
<scales pt_clust_3="75.81345" pt_clust_4="14000.00000" pt_clust_5="146.14025" pt_clust_6="35.29615"></scales>
<clustering>
<clus scale="   35.296">  1  6  2 -1</clus>
<clus scale="   75.813">  2  3  1 -1</clus>
<clus scale="  146.140">  1  5  2 -1</clus>
<clus scale="   75.813">  2  3  1 -1</clus>
</clustering>
</event>
<event>
 6    0  0.4796958E+002  0.9294165E+02  0.7546771E-02  0.1295880E+00
          1   -1    0    0  505    0 -0.00000000000E+00  0.00000000000E+00  0.10785244803E+04  0.10785244803E+04  0.00000000000E+00 0. -1.
         21   -1    0    0  504  502  0.00000000000E+00 -0.00000000000E+00 -0.24450580046E+03  0.24450580046E+03  0.00000000000E+00 0. -1.
         21    1    1    2  503  501  0.38055255894E+02  0.77377288627E+02  0.23269279003E+03  0.24815596271E+03  0.00000000000E+00 0. -1.
         21    1    1    2  504  503 -0.46113020559E+02 -0.10319173265E+03 -0.75988958963E+02  0.13619569096E+03  0.00000000000E+00 0. -1.
         21    1    1    2  505  502 -0.29782950608E+02  0.47248795904E+02 -0.12409758811E+03  0.13608704654E+03  0.00000000000E+00 0. -1.
          1    1    1    2  501    0  0.37840715273E+02 -0.21434351884E+02  0.80141243688E+03  0.80259158055E+03  0.00000000000E+00 0. -1.
<scales pt_clust_3="92.94165" pt_clust_4="14000.00000" pt_clust_5="55.02351" pt_clust_6="43.48967"></scales>
<clustering>
<clus scale="   43.490">  1  6  2 -1</clus>
<clus scale="   55.024">  2  5  1 -1</clus>
<clus scale="   92.942">  1  3  2 -1</clus>
<clus scale="   55.024">  2  3  1 -1</clus>
</clustering>
</event>
<event>
 6    0  0.4796958E+002  0.8309432E+02  0.7546771E-02  0.1320493E+00
         21   -1    0    0  504  502  0.00000000000E+00  0.00000000000E+00  0.21055155824E+03  0.21055155824E+03  0.00000000000E+00 0. -1.
          1   -1    0    0  505    0 -0.00000000000E+00 -0.00000000000E+00 -0.13323667096E+04  0.13323667096E+04  0.00000000000E+00 0.  1.
         21    1    1    2  503  502 -0.28696553867E+02 -0.11228557852E+02  0.31910127332E+02  0.44360218007E+02  0.00000000000E+00 0. -1.
         21    1    1    2  504  501  0.16433083124E+02 -0.66773796050E+02  0.13740204253E+03  0.15364929987E+03  0.00000000000E+00 0. -1.
         21    1    1    2  505  503  0.67548231236E+02  0.15689572562E+02 -0.21573164939E+02  0.72624566613E+02  0.00000000000E+00 0. -1.
          1    1    1    2  501    0 -0.55284760493E+02  0.62312781341E+02 -0.12695541563E+04  0.12722841834E+04  0.00000000000E+00 0.  1.
<scales pt_clust_3="30.81514" pt_clust_4="14000.00000" pt_clust_5="64.83539" pt_clust_6="83.09432"></scales>
<clustering>
<clus scale="   30.815">  1  3  2 -1</clus>
<clus scale="   64.835">  1  5  2 -1</clus>
<clus scale="   83.094">  2  6  1 -1</clus>
<clus scale="   30.815">  1  3  2 -1</clus>
</clustering>
</event>
<event>
 6    0  0.4796958E+002  0.8906641E+02  0.7546771E-02  0.1305128E+00
          1   -1    0    0  505    0 -0.00000000000E+00  0.00000000000E+00  0.10938333699E+04  0.10938333699E+04  0.00000000000E+00 0. -1.
         21   -1    0    0  503  502  0.00000000000E+00 -0.00000000000E+00 -0.44497261010E+03  0.44497261010E+03  0.00000000000E+00 0.  1.
         21    1    1    2  503  504  0.31198031417E+02  0.31924169816E+02 -0.35778448878E+03  0.36055819252E+03  0.00000000000E+00 0.  1.
         21    1    1    2  504  501 -0.31933217654E+02 -0.12041620533E+03 -0.32535554121E+02  0.12875696167E+03  0.00000000000E+00 0.  1.
         21    1    1    2  505  502  0.26145850535E+02  0.72189300302E+02  0.29918896311E+03  0.30888336994E+03  0.00000000000E+00 0.  1.
          1    1    1    2  501    0 -0.25410664298E+02  0.16302735214E+02  0.73999183955E+03  0.74060745583E+03  0.00000000000E+00 0. -1.
<scales pt_clust_3="44.61331" pt_clust_4="14000.00000" pt_clust_5="89.06641" pt_clust_6="30.19074"></scales>
<clustering>
<clus scale="   30.191">  1  6  2 -1</clus>
<clus scale="   44.613">  2  3  1 -1</clus>
<clus scale="   89.066">  1  5  2 -1</clus>
<clus scale="   44.613">  2  3  1 -1</clus>
</clustering>
</event>
<event>
 6    0  0.4796958E+002  0.7688997E+02  0.7546771E-02  0.1338116E+00
         -4   -1    0    0    0  501 -0.00000000000E+00  0.00000000000E+00  0.11616539685E+04  0.11616539685E+04  0.00000000000E+00 0.  1.
         21   -1    0    0  503  502  0.00000000000E+00 -0.00000000000E+00 -0.32191688459E+03  0.32191688459E+03  0.00000000000E+00 0. -1.
         21    1    1    2  503  504 -0.43962929054E+02 -0.47393822468E+02 -0.25754576275E+03  0.26553480647E+03  0.00000000000E+00 0. -1.
         21    1    1    2  504  501  0.43018523570E+02 -0.76186497097E+02  0.63293411814E+03  0.63895271626E+03  0.00000000000E+00 0.  1.
         21    1    1    2  505  502  0.17124442341E+01  0.51125264620E+02 -0.42853233332E+02  0.66731737237E+02  0.00000000000E+00 0. -1.
         -4    1    1    2    0  505 -0.76803874997E+00  0.72455054945E+02  0.50720196184E+03  0.51235159311E+03  0.00000000000E+00 0.  1.
<scales pt_clust_3="42.37003" pt_clust_4="14000.00000" pt_clust_5="51.15394" pt_clust_6="76.88997"></scales>
<clustering>
<clus scale="   51.154">  2  5  1 -1</clus>
<clus scale="   42.370">  2  3  1 -1</clus>
<clus scale="   76.890">  1  6  2 -1</clus>
<clus scale="   51.154">  2  3  1 -1</clus>
</clustering>
</event>
<event>
 6    0  0.4796958E+002  0.1195277E+03  0.7546771E-02  0.1243878E+00
         21   -1    0    0  504  502  0.00000000000E+00  0.00000000000E+00  0.34070042683E+02  0.34070042683E+02  0.00000000000E+00 0. -1.
          2   -1    0    0  505    0 -0.00000000000E+00 -0.00000000000E+00 -0.11651128189E+04  0.11651128189E+04  0.00000000000E+00 0.  1.
         21    1    1    2  503  501 -0.32868696242E+02  0.10286540523E+03 -0.10046491227E+03  0.14749522495E+03  0.00000000000E+00 0. -1.
         21    1    1    2  504  503 -0.29283337100E+02  0.98303999579E+01 -0.76704794872E+02  0.82690846842E+02  0.00000000000E+00 0. -1.
         21    1    1    2  505  502  0.28290060054E+02 -0.11439721028E+03 -0.49341786609E+03  0.50729502244E+03  0.00000000000E+00 0.  1.
          2    1    1    2  501    0  0.33861973289E+02  0.17014050865E+01 -0.46045520298E+03  0.46170176734E+03  0.00000000000E+00 0.  1.
<scales pt_clust_3="119.52766" pt_clust_4="30.88933" pt_clust_5="14000.00000" pt_clust_6="33.32878"></scales>
<clustering>
<clus scale="   30.889">  1  4  2 -1</clus>
<clus scale="   33.329">  2  6  1 -1</clus>
<clus scale="  119.528">  1  3  2 -1</clus>
<clus scale="   30.889">  1  3  2 -1</clus>
</clustering>
</event>
<event>
 6    0  0.4796958E+002  0.1262961E+03  0.7546771E-02  0.1233057E+00
          2   -1    0    0  503    0 -0.00000000000E+00  0.00000000000E+00  0.11708805260E+04  0.11708805260E+04  0.00000000000E+00 0.  1.
         21   -1    0    0  505  502  0.00000000000E+00 -0.00000000000E+00 -0.12666534426E+03  0.12666534426E+03  0.00000000000E+00 0.  1.
         21    1    1    2  503  502  0.34300941547E+02  0.10938099899E+03  0.49109486912E+02  0.12470965976E+03  0.00000000000E+00 0. -1.
         21    1    1    2  504  501 -0.42405795422E+02 -0.14644846197E+03  0.83602927556E+02  0.17388172127E+03  0.00000000000E+00 0.  1.
         21    1    1    2  505  504 -0.32735325193E+02 -0.86751461347E+01 -0.36025588866E+02  0.49443935211E+02  0.00000000000E+00 0. -1.
          2    1    1    2  501    0  0.40840179068E+02  0.45742609107E+02  0.94752835616E+03  0.94951055404E+03  0.00000000000E+00 0.  1.
<scales pt_clust_3="126.29612" pt_clust_4="14000.00000" pt_clust_5="33.86532" pt_clust_6="60.98787"></scales>
<clustering>
<clus scale="   33.865">  2  5  1 -1</clus>
<clus scale="   60.988">  1  6  2 -1</clus>
<clus scale="  126.296">  2  3  1 -1</clus>
<clus scale="   33.865">  2  3  1 -1</clus>
</clustering>
</event>
<event>
 6    0  0.4796958E+002  0.1457510E+03  0.7546771E-02  0.1205794E+00
         21   -1    0    0  504  502  0.00000000000E+00  0.00000000000E+00  0.34023697461E+04  0.34023697461E+04  0.00000000000E+00 0. -1.
         -3   -1    0    0    0  501 -0.00000000000E+00 -0.00000000000E+00 -0.13574506112E+03  0.13574506112E+03  0.00000000000E+00 0. -1.
         21    1    1    2  503  505 -0.10337004461E+03  0.58349882921E+02  0.20463353790E+02  0.12045257908E+03  0.00000000000E+00 0. -1.
         21    1    1    2  504  501 -0.50854320746E+02  0.32380313014E+02  0.16878587650E+03  0.17922979304E+03  0.00000000000E+00 0. -1.
         21    1    1    2  505  502  0.13466791556E+03 -0.58175094589E+02  0.31516233362E+04  0.31550355691E+04  0.00000000000E+00 0. -1.
         -3    1    1    2    0  503  0.19556449786E+02 -0.32555101347E+02 -0.74247881488E+02  0.83396865993E+02  0.00000000000E+00 0. -1.
<scales pt_clust_3="14000.00000" pt_clust_4="57.19181" pt_clust_5="145.75099" pt_clust_6="37.97748"></scales>
<clustering>
<clus scale="   37.977">  2  6  1 -1</clus>
<clus scale="   57.192">  2  4  1 -1</clus>
<clus scale="  145.751">  1  5  2 -1</clus>
<clus scale="  145.751">  1  3  2 -1</clus>
</clustering>
</event>
<event>
 6    0  0.4796958E+002  0.9757147E+02  0.7546771E-02  0.1285487E+00
         21   -1    0    0  505  502  0.00000000000E+00  0.00000000000E+00  0.91470450743E+03  0.91470450743E+03  0.00000000000E+00 0. -1.
          1   -1    0    0  504    0 -0.00000000000E+00 -0.00000000000E+00 -0.28138074307E+04  0.28138074307E+04  0.00000000000E+00 0.  1.
         21    1    1    2  503  502 -0.16797050281E+02 -0.31251393134E+02  0.22940612643E+03  0.23213349891E+03  0.00000000000E+00 0. -1.
         21    1    1    2  504  503  0.69879448282E+02  0.10915732684E+03  0.19481457076E+03  0.23398969267E+03  0.00000000000E+00 0. -1.
         21    1    1    2  505  501  0.29464241172E+02 -0.26031452758E+02  0.46785695293E+03  0.46950602387E+03  0.00000000000E+00 0. -1.
          1    1    1    2  501    0 -0.82546639173E+02 -0.51874480946E+02 -0.27911805734E+04  0.27928827227E+04  0.00000000000E+00 0.  1.
<scales pt_clust_3="35.47944" pt_clust_4="97.57147" pt_clust_5="50.73035" pt_clust_6="14000.00000"></scales>
<clustering>
<clus scale="   35.479">  1  3  2 -1</clus>
<clus scale="   50.730">  1  5  2 -1</clus>
<clus scale="   97.571">  1  4  2 -1</clus>
<clus scale="   35.479">  1  3  2 -1</clus>
</clustering>
</event>
<event>
 6    0  0.4796958E+002  0.1039973E+03  0.7546771E-02  0.1272108E+00
         21   -1    0    0  504  502  0.00000000000E+00  0.00000000000E+00  0.35455143212E+03  0.35455143212E+03  0.00000000000E+00 0.  1.
          2   -1    0    0  503    0 -0.00000000000E+00 -0.00000000000E+00 -0.77864404890E+03  0.77864404890E+03  0.00000000000E+00 0. -1.
         21    1    1    2  503  502 -0.67343734043E+02  0.12342264319E+03 -0.47204056076E+03  0.49253489051E+03  0.00000000000E+00 0. -1.
         21    1    1    2  504  505  0.10185024039E+03 -0.21971508408E+02  0.31357582452E+03  0.33043307397E+03  0.00000000000E+00 0.  1.
         21    1    1    2  505  501  0.43015645551E+00 -0.76651534609E+02 -0.52673657947E+02  0.93006220405E+02  0.00000000000E+00 0.  1.
          2    1    1    2  501    0 -0.34936662805E+02 -0.24799600178E+02 -0.21295422260E+03  0.21722129614E+03  0.00000000000E+00 0. -1.
<scales pt_clust_3="14000.00000" pt_clust_4="103.99735" pt_clust_5="79.96133" pt_clust_6="42.84379"></scales>
<clustering>
<clus scale="   42.844">  2  6  1 -1</clus>
<clus scale="   79.961">  2  5  1 -1</clus>
<clus scale="  103.997">  1  4  2 -1</clus>
<clus scale="  103.997">  1  3  2 -1</clus>
</clustering>
</event>
<event>
 6    0  0.4796958E+002  0.1013809E+03  0.7546771E-02  0.1277419E+00
         21   -1    0    0  503  502  0.00000000000E+00  0.00000000000E+00  0.28908079342E+03  0.28908079342E+03  0.00000000000E+00 0. -1.
          2   -1    0    0  505    0 -0.00000000000E+00 -0.00000000000E+00 -0.14937364418E+03  0.14937364418E+03  0.00000000000E+00 0. -1.
         21    1    1    2  503  504 -0.56809911864E+01 -0.38313151033E+02  0.52308739761E+02  0.65087444706E+02  0.00000000000E+00 0.  1.
         21    1    1    2  504  501  0.10650109418E+03 -0.59053092818E+02  0.85339276735E+02  0.14870286812E+03  0.00000000000E+00 0. -1.
         21    1    1    2  505  502 -0.80216695555E+02  0.43716101930E+02  0.84316942381E+02  0.12431879418E+03  0.00000000000E+00 0. -1.
          2    1    1    2  501    0 -0.20603407442E+02  0.53650141921E+02 -0.82257809638E+02  0.10034533060E+03  0.00000000000E+00 0. -1.
<scales pt_clust_3="38.73204" pt_clust_4="14000.00000" pt_clust_5="101.38088" pt_clust_6="56.15122"></scales>
<clustering>
<clus scale="   38.732">  1  3  2 -1</clus>
<clus scale="   56.151">  2  6  1 -1</clus>
<clus scale="  101.381">  1  5  2 -1</clus>
<clus scale="   38.732">  1  3  2 -1</clus>
</clustering>
</event>
<event>
 6    0  0.4796958E+002  0.5675618E+02  0.7546771E-02  0.1411972E+00
          2   -1    0    0  503    0 -0.00000000000E+00  0.00000000000E+00  0.29336794627E+04  0.29336794627E+04  0.00000000000E+00 0. -1.
         21   -1    0    0  505  502  0.00000000000E+00 -0.00000000000E+00 -0.23437477065E+03  0.23437477065E+03  0.00000000000E+00 0.  1.
         21    1    1    2  503  504  0.53219246388E+02 -0.75952469224E+02  0.15136739805E+04  0.15165124414E+04  0.00000000000E+00 0. -1.
         21    1    1    2  504  502 -0.25278230093E+02  0.82802337251E+02 -0.20738260132E+03  0.22472818982E+03  0.00000000000E+00 0.  1.
         21    1    1    2  505  501  0.15370503665E+02 -0.27540206137E+02 -0.14040452986E+01  0.31570344949E+02  0.00000000000E+00 0.  1.
          2    1    1    2  501    0 -0.43311519959E+02  0.20690338110E+02  0.13944173583E+04  0.13952432572E+04  0.00000000000E+00 0. -1.
<scales pt_clust_3="56.75618" pt_clust_4="14000.00000" pt_clust_5="31.53911" pt_clust_6="47.95100"></scales>
<clustering>
<clus scale="   31.539">  2  5  1 -1</clus>
<clus scale="   47.951">  1  6  2 -1</clus>
<clus scale="   56.756">  1  3  2 -1</clus>
<clus scale="   31.539">  2  3  1 -1</clus>
</clustering>
</event>
<event>
 6    0  0.4796958E+002  0.1253673E+03  0.7546771E-02  0.1234496E+00
          2   -1    0    0  503    0 -0.00000000000E+00  0.00000000000E+00  0.13759035785E+03  0.13759035785E+03  0.00000000000E+00 0. -1.
         21   -1    0    0  505  502  0.00000000000E+00 -0.00000000000E+00 -0.90936356388E+03  0.90936356388E+03  0.00000000000E+00 0. -1.
         21    1    1    2  503  504 -0.60977446550E+02  0.39359255284E+02  0.52738829390E+02  0.89715015965E+02  0.00000000000E+00 0. -1.
         21    1    1    2  504  502  0.79215084194E+02  0.62479563656E+02 -0.60299252160E+03  0.61137444053E+03  0.00000000000E+00 0. -1.
         21    1    1    2  505  501 -0.43027999788E+02  0.61447610285E+02 -0.14624457684E+03  0.16436147307E+03  0.00000000000E+00 0. -1.
          2    1    1    2  501    0  0.24790362144E+02 -0.16328642922E+03 -0.75274936982E+02  0.18150299216E+03  0.00000000000E+00 0. -1.
<scales pt_clust_3="72.57686" pt_clust_4="14000.00000" pt_clust_5="84.27261" pt_clust_6="125.36733"></scales>
<clustering>
<clus scale="   72.577">  1  3  2 -1</clus>
<clus scale="   84.273">  2  5  1 -1</clus>
<clus scale="  125.367">  1  6  2 -1</clus>
<clus scale="   84.273">  2  3  1 -1</clus>
</clustering>
</event>
<event>
 6    0  0.4796958E+002  0.1218276E+03  0.7546771E-02  0.1240112E+00
         21   -1    0    0  505  502  0.00000000000E+00  0.00000000000E+00  0.35414826555E+04  0.35414826555E+04  0.00000000000E+00 0.  1.
          2   -1    0    0  503    0 -0.00000000000E+00 -0.00000000000E+00 -0.17363846322E+03  0.17363846322E+03  0.00000000000E+00 0.  1.
         21    1    1    2  503  502  0.70449616746E+02 -0.83069597810E+02  0.49504811844E+03  0.50688888935E+03  0.00000000000E+00 0.  1.
         21    1    1    2  504  501 -0.44189751980E+02 -0.58916897229E+01  0.24822294127E+04  0.24826297153E+04  0.00000000000E+00 0.  1.
         21    1    1    2  505  504 -0.50477928649E+01 -0.32260569160E+02  0.53491777152E+03  0.53591346952E+03  0.00000000000E+00 0.  1.
          2    1    1    2  501    0 -0.21212071901E+02  0.12122185669E+03 -0.14435111038E+03  0.18968904450E+03  0.00000000000E+00 0.  1.
<scales pt_clust_3="14000.00000" pt_clust_4="58.28289" pt_clust_5="32.65309" pt_clust_6="121.82757"></scales>
<clustering>
<clus scale="   32.653">  1  5  2 -1</clus>
<clus scale="   58.283">  1  4  2 -1</clus>
<clus scale="  121.828">  2  6  1 -1</clus>
<clus scale="   32.653">  1  3  2 -1</clus>
</clustering>
</event>
<event>
 6    0  0.4796958E+002  0.9734933E+02  0.7546771E-02  0.1285971E+00
         21   -1    0    0  503  502  0.00000000000E+00  0.00000000000E+00  0.14411259859E+04  0.14411259859E+04  0.00000000000E+00 0. -1.
          2   -1    0    0  502    0 -0.00000000000E+00 -0.00000000000E+00 -0.13646747977E+04  0.13646747977E+04  0.00000000000E+00 0. -1.
         21    1    1    2  503  505  0.22872118960E+02 -0.40580610625E+02  0.11449936118E+04  0.11459407885E+04  0.00000000000E+00 0. -1.
         21    1    1    2  504  501  0.10586537346E+03 -0.29903402887E+02  0.11281900395E+03  0.15757480273E+03  0.00000000000E+00 0.  1.
         21    1    1    2  505  504 -0.87792427448E+02  0.61529489365E+02  0.14218632959E+03  0.17807397536E+03  0.00000000000E+00 0.  1.
          2    1    1    2  501    0 -0.40945064974E+02  0.89545241470E+01 -0.13235477571E+04  0.13242112170E+04  0.00000000000E+00 0. -1.
<scales pt_clust_3="46.25988" pt_clust_4="14000.00000" pt_clust_5="97.34933" pt_clust_6="41.91279"></scales>
<clustering>
<clus scale="   41.913">  2  6  1 -1</clus>
<clus scale="   46.260">  1  3  2 -1</clus>
<clus scale="   97.349">  1  5  2 -1</clus>
<clus scale="   46.260">  1  3  2 -1</clus>
</clustering>
</event>
<event>
 6    0  0.4796958E+002  0.1618500E+03  0.7546771E-02  0.1186624E+00
         21   -1    0    0  504  502  0.00000000000E+00  0.00000000000E+00  0.25331914436E+04  0.25331914436E+04  0.00000000000E+00 0. -1.
          2   -1    0    0  503    0 -0.00000000000E+00 -0.00000000000E+00 -0.20699204636E+03  0.20699204636E+03  0.00000000000E+00 0. -1.
         21    1    1    2  503  502  0.10249109553E+03 -0.20151939333E+03  0.14443327422E+04  0.14619205043E+04  0.00000000000E+00 0. -1.
         21    1    1    2  504  505 -0.39784762420E+02  0.58257311019E+02  0.91779228047E+03  0.92049954465E+03  0.00000000000E+00 0. -1.
         21    1    1    2  505  501 -0.12055512030E+03  0.10314402740E+03  0.11182012172E+03  0.19410298051E+03  0.00000000000E+00 0. -1.
          2    1    1    2  501    0  0.57848787192E+02  0.40118054905E+02 -0.14774574721E+03  0.16366046049E+03  0.00000000000E+00 0. -1.
<scales pt_clust_3="161.84996" pt_clust_4="70.58383" pt_clust_5="14000.00000" pt_clust_6="70.39844"></scales>
<clustering>
<clus scale="   70.398">  2  6  1 -1</clus>
<clus scale="   70.584">  1  4  2 -1</clus>
<clus scale="  161.850">  1  3  2 -1</clus>
<clus scale="   70.584">  1  3  2 -1</clus>
</clustering>
</event>
<event>
 6    0  0.4796958E+002  0.6770806E+02  0.7546771E-02  0.1368065E+00
         21   -1    0    0  504  502  0.00000000000E+00  0.00000000000E+00  0.66578307323E+02  0.66578307323E+02  0.00000000000E+00 0. -1.
          1   -1    0    0  503    0 -0.00000000000E+00 -0.00000000000E+00 -0.12817068344E+04  0.12817068344E+04  0.00000000000E+00 0. -1.
         21    1    1    2  503  505  0.45051125437E+02 -0.26338819438E+02 -0.41214690970E+02  0.66498030530E+02  0.00000000000E+00 0. -1.
         21    1    1    2  504  501 -0.77090961392E+02  0.54268883860E+01 -0.33364003904E+02  0.84176149843E+02  0.00000000000E+00 0. -1.
         21    1    1    2  505  502  0.42453624471E+02  0.69032081396E+02 -0.30687510449E+02  0.86657150831E+02  0.00000000000E+00 0. -1.
          1    1    1    2  501    0 -0.10413788516E+02 -0.48120150344E+02 -0.11098623218E+04  0.11109538106E+04  0.00000000000E+00 0. -1.
<scales pt_clust_3="58.86339" pt_clust_4="67.70806" pt_clust_5="14000.00000" pt_clust_6="49.23409"></scales>
<clustering>
<clus scale="   49.234">  2  6  1 -1</clus>
<clus scale="   58.863">  2  3  1 -1</clus>
<clus scale="   67.708">  2  4  1 -1</clus>
<clus scale="   67.708">  1  3  2 -1</clus>
</clustering>
</event>
<event>
 6    0  0.4796958E+002  0.1046933E+03  0.7546771E-02  0.1270725E+00
         21   -1    0    0  505  502  0.00000000000E+00  0.00000000000E+00  0.96266314084E+02  0.96266314084E+02  0.00000000000E+00 0.  1.
          2   -1    0    0  503    0 -0.00000000000E+00 -0.00000000000E+00 -0.26532361984E+04  0.26532361984E+04  0.00000000000E+00 0. -1.
         21    1    1    2  503  504 -0.30033156152E+02  0.10543945024E+02 -0.10267722917E+03  0.10749780758E+03  0.00000000000E+00 0.  1.
         21    1    1    2  504  502  0.10426110783E+03 -0.18824683158E+02  0.62046033908E+02  0.12277808284E+03  0.00000000000E+00 0.  1.
         21    1    1    2  505  501 -0.31619453391E+02  0.48643092280E+02 -0.15684789991E+04  0.15695516274E+04  0.00000000000E+00 0. -1.
          2    1    1    2  501    0 -0.42608498290E+02 -0.40362354146E+02 -0.94785968987E+03  0.94967499464E+03  0.00000000000E+00 0. -1.
<scales pt_clust_3="31.83026" pt_clust_4="104.69334" pt_clust_5="14000.00000" pt_clust_6="64.96983"></scales>
<clustering>
<clus scale="   31.830">  2  3  1 -1</clus>
<clus scale="   64.970">  2  6  1 -1</clus>
<clus scale="  104.693">  1  4  2 -1</clus>
<clus scale="  104.693">  1  3  2 -1</clus>
</clustering>
</event>
<event>
 6    0  0.4796958E+002  0.1391711E+03  0.7546771E-02  0.1214449E+00
         -4   -1    0    0    0  501 -0.00000000000E+00  0.00000000000E+00  0.29407450226E+03  0.29407450226E+03  0.00000000000E+00 0. -1.
         21   -1    0    0  505  502  0.00000000000E+00 -0.00000000000E+00 -0.10959542673E+04  0.10959542673E+04  0.00000000000E+00 0.  1.
         21    1    1    2  503  501 -0.12786207143E+03 -0.33064533702E+02  0.43975538679E+02  0.13919705708E+03  0.00000000000E+00 0.  1.
         21    1    1    2  504  502  0.29103040656E+02 -0.26951129526E+02 -0.76953451740E+03  0.77055611336E+03  0.00000000000E+00 0.  1.
         21    1    1    2  505  503  0.11753164405E+03  0.26984598063E+02 -0.26323354624E+03  0.28954059431E+03  0.00000000000E+00 0.  1.
         -4    1    1    2    0  504 -0.18772613282E+02  0.33031065165E+02  0.18691275988E+03  0.19073500486E+03  0.00000000000E+00 0. -1.
<scales pt_clust_3="139.17108" pt_clust_4="39.48975" pt_clust_5="14000.00000" pt_clust_6="37.99292"></scales>
<clustering>
<clus scale="   37.993">  1  6  2 -1</clus>
<clus scale="   39.490">  2  4  1 -1</clus>
<clus scale="  139.171">  1  3  2 -1</clus>
<clus scale="   39.490">  2  3  1 -1</clus>
</clustering>
</event>
<event>
 6    0  0.4796958E+002  0.1240208E+03  0.7546771E-02  0.1236608E+00
         21   -1    0    0  505  502  0.00000000000E+00  0.00000000000E+00  0.65014905590E+03  0.65014905590E+03  0.00000000000E+00 0.  1.
         -4   -1    0    0    0  501 -0.00000000000E+00 -0.00000000000E+00 -0.57858470405E+03  0.57858470405E+03  0.00000000000E+00 0. -1.
         21    1    1    2  503  504 -0.13781569796E+03  0.27227232743E+01  0.69990245670E+02  0.15459370723E+03  0.00000000000E+00 0. -1.
         21    1    1    2  504  502  0.19026013685E+02 -0.45561504746E+02  0.52310425279E+03  0.52542925232E+03  0.00000000000E+00 0.  1.
         21    1    1    2  505  501  0.26675493225E+02  0.29828099743E+02 -0.34377606044E+02  0.52755258225E+02  0.00000000000E+00 0. -1.
         -4    1    1    2    0  503  0.92114191053E+02  0.13010681729E+02 -0.48715254056E+03  0.49595554217E+03  0.00000000000E+00 0. -1.
<scales pt_clust_3="124.02082" pt_clust_4="49.33708" pt_clust_5="40.01622" pt_clust_6="14000.00000"></scales>
<clustering>
<clus scale="   40.016">  2  5  1 -1</clus>
<clus scale="   49.337">  1  4  2 -1</clus>
<clus scale="  124.021">  1  3  2 -1</clus>
<clus scale="   49.337">  1  3  2 -1</clus>
</clustering>
</event>
<event>
 6    0  0.4796958E+002  0.1751041E+03  0.7546771E-02  0.1172627E+00
          3   -1    0    0  504    0 -0.00000000000E+00  0.00000000000E+00  0.23735099838E+04  0.23735099838E+04  0.00000000000E+00 0. -1.
         21   -1    0    0  505  502  0.00000000000E+00 -0.00000000000E+00 -0.79022944495E+02  0.79022944495E+02  0.00000000000E+00 0. -1.
         21    1    1    2  503  501  0.43159794420E+02  0.24516720027E+02  0.21546742486E+02  0.54111916682E+02  0.00000000000E+00 0.  1.
         21    1    1    2  504  502  0.15669469076E+03 -0.71496449256E+02  0.25881395371E+03  0.31088523768E+03  0.00000000000E+00 0. -1.
         21    1    1    2  505  503 -0.23684459458E+02  0.31853761123E+02 -0.20887803147E+02  0.44854387052E+02  0.00000000000E+00 0. -1.
          3    1    1    2  501    0 -0.17617002572E+03  0.15125968106E+02  0.20350141462E+04  0.20426813868E+04  0.00000000000E+00 0. -1.
<scales pt_clust_3="49.89705" pt_clust_4="175.10405" pt_clust_5="39.69403" pt_clust_6="14000.00000"></scales>
<clustering>
<clus scale="   39.694">  2  5  1 -1</clus>
<clus scale="   49.897">  2  3  1 -1</clus>
<clus scale="  175.104">  2  4  1 -1</clus>
<clus scale="   39.694">  2  3  1 -1</clus>
</clustering>
</event>
<event>
 6    0  0.4796958E+002  0.9699863E+02  0.7546771E-02  0.1286737E+00
         21   -1    0    0  503  502  0.00000000000E+00  0.00000000000E+00  0.10383684303E+02  0.10383684303E+02  0.00000000000E+00 0.  1.
          2   -1    0    0  502    0 -0.00000000000E+00 -0.00000000000E+00 -0.40090173728E+04  0.40090173728E+04  0.00000000000E+00 0.  1.
         21    1    1    2  503  505 -0.62216507817E+02 -0.12738012760E+02 -0.21543292494E+03  0.22459852173E+03  0.00000000000E+00 0.  1.
         21    1    1    2  504  501  0.57347254929E+02  0.79468656447E+02 -0.11465787522E+04  0.11507592319E+04  0.00000000000E+00 0.  1.
         21    1    1    2  505  504 -0.14605658920E+02 -0.91247790360E+02 -0.59094097452E+03  0.59812266291E+03  0.00000000000E+00 0.  1.
          2    1    1    2  501    0  0.19474911807E+02  0.24517146673E+02 -0.20456810369E+04  0.20459206405E+04  0.00000000000E+00 0.  1.
<scales pt_clust_3="60.85956" pt_clust_4="96.99863" pt_clust_5="14000.00000" pt_clust_6="31.31074"></scales>
<clustering>
<clus scale="   31.311">  2  6  1 -1</clus>
<clus scale="   60.860">  1  3  2 -1</clus>
<clus scale="   96.999">  2  4  1 -1</clus>
<clus scale="   60.860">  1  3  2 -1</clus>
</clustering>
</event>
<event>
 6    0  0.4796958E+002  0.7919492E+02  0.7546771E-02  0.1331352E+00
         21   -1    0    0  501  502  0.00000000000E+00  0.00000000000E+00  0.51225760216E+03  0.51225760216E+03  0.00000000000E+00 0.  1.
          2   -1    0    0  504    0 -0.00000000000E+00 -0.00000000000E+00 -0.90292638628E+03  0.90292638628E+03  0.00000000000E+00 0. -1.
         21    1    1    2  503  502  0.56013960899E+02 -0.55679867271E+02  0.48571862185E+03  0.49209794863E+03  0.00000000000E+00 0.  1.
         21    1    1    2  504  505  0.39167172975E+02 -0.19825925282E+02 -0.66703261876E+03  0.66847561605E+03  0.00000000000E+00 0. -1.
         21    1    1    2  505  503 -0.94847043198E+02  0.34164484662E+02 -0.16932596640E+03  0.19706459985E+03  0.00000000000E+00 0. -1.
          2    1    1    2  501    0 -0.33409067596E+00  0.41341307891E+02 -0.40028820810E+02  0.57545823916E+02  0.00000000000E+00 0. -1.
<scales pt_clust_3="14000.00000" pt_clust_4="40.86293" pt_clust_5="79.19492" pt_clust_6="41.34266"></scales>
<clustering>
<clus scale="   41.343">  2  6  1 -1</clus>
<clus scale="   40.863">  2  4  1 -1</clus>
<clus scale="   79.195">  2  5  1 -1</clus>
<clus scale="   79.195">  1  3  2 -1</clus>
</clustering>
</event>
<event>
 6    0  0.4796958E+002  0.8447587E+02  0.7546771E-02  0.1316809E+00
          1   -1    0    0  502    0 -0.00000000000E+00  0.00000000000E+00  0.23193281744E+04  0.23193281744E+04  0.00000000000E+00 0. -1.
         21   -1    0    0  504  502  0.00000000000E+00 -0.00000000000E+00 -0.64637718479E+02  0.64637718479E+02  0.00000000000E+00 0.  1.
         21    1    1    2  503  501 -0.66242439374E+02  0.89123625190E+02  0.75982450997E+02  0.13455264472E+03  0.00000000000E+00 0.  1.
         21    1    1    2  504  505  0.13317868863E+02 -0.29329503075E+02 -0.10923653971E+02  0.34013403208E+02  0.00000000000E+00 0.  1.
         21    1    1    2  505  503 -0.31856008581E+02 -0.56132725894E+02  0.74511844097E+02  0.98578410972E+02  0.00000000000E+00 0.  1.
          1    1    1    2  501    0  0.84780579093E+02 -0.36613962200E+01  0.21151198148E+04  0.21168214340E+04  0.00000000000E+00 0. -1.
<scales pt_clust_3="14000.00000" pt_clust_4="32.21157" pt_clust_5="70.33948" pt_clust_6="84.47587"></scales>
<clustering>
<clus scale="   32.212">  2  4  1 -1</clus>
<clus scale="   70.339">  2  5  1 -1</clus>
<clus scale="   84.476">  1  6  2 -1</clus>
<clus scale="   32.212">  2  3  1 -1</clus>
</clustering>
</event>
<event>
 6    0  0.4796958E+002  0.8840768E+02  0.7546771E-02  0.1306754E+00
         21   -1    0    0  505  502  0.00000000000E+00  0.00000000000E+00  0.41291190157E+03  0.41291190157E+03  0.00000000000E+00 0.  1.
          3   -1    0    0  504    0 -0.00000000000E+00 -0.00000000000E+00 -0.12201493852E+04  0.12201493852E+04  0.00000000000E+00 0.  1.
         21    1    1    2  503  501  0.40507225855E+02 -0.35540680248E+02  0.28925025388E+02  0.61160709550E+02  0.00000000000E+00 0.  1.
         21    1    1    2  504  502 -0.13165466312E+02  0.86294640953E+02 -0.59726710266E+02  0.10577038565E+03  0.00000000000E+00 0.  1.
         21    1    1    2  505  503 -0.41237339111E+02 -0.79540984517E+02  0.33879487342E+03  0.35044151097E+03  0.00000000000E+00 0.  1.
          3    1    1    2  501    0  0.13895579568E+02  0.28787023812E+02 -0.11152306722E+04  0.11156886807E+04  0.00000000000E+00 0.  1.
<scales pt_clust_3="52.78712" pt_clust_4="14000.00000" pt_clust_5="88.40768" pt_clust_6="31.96529"></scales>
<clustering>
<clus scale="   31.965">  2  6  1 -1</clus>
<clus scale="   52.787">  2  3  1 -1</clus>
<clus scale="   88.408">  1  5  2 -1</clus>
<clus scale="   88.408">  1  3  2 -1</clus>
</clustering>
</event>
<event>
 6    0  0.4796958E+002  0.6856033E+02  0.7546771E-02  0.1365058E+00
         -2   -1    0    0    0  501 -0.00000000000E+00  0.00000000000E+00  0.16771215608E+03  0.16771215608E+03  0.00000000000E+00 0.  1.
         21   -1    0    0  503  502  0.00000000000E+00 -0.00000000000E+00 -0.25808625021E+04  0.25808625021E+04  0.00000000000E+00 0.  1.
         21    1    1    2  503  504 -0.18117269826E+02  0.49323778257E+02 -0.62766134031E+03  0.62985699067E+03  0.00000000000E+00 0.  1.
         21    1    1    2  504  501 -0.85270115972E+02  0.10317787592E+02 -0.18121827334E+04  0.18142171063E+04  0.00000000000E+00 0.  1.
         21    1    1    2  505  502  0.43083193600E+02 -0.27120520733E+02 -0.12667602976E+03  0.13652289453E+03  0.00000000000E+00 0. -1.
         -2    1    1    2    0  505  0.60304192198E+02 -0.32521045116E+02  0.15336975752E+03  0.16797766665E+03  0.00000000000E+00 0.  1.
<scales pt_clust_3="42.94540" pt_clust_4="14000.00000" pt_clust_5="50.90859" pt_clust_6="68.56033"></scales>
<clustering>
<clus scale="   50.909">  2  5  1 -1</clus>
<clus scale="   42.945">  2  3  1 -1</clus>
<clus scale="   68.560">  1  6  2 -1</clus>
<clus scale="   50.909">  2  3  1 -1</clus>
</clustering>
</event>
<event>
 6    0  0.4796958E+002  0.1314757E+03  0.7546771E-02  0.1225282E+00
          2   -1    0    0  505    0 -0.00000000000E+00  0.00000000000E+00  0.11388480129E+04  0.11388480129E+04  0.00000000000E+00 0. -1.
         21   -1    0    0  504  502  0.00000000000E+00 -0.00000000000E+00 -0.72902033278E+03  0.72902033278E+03  0.00000000000E+00 0. -1.
         21    1    1    2  503  502 -0.96313451771E+02  0.41621497704E+02 -0.34363405040E+03  0.35929513031E+03  0.00000000000E+00 0. -1.
         21    1    1    2  504  501 -0.16624860321E+02  0.26817163073E+02 -0.36313161510E+03  0.36449981632E+03  0.00000000000E+00 0. -1.
         21    1    1    2  505  503  0.12885263165E+02  0.74017362155E+02  0.34527681493E+03  0.35335630578E+03  0.00000000000E+00 0.  1.
          2    1    1    2  501    0  0.10005304893E+03 -0.14245602293E+03  0.77131653064E+03  0.79071709322E+03  0.00000000000E+00 0. -1.
<scales pt_clust_3="131.47567" pt_clust_4="31.55228" pt_clust_5="75.39162" pt_clust_6="14000.00000"></scales>
<clustering>
<clus scale="   31.552">  2  4  1 -1</clus>
<clus scale="   75.392">  1  5  2 -1</clus>
<clus scale="  131.476">  2  3  1 -1</clus>
<clus scale="   31.552">  2  3  1 -1</clus>
</clustering>
</event>
<event>
 6    0  0.4796958E+002  0.1075215E+03  0.7546771E-02  0.1265230E+00
         21   -1    0    0  504  502  0.00000000000E+00  0.00000000000E+00  0.75980400866E+03  0.75980400866E+03  0.00000000000E+00 0.  1.
          4   -1    0    0  503    0 -0.00000000000E+00 -0.00000000000E+00 -0.27248304011E+03  0.27248304011E+03  0.00000000000E+00 0. -1.
         21    1    1    2  503  502 -0.34124141945E+02  0.11405447454E+03  0.41597970084E+03  0.43268001079E+03  0.00000000000E+00 0.  1.
         21    1    1    2  504  505 -0.35595551072E+02 -0.84183477139E+01  0.16611830380E+03  0.17009762695E+03  0.00000000000E+00 0.  1.
         21    1    1    2  505  501  0.32334902991E+02 -0.84192565264E+02  0.15322133507E+03  0.17779401429E+03  0.00000000000E+00 0.  1.
          4    1    1    2  501    0  0.37384790026E+02 -0.21443561559E+02 -0.24799837117E+03  0.25171539675E+03  0.00000000000E+00 0. -1.
<scales pt_clust_3="14000.00000" pt_clust_4="36.57748" pt_clust_5="107.52147" pt_clust_6="43.01437"></scales>
<clustering>
<clus scale="   36.577">  1  4  2 -1</clus>
<clus scale="   43.014">  2  6  1 -1</clus>
<clus scale="  107.521">  2  5  1 -1</clus>
<clus scale="   36.577">  1  3  2 -1</clus>
</clustering>
</event>
<event>
 6    0  0.4796958E+002  0.9765977E+02  0.7546771E-02  0.1285296E+00
          1   -1    0    0  504    0 -0.00000000000E+00  0.00000000000E+00  0.94857955888E+03  0.94857955888E+03  0.00000000000E+00 0.  1.
         21   -1    0    0  503  502  0.00000000000E+00 -0.00000000000E+00 -0.19512658671E+03  0.19512658671E+03  0.00000000000E+00 0. -1.
         21    1    1    2  503  505  0.29596469676E+02  0.14110391266E+03 -0.13714127660E+03  0.19898239855E+03  0.00000000000E+00 0. -1.
         21    1    1    2  504  502  0.13251801213E+01 -0.48656252757E+02  0.33632301417E+01  0.48790351010E+02  0.00000000000E+00 0. -1.
         21    1    1    2  505  501 -0.55069247657E+02 -0.69706629380E+02  0.55685390222E+03  0.56389529580E+03  0.00000000000E+00 0.  1.
          1    1    1    2  501    0  0.24147597859E+02 -0.22741030521E+02  0.33037711641E+03  0.33203810022E+03  0.00000000000E+00 0.  1.
<scales pt_clust_3="97.65977" pt_clust_4="49.67219" pt_clust_5="14000.00000" pt_clust_6="33.17018"></scales>
<clustering>
<clus scale="   33.170">  1  6  2 -1</clus>
<clus scale="   49.672">  2  4  1 -1</clus>
<clus scale="   97.660">  2  3  1 -1</clus>
<clus scale="   49.672">  2  3  1 -1</clus>
</clustering>
</event>
<event>
 6    0  0.4796958E+002  0.1219587E+03  0.7546771E-02  0.1239900E+00
         21   -1    0    0  504  502  0.00000000000E+00  0.00000000000E+00  0.56994992391E+02  0.56994992391E+02  0.00000000000E+00 0.  1.
          2   -1    0    0  502    0 -0.00000000000E+00 -0.00000000000E+00 -0.37087837196E+04  0.37087837196E+04  0.00000000000E+00 0. -1.
         21    1    1    2  503  505  0.53300140390E+02 -0.99899702277E+02 -0.16507387380E+04  0.16546175499E+04  0.00000000000E+00 0. -1.
         21    1    1    2  504  503 -0.24181436594E+02  0.12011495332E+03 -0.16744278074E+02  0.12366371632E+03  0.00000000000E+00 0.  1.
         21    1    1    2  505  501 -0.25999986210E+02 -0.61541469105E+02 -0.14732688621E+04  0.14747828625E+04  0.00000000000E+00 0.  1.
          2    1    1    2  501    0 -0.31187175862E+01  0.41326218065E+02 -0.51103684912E+03  0.51271458323E+03  0.00000000000E+00 0. -1.
<scales pt_clust_3="14000.00000" pt_clust_4="121.95872" pt_clust_5="50.57641" pt_clust_6="41.44373"></scales>
<clustering>
<clus scale="   41.444">  2  6  1 -1</clus>
<clus scale="   50.576">  2  5  1 -1</clus>
<clus scale="  121.959">  1  4  2 -1</clus>
<clus scale="  121.959">  1  3  2 -1</clus>
</clustering>
</event>
<event>
 6    0  0.4796958E+002  0.1313145E+03  0.7546771E-02  0.1225518E+00
          2   -1    0    0  505    0 -0.00000000000E+00  0.00000000000E+00  0.18890303394E+04  0.18890303394E+04  0.00000000000E+00 0.  1.
         21   -1    0    0  503  502  0.00000000000E+00 -0.00000000000E+00 -0.35970300305E+02  0.35970300305E+02  0.00000000000E+00 0.  1.
         21    1    1    2  503  504  0.22304647926E+02  0.39825737066E+02  0.14440199582E+03  0.15144478548E+03  0.00000000000E+00 0.  1.
         21    1    1    2  504  501  0.41896936616E+02  0.32100231202E+02  0.61570093900E+02  0.81096575784E+02  0.00000000000E+00 0.  1.
         21    1    1    2  505  502 -0.67859088494E+02 -0.14348954676E+03  0.26775675201E+03  0.31126802625E+03  0.00000000000E+00 0.  1.
          2    1    1    2  501    0  0.36575039521E+01  0.71563578492E+02  0.13793311973E+04  0.13811912522E+04  0.00000000000E+00 0.  1.
<scales pt_clust_3="45.13724" pt_clust_4="45.13724" pt_clust_5="122.01520" pt_clust_6="71.65698"></scales>
<clustering>
<clus scale="   45.137">  3  4 -1 -1</clus>
<clus scale="   71.657">  1  6  2 -1</clus>
<clus scale="  122.015">  1  5  2 -1</clus>
<clus scale="  131.315">  2  3  1 -1</clus>
</clustering>
</event>
<event>
 6    0  0.4796958E+002  0.1209534E+03  0.7546771E-02  0.1241532E+00
         21   -1    0    0  501  502  0.00000000000E+00  0.00000000000E+00  0.83950245705E+02  0.83950245705E+02  0.00000000000E+00 0.  1.
          1   -1    0    0  503    0 -0.00000000000E+00 -0.00000000000E+00 -0.11821878830E+04  0.11821878830E+04  0.00000000000E+00 0. -1.
         21    1    1    2  503  505 -0.43045107118E+02 -0.66894364994E+02 -0.94911575723E+03  0.95244341456E+03  0.00000000000E+00 0.  1.
         21    1    1    2  504  502  0.35212503984E+02  0.57519052719E+02 -0.60507900607E+02  0.90606665861E+02  0.00000000000E+00 0. -1.
         21    1    1    2  505  504  0.70292371135E+02  0.30718212503E+02  0.33944212485E+02  0.83885848511E+02  0.00000000000E+00 0.  1.
          1    1    1    2  501    0 -0.62459768001E+02 -0.21342900227E+02 -0.12255819192E+03  0.13920219975E+03  0.00000000000E+00 0. -1.
<scales pt_clust_3="120.95344" pt_clust_4="63.86135" pt_clust_5="14000.00000" pt_clust_6="66.00562"></scales>
<clustering>
<clus scale="   66.006">  2  6  1 -1</clus>
<clus scale="   63.861">  1  4  2 -1</clus>
<clus scale="  120.953">  2  3  1 -1</clus>
<clus scale="   63.861">  1  3  2 -1</clus>
</clustering>
</event>
<event>
 6    0  0.4796958E+002  0.7789201E+02  0.7546771E-02  0.1335142E+00
         21   -1    0    0  503  502  0.00000000000E+00  0.00000000000E+00  0.33004338794E+03  0.33004338794E+03  0.00000000000E+00 0. -1.
          1   -1    0    0  504    0 -0.00000000000E+00 -0.00000000000E+00 -0.40257898182E+03  0.40257898182E+03  0.00000000000E+00 0.  1.
         21    1    1    2  503  505 -0.31394713896E+02  0.34668851296E+02  0.19004970150E+03  0.19572032688E+03  0.00000000000E+00 0. -1.
         21    1    1    2  504  502 -0.65044634679E+02  0.43398100549E+02  0.61993122260E+02  0.99786506298E+02  0.00000000000E+00 0. -1.
         21    1    1    2  505  501  0.20889580897E+02 -0.58317241438E+02  0.33635864514E+02  0.70488627597E+02  0.00000000000E+00 0.  1.
          1    1    1    2  501    0  0.75549767678E+02 -0.19749710408E+02 -0.35821428216E+03  0.36662690900E+03  0.00000000000E+00 0.  1.
<scales pt_clust_3="46.77133" pt_clust_4="14000.00000" pt_clust_5="46.04055" pt_clust_6="77.89201"></scales>
<clustering>
<clus scale="   46.771">  1  3  2 -1</clus>
<clus scale="   46.041">  1  5  2 -1</clus>
<clus scale="   77.892">  2  6  1 -1</clus>
<clus scale="   46.771">  1  3  2 -1</clus>
</clustering>
</event>
<event>
 6    0  0.4796958E+002  0.1744440E+03  0.7546771E-02  0.1173291E+00
         21   -1    0    0  505  502  0.00000000000E+00  0.00000000000E+00  0.23350775441E+03  0.23350775441E+03  0.00000000000E+00 0.  1.
          2   -1    0    0  504    0 -0.00000000000E+00 -0.00000000000E+00 -0.10247209985E+04  0.10247209985E+04  0.00000000000E+00 0.  1.
         21    1    1    2  503  501 -0.13220814050E+03 -0.13026090823E+03 -0.51946092134E+03  0.55162174126E+03  0.00000000000E+00 0.  1.
         21    1    1    2  504  502 -0.32858514291E+02  0.11786783508E+03  0.10947184518E+03  0.16418463203E+03  0.00000000000E+00 0.  1.
         21    1    1    2  505  503  0.18277739146E+03 -0.18033559373E+02 -0.26044659326E+02  0.18550231366E+03  0.00000000000E+00 0.  1.
          2    1    1    2  501    0 -0.17710736676E+02  0.30426632526E+02 -0.35517950862E+03  0.35692006598E+03  0.00000000000E+00 0.  1.
<scales pt_clust_3="14000.00000" pt_clust_4="123.75639" pt_clust_5="174.44395" pt_clust_6="35.20583"></scales>
<clustering>
<clus scale="   35.206">  2  6  1 -1</clus>
<clus scale="  123.756">  1  4  2 -1</clus>
<clus scale="  174.444">  1  5  2 -1</clus>
<clus scale="  123.756">  1  3  2 -1</clus>
</clustering>
</event>
<event>
 6    0  0.4796958E+002  0.2513659E+03  0.7546771E-02  0.1112445E+00
         21   -1    0    0  503  502  0.00000000000E+00  0.00000000000E+00  0.15921489852E+03  0.15921489852E+03  0.00000000000E+00 0.  1.
          2   -1    0    0  505    0 -0.00000000000E+00 -0.00000000000E+00 -0.42754766007E+04  0.42754766007E+04  0.00000000000E+00 0. -1.
         21    1    1    2  503  504 -0.64037043343E+02  0.26884749430E+02  0.91039324463E+02  0.11450629359E+03  0.00000000000E+00 0.  1.
         21    1    1    2  504  501 -0.16188028435E+03  0.19171332663E+03 -0.47272605498E+03  0.53519075957E+03  0.00000000000E+00 0.  1.
         21    1    1    2  505  502  0.30730855939E+02 -0.59292276247E+02 -0.32348207114E+02  0.74204892243E+02  0.00000000000E+00 0.  1.
          2    1    1    2  501    0  0.19518647175E+03 -0.15930579981E+03 -0.37022267645E+04  0.37107895538E+04  0.00000000000E+00 0. -1.
<scales pt_clust_3="44.63706" pt_clust_4="14000.00000" pt_clust_5="66.78293" pt_clust_6="251.36592"></scales>
<clustering>
<clus scale="   66.783">  1  5  2 -1</clus>
<clus scale="   44.637">  1  3  2 -1</clus>
<clus scale="  251.366">  2  6  1 -1</clus>
<clus scale="   66.783">  1  3  2 -1</clus>
</clustering>
</event>
<event>
 6    0  0.4796958E+002  0.8517948E+02  0.7546771E-02  0.1314964E+00
          2   -1    0    0  503    0 -0.00000000000E+00  0.00000000000E+00  0.49036151619E+03  0.49036151619E+03  0.00000000000E+00 0.  1.
         21   -1    0    0  501  502  0.00000000000E+00 -0.00000000000E+00 -0.97913341791E+03  0.97913341791E+03  0.00000000000E+00 0.  1.
         21    1    1    2  503  504  0.69464888403E+02 -0.14142091756E+02 -0.49967995585E+02  0.86730444844E+02  0.00000000000E+00 0. -1.
         21    1    1    2  504  505 -0.36734261262E+02  0.67378347431E+02 -0.22245226213E+03  0.23531735291E+03  0.00000000000E+00 0.  1.
         21    1    1    2  505  502  0.28379516275E+02  0.10045888391E+02 -0.67740618813E+03  0.67807481927E+03  0.00000000000E+00 0.  1.
          2    1    1    2  501    0 -0.61110143416E+02 -0.63282144067E+02  0.46105454412E+03  0.46937231708E+03  0.00000000000E+00 0.  1.
<scales pt_clust_3="85.17948" pt_clust_4="76.52851" pt_clust_5="30.10510" pt_clust_6="14000.00000"></scales>
<clustering>
<clus scale="   30.105">  2  5  1 -1</clus>
<clus scale="   76.529">  2  4  1 -1</clus>
<clus scale="   85.179">  2  3  1 -1</clus>
<clus scale="   30.105">  2  3  1 -1</clus>
</clustering>
</event>
<event>
 6    0  0.4796958E+002  0.9877073E+02  0.7546771E-02  0.1282902E+00
          2   -1    0    0  503    0 -0.00000000000E+00  0.00000000000E+00  0.14567840270E+04  0.14567840270E+04  0.00000000000E+00 0. -1.
         21   -1    0    0  504  502  0.00000000000E+00 -0.00000000000E+00 -0.56440101998E+03  0.56440101998E+03  0.00000000000E+00 0. -1.
         21    1    1    2  503  505 -0.47395343213E+02  0.92629086626E+02  0.12316436969E+03  0.16123252838E+03  0.00000000000E+00 0. -1.
         21    1    1    2  504  501 -0.28895859202E+02 -0.65332801449E+02 -0.36938195117E+03  0.37622648960E+03  0.00000000000E+00 0. -1.
         21    1    1    2  505  502  0.45161544455E+02 -0.34294941139E+02 -0.16770390014E+03  0.17703193555E+03  0.00000000000E+00 0. -1.
          2    1    1    2  501    0  0.31129657960E+02  0.69986559623E+01  0.13063044886E+04  0.13066940934E+04  0.00000000000E+00 0. -1.
<scales pt_clust_3="14000.00000" pt_clust_4="98.77073" pt_clust_5="57.35025" pt_clust_6="31.90669"></scales>
<clustering>
<clus scale="   31.907">  1  6  2 -1</clus>
<clus scale="   57.350">  2  5  1 -1</clus>
<clus scale="   98.771">  2  4  1 -1</clus>
<clus scale="   57.350">  2  3  1 -1</clus>
</clustering>
</event>
<event>
 6    0  0.4796958E+002  0.1279739E+03  0.7546771E-02  0.1230493E+00
          2   -1    0    0  505    0 -0.00000000000E+00  0.00000000000E+00  0.14046182955E+04  0.14046182955E+04  0.00000000000E+00 0. -1.
         21   -1    0    0  503  502  0.00000000000E+00 -0.00000000000E+00 -0.72938481358E+03  0.72938481358E+03  0.00000000000E+00 0. -1.
         21    1    1    2  503  501 -0.80203496322E+01 -0.47509259773E+02 -0.69000553624E+03  0.69168569149E+03  0.00000000000E+00 0. -1.
         21    1    1    2  504  502  0.34507252239E+02  0.27247845583E+02 -0.22943073977E+01  0.44027938771E+02  0.00000000000E+00 0. -1.
         21    1    1    2  505  504 -0.13499874530E+03  0.70688354719E+01  0.11143084998E+04  0.11224785354E+04  0.00000000000E+00 0. -1.
          2    1    1    2  501    0  0.10851184270E+03  0.13192578718E+02  0.25322482573E+03  0.27581094341E+03  0.00000000000E+00 0. -1.
<scales pt_clust_3="33.12456" pt_clust_4="43.96812" pt_clust_5="127.97390" pt_clust_6="14000.00000"></scales>
<clustering>
<clus scale="   43.968">  2  4  1 -1</clus>
<clus scale="   33.125">  2  3  1 -1</clus>
<clus scale="  127.974">  1  5  2 -1</clus>
<clus scale="   43.968">  2  3  1 -1</clus>
</clustering>
</event>
<event>
 6    0  0.4796958E+002  0.1946499E+03  0.7546771E-02  0.1154333E+00
         21   -1    0    0  505  502  0.00000000000E+00  0.00000000000E+00  0.12702458925E+04  0.12702458925E+04  0.00000000000E+00 0.  1.
         -3   -1    0    0    0  501 -0.00000000000E+00 -0.00000000000E+00 -0.16322258940E+03  0.16322258940E+03  0.00000000000E+00 0.  1.
         21    1    1    2  503  504  0.18962318336E+03  0.27556915291E+02  0.58644238229E+03  0.61695299901E+03  0.00000000000E+00 0.  1.
         21    1    1    2  504  502  0.29023448959E+02 -0.32473199557E+02  0.13041438397E+03  0.13749465744E+03  0.00000000000E+00 0. -1.
         21    1    1    2  505  501 -0.47582463700E+02 -0.42662523357E+01  0.48219525348E+03  0.48455603829E+03  0.00000000000E+00 0.  1.
         -3    1    1    2    0  503 -0.17106416862E+03  0.91825366019E+01 -0.92028716632E+02  0.19446478717E+03  0.00000000000E+00 0.  1.
<scales pt_clust_3="41.22511" pt_clust_4="41.22511" pt_clust_5="47.77334" pt_clust_6="174.38885"></scales>
<clustering>
<clus scale="   41.225">  3  4 -1 -1</clus>
<clus scale="   47.773">  1  5  2 -1</clus>
<clus scale="  174.389">  2  6  1 -1</clus>
<clus scale="   47.773">  1  3  2 -1</clus>
</clustering>
</event>
<event>
 6    0  0.4796958E+002  0.2471302E+03  0.7546771E-02  0.1115132E+00
         21   -1    0    0  504  502  0.00000000000E+00  0.00000000000E+00  0.33411423731E+03  0.33411423731E+03  0.00000000000E+00 0. -1.
          2   -1    0    0  503    0 -0.00000000000E+00 -0.00000000000E+00 -0.18148707077E+04  0.18148707077E+04  0.00000000000E+00 0.  1.
         21    1    1    2  503  505 -0.74209835460E+02 -0.16447309559E+03  0.29724530538E+02  0.18287166693E+03  0.00000000000E+00 0.  1.
         21    1    1    2  504  501 -0.88495108152E+02  0.14776522835E+03 -0.15387297427E+03  0.23096068732E+03  0.00000000000E+00 0. -1.
         21    1    1    2  505  502 -0.96705941247E+02 -0.22846607727E+02  0.16417047473E+03  0.19190088934E+03  0.00000000000E+00 0. -1.
          2    1    1    2  501    0  0.25941088486E+03  0.39554474964E+02 -0.15207785014E+04  0.15432517014E+04  0.00000000000E+00 0.  1.
<scales pt_clust_3="247.13024" pt_clust_4="181.18376" pt_clust_5="99.36804" pt_clust_6="14000.00000"></scales>
<clustering>
<clus scale="   99.368">  1  5  2 -1</clus>
<clus scale="  181.184">  1  4  2 -1</clus>
<clus scale="  247.130">  1  3  2 -1</clus>
<clus scale="   99.368">  1  3  2 -1</clus>
</clustering>
</event>
<event>
 6    0  0.4796958E+002  0.1167844E+03  0.7546771E-02  0.1248498E+00
          1   -1    0    0  504    0 -0.00000000000E+00  0.00000000000E+00  0.28456023891E+04  0.28456023891E+04  0.00000000000E+00 0. -1.
         21   -1    0    0  505  502  0.00000000000E+00 -0.00000000000E+00 -0.29267299201E+02  0.29267299201E+02  0.00000000000E+00 0. -1.
         21    1    1    2  503  502 -0.69041244406E+02 -0.33712761522E+02  0.50286654176E+02  0.91825874931E+02  0.00000000000E+00 0. -1.
         21    1    1    2  504  503  0.19326489154E+02  0.86229140792E+02  0.19430124624E+04  0.19450209271E+04  0.00000000000E+00 0. -1.
         21    1    1    2  505  501 -0.90100035397E+01 -0.74656000044E+02  0.23718817591E+03  0.24882308835E+03  0.00000000000E+00 0. -1.
          1    1    1    2  501    0  0.58724758792E+02  0.22139620774E+02  0.58584779740E+03  0.58919979788E+03  0.00000000000E+00 0. -1.
<scales pt_clust_3="14000.00000" pt_clust_4="116.78441" pt_clust_5="72.32347" pt_clust_6="62.75954"></scales>
<clustering>
<clus scale="   62.760">  1  6  2 -1</clus>
<clus scale="   72.323">  2  5  1 -1</clus>
<clus scale="  116.784">  1  4  2 -1</clus>
<clus scale="   72.323">  2  3  1 -1</clus>
</clustering>
</event>
<event>
 6    0  0.4796958E+002  0.1100585E+03  0.7546771E-02  0.1260462E+00
          1   -1    0    0  504    0 -0.00000000000E+00  0.00000000000E+00  0.34965678986E+03  0.34965678986E+03  0.00000000000E+00 0.  1.
         21   -1    0    0  505  502  0.00000000000E+00 -0.00000000000E+00 -0.45621653984E+03  0.45621653984E+03  0.00000000000E+00 0.  1.
         21    1    1    2  503  501  0.81887803816E+02 -0.72747869877E+02 -0.52104775207E+02  0.12129621835E+03  0.00000000000E+00 0.  1.
         21    1    1    2  504  502 -0.79862301444E+02  0.75651780252E+02 -0.11072902047E+03  0.15608361548E+03  0.00000000000E+00 0.  1.
         21    1    1    2  505  503  0.21174795208E+02  0.23568852642E+02 -0.23397866622E+03  0.23611412286E+03  0.00000000000E+00 0.  1.
          1    1    1    2  501    0 -0.23200297580E+02 -0.26472763017E+02  0.29025271192E+03  0.29237937302E+03  0.00000000000E+00 0.  1.
<scales pt_clust_3="14000.00000" pt_clust_4="110.05850" pt_clust_5="31.68379" pt_clust_6="35.04798"></scales>
<clustering>
<clus scale="   31.684">  2  5  1 -1</clus>
<clus scale="   35.048">  1  6  2 -1</clus>
<clus scale="  110.058">  2  4  1 -1</clus>
<clus scale="   31.684">  2  3  1 -1</clus>
</clustering>
</event>
<event>
 6    0  0.4796958E+002  0.1053952E+03  0.7546771E-02  0.1269343E+00
          2   -1    0    0  502    0 -0.00000000000E+00  0.00000000000E+00  0.17379356202E+04  0.17379356202E+04  0.00000000000E+00 0.  1.
         21   -1    0    0  504  502  0.00000000000E+00 -0.00000000000E+00 -0.74214266206E+02  0.74214266206E+02  0.00000000000E+00 0.  1.
         21    1    1    2  503  505 -0.29688896641E+02 -0.77511377790E+02 -0.26034242496E+02  0.86989804304E+02  0.00000000000E+00 0.  1.
         21    1    1    2  504  503  0.24235038278E+02 -0.29256710455E+02  0.14092399734E+02  0.40520216155E+02  0.00000000000E+00 0. -1.
         21    1    1    2  505  501 -0.24507874903E+02  0.11401677833E+03  0.80217663981E+03  0.81060953802E+03  0.00000000000E+00 0.  1.
          2    1    1    2  501    0  0.29961733267E+02 -0.72486900844E+01  0.87348655694E+03  0.87403032792E+03  0.00000000000E+00 0.  1.
<scales pt_clust_3="105.39520" pt_clust_4="38.77540" pt_clust_5="14000.00000" pt_clust_6="30.82611"></scales>
<clustering>
<clus scale="   30.826">  1  6  2 -1</clus>
<clus scale="   38.775">  2  4  1 -1</clus>
<clus scale="  105.395">  2  3  1 -1</clus>
<clus scale="   38.775">  2  3  1 -1</clus>
</clustering>
</event>
<event>
 6    0  0.4796958E+002  0.1239065E+03  0.7546771E-02  0.1236788E+00
          4   -1    0    0  503    0 -0.00000000000E+00  0.00000000000E+00  0.65572094016E+03  0.65572094016E+03  0.00000000000E+00 0.  1.
         21   -1    0    0  504  502  0.00000000000E+00 -0.00000000000E+00 -0.83220033362E+03  0.83220033362E+03  0.00000000000E+00 0. -1.
         21    1    1    2  503  502 -0.58599470015E+02  0.31700676670E+02 -0.69796277450E+02  0.96490160811E+02  0.00000000000E+00 0. -1.
         21    1    1    2  504  505  0.49813979504E+02  0.33791636518E+02 -0.55519604314E+03  0.55844959806E+03  0.00000000000E+00 0. -1.
         21    1    1    2  505  501  0.10417283674E+03  0.15373005205E+02 -0.17108289702E+03  0.20089217719E+03  0.00000000000E+00 0. -1.
          4    1    1    2  501    0 -0.95387346233E+02 -0.80865318394E+02  0.61959582416E+03  0.63208933772E+03  0.00000000000E+00 0.  1.
<scales pt_clust_3="60.44254" pt_clust_4="60.19391" pt_clust_5="14000.00000" pt_clust_6="123.90651"></scales>
<clustering>
<clus scale="   60.194">  2  4  1 -1</clus>
<clus scale="   60.443">  2  3  1 -1</clus>
<clus scale="  123.907">  1  6  2 -1</clus>
<clus scale="   60.194">  2  3  1 -1</clus>
</clustering>
</event>
<event>
 6    0  0.4796958E+002  0.9936431E+02  0.7546771E-02  0.1281638E+00
         21   -1    0    0  505  502  0.00000000000E+00  0.00000000000E+00  0.11559269675E+03  0.11559269675E+03  0.00000000000E+00 0.  1.
          2   -1    0    0  503    0 -0.00000000000E+00 -0.00000000000E+00 -0.17410080938E+04  0.17410080938E+04  0.00000000000E+00 0.  1.
         21    1    1    2  503  504 -0.12301343443E+03  0.48834951575E+02 -0.22096515109E+03  0.25757087479E+03  0.00000000000E+00 0. -1.
         21    1    1    2  504  502  0.33715964789E+02  0.30378278886E+02  0.82869846152E+02  0.94482895335E+02  0.00000000000E+00 0.  1.
         21    1    1    2  505  501  0.40890861935E+02 -0.70077615679E+02 -0.19392011906E+03  0.21020929424E+03  0.00000000000E+00 0. -1.
          2    1    1    2  501    0  0.48406607705E+02 -0.91356147826E+01 -0.12933999730E+04  0.12943377262E+04  0.00000000000E+00 0.  1.
<scales pt_clust_3="99.36431" pt_clust_4="45.38288" pt_clust_5="14000.00000" pt_clust_6="49.74411"></scales>
<clustering>
<clus scale="   45.383">  1  4  2 -1</clus>
<clus scale="   49.744">  2  6  1 -1</clus>
<clus scale="   99.364">  1  3  2 -1</clus>
<clus scale="   45.383">  1  3  2 -1</clus>
</clustering>
</event>
<event>
 6    0  0.4796958E+002  0.1272407E+03  0.7546771E-02  0.1231608E+00
         21   -1    0    0  504  502  0.00000000000E+00  0.00000000000E+00  0.55006994676E+02  0.55006994676E+02  0.00000000000E+00 0.  1.
          2   -1    0    0  505    0 -0.00000000000E+00 -0.00000000000E+00 -0.17484247749E+04  0.17484247749E+04  0.00000000000E+00 0.  1.
         21    1    1    2  503  502  0.52358966382E+02  0.26309468965E+02 -0.38413325737E+02  0.70065919761E+02  0.00000000000E+00 0.  1.
         21    1    1    2  504  501 -0.94724155137E+02  0.47035187219E+02 -0.23204843894E+03  0.25501265149E+03  0.00000000000E+00 0.  1.
         21    1    1    2  505  503  0.10603469863E+03 -0.10111098347E+03 -0.17401396610E+03  0.22748109523E+03  0.00000000000E+00 0.  1.
          2    1    1    2  501    0 -0.63669509876E+02  0.27766327287E+02 -0.12489420494E+04  0.12508721031E+04  0.00000000000E+00 0.  1.
<scales pt_clust_3="58.59735" pt_clust_4="127.24071" pt_clust_5="14000.00000" pt_clust_6="68.54653"></scales>
<clustering>
<clus scale="   58.597">  1  3  2 -1</clus>
<clus scale="   68.547">  2  6  1 -1</clus>
<clus scale="  127.241">  1  4  2 -1</clus>
<clus scale="   58.597">  1  3  2 -1</clus>
</clustering>
</event>
<event>
 6    0  0.4796958E+002  0.9906392E+02  0.7546771E-02  0.1282277E+00
          1   -1    0    0  502    0 -0.00000000000E+00  0.00000000000E+00  0.15135771361E+04  0.15135771361E+04  0.00000000000E+00 0. -1.
         21   -1    0    0  503  502  0.00000000000E+00 -0.00000000000E+00 -0.29761699619E+02  0.29761699619E+02  0.00000000000E+00 0. -1.
         21    1    1    2  503  505  0.60112880604E+02  0.22241610118E+02  0.52249021283E+02  0.82693457179E+02  0.00000000000E+00 0. -1.
         21    1    1    2  504  501 -0.68061784855E+02  0.27665957848E+02  0.24265206274E+03  0.25353073844E+03  0.00000000000E+00 0. -1.
         21    1    1    2  505  504 -0.55780032799E+02  0.96944277629E+01  0.10164066171E+03  0.11634525389E+03  0.00000000000E+00 0.  1.
          1    1    1    2  501    0  0.63728937049E+02 -0.59601995730E+02  0.10872736907E+04  0.10907693862E+04  0.00000000000E+00 0. -1.
<scales pt_clust_3="64.09561" pt_clust_4="34.42856" pt_clust_5="34.42856" pt_clust_6="90.96970"></scales>
<clustering>
<clus scale="   34.429">  4  5 -1 -1</clus>
<clus scale="   64.096">  2  3  1 -1</clus>
<clus scale="   90.970">  1  6  2 -1</clus>
<clus scale="   64.096">  2  3  1 -1</clus>
</clustering>
</event>
<event>
 6    0  0.4796958E+002  0.3490353E+03  0.7546771E-02  0.1063012E+00
         -2   -1    0    0    0  501 -0.00000000000E+00  0.00000000000E+00  0.21671413290E+04  0.21671413290E+04  0.00000000000E+00 0.  1.
         21   -1    0    0  501  502  0.00000000000E+00 -0.00000000000E+00 -0.13224654270E+03  0.13224654270E+03  0.00000000000E+00 0. -1.
         21    1    1    2  503  505  0.21830664721E+03  0.19645379196E+03  0.19036047845E+03  0.34998428014E+03  0.00000000000E+00 0. -1.
         21    1    1    2  504  503 -0.22246683258E+03 -0.17638409944E+03  0.12702088783E+04  0.13015503973E+04  0.00000000000E+00 0.  1.
         21    1    1    2  505  502  0.48785125102E+02  0.10401609130E+02 -0.18028526141E+02  0.53039698892E+02  0.00000000000E+00 0. -1.
         -2    1    1    2    0  504 -0.44624939726E+02 -0.30471301650E+02  0.59235395570E+03  0.59481349539E+03  0.00000000000E+00 0.  1.
<scales pt_clust_3="329.99565" pt_clust_4="49.60534" pt_clust_5="49.88168" pt_clust_6="49.60534"></scales>
<clustering>
<clus scale="   49.605">  4  6 -1 -1</clus>
<clus scale="   49.882">  2  5  1 -1</clus>
<clus scale="  329.996">  2  3  1 -1</clus>
<clus scale="   49.882">  2  3  1 -1</clus>
</clustering>
</event>
<event>
 6    0  0.4796958E+002  0.1122234E+03  0.7546771E-02  0.1256507E+00
          2   -1    0    0  505    0 -0.00000000000E+00  0.00000000000E+00  0.16828615305E+04  0.16828615305E+04  0.00000000000E+00 0.  1.
         21   -1    0    0  503  502  0.00000000000E+00 -0.00000000000E+00 -0.39870148412E+02  0.39870148412E+02  0.00000000000E+00 0.  1.
         21    1    1    2  503  501  0.76338213778E+02  0.12419233726E+03  0.45189562476E+03  0.47482724774E+03  0.00000000000E+00 0.  1.
         21    1    1    2  504  502 -0.81264307465E+02  0.10405542821E+02  0.10111597816E+03  0.13014070858E+03  0.00000000000E+00 0.  1.
         21    1    1    2  505  504 -0.32852913504E+00 -0.93666718020E+02  0.14976692187E+03  0.17664567044E+03  0.00000000000E+00 0.  1.
          2    1    1    2  501    0  0.52546228218E+01 -0.40931162060E+02  0.94021285729E+03  0.94111805216E+03  0.00000000000E+00 0.  1.
<scales pt_clust_3="112.22335" pt_clust_4="80.54650" pt_clust_5="14000.00000" pt_clust_6="41.26707"></scales>
<clustering>
<clus scale="   41.267">  1  6  2 -1</clus>
<clus scale="   80.546">  2  4  1 -1</clus>
<clus scale="  112.223">  1  3  2 -1</clus>
<clus scale="   80.546">  2  3  1 -1</clus>
</clustering>
</event>
<event>
 6    0  0.4796958E+002  0.9312604E+02  0.7546771E-02  0.1295453E+00
         21   -1    0    0  504  502  0.00000000000E+00  0.00000000000E+00  0.45543543822E+03  0.45543543822E+03  0.00000000000E+00 0. -1.
         -1   -1    0    0    0  501 -0.00000000000E+00 -0.00000000000E+00 -0.31315098937E+03  0.31315098937E+03  0.00000000000E+00 0.  1.
         21    1    1    2  503  501  0.14458698635E+02 -0.98680342029E+02  0.64961888055E+02  0.11902483257E+03  0.00000000000E+00 0. -1.
         21    1    1    2  504  505 -0.14922641759E+02 -0.42421209375E+02  0.31287036806E+03  0.31608560779E+03  0.00000000000E+00 0. -1.
         21    1    1    2  505  503 -0.23232078459E+02  0.50976673577E+02  0.21540558818E+02  0.60019550088E+02  0.00000000000E+00 0.  1.
         -1    1    1    2    0  502  0.23696021583E+02  0.90124877827E+02 -0.25708836608E+03  0.27345643715E+03  0.00000000000E+00 0.  1.
<scales pt_clust_3="93.12604" pt_clust_4="44.96937" pt_clust_5="47.50743" pt_clust_6="14000.00000"></scales>
<clustering>
<clus scale="   44.969">  1  4  2 -1</clus>
<clus scale="   47.507">  1  5  2 -1</clus>
<clus scale="   93.126">  1  3  2 -1</clus>
<clus scale="   44.969">  1  3  2 -1</clus>
</clustering>
</event>
<event>
 6    0  0.4796958E+002  0.2159518E+03  0.7546771E-02  0.1136938E+00
         21   -1    0    0  504  502  0.00000000000E+00  0.00000000000E+00  0.17018698507E+03  0.17018698507E+03  0.00000000000E+00 0.  1.
          2   -1    0    0  505    0 -0.00000000000E+00 -0.00000000000E+00 -0.15437340823E+04  0.15437340823E+04  0.00000000000E+00 0.  1.
         21    1    1    2  503  502  0.25743975990E+01 -0.31636440819E+02  0.16296641819E+01  0.31782821084E+02  0.00000000000E+00 0. -1.
         21    1    1    2  504  501  0.18003155778E+03  0.65960699637E+02 -0.62055824047E+02  0.20152692373E+03  0.00000000000E+00 0.  1.
         21    1    1    2  505  503 -0.23537809533E+03 -0.98996399854E+02 -0.11579206036E+03  0.28037641874E+03  0.00000000000E+00 0.  1.
          2    1    1    2  501    0  0.52772139957E+02  0.64672141037E+02 -0.11973288770E+04  0.12002349038E+04  0.00000000000E+00 0.  1.
<scales pt_clust_3="31.74101" pt_clust_4="14000.00000" pt_clust_5="215.95181" pt_clust_6="83.25448"></scales>
<clustering>
<clus scale="   31.741">  1  3  2 -1</clus>
<clus scale="   83.254">  2  6  1 -1</clus>
<clus scale="  215.952">  2  5  1 -1</clus>
<clus scale="   31.741">  1  3  2 -1</clus>
</clustering>
</event>
<event>
 6    0  0.4796958E+002  0.2049610E+03  0.7546771E-02  0.1145620E+00
          1   -1    0    0  503    0 -0.00000000000E+00  0.00000000000E+00  0.53346145738E+03  0.53346145738E+03  0.00000000000E+00 0.  1.
         21   -1    0    0  501  502  0.00000000000E+00 -0.00000000000E+00 -0.46659097581E+03  0.46659097581E+03  0.00000000000E+00 0.  1.
         21    1    1    2  503  504  0.73616900687E+02  0.46334623140E+02 -0.11140526164E+03  0.14134170541E+03  0.00000000000E+00 0. -1.
         21    1    1    2  504  505  0.30208409725E+02  0.63375482101E+02 -0.15794365207E+02  0.71961529458E+02  0.00000000000E+00 0. -1.
         21    1    1    2  505  502  0.57456782057E+02 -0.36258349074E+01 -0.27423685228E+03  0.28021470274E+03  0.00000000000E+00 0.  1.
          1    1    1    2  501    0 -0.16128209247E+03 -0.10608427033E+03  0.46830696071E+03  0.50653449558E+03  0.00000000000E+00 0.  1.
<scales pt_clust_3="64.18266" pt_clust_4="64.18266" pt_clust_5="57.57107" pt_clust_6="188.43170"></scales>
<clustering>
<clus scale="   57.571">  2  5  1 -1</clus>
<clus scale="   64.183">  3  4 -1 -1</clus>
<clus scale="  188.432">  1  6  2 -1</clus>
<clus scale="   57.571">  2  3  1 -1</clus>
</clustering>
</event>
<event>
 6    0  0.4796958E+002  0.1395745E+03  0.7546771E-02  0.1213903E+00
         21   -1    0    0  504  502  0.00000000000E+00  0.00000000000E+00  0.18627153921E+03  0.18627153921E+03  0.00000000000E+00 0. -1.
          1   -1    0    0  502    0 -0.00000000000E+00 -0.00000000000E+00 -0.86701804860E+03  0.86701804860E+03  0.00000000000E+00 0. -1.
         21    1    1    2  503  501 -0.97068761198E+02  0.96517716673E+02 -0.23875464209E+03  0.27521226926E+03  0.00000000000E+00 0. -1.
         21    1    1    2  504  505 -0.22810107975E+02  0.28057005965E+02  0.91641829989E+02  0.98517620827E+02  0.00000000000E+00 0. -1.
         21    1    1    2  505  503  0.13801397160E+03 -0.93236956261E+02 -0.23573715544E+02  0.16821624902E+03  0.00000000000E+00 0. -1.
          1    1    1    2  501    0 -0.18135102431E+02 -0.31337766377E+02 -0.51005998175E+03  0.51134344869E+03  0.00000000000E+00 0. -1.
<scales pt_clust_3="14000.00000" pt_clust_4="36.15932" pt_clust_5="139.57446" pt_clust_6="36.11716"></scales>
<clustering>
<clus scale="   36.159">  1  4  2 -1</clus>
<clus scale="   36.117">  2  6  1 -1</clus>
<clus scale="  139.574">  1  5  2 -1</clus>
<clus scale="   36.159">  1  3  2 -1</clus>
</clustering>
</event>
<event>
 6    0  0.4796958E+002  0.8634958E+02  0.7546771E-02  0.1311941E+00
         21   -1    0    0  505  502  0.00000000000E+00  0.00000000000E+00  0.16112402223E+03  0.16112402223E+03  0.00000000000E+00 0. -1.
          2   -1    0    0  504    0 -0.00000000000E+00 -0.00000000000E+00 -0.34123226459E+03  0.34123226459E+03  0.00000000000E+00 0.  1.
         21    1    1    2  503  502  0.72715261573E+02  0.35044785584E+01  0.82873156845E+02  0.11030752812E+03  0.00000000000E+00 0. -1.
         21    1    1    2  504  503  0.16911433275E+02 -0.41933870760E+02 -0.21961365384E+02  0.50266764983E+02  0.00000000000E+00 0. -1.
         21    1    1    2  505  501 -0.64715650146E+02  0.94232222690E+02 -0.24642662121E+02  0.11694053174E+03  0.00000000000E+00 0. -1.
          2    1    1    2  501    0 -0.24911044702E+02 -0.55802830488E+02 -0.21637737170E+03  0.22484146197E+03  0.00000000000E+00 0.  1.
<scales pt_clust_3="73.49339" pt_clust_4="45.21555" pt_clust_5="14000.00000" pt_clust_6="86.34958"></scales>
<clustering>
<clus scale="   45.216">  2  4  1 -1</clus>
<clus scale="   73.493">  1  3  2 -1</clus>
<clus scale="   86.350">  2  6  1 -1</clus>
<clus scale="   73.493">  1  3  2 -1</clus>
</clustering>
</event>
<event>
 6    0  0.4796958E+002  0.7187918E+02  0.7546771E-02  0.1353817E+00
          2   -1    0    0  504    0 -0.00000000000E+00  0.00000000000E+00  0.54058702873E+03  0.54058702873E+03  0.00000000000E+00 0. -1.
         21   -1    0    0  505  502  0.00000000000E+00 -0.00000000000E+00 -0.44787266348E+03  0.44787266348E+03  0.00000000000E+00 0. -1.
         21    1    1    2  503  501  0.46930637103E+02 -0.83576835717E+02 -0.27101300548E+03  0.28746412177E+03  0.00000000000E+00 0. -1.
         21    1    1    2  504  502 -0.55582247049E+02 -0.11017694136E+02  0.16030766839E+03  0.17002742225E+03  0.00000000000E+00 0. -1.
         21    1    1    2  505  503 -0.14651727813E+02  0.55944527699E+02 -0.15721819843E+03  0.16751723859E+03  0.00000000000E+00 0. -1.
          2    1    1    2  501    0  0.23303337758E+02  0.38650002153E+02  0.36063790077E+03  0.36345090959E+03  0.00000000000E+00 0. -1.
<scales pt_clust_3="14000.00000" pt_clust_4="42.06651" pt_clust_5="71.87918" pt_clust_6="45.13168"></scales>
<clustering>
<clus scale="   45.132">  1  6  2 -1</clus>
<clus scale="   42.067">  1  4  2 -1</clus>
<clus scale="   71.879">  2  5  1 -1</clus>
<clus scale="   71.879">  2  3  1 -1</clus>
</clustering>
</event>
<event>
 6    0  0.4796958E+002  0.7157010E+02  0.7546771E-02  0.1354834E+00
         21   -1    0    0  504  502  0.00000000000E+00  0.00000000000E+00  0.13968055504E+04  0.13968055504E+04  0.00000000000E+00 0. -1.
         -4   -1    0    0    0  501 -0.00000000000E+00 -0.00000000000E+00 -0.80306777482E+03  0.80306777482E+03  0.00000000000E+00 0. -1.
         21    1    1    2  503  505 -0.62961593951E+00  0.66746098246E+02  0.20963521458E+03  0.22000536639E+03  0.00000000000E+00 0. -1.
         21    1    1    2  504  501 -0.38320883011E+02 -0.59898684759E+02  0.13544402448E+02  0.72386416876E+02  0.00000000000E+00 0. -1.
         21    1    1    2  505  502  0.62136451809E+02  0.36137481121E+02  0.11371078758E+04  0.11393775395E+04  0.00000000000E+00 0. -1.
         -4    1    1    2    0  503 -0.23185952858E+02 -0.42984894608E+02 -0.76654971728E+03  0.76810400248E+03  0.00000000000E+00 0. -1.
<scales pt_clust_3="60.64173" pt_clust_4="14000.00000" pt_clust_5="71.57010" pt_clust_6="48.83943"></scales>
<clustering>
<clus scale="   48.839">  2  6  1 -1</clus>
<clus scale="   60.642">  2  3  1 -1</clus>
<clus scale="   71.570">  1  5  2 -1</clus>
<clus scale="   71.570">  1  3  2 -1</clus>
</clustering>
</event>
<event>
 6    0  0.4796958E+002  0.8648816E+02  0.7546771E-02  0.1311586E+00
         21   -1    0    0  503  502  0.00000000000E+00  0.00000000000E+00  0.57145280013E+03  0.57145280013E+03  0.00000000000E+00 0. -1.
          2   -1    0    0  505    0 -0.00000000000E+00 -0.00000000000E+00 -0.39102720675E+04  0.39102720675E+04  0.00000000000E+00 0. -1.
         21    1    1    2  503  504 -0.33305500557E+02 -0.95688466856E+02  0.35361895027E+03  0.36784766011E+03  0.00000000000E+00 0. -1.
         21    1    1    2  504  501 -0.45028414440E+02  0.83772613449E+01 -0.94860831168E+03  0.94971335970E+03  0.00000000000E+00 0.  1.
         21    1    1    2  505  502  0.62276759593E+02  0.47997861329E+02  0.20265470860E+03  0.21737322833E+03  0.00000000000E+00 0. -1.
          2    1    1    2  501    0  0.16057155404E+02  0.39313344183E+02 -0.29464846146E+04  0.29467906195E+04  0.00000000000E+00 0. -1.
<scales pt_clust_3="14000.00000" pt_clust_4="55.42372" pt_clust_5="86.48816" pt_clust_6="42.46612"></scales>
<clustering>
<clus scale="   42.466">  2  6  1 -1</clus>
<clus scale="   55.424">  2  4  1 -1</clus>
<clus scale="   86.488">  2  5  1 -1</clus>
<clus scale="   86.488">  1  3  2 -1</clus>
</clustering>
</event>
<event>
 6    0  0.4796958E+002  0.7667167E+02  0.7546771E-02  0.1338771E+00
          1   -1    0    0  503    0 -0.00000000000E+00  0.00000000000E+00  0.10623766436E+04  0.10623766436E+04  0.00000000000E+00 0.  1.
         21   -1    0    0  505  502  0.00000000000E+00 -0.00000000000E+00 -0.32837911337E+02  0.32837911337E+02  0.00000000000E+00 0.  1.
         21    1    1    2  503  504 -0.58146191807E+02 -0.24042158218E+02  0.55981699912E+03  0.56334188331E+03  0.00000000000E+00 0.  1.
         21    1    1    2  504  502 -0.19380546547E+02 -0.90634867744E+02  0.16186956239E+03  0.18652624497E+03  0.00000000000E+00 0.  1.
         21    1    1    2  505  501  0.16341113960E+02  0.42566397790E+02  0.37840898979E+02  0.59252543083E+02  0.00000000000E+00 0.  1.
          1    1    1    2  501    0  0.61185624394E+02  0.72110628171E+02  0.27001127177E+03  0.28609388356E+03  0.00000000000E+00 0.  1.
<scales pt_clust_3="60.48031" pt_clust_4="76.67167" pt_clust_5="45.59529" pt_clust_6="14000.00000"></scales>
<clustering>
<clus scale="   45.595">  2  5  1 -1</clus>
<clus scale="   60.480">  1  3  2 -1</clus>
<clus scale="   76.672">  2  4  1 -1</clus>
<clus scale="   45.595">  2  3  1 -1</clus>
</clustering>
</event>
<event>
 6    0  0.4796958E+002  0.1012082E+03  0.7546771E-02  0.1277776E+00
         21   -1    0    0  504  502  0.00000000000E+00  0.00000000000E+00  0.10888953021E+03  0.10888953021E+03  0.00000000000E+00 0.  1.
         -3   -1    0    0    0  501 -0.00000000000E+00 -0.00000000000E+00 -0.85031436844E+03  0.85031436844E+03  0.00000000000E+00 0. -1.
         21    1    1    2  503  501  0.30555547830E+02 -0.50369185392E+02 -0.54874256509E+02  0.80510125870E+02  0.00000000000E+00 0. -1.
         21    1    1    2  504  503 -0.20000482800E+02  0.24260149831E+02  0.52178894465E+02  0.60919711175E+02  0.00000000000E+00 0.  1.
         21    1    1    2  505  502 -0.97543647219E+02 -0.26357319164E+02 -0.35275028474E+02  0.10702242298E+03  0.00000000000E+00 0.  1.
         -3    1    1    2    0  505  0.86988582189E+02  0.52466354725E+02 -0.70345444771E+03  0.71075163863E+03  0.00000000000E+00 0. -1.
<scales pt_clust_3="51.30449" pt_clust_4="31.44160" pt_clust_5="14000.00000" pt_clust_6="101.20818"></scales>
<clustering>
<clus scale="   31.442">  1  4  2 -1</clus>
<clus scale="   51.304">  1  3  2 -1</clus>
<clus scale="  101.208">  2  6  1 -1</clus>
<clus scale="   31.442">  1  3  2 -1</clus>
</clustering>
</event>
<event>
 6    0  0.4796958E+002  0.8142991E+02  0.7546771E-02  0.1325042E+00
         -4   -1    0    0    0  501 -0.00000000000E+00  0.00000000000E+00  0.27669798555E+04  0.27669798555E+04  0.00000000000E+00 0. -1.
         21   -1    0    0  503  502  0.00000000000E+00 -0.00000000000E+00 -0.96413941419E+02  0.96413941419E+02  0.00000000000E+00 0.  1.
         21    1    1    2  503  501 -0.37550520846E+02 -0.98011205322E+02 -0.39867822451E+02  0.11227502506E+03  0.00000000000E+00 0.  1.
         21    1    1    2  504  502  0.71399259487E+02  0.23825741508E+02  0.70082984214E+02  0.10284524729E+03  0.00000000000E+00 0. -1.
         21    1    1    2  505  504 -0.75728592272E+02  0.56145643899E+02  0.59561230312E+03  0.60302667324E+03  0.00000000000E+00 0.  1.
         -4    1    1    2    0  505  0.41879853631E+02  0.18039819915E+02  0.20447384492E+04  0.20452468514E+04  0.00000000000E+00 0. -1.
<scales pt_clust_3="81.42991" pt_clust_4="80.71240" pt_clust_5="14000.00000" pt_clust_6="45.59997"></scales>
<clustering>
<clus scale="   45.600">  1  6  2 -1</clus>
<clus scale="   80.712">  2  4  1 -1</clus>
<clus scale="   81.430">  2  3  1 -1</clus>
<clus scale="   80.712">  2  3  1 -1</clus>
</clustering>
</event>
<event>
 6    0  0.4796958E+002  0.1060734E+03  0.7546771E-02  0.1268019E+00
         21   -1    0    0  504  502  0.00000000000E+00  0.00000000000E+00  0.17172612793E+03  0.17172612793E+03  0.00000000000E+00 0. -1.
         -2   -1    0    0    0  501 -0.00000000000E+00 -0.00000000000E+00 -0.25607626670E+03  0.25607626670E+03  0.00000000000E+00 0. -1.
         21    1    1    2  503  501  0.23090327268E+01 -0.30832539459E+02 -0.77360328692E+01  0.31871983405E+02  0.00000000000E+00 0. -1.
         21    1    1    2  504  503  0.10224638962E+03 -0.20788618252E+02  0.36829796617E+02  0.11064775080E+03  0.00000000000E+00 0. -1.
         21    1    1    2  505  502 -0.30173515775E+02 -0.56551376209E+02  0.45891540019E+02  0.78832307151E+02  0.00000000000E+00 0. -1.
         -2    1    1    2    0  505 -0.74381906570E+02  0.10817253392E+03 -0.15933544254E+03  0.20645035328E+03  0.00000000000E+00 0. -1.
<scales pt_clust_3="30.91888" pt_clust_4="14000.00000" pt_clust_5="65.92818" pt_clust_6="106.07338"></scales>
<clustering>
<clus scale="   30.919">  2  3  1 -1</clus>
<clus scale="   65.928">  1  5  2 -1</clus>
<clus scale="  106.073">  2  6  1 -1</clus>
<clus scale="   65.928">  1  3  2 -1</clus>
</clustering>
</event>
<event>
 6    0  0.4796958E+002  0.2437244E+03  0.7546771E-02  0.1117336E+00
          2   -1    0    0  502    0 -0.00000000000E+00  0.00000000000E+00  0.23457032668E+04  0.23457032668E+04  0.00000000000E+00 0. -1.
         21   -1    0    0  504  502  0.00000000000E+00 -0.00000000000E+00 -0.35060519176E+03  0.35060519176E+03  0.00000000000E+00 0.  1.
         21    1    1    2  503  501 -0.18034276957E+03 -0.45351691438E+02  0.84073181912E+03  0.86105184637E+03  0.00000000000E+00 0. -1.
         21    1    1    2  504  505 -0.14274628757E+03 -0.11465613701E+02 -0.28792186131E+03  0.32156952768E+03  0.00000000000E+00 0.  1.
         21    1    1    2  505  503  0.35868954445E+03  0.65992787924E+02  0.91336903142E+03  0.98349185300E+03  0.00000000000E+00 0. -1.
          2    1    1    2  501    0 -0.35600487312E+02 -0.91754827850E+01  0.52891908577E+03  0.53019523147E+03  0.00000000000E+00 0. -1.
<scales pt_clust_3="14000.00000" pt_clust_4="143.54156" pt_clust_5="243.72436" pt_clust_6="36.76390"></scales>
<clustering>
<clus scale="   36.764">  1  6  2 -1</clus>
<clus scale="  143.542">  2  4  1 -1</clus>
<clus scale="  243.724">  2  5  1 -1</clus>
<clus scale="  143.542">  2  3  1 -1</clus>
</clustering>
</event>
<event>
 6    0  0.4796958E+002  0.1143408E+03  0.7546771E-02  0.1252736E+00
          1   -1    0    0  505    0 -0.00000000000E+00  0.00000000000E+00  0.16081951782E+04  0.16081951782E+04  0.00000000000E+00 0.  1.
         21   -1    0    0  504  502  0.00000000000E+00 -0.00000000000E+00 -0.17852980754E+03  0.17852980754E+03  0.00000000000E+00 0. -1.
         21    1    1    2  503  502  0.72837415544E+01  0.40931006804E+02 -0.33335316715E+02  0.53288305936E+02  0.00000000000E+00 0.  1.
         21    1    1    2  504  501  0.10510185133E+03 -0.10802084604E+02 -0.21265484911E+02  0.10777432455E+03  0.00000000000E+00 0.  1.
         21    1    1    2  505  503 -0.12428223010E+03  0.11270938626E+01 -0.15742984752E+02  0.12528042396E+03  0.00000000000E+00 0. -1.
          1    1    1    2  501    0  0.11896637221E+02 -0.31256016062E+02  0.15000091570E+04  0.15003819313E+04  0.00000000000E+00 0.  1.
<scales pt_clust_3="38.95632" pt_clust_4="14000.00000" pt_clust_5="114.34080" pt_clust_6="33.44351"></scales>
<clustering>
<clus scale="   33.444">  1  6  2 -1</clus>
<clus scale="   38.956">  2  3  1 -1</clus>
<clus scale="  114.341">  1  5  2 -1</clus>
<clus scale="   38.956">  2  3  1 -1</clus>
</clustering>
</event>
<event>
 6    0  0.4796958E+002  0.1059896E+03  0.7546771E-02  0.1268182E+00
         21   -1    0    0  504  502  0.00000000000E+00  0.00000000000E+00  0.89765262500E+02  0.89765262500E+02  0.00000000000E+00 0. -1.
          2   -1    0    0  502    0 -0.00000000000E+00 -0.00000000000E+00 -0.17832252209E+04  0.17832252209E+04  0.00000000000E+00 0. -1.
         21    1    1    2  503  501  0.15739758715E+01 -0.96171774257E+02 -0.24285161398E+03  0.26120565457E+03  0.00000000000E+00 0. -1.
         21    1    1    2  504  505  0.16376952745E+02 -0.37716123204E+02  0.44646017053E+02  0.60695777196E+02  0.00000000000E+00 0. -1.
         21    1    1    2  505  503  0.28662527772E+02  0.34601595566E+02  0.64435034524E+01  0.45390854263E+02  0.00000000000E+00 0. -1.
          2    1    1    2  501    0 -0.46613456388E+02  0.99286301895E+02 -0.15016978649E+04  0.15056981974E+04  0.00000000000E+00 0. -1.
<scales pt_clust_3="14000.00000" pt_clust_4="41.11825" pt_clust_5="40.94458" pt_clust_6="105.98956"></scales>
<clustering>
<clus scale="   41.118">  1  4  2 -1</clus>
<clus scale="   40.945">  1  5  2 -1</clus>
<clus scale="  105.990">  2  6  1 -1</clus>
<clus scale="   41.118">  1  3  2 -1</clus>
</clustering>
</event>
<event>
 6    0  0.4983078E+002  0.8647363E+02  0.7546771E-02  0.1311623E+00
          1   -1    0    0  505    0 -0.00000000000E+00  0.00000000000E+00  0.13041633788E+04  0.13041633788E+04  0.00000000000E+00 0. -1.
         21   -1    0    0  504  502  0.00000000000E+00 -0.00000000000E+00 -0.21386110907E+04  0.21386110907E+04  0.00000000000E+00 0.  1.
         21    1    1    2  503  502  0.30644245782E+02  0.59755438920E+01 -0.19531188558E+04  0.19533683835E+04  0.00000000000E+00 0.  1.
         21    1    1    2  504  501 -0.49113109612E+01  0.76128585306E+02 -0.16514446944E+03  0.18191310635E+03  0.00000000000E+00 0.  1.
         21    1    1    2  505  503 -0.23314439115E+02 -0.13243722319E+03  0.39524495143E+03  0.41749461408E+03  0.00000000000E+00 0. -1.
          1    1    1    2  501    0 -0.24184957056E+01  0.50333093992E+02  0.88857066189E+03  0.88999836553E+03  0.00000000000E+00 0. -1.
<scales pt_clust_3="31.22142" pt_clust_4="14000.00000" pt_clust_5="86.47363" pt_clust_6="50.40863"></scales>
<clustering>
<clus scale="   31.221">  2  3  1 -1</clus>
<clus scale="   50.409">  1  6  2 -1</clus>
<clus scale="   86.474">  1  5  2 -1</clus>
<clus scale="   31.221">  2  3  1 -1</clus>
</clustering>
</event>
<event>
 6    0  0.4796958E+002  0.1760399E+03  0.7546771E-02  0.1171692E+00
         21   -1    0    0  503  502  0.00000000000E+00  0.00000000000E+00  0.66891598308E+03  0.66891598308E+03  0.00000000000E+00 0.  1.
          2   -1    0    0  505    0 -0.00000000000E+00 -0.00000000000E+00 -0.39813739285E+03  0.39813739285E+03  0.00000000000E+00 0.  1.
         21    1    1    2  503  501 -0.46538842822E+02  0.95131226187E+01  0.79511152236E+02  0.92619580668E+02  0.00000000000E+00 0.  1.
         21    1    1    2  504  502  0.18027732988E+03  0.10449326199E+03  0.44711975076E+03  0.49328980223E+03  0.00000000000E+00 0.  1.
         21    1    1    2  505  504  0.31609762794E+02 -0.16190355646E+03  0.90638744672E+01  0.16520923860E+03  0.00000000000E+00 0.  1.
          2    1    1    2  501    0 -0.16534824985E+03  0.47897171844E+02 -0.26491618723E+03  0.31593475443E+03  0.00000000000E+00 0.  1.
<scales pt_clust_3="47.50119" pt_clust_4="176.03994" pt_clust_5="162.36376" pt_clust_6="14000.00000"></scales>
<clustering>
<clus scale="   47.501">  1  3  2 -1</clus>
<clus scale="  162.364">  2  5  1 -1</clus>
<clus scale="  176.040">  1  4  2 -1</clus>
<clus scale="   47.501">  1  3  2 -1</clus>
</clustering>
</event>
<event>
 6    0  0.4796958E+002  0.2404546E+03  0.7546771E-02  0.1119490E+00
         21   -1    0    0  504  502  0.00000000000E+00  0.00000000000E+00  0.46720834238E+03  0.46720834238E+03  0.00000000000E+00 0.  1.
          3   -1    0    0  503    0 -0.00000000000E+00 -0.00000000000E+00 -0.13136986889E+04  0.13136986889E+04  0.00000000000E+00 0. -1.
         21    1    1    2  503  505 -0.98151197769E+02 -0.40151366155E+02 -0.13731646313E+03  0.17349812931E+03  0.00000000000E+00 0.  1.
         21    1    1    2  504  501  0.16966037602E+02  0.32359362663E+02  0.22036615115E+03  0.22337460768E+03  0.00000000000E+00 0.  1.
         21    1    1    2  505  502 -0.66491589538E+02  0.20761628298E+03  0.15750801786E+03  0.26895060537E+03  0.00000000000E+00 0.  1.
          3    1    1    2  501    0  0.14767674970E+03 -0.19982427949E+03 -0.10870480524E+04  0.11150836889E+04  0.00000000000E+00 0. -1.
<scales pt_clust_3="103.99929" pt_clust_4="36.53731" pt_clust_5="14000.00000" pt_clust_6="240.45462"></scales>
<clustering>
<clus scale="   36.537">  1  4  2 -1</clus>
<clus scale="  103.999">  2  3  1 -1</clus>
<clus scale="  240.455">  2  6  1 -1</clus>
<clus scale="   36.537">  1  3  2 -1</clus>
</clustering>
</event>
<event>
 6    0  0.4796958E+002  0.8896032E+02  0.7546771E-02  0.1305389E+00
         -1   -1    0    0    0  501 -0.00000000000E+00  0.00000000000E+00  0.55173023990E+04  0.55173023990E+04  0.00000000000E+00 0. -1.
         21   -1    0    0  503  502  0.00000000000E+00 -0.00000000000E+00 -0.37539087486E+02  0.37539087486E+02  0.00000000000E+00 0. -1.
         21    1    1    2  503  504 -0.23216584254E+02  0.90837059463E+02  0.23420043042E+03  0.25227013847E+03  0.00000000000E+00 0. -1.
         21    1    1    2  504  501 -0.45713732833E+02 -0.10339816894E+03  0.12978240180E+04  0.13027386954E+04  0.00000000000E+00 0. -1.
         21    1    1    2  505  502 -0.13626679734E+01 -0.38218961711E+02 -0.11273847912E+02  0.39870359228E+02  0.00000000000E+00 0. -1.
         -1    1    1    2    0  505  0.70292985061E+02  0.50780071184E+02  0.39590127110E+04  0.39599622934E+04  0.00000000000E+00 0. -1.
<scales pt_clust_3="66.55570" pt_clust_4="88.96032" pt_clust_5="38.24325" pt_clust_6="14000.00000"></scales>
<clustering>
<clus scale="   38.243">  2  5  1 -1</clus>
<clus scale="   66.556">  2  3  1 -1</clus>
<clus scale="   88.960">  2  4  1 -1</clus>
<clus scale="   38.243">  2  3  1 -1</clus>
</clustering>
</event>
<event>
 6    0  0.4796958E+002  0.1007841E+03  0.7546771E-02  0.1278656E+00
         21   -1    0    0  503  502  0.00000000000E+00  0.00000000000E+00  0.49560050588E+03  0.49560050588E+03  0.00000000000E+00 0. -1.
         -2   -1    0    0    0  501 -0.00000000000E+00 -0.00000000000E+00 -0.81633542432E+03  0.81633542432E+03  0.00000000000E+00 0.  1.
         21    1    1    2  503  501 -0.10262875931E+03  0.12014027900E+02  0.16886224830E+03  0.19796832576E+03  0.00000000000E+00 0. -1.
         21    1    1    2  504  502  0.15401328639E+02  0.34154446809E+02  0.29162734730E+03  0.29402421134E+03  0.00000000000E+00 0. -1.
         21    1    1    2  505  504  0.12070097038E+03 -0.60913391130E+02 -0.22484730948E+03  0.26236516165E+03  0.00000000000E+00 0. -1.
         -2    1    1    2    0  505 -0.33473539711E+02  0.14744916420E+02 -0.55637720456E+03  0.55757823144E+03  0.00000000000E+00 0.  1.
<scales pt_clust_3="100.78406" pt_clust_4="37.46526" pt_clust_5="14000.00000" pt_clust_6="36.57718"></scales>
<clustering>
<clus scale="   36.577">  2  6  1 -1</clus>
<clus scale="   37.465">  1  4  2 -1</clus>
<clus scale="  100.784">  1  3  2 -1</clus>
<clus scale="   37.465">  1  3  2 -1</clus>
</clustering>
</event>
<event>
 6    0  0.4796958E+002  0.2643989E+03  0.7546771E-02  0.1104529E+00
         -1   -1    0    0    0  501 -0.00000000000E+00  0.00000000000E+00  0.70243271316E+03  0.70243271316E+03  0.00000000000E+00 0. -1.
         21   -1    0    0  501  502  0.00000000000E+00 -0.00000000000E+00 -0.30262315430E+03  0.30262315430E+03  0.00000000000E+00 0. -1.
         21    1    1    2  503  502 -0.64139763896E+02 -0.42710774999E+02 -0.77824876776E+02  0.10952091608E+03  0.00000000000E+00 0. -1.
         21    1    1    2  504  505  0.15741711041E+03  0.14229930580E+03  0.98320235919E+01  0.21242859452E+03  0.00000000000E+00 0. -1.
         21    1    1    2  505  503 -0.14657353832E+03 -0.13040333667E+03 -0.14659360684E+02  0.19673263381E+03  0.00000000000E+00 0.  1.
         -1    1    1    2    0  504  0.53296191802E+02  0.30814805877E+02  0.48246177273E+03  0.48637372304E+03  0.00000000000E+00 0. -1.
<scales pt_clust_3="67.91175" pt_clust_4="242.97622" pt_clust_5="67.91175" pt_clust_6="61.56327"></scales>
<clustering>
<clus scale="   61.563">  1  6  2 -1</clus>
<clus scale="   67.912">  3  5 -1 -1</clus>
<clus scale="  242.976">  1  4  2 -1</clus>
<clus scale="  264.399">  2  3  1 -1</clus>
</clustering>
</event>
<event>
 6    0  0.4796958E+002  0.9685738E+02  0.7546771E-02  0.1287047E+00
         21   -1    0    0  503  502  0.00000000000E+00  0.00000000000E+00  0.37989857520E+03  0.37989857520E+03  0.00000000000E+00 0. -1.
          2   -1    0    0  504    0 -0.00000000000E+00 -0.00000000000E+00 -0.21905836473E+04  0.21905836473E+04  0.00000000000E+00 0.  1.
         21    1    1    2  503  501  0.15764824343E+03 -0.35939785451E+02  0.27789994363E+03  0.32151674218E+03  0.00000000000E+00 0. -1.
         21    1    1    2  504  505 -0.60989666246E+02 -0.21058214987E+02 -0.17076027772E+02  0.66744127320E+02  0.00000000000E+00 0. -1.
         21    1    1    2  505  502 -0.48496639831E+02  0.27413748765E+02  0.40866002290E+02  0.69090287591E+02  0.00000000000E+00 0.  1.
          2    1    1    2  501    0 -0.48161937357E+02  0.29584251672E+02 -0.21123749903E+04  0.21131310655E+04  0.00000000000E+00 0.  1.
<scales pt_clust_3="14000.00000" pt_clust_4="96.85738" pt_clust_5="55.70851" pt_clust_6="56.58734"></scales>
<clustering>
<clus scale="   55.709">  1  5  2 -1</clus>
<clus scale="   56.587">  2  6  1 -1</clus>
<clus scale="   96.857">  2  4  1 -1</clus>
<clus scale="   55.709">  1  3  2 -1</clus>
</clustering>
</event>
<event>
 6    0  0.4796958E+002  0.1039839E+03  0.7546771E-02  0.1272135E+00
         21   -1    0    0  503  502  0.00000000000E+00  0.00000000000E+00  0.15573485419E+03  0.15573485419E+03  0.00000000000E+00 0.  1.
          2   -1    0    0  505    0 -0.00000000000E+00 -0.00000000000E+00 -0.11395015650E+04  0.11395015650E+04  0.00000000000E+00 0. -1.
         21    1    1    2  503  501 -0.91985421732E+02 -0.22967226226E+02 -0.13656341530E+03  0.16624794041E+03  0.00000000000E+00 0. -1.
         21    1    1    2  504  502  0.38723543006E+02  0.48877676000E+02  0.93541022691E+02  0.11242091852E+03  0.00000000000E+00 0.  1.
         21    1    1    2  505  504  0.82440604185E+02  0.52454102872E+02 -0.30317369034E+02  0.10230849912E+03  0.00000000000E+00 0.  1.
          2    1    1    2  501    0 -0.29178725459E+02 -0.78364552646E+02 -0.91042694916E+03  0.91425906114E+03  0.00000000000E+00 0. -1.
<scales pt_clust_3="103.98387" pt_clust_4="62.35816" pt_clust_5="14000.00000" pt_clust_6="81.46912"></scales>
<clustering>
<clus scale="   62.358">  1  4  2 -1</clus>
<clus scale="   81.469">  2  6  1 -1</clus>
<clus scale="  103.984">  1  3  2 -1</clus>
<clus scale="   62.358">  1  3  2 -1</clus>
</clustering>
</event>
<event>
 6    0  0.4796958E+002  0.8971602E+02  0.7546771E-02  0.1303541E+00
         21   -1    0    0  504  502  0.00000000000E+00  0.00000000000E+00  0.71413477631E+03  0.71413477631E+03  0.00000000000E+00 0.  1.
         -3   -1    0    0    0  501 -0.00000000000E+00 -0.00000000000E+00 -0.26356150986E+03  0.26356150986E+03  0.00000000000E+00 0.  1.
         21    1    1    2  503  505  0.66212386083E+02  0.28888363273E+02  0.16535151847E+02  0.74108223902E+02  0.00000000000E+00 0.  1.
         21    1    1    2  504  501 -0.82031988982E+02 -0.31049266404E+02  0.42957173959E+03  0.43843492517E+03  0.00000000000E+00 0.  1.
         21    1    1    2  505  502 -0.16926049485E+02  0.48752674548E+02  0.22836606247E+03  0.23412469522E+03  0.00000000000E+00 0.  1.
         -3    1    1    2    0  503  0.32745652384E+02 -0.46591771416E+02 -0.22389968745E+03  0.23102844188E+03  0.00000000000E+00 0.  1.
<scales pt_clust_3="89.71602" pt_clust_4="14000.00000" pt_clust_5="51.60731" pt_clust_6="56.58180"></scales>
<clustering>
<clus scale="   51.607">  1  5  2 -1</clus>
<clus scale="   56.582">  2  6  1 -1</clus>
<clus scale="   89.716">  2  3  1 -1</clus>
<clus scale="   51.607">  1  3  2 -1</clus>
</clustering>
</event>
<event>
 6    0  0.4796958E+002  0.1796259E+03  0.7546771E-02  0.1168166E+00
         21   -1    0    0  504  502  0.00000000000E+00  0.00000000000E+00  0.19943983986E+03  0.19943983986E+03  0.00000000000E+00 0.  1.
          2   -1    0    0  503    0 -0.00000000000E+00 -0.00000000000E+00 -0.44137561400E+04  0.44137561400E+04  0.00000000000E+00 0. -1.
         21    1    1    2  503  505  0.77541882493E+00  0.22814229865E+03 -0.61775069367E+03  0.65853278524E+03  0.00000000000E+00 0.  1.
         21    1    1    2  504  501  0.19831225057E+02 -0.22601179297E+02 -0.37487365747E+02  0.48056148239E+02  0.00000000000E+00 0.  1.
         21    1    1    2  505  502 -0.80482235289E+02 -0.14321050037E+03  0.13431905390E+03  0.21219860003E+03  0.00000000000E+00 0.  1.
          2    1    1    2  501    0  0.59875591407E+02 -0.62330618987E+02 -0.36933972946E+04  0.36944084463E+04  0.00000000000E+00 0. -1.
<scales pt_clust_3="14000.00000" pt_clust_4="30.06810" pt_clust_5="179.62590" pt_clust_6="86.50849"></scales>
<clustering>
<clus scale="   30.068">  1  4  2 -1</clus>
<clus scale="   86.508">  2  6  1 -1</clus>
<clus scale="  179.626">  1  5  2 -1</clus>
<clus scale="   30.068">  1  3  2 -1</clus>
</clustering>
</event>
<event>
 6    0  0.4796958E+002  0.8548613E+02  0.7546771E-02  0.1314166E+00
         -3   -1    0    0    0  501 -0.00000000000E+00  0.00000000000E+00  0.89955971877E+02  0.89955971877E+02  0.00000000000E+00 0. -1.
         21   -1    0    0  504  502  0.00000000000E+00 -0.00000000000E+00 -0.16119971413E+04  0.16119971413E+04  0.00000000000E+00 0. -1.
         21    1    1    2  503  505  0.90701196243E+02 -0.54993081994E+02 -0.64573134086E+03  0.65438513937E+03  0.00000000000E+00 0. -1.
         21    1    1    2  504  501 -0.44483764414E+02 -0.35968831084E+02 -0.42201159888E+02  0.71087973679E+02  0.00000000000E+00 0. -1.
         21    1    1    2  505  502 -0.59628873879E+01  0.40424468488E+02 -0.89006795674E+03  0.89100542159E+03  0.00000000000E+00 0. -1.
         -3    1    1    2    0  503 -0.40254544441E+02  0.50537444590E+02  0.55959288070E+02  0.85474578531E+02  0.00000000000E+00 0. -1.
<scales pt_clust_3="14000.00000" pt_clust_4="55.64338" pt_clust_5="40.86189" pt_clust_6="85.48613"></scales>
<clustering>
<clus scale="   40.862">  2  5  1 -1</clus>
<clus scale="   55.643">  1  4  2 -1</clus>
<clus scale="   85.486">  1  6  2 -1</clus>
<clus scale="   40.862">  2  3  1 -1</clus>
</clustering>
</event>
<event>
 6    0  0.4796958E+002  0.1792351E+03  0.7546771E-02  0.1168545E+00
          1   -1    0    0  505    0 -0.00000000000E+00  0.00000000000E+00  0.28949557331E+04  0.28949557331E+04  0.00000000000E+00 0.  1.
         21   -1    0    0  501  502  0.00000000000E+00 -0.00000000000E+00 -0.10400352240E+03  0.10400352240E+03  0.00000000000E+00 0.  1.
         21    1    1    2  503  504 -0.49600205413E+02  0.17843910469E+03  0.19915721737E+03  0.27196376908E+03  0.00000000000E+00 0.  1.
         21    1    1    2  504  502 -0.25729724035E+02 -0.26756070140E+02 -0.44094187978E+02  0.57638558289E+02  0.00000000000E+00 0.  1.
         21    1    1    2  505  503 -0.53369474390E+02 -0.25232268685E+03  0.15865511765E+04  0.16073766437E+04  0.00000000000E+00 0.  1.
          1    1    1    2  501    0  0.12869940384E+03  0.10063965230E+03  0.10493380049E+04  0.10619802845E+04  0.00000000000E+00 0.  1.
<scales pt_clust_3="179.23506" pt_clust_4="37.12016" pt_clust_5="14000.00000" pt_clust_6="159.00593"></scales>
<clustering>
<clus scale="   37.120">  2  4  1 -1</clus>
<clus scale="  159.006">  1  6  2 -1</clus>
<clus scale="  179.235">  2  3  1 -1</clus>
<clus scale="   37.120">  2  3  1 -1</clus>
</clustering>
</event>
<event>
 6    0  0.4796958E+002  0.8209822E+02  0.7546771E-02  0.1323200E+00
          2   -1    0    0  503    0 -0.00000000000E+00  0.00000000000E+00  0.23381380724E+03  0.23381380724E+03  0.00000000000E+00 0.  1.
         21   -1    0    0  504  502  0.00000000000E+00 -0.00000000000E+00 -0.10504489594E+04  0.10504489594E+04  0.00000000000E+00 0. -1.
         21    1    1    2  503  502 -0.24670265189E+02 -0.62853609730E+02  0.36306098499E+02  0.76663753031E+02  0.00000000000E+00 0.  1.
         21    1    1    2  504  505  0.14108469921E+01 -0.39957107287E+02 -0.94950928635E+03  0.95035069621E+03  0.00000000000E+00 0. -1.
         21    1    1    2  505  501  0.85600091745E+02  0.32606243164E+02 -0.32892255660E+02  0.97326477808E+02  0.00000000000E+00 0.  1.
          2    1    1    2  501    0 -0.62340673548E+02  0.70204473852E+02  0.12946029138E+03  0.15992183957E+03  0.00000000000E+00 0.  1.
<scales pt_clust_3="74.95314" pt_clust_4="39.98201" pt_clust_5="82.09822" pt_clust_6="14000.00000"></scales>
<clustering>
<clus scale="   39.982">  2  4  1 -1</clus>
<clus scale="   74.953">  1  3  2 -1</clus>
<clus scale="   82.098">  2  5  1 -1</clus>
<clus scale="   39.982">  2  3  1 -1</clus>
</clustering>
</event>
<event>
 6    0  0.4796958E+002  0.1966051E+03  0.7546771E-02  0.1152635E+00
          2   -1    0    0  505    0 -0.00000000000E+00  0.00000000000E+00  0.24170434590E+04  0.24170434590E+04  0.00000000000E+00 0.  1.
         21   -1    0    0  503  502  0.00000000000E+00 -0.00000000000E+00 -0.81980067602E+03  0.81980067602E+03  0.00000000000E+00 0. -1.
         21    1    1    2  503  501 -0.45900676523E+00 -0.33440628384E+02 -0.48417520916E+03  0.48532887765E+03  0.00000000000E+00 0. -1.
         21    1    1    2  504  502  0.19567597104E+02  0.22618061996E+03 -0.27845202574E+03  0.35927161639E+03  0.00000000000E+00 0. -1.
         21    1    1    2  505  504  0.93560540403E+02  0.45559903093E+02  0.11107720560E+04  0.11156360697E+04  0.00000000000E+00 0.  1.
          2    1    1    2  501    0 -0.11266913074E+03 -0.23829989467E+03  0.12490979619E+04  0.12766075713E+04  0.00000000000E+00 0.  1.
<scales pt_clust_3="33.44378" pt_clust_4="14000.00000" pt_clust_5="103.95478" pt_clust_6="196.60514"></scales>
<clustering>
<clus scale="   33.444">  2  3  1 -1</clus>
<clus scale="  103.955">  1  5  2 -1</clus>
<clus scale="  196.605">  1  6  2 -1</clus>
<clus scale="   33.444">  2  3  1 -1</clus>
</clustering>
</event>
<event>
 6    0  0.4796958E+002  0.9766011E+02  0.7546771E-02  0.1285295E+00
         21   -1    0    0  501  502  0.00000000000E+00  0.00000000000E+00  0.23617122380E+03  0.23617122380E+03  0.00000000000E+00 0. -1.
          2   -1    0    0  505    0 -0.00000000000E+00 -0.00000000000E+00 -0.13065481186E+04  0.13065481186E+04  0.00000000000E+00 0. -1.
         21    1    1    2  503  502  0.46930529626E+02 -0.12668271613E+02  0.20768553738E+03  0.21329848137E+03  0.00000000000E+00 0. -1.
         21    1    1    2  504  503  0.45600254450E+02 -0.53375981255E+02 -0.68109549981E+02  0.97812521588E+02  0.00000000000E+00 0. -1.
         21    1    1    2  505  504 -0.11919120003E+03  0.41264842170E+02 -0.37078418260E+03  0.39165065994E+03  0.00000000000E+00 0. -1.
          2    1    1    2  501    0  0.26660415959E+02  0.24779410699E+02 -0.83916869960E+03  0.83995767950E+03  0.00000000000E+00 0. -1.
<scales pt_clust_3="48.72651" pt_clust_4="14000.00000" pt_clust_5="97.66011" pt_clust_6="36.39776"></scales>
<clustering>
<clus scale="   36.398">  2  6  1 -1</clus>
<clus scale="   48.727">  1  3  2 -1</clus>
<clus scale="   97.660">  2  5  1 -1</clus>
<clus scale="   48.727">  1  3  2 -1</clus>
</clustering>
</event>
<event>
 6    0  0.4796958E+002  0.8776937E+02  0.7546771E-02  0.1308345E+00
         21   -1    0    0  504  502  0.00000000000E+00  0.00000000000E+00  0.16481259716E+03  0.16481259716E+03  0.00000000000E+00 0.  1.
         -1   -1    0    0    0  501 -0.00000000000E+00 -0.00000000000E+00 -0.48520983241E+03  0.48520983241E+03  0.00000000000E+00 0.  1.
         21    1    1    2  503  502 -0.35887144152E+02  0.10695455084E+03  0.53464155592E+02  0.12484221639E+03  0.00000000000E+00 0.  1.
         21    1    1    2  504  505 -0.29864235183E+02 -0.45310087351E+02  0.51453726579E+02  0.74782100383E+02  0.00000000000E+00 0.  1.
         21    1    1    2  505  501 -0.89056598107E-01 -0.77681255473E+02 -0.26978974275E+03  0.28075058447E+03  0.00000000000E+00 0.  1.
         -1    1    1    2    0  503  0.65840435933E+02  0.16036791986E+02 -0.15552537467E+03  0.16964752832E+03  0.00000000000E+00 0.  1.
<scales pt_clust_3="14000.00000" pt_clust_4="54.26672" pt_clust_5="87.76937" pt_clust_6="65.05675"></scales>
<clustering>
<clus scale="   54.267">  1  4  2 -1</clus>
<clus scale="   65.057">  2  6  1 -1</clus>
<clus scale="   87.769">  2  5  1 -1</clus>
<clus scale="   54.267">  1  3  2 -1</clus>
</clustering>
</event>
<event>
 6    0  0.4796958E+002  0.1090092E+03  0.7546771E-02  0.1262416E+00
         21   -1    0    0  504  502  0.00000000000E+00  0.00000000000E+00  0.27784662071E+02  0.27784662071E+02  0.00000000000E+00 0. -1.
          1   -1    0    0  505    0 -0.00000000000E+00 -0.00000000000E+00 -0.21564405793E+04  0.21564405793E+04  0.00000000000E+00 0. -1.
         21    1    1    2  503  501  0.61197159172E+02 -0.53857317234E+02 -0.18934193576E+03  0.20614575317E+03  0.00000000000E+00 0. -1.
         21    1    1    2  504  503  0.29358891735E+02  0.61968326472E+01 -0.19688785961E+02  0.35888627048E+02  0.00000000000E+00 0. -1.
         21    1    1    2  505  502 -0.15989642208E+03  0.51746584517E+02 -0.67423205780E+03  0.69486217523E+03  0.00000000000E+00 0. -1.
          1    1    1    2  501    0  0.69340371169E+02 -0.40860999307E+01 -0.12453931377E+04  0.12473286859E+04  0.00000000000E+00 0. -1.
<scales pt_clust_3="109.00918" pt_clust_4="30.00575" pt_clust_5="14000.00000" pt_clust_6="70.88470"></scales>
<clustering>
<clus scale="   30.006">  1  4  2 -1</clus>
<clus scale="   70.885">  2  6  1 -1</clus>
<clus scale="  109.009">  1  3  2 -1</clus>
<clus scale="   30.006">  1  3  2 -1</clus>
</clustering>
</event>
<event>
 6    0  0.4796958E+002  0.1403515E+03  0.7546771E-02  0.1212857E+00
          1   -1    0    0  503    0 -0.00000000000E+00  0.00000000000E+00  0.75624479837E+03  0.75624479837E+03  0.00000000000E+00 0. -1.
         21   -1    0    0  505  502  0.00000000000E+00 -0.00000000000E+00 -0.17910136094E+03  0.17910136094E+03  0.00000000000E+00 0. -1.
         21    1    1    2  503  502 -0.96418626564E+02 -0.84934764136E+02 -0.11262605398E+03  0.17086571845E+03  0.00000000000E+00 0. -1.
         21    1    1    2  504  501  0.13979446198E+02  0.43011932109E+02  0.38725546545E+02  0.59540903377E+02  0.00000000000E+00 0.  1.
         21    1    1    2  505  504  0.76312668198E+02  0.92785291881E+01  0.29237834443E+02  0.82246978026E+02  0.00000000000E+00 0.  1.
          1    1    1    2  501    0  0.61265121676E+01  0.32644302839E+02  0.62180611041E+03  0.62269255946E+03  0.00000000000E+00 0. -1.
<scales pt_clust_3="122.88501" pt_clust_4="56.65803" pt_clust_5="56.65803" pt_clust_6="33.21422"></scales>
<clustering>
<clus scale="   33.214">  1  6  2 -1</clus>
<clus scale="   56.658">  4  5 -1 -1</clus>
<clus scale="  122.885">  2  3  1 -1</clus>
<clus scale="  122.885">  2  3  1 -1</clus>
</clustering>
</event>
<event>
 6    0  0.4796958E+002  0.7657068E+02  0.7546771E-02  0.1339075E+00
          2   -1    0    0  504    0 -0.00000000000E+00  0.00000000000E+00  0.39478640015E+03  0.39478640015E+03  0.00000000000E+00 0. -1.
         21   -1    0    0  503  502  0.00000000000E+00 -0.00000000000E+00 -0.12844391413E+03  0.12844391413E+03  0.00000000000E+00 0.  1.
         21    1    1    2  503  501 -0.64723965036E+02  0.88667312329E+02  0.98814944465E+02  0.14770063363E+03  0.00000000000E+00 0.  1.
         21    1    1    2  504  505  0.51696593314E+02 -0.25259765422E+02  0.33151303581E+02  0.66404837464E+02  0.00000000000E+00 0.  1.
         21    1    1    2  505  502  0.37923989940E+02 -0.38776428870E+02 -0.77377777885E+02  0.94494237704E+02  0.00000000000E+00 0.  1.
          2    1    1    2  501    0 -0.24896618217E+02 -0.24631118038E+02  0.21175401586E+03  0.21463060548E+03  0.00000000000E+00 0. -1.
<scales pt_clust_3="76.57068" pt_clust_4="14000.00000" pt_clust_5="54.27333" pt_clust_6="35.02190"></scales>
<clustering>
<clus scale="   35.022">  1  6  2 -1</clus>
<clus scale="   54.273">  2  5  1 -1</clus>
<clus scale="   76.571">  2  3  1 -1</clus>
<clus scale="   54.273">  2  3  1 -1</clus>
</clustering>
</event>
<event>
 6    0  0.4796958E+002  0.2131948E+03  0.7546771E-02  0.1139061E+00
         21   -1    0    0  504  502  0.00000000000E+00  0.00000000000E+00  0.13534088273E+03  0.13534088273E+03  0.00000000000E+00 0.  1.
          2   -1    0    0  503    0 -0.00000000000E+00 -0.00000000000E+00 -0.18278180706E+04  0.18278180706E+04  0.00000000000E+00 0.  1.
         21    1    1    2  503  505  0.10765338443E+02  0.77475114510E+02 -0.96625608012E+03  0.96941688568E+03  0.00000000000E+00 0.  1.
         21    1    1    2  504  501  0.51296716265E+02  0.16447645697E+03 -0.11826989443E+03  0.20897757278E+03  0.00000000000E+00 0.  1.
         21    1    1    2  505  502 -0.12208437599E+03 -0.23649000277E+03 -0.11801506637E+03  0.29113514416E+03  0.00000000000E+00 0.  1.
          2    1    1    2  501    0  0.60022321284E+02 -0.54615687082E+01 -0.48993614692E+03  0.49362935067E+03  0.00000000000E+00 0.  1.
<scales pt_clust_3="91.36540" pt_clust_4="213.19484" pt_clust_5="14000.00000" pt_clust_6="60.27029"></scales>
<clustering>
<clus scale="   60.270">  2  6  1 -1</clus>
<clus scale="   91.365">  2  3  1 -1</clus>
<clus scale="  213.195">  1  4  2 -1</clus>
<clus scale="  213.195">  1  3  2 -1</clus>
</clustering>
</event>
<event>
 6    0  0.4796958E+002  0.1110530E+03  0.7546771E-02  0.1258632E+00
          1   -1    0    0  502    0 -0.00000000000E+00  0.00000000000E+00  0.37994971526E+04  0.37994971526E+04  0.00000000000E+00 0.  1.
         21   -1    0    0  505  502  0.00000000000E+00 -0.00000000000E+00 -0.38965895629E+03  0.38965895629E+03  0.00000000000E+00 0. -1.
         21    1    1    2  503  504  0.46898653079E+02  0.79609482926E+02 -0.52674617107E+02  0.10635679912E+03  0.00000000000E+00 0.  1.
         21    1    1    2  504  501 -0.42420481051E+02 -0.61638963412E+02  0.21149600948E+03  0.22434219632E+03  0.00000000000E+00 0. -1.
         21    1    1    2  505  503  0.59801358757E+02 -0.11480814489E+02 -0.30037123543E+03  0.30648146875E+03  0.00000000000E+00 0. -1.
          1    1    1    2  501    0 -0.64279530785E+02 -0.64897050259E+01  0.35513880394E+04  0.35519756447E+04  0.00000000000E+00 0.  1.
<scales pt_clust_3="14000.00000" pt_clust_4="111.05299" pt_clust_5="60.89344" pt_clust_6="64.40754"></scales>
<clustering>
<clus scale="   60.893">  2  5  1 -1</clus>
<clus scale="   64.408">  1  6  2 -1</clus>
<clus scale="  111.053">  1  4  2 -1</clus>
<clus scale="   60.893">  2  3  1 -1</clus>
</clustering>
</event>
<event>
 6    0  0.4796958E+002  0.1574241E+03  0.7546771E-02  0.1191636E+00
         21   -1    0    0  505  502  0.00000000000E+00  0.00000000000E+00  0.17075645076E+02  0.17075645076E+02  0.00000000000E+00 0.  1.
          1   -1    0    0  504    0 -0.00000000000E+00 -0.00000000000E+00 -0.23851560398E+04  0.23851560398E+04  0.00000000000E+00 0.  1.
         21    1    1    2  503  502  0.52473151984E+02  0.40920126411E+02 -0.11627612508E+03  0.13397024180E+03  0.00000000000E+00 0.  1.
         21    1    1    2  504  503  0.63731768690E+02  0.42694431501E+02 -0.28423875589E+03  0.29440825935E+03  0.00000000000E+00 0.  1.
         21    1    1    2  505  501 -0.38180832584E+02 -0.17063394917E+02 -0.27271171719E+03  0.27589964863E+03  0.00000000000E+00 0.  1.
          1    1    1    2  501    0 -0.78024088089E+02 -0.66551162994E+02 -0.16948537965E+04  0.16979535351E+04  0.00000000000E+00 0.  1.
<scales pt_clust_3="47.49964" pt_clust_4="151.97358" pt_clust_5="41.81359" pt_clust_6="41.81359"></scales>
<clustering>
<clus scale="   41.814">  5  6 -1 -1</clus>
<clus scale="   47.500">  3  4 -1 -1</clus>
<clus scale="  151.974">  1  3  2 -1</clus>
<clus scale="  151.974">  1  3  2 -1</clus>
</clustering>
</event>
<event>
 6    0  0.4796958E+002  0.1645596E+03  0.7546771E-02  0.1183643E+00
         21   -1    0    0  504  502  0.00000000000E+00  0.00000000000E+00  0.21758355693E+04  0.21758355693E+04  0.00000000000E+00 0. -1.
         -1   -1    0    0    0  501 -0.00000000000E+00 -0.00000000000E+00 -0.47272607863E+03  0.47272607863E+03  0.00000000000E+00 0. -1.
         21    1    1    2  503  502 -0.19707364282E+02 -0.23966258515E+02  0.98378141431E+02  0.10315532204E+03  0.00000000000E+00 0.  1.
         21    1    1    2  504  505 -0.44508647316E+02 -0.35225129964E+02  0.73748280885E+03  0.73966392559E+03  0.00000000000E+00 0. -1.
         21    1    1    2  505  501  0.86688291497E+02 -0.10437612743E+03  0.13183823114E+04  0.13253456737E+04  0.00000000000E+00 0. -1.
         -1    1    1    2    0  503 -0.22472279900E+02  0.16356751591E+03 -0.45113377098E+03  0.48039672661E+03  0.00000000000E+00 0. -1.
<scales pt_clust_3="31.02840" pt_clust_4="67.59553" pt_clust_5="14000.00000" pt_clust_6="164.55960"></scales>
<clustering>
<clus scale="   31.028">  1  3  2 -1</clus>
<clus scale="   67.596">  1  4  2 -1</clus>
<clus scale="  164.560">  2  6  1 -1</clus>
<clus scale="   31.028">  1  3  2 -1</clus>
</clustering>
</event>
<event>
 6    0  0.4796958E+002  0.7550648E+02  0.7546771E-02  0.1342310E+00
          1   -1    0    0  504    0 -0.00000000000E+00  0.00000000000E+00  0.14013243237E+03  0.14013243237E+03  0.00000000000E+00 0.  1.
         21   -1    0    0  503  502  0.00000000000E+00 -0.00000000000E+00 -0.51453375772E+03  0.51453375772E+03  0.00000000000E+00 0. -1.
         21    1    1    2  503  501  0.99622137328E+02 -0.97799057350E+01 -0.14941518124E+03  0.17984747201E+03  0.00000000000E+00 0. -1.
         21    1    1    2  504  505 -0.69574465800E+02  0.25602714686E+02 -0.81925068859E+02  0.11048901393E+03  0.00000000000E+00 0. -1.
         21    1    1    2  505  502 -0.68083360832E+02 -0.54495671817E+01 -0.24536399123E+03  0.25469301129E+03  0.00000000000E+00 0. -1.
          1    1    1    2  501    0  0.38035689303E+02 -0.10373241769E+02  0.10230291598E+03  0.10963669287E+03  0.00000000000E+00 0.  1.
<scales pt_clust_3="14000.00000" pt_clust_4="57.73277" pt_clust_5="75.50648" pt_clust_6="39.42484"></scales>
<clustering>
<clus scale="   39.425">  1  6  2 -1</clus>
<clus scale="   57.733">  1  4  2 -1</clus>
<clus scale="   75.506">  2  5  1 -1</clus>
<clus scale="   75.506">  2  3  1 -1</clus>
</clustering>
</event>
<event>
 6    0  0.4796958E+002  0.5431733E+02  0.7546771E-02  0.1423355E+00
          3   -1    0    0  505    0 -0.00000000000E+00  0.00000000000E+00  0.21046798687E+03  0.21046798687E+03  0.00000000000E+00 0. -1.
         21   -1    0    0  504  502  0.00000000000E+00 -0.00000000000E+00 -0.45164380407E+03  0.45164380407E+03  0.00000000000E+00 0.  1.
         21    1    1    2  503  502  0.45480029989E+02  0.53561281756E+02 -0.27365680290E+03  0.28253369676E+03  0.00000000000E+00 0.  1.
         21    1    1    2  504  501 -0.44986248528E+02 -0.20199737520E+01 -0.14157069487E+03  0.14856010398E+03  0.00000000000E+00 0. -1.
         21    1    1    2  505  503  0.33933487153E+02 -0.85464062102E+02  0.67664981195E+02  0.11416714563E+03  0.00000000000E+00 0. -1.
          3    1    1    2  501    0 -0.34427268615E+02  0.33922754098E+02  0.10638669937E+03  0.11685084456E+03  0.00000000000E+00 0. -1.
<scales pt_clust_3="54.31733" pt_clust_4="45.03158" pt_clust_5="14000.00000" pt_clust_6="48.85800"></scales>
<clustering>
<clus scale="   45.032">  2  4  1 -1</clus>
<clus scale="   48.858">  1  6  2 -1</clus>
<clus scale="   54.317">  2  3  1 -1</clus>
<clus scale="   45.032">  2  3  1 -1</clus>
</clustering>
</event>
<event>
 6    0  0.4796958E+002  0.9936459E+02  0.7546771E-02  0.1281638E+00
          1   -1    0    0  504    0 -0.00000000000E+00  0.00000000000E+00  0.12532558327E+04  0.12532558327E+04  0.00000000000E+00 0. -1.
         21   -1    0    0  503  502  0.00000000000E+00 -0.00000000000E+00 -0.10566488568E+03  0.10566488568E+03  0.00000000000E+00 0. -1.
         21    1    1    2  503  501  0.27693420647E+01 -0.80952677112E+02  0.79761991537E+02  0.11367928783E+03  0.00000000000E+00 0. -1.
         21    1    1    2  504  505  0.33825700873E+02  0.23810446985E+02  0.84327625357E+02  0.93926906814E+02  0.00000000000E+00 0.  1.
         21    1    1    2  505  502 -0.58862449622E+02 -0.20099205226E+02 -0.70635123388E+02  0.94117409028E+02  0.00000000000E+00 0. -1.
          1    1    1    2  501    0  0.22267406684E+02  0.77241435353E+02  0.10541364535E+04  0.10571971148E+04  0.00000000000E+00 0. -1.
<scales pt_clust_3="99.36459" pt_clust_4="41.36563" pt_clust_5="61.79906" pt_clust_6="14000.00000"></scales>
<clustering>
<clus scale="   41.366">  1  4  2 -1</clus>
<clus scale="   61.799">  2  5  1 -1</clus>
<clus scale="   99.365">  2  3  1 -1</clus>
<clus scale="   61.799">  2  3  1 -1</clus>
</clustering>
</event>
<event>
 6    0  0.4796958E+002  0.1034192E+03  0.7546771E-02  0.1273266E+00
         21   -1    0    0  504  502  0.00000000000E+00  0.00000000000E+00  0.12255611518E+04  0.12255611518E+04  0.00000000000E+00 0. -1.
          1   -1    0    0  505    0 -0.00000000000E+00 -0.00000000000E+00 -0.53738684233E+03  0.53738684233E+03  0.00000000000E+00 0. -1.
         21    1    1    2  503  501  0.94430461668E+02  0.13523147312E+03  0.89848751658E+02  0.18782295277E+03  0.00000000000E+00 0. -1.
         21    1    1    2  504  503 -0.82646929184E+02 -0.86500924874E+02  0.25533664748E+03  0.28197469471E+03  0.00000000000E+00 0. -1.
         21    1    1    2  505  502  0.32908105295E+02  0.28192248696E+02  0.81332299456E+03  0.81447654341E+03  0.00000000000E+00 0.  1.
          1    1    1    2  501    0 -0.44691637780E+02 -0.76922796937E+02 -0.47033408421E+03  0.47867380327E+03  0.00000000000E+00 0. -1.
<scales pt_clust_3="103.41923" pt_clust_4="14000.00000" pt_clust_5="43.33297" pt_clust_6="88.54899"></scales>
<clustering>
<clus scale="   43.333">  1  5  2 -1</clus>
<clus scale="   88.549">  2  6  1 -1</clus>
<clus scale="  103.419">  2  3  1 -1</clus>
<clus scale="   43.333">  1  3  2 -1</clus>
</clustering>
</event>
<event>
 6    0  0.4796958E+002  0.1137478E+03  0.7546771E-02  0.1253783E+00
         -2   -1    0    0    0  501 -0.00000000000E+00  0.00000000000E+00  0.88167914173E+02  0.88167914173E+02  0.00000000000E+00 0.  1.
         21   -1    0    0  504  502  0.00000000000E+00 -0.00000000000E+00 -0.13723887605E+04  0.13723887605E+04  0.00000000000E+00 0.  1.
         21    1    1    2  503  505 -0.15030198459E+03 -0.12673657457E+02 -0.96955674305E+03  0.98121943833E+03  0.00000000000E+00 0.  1.
         21    1    1    2  504  501  0.52180442532E+02 -0.11619910207E+01 -0.18153573561E+02  0.55260302560E+02  0.00000000000E+00 0. -1.
         21    1    1    2  505  502  0.34705153673E+02  0.10998366705E+02 -0.34329474521E+03  0.34521977616E+03  0.00000000000E+00 0.  1.
         -2    1    1    2    0  503  0.63416388387E+02  0.28372817730E+01  0.46784215515E+02  0.78857157603E+02  0.00000000000E+00 0.  1.
<scales pt_clust_3="113.74775" pt_clust_4="53.42505" pt_clust_5="36.40620" pt_clust_6="14000.00000"></scales>
<clustering>
<clus scale="   36.406">  2  5  1 -1</clus>
<clus scale="   53.425">  1  4  2 -1</clus>
<clus scale="  113.748">  2  3  1 -1</clus>
<clus scale="   36.406">  2  3  1 -1</clus>
</clustering>
</event>
<event>
 6    0  0.4796958E+002  0.7724994E+02  0.7546771E-02  0.1337042E+00
          2   -1    0    0  505    0 -0.00000000000E+00  0.00000000000E+00  0.47915575509E+04  0.47915575509E+04  0.00000000000E+00 0. -1.
         21   -1    0    0  504  502  0.00000000000E+00 -0.00000000000E+00 -0.46814374598E+02  0.46814374598E+02  0.00000000000E+00 0. -1.
         21    1    1    2  503  502 -0.27901077652E+02  0.33959109741E+02  0.14588056377E+03  0.15235757335E+03  0.00000000000E+00 0. -1.
         21    1    1    2  504  501  0.10219735626E+02 -0.16332989702E+03  0.17434382844E+03  0.23911685171E+03  0.00000000000E+00 0. -1.
         21    1    1    2  505  503  0.34244611077E+00  0.54936172032E+02  0.58655149583E+02  0.80364960271E+02  0.00000000000E+00 0.  1.
          2    1    1    2  501    0  0.17338895915E+02  0.74434615249E+02  0.43658636345E+04  0.43665325401E+04  0.00000000000E+00 0. -1.
<scales pt_clust_3="43.95101" pt_clust_4="14000.00000" pt_clust_5="63.73895" pt_clust_6="77.24994"></scales>
<clustering>
<clus scale="   43.951">  2  3  1 -1</clus>
<clus scale="   63.739">  2  5  1 -1</clus>
<clus scale="   77.250">  1  6  2 -1</clus>
<clus scale="   43.951">  2  3  1 -1</clus>
</clustering>
</event>
<event>
 6    0  0.4796958E+002  0.8115068E+02  0.7546771E-02  0.1325817E+00
         21   -1    0    0  504  502  0.00000000000E+00  0.00000000000E+00  0.41963210588E+03  0.41963210588E+03  0.00000000000E+00 0. -1.
          2   -1    0    0  505    0 -0.00000000000E+00 -0.00000000000E+00 -0.47755250757E+03  0.47755250757E+03  0.00000000000E+00 0.  1.
         21    1    1    2  503  501 -0.61241485245E+02 -0.65566469255E+02  0.10319469332E+03  0.13674291987E+03  0.00000000000E+00 0. -1.
         21    1    1    2  504  503 -0.29436672189E+02 -0.21644519769E+02  0.13190577563E+03  0.13687270199E+03  0.00000000000E+00 0.  1.
         21    1    1    2  505  502  0.65637619172E+02  0.64176434869E+02  0.15182726299E+03  0.17742161545E+03  0.00000000000E+00 0. -1.
          2    1    1    2  501    0  0.25040538262E+02  0.23034554155E+02 -0.44484813363E+03  0.44614737614E+03  0.00000000000E+00 0.  1.
<scales pt_clust_3="14000.00000" pt_clust_4="33.91874" pt_clust_5="81.15068" pt_clust_6="34.02380"></scales>
<clustering>
<clus scale="   34.024">  2  6  1 -1</clus>
<clus scale="   33.919">  1  4  2 -1</clus>
<clus scale="   81.151">  1  5  2 -1</clus>
<clus scale="   33.919">  1  3  2 -1</clus>
</clustering>
</event>
<event>
 6    0  0.4796958E+002  0.8578500E+02  0.7546771E-02  0.1313392E+00
          1   -1    0    0  505    0 -0.00000000000E+00  0.00000000000E+00  0.22520474415E+04  0.22520474415E+04  0.00000000000E+00 0.  1.
         21   -1    0    0  504  502  0.00000000000E+00 -0.00000000000E+00 -0.26954911269E+03  0.26954911269E+03  0.00000000000E+00 0.  1.
         21    1    1    2  503  501  0.64852712665E+02  0.66349175179E+02  0.12260029541E+03  0.15374953600E+03  0.00000000000E+00 0. -1.
         21    1    1    2  504  503  0.41823401087E+02  0.14339599570E+01 -0.12626771190E+03  0.13302175832E+03  0.00000000000E+00 0.  1.
         21    1    1    2  505  502 -0.28715532461E+02 -0.32140659735E+02 -0.11969614508E+03  0.12721938123E+03  0.00000000000E+00 0.  1.
          1    1    1    2  501    0 -0.77960581291E+02 -0.35642475401E+02  0.21058618904E+04  0.21076058786E+04  0.00000000000E+00 0.  1.
<scales pt_clust_3="85.78500" pt_clust_4="41.84798" pt_clust_5="31.94338" pt_clust_6="14000.00000"></scales>
<clustering>
<clus scale="   41.848">  2  4  1 -1</clus>
<clus scale="   31.943">  2  5  1 -1</clus>
<clus scale="   85.785">  2  3  1 -1</clus>
<clus scale="   41.848">  2  3  1 -1</clus>
</clustering>
</event>
<event>
 6    0  0.4796958E+002  0.1330712E+03  0.7546771E-02  0.1222968E+00
         21   -1    0    0  505  502  0.00000000000E+00  0.00000000000E+00  0.76146269538E+03  0.76146269538E+03  0.00000000000E+00 0. -1.
         -1   -1    0    0    0  501 -0.00000000000E+00 -0.00000000000E+00 -0.30410567431E+03  0.30410567431E+03  0.00000000000E+00 0. -1.
         21    1    1    2  503  502 -0.71749858440E+02  0.23872835836E+02  0.51305636119E+03  0.51859886640E+03  0.00000000000E+00 0. -1.
         21    1    1    2  504  501  0.16022941355E+02  0.11321718705E+03  0.45757567157E+02  0.12316095585E+03  0.00000000000E+00 0. -1.
         21    1    1    2  505  504  0.33179138588E+02 -0.84815660249E+00  0.14096132660E+03  0.14481598740E+03  0.00000000000E+00 0. -1.
         -1    1    1    2    0  503  0.22547778497E+02 -0.13624186628E+03 -0.24241823388E+03  0.27899256005E+03  0.00000000000E+00 0. -1.
<scales pt_clust_3="49.79811" pt_clust_4="133.07122" pt_clust_5="33.18998" pt_clust_6="14000.00000"></scales>
<clustering>
<clus scale="   33.190">  1  5  2 -1</clus>
<clus scale="   49.798">  1  3  2 -1</clus>
<clus scale="  133.071">  1  4  2 -1</clus>
<clus scale="   33.190">  1  3  2 -1</clus>
</clustering>
</event>
<event>
 6    0  0.4796958E+002  0.7917183E+02  0.7546771E-02  0.1331418E+00
         21   -1    0    0  504  502  0.00000000000E+00  0.00000000000E+00  0.69590248804E+02  0.69590248804E+02  0.00000000000E+00 0.  1.
          1   -1    0    0  502    0 -0.00000000000E+00 -0.00000000000E+00 -0.80146085967E+03  0.80146085967E+03  0.00000000000E+00 0. -1.
         21    1    1    2  503  501  0.76787910748E+02 -0.72381627463E+01 -0.73520472807E+02  0.10655531033E+03  0.00000000000E+00 0.  1.
         21    1    1    2  504  505  0.38280634988E+01  0.59464800396E+02 -0.27762098288E+02  0.65737741501E+02  0.00000000000E+00 0.  1.
         21    1    1    2  505  503 -0.67848479956E+02 -0.92560583909E+02 -0.65603765910E+02  0.13219202710E+03  0.00000000000E+00 0.  1.
          1    1    1    2  501    0 -0.12767494290E+02  0.40333946259E+02 -0.56498427386E+03  0.56656602955E+03  0.00000000000E+00 0. -1.
<scales pt_clust_3="79.17183" pt_clust_4="67.47776" pt_clust_5="14000.00000" pt_clust_6="42.30645"></scales>
<clustering>
<clus scale="   42.306">  2  6  1 -1</clus>
<clus scale="   67.478">  1  4  2 -1</clus>
<clus scale="   79.172">  2  3  1 -1</clus>
<clus scale="   67.478">  1  3  2 -1</clus>
</clustering>
</event>
<event>
 6    0  0.4796958E+002  0.5869768E+02  0.7546771E-02  0.1403380E+00
         21   -1    0    0  504  502  0.00000000000E+00  0.00000000000E+00  0.10724025227E+03  0.10724025227E+03  0.00000000000E+00 0.  1.
          1   -1    0    0  505    0 -0.00000000000E+00 -0.00000000000E+00 -0.10416211101E+04  0.10416211101E+04  0.00000000000E+00 0.  1.
         21    1    1    2  503  502  0.16475916057E+02  0.25558863211E+02  0.64914595987E+01  0.31094217249E+02  0.00000000000E+00 0.  1.
         21    1    1    2  504  501 -0.81092651577E+02 -0.92699819364E+02  0.30351579662E+02  0.12684830719E+03  0.00000000000E+00 0.  1.
         21    1    1    2  505  503  0.16192526695E+02  0.35195519589E+02 -0.32966078418E+02  0.50869291779E+02  0.00000000000E+00 0. -1.
          1    1    1    2  501    0  0.48424208825E+02  0.31945436564E+02 -0.93825781866E+03  0.94004954614E+03  0.00000000000E+00 0.  1.
<scales pt_clust_3="30.40907" pt_clust_4="14000.00000" pt_clust_5="41.79093" pt_clust_6="58.69768"></scales>
<clustering>
<clus scale="   30.409">  1  3  2 -1</clus>
<clus scale="   41.791">  1  5  2 -1</clus>
<clus scale="   58.698">  2  6  1 -1</clus>
<clus scale="   30.409">  1  3  2 -1</clus>
</clustering>
</event>
<event>
 6    0  0.4796958E+002  0.9741570E+02  0.7546771E-02  0.1285826E+00
         21   -1    0    0  503  502  0.00000000000E+00  0.00000000000E+00  0.17726570732E+02  0.17726570732E+02  0.00000000000E+00 0. -1.
          1   -1    0    0  505    0 -0.00000000000E+00 -0.00000000000E+00 -0.22012689731E+04  0.22012689731E+04  0.00000000000E+00 0. -1.
         21    1    1    2  503  504 -0.38627486717E+02  0.15270680153E+02 -0.86771061886E+02  0.96200278499E+02  0.00000000000E+00 0. -1.
         21    1    1    2  504  501  0.38706082038E+02  0.37452532658E+02 -0.27541613016E+03  0.28063303038E+03  0.00000000000E+00 0.  1.
         21    1    1    2  505  502  0.21922909703E+02 -0.13958720341E+03 -0.55724738041E+03  0.57488246129E+03  0.00000000000E+00 0. -1.
          1    1    1    2  501    0 -0.22001505024E+02  0.86863990596E+02 -0.12641078299E+04  0.12672797736E+04  0.00000000000E+00 0. -1.
<scales pt_clust_3="41.53645" pt_clust_4="50.99067" pt_clust_5="97.41570" pt_clust_6="14000.00000"></scales>
<clustering>
<clus scale="   41.536">  1  3  2 -1</clus>
<clus scale="   50.991">  1  4  2 -1</clus>
<clus scale="   97.416">  1  5  2 -1</clus>
<clus scale="   41.536">  1  3  2 -1</clus>
</clustering>
</event>
<event>
 6    0  0.4796958E+002  0.9765943E+02  0.7546771E-02  0.1285296E+00
          2   -1    0    0  504    0 -0.00000000000E+00  0.00000000000E+00  0.20124007180E+04  0.20124007180E+04  0.00000000000E+00 0. -1.
         21   -1    0    0  505  502  0.00000000000E+00 -0.00000000000E+00 -0.16897451971E+04  0.16897451971E+04  0.00000000000E+00 0.  1.
         21    1    1    2  503  502 -0.86375956101E+02  0.75802222005E+02 -0.13371657411E+04  0.13420950048E+04  0.00000000000E+00 0.  1.
         21    1    1    2  504  503  0.60481544933E+02  0.38196315172E+02  0.10044785328E+03  0.12331563972E+03  0.00000000000E+00 0. -1.
         21    1    1    2  505  501 -0.13522646678E+02 -0.70356731503E+02 -0.33443048421E+03  0.34201853811E+03  0.00000000000E+00 0.  1.
          2    1    1    2  501    0  0.39417057847E+02 -0.43641805674E+02  0.18938038929E+04  0.18947167325E+04  0.00000000000E+00 0. -1.
<scales pt_clust_3="14000.00000" pt_clust_4="97.65943" pt_clust_5="72.79751" pt_clust_6="58.80741"></scales>
<clustering>
<clus scale="   58.807">  1  6  2 -1</clus>
<clus scale="   72.798">  2  5  1 -1</clus>
<clus scale="   97.659">  1  4  2 -1</clus>
<clus scale="   72.798">  2  3  1 -1</clus>
</clustering>
</event>
<event>
 6    0  0.4796958E+002  0.9347495E+02  0.7546771E-02  0.1294648E+00
         21   -1    0    0  503  502  0.00000000000E+00  0.00000000000E+00  0.19858910106E+03  0.19858910106E+03  0.00000000000E+00 0.  1.
          1   -1    0    0  505    0 -0.00000000000E+00 -0.00000000000E+00 -0.59609961034E+03  0.59609961034E+03  0.00000000000E+00 0. -1.
         21    1    1    2  503  501  0.21862165646E+02 -0.37035632988E+02  0.12306184418E+02  0.44732924926E+02  0.00000000000E+00 0. -1.
         21    1    1    2  504  502  0.79631199735E+02  0.29952630298E+02  0.13647912533E+03  0.16082549451E+03  0.00000000000E+00 0.  1.
         21    1    1    2  505  504 -0.77260915048E+02  0.47093735296E+02 -0.80855363974E+02  0.12134520502E+03  0.00000000000E+00 0. -1.
          1    1    1    2  501    0 -0.24232450333E+02 -0.40010732606E+02 -0.46544045505E+03  0.46778508695E+03  0.00000000000E+00 0. -1.
<scales pt_clust_3="43.00689" pt_clust_4="93.47495" pt_clust_5="14000.00000" pt_clust_6="46.91784"></scales>
<clustering>
<clus scale="   43.007">  1  3  2 -1</clus>
<clus scale="   46.918">  2  6  1 -1</clus>
<clus scale="   93.475">  1  4  2 -1</clus>
<clus scale="   43.007">  1  3  2 -1</clus>
</clustering>
</event>
<event>
 6    0  0.4796958E+002  0.9514094E+02  0.7546771E-02  0.1290859E+00
         -2   -1    0    0    0  501 -0.00000000000E+00  0.00000000000E+00  0.22072432160E+04  0.22072432160E+04  0.00000000000E+00 0.  1.
         21   -1    0    0  503  502  0.00000000000E+00 -0.00000000000E+00 -0.13233602541E+04  0.13233602541E+04  0.00000000000E+00 0.  1.
         21    1    1    2  503  505  0.57072402226E+02 -0.28203764813E+02 -0.26799627160E+03  0.27545364953E+03  0.00000000000E+00 0.  1.
         21    1    1    2  504  502  0.17654812984E+02  0.35263770114E+02 -0.10303025023E+04  0.10310569684E+04  0.00000000000E+00 0.  1.
         21    1    1    2  505  501 -0.15639874867E+03 -0.48079644532E+02  0.31757807090E+03  0.35725068498E+03  0.00000000000E+00 0.  1.
         -2    1    1    2    0  504  0.81671533465E+02  0.41019639231E+02  0.18646036648E+04  0.18668421672E+04  0.00000000000E+00 0.  1.
<scales pt_clust_3="73.60301" pt_clust_4="39.43635" pt_clust_5="95.14094" pt_clust_6="14000.00000"></scales>
<clustering>
<clus scale="   39.436">  2  4  1 -1</clus>
<clus scale="   73.603">  2  3  1 -1</clus>
<clus scale="   95.141">  2  5  1 -1</clus>
<clus scale="   39.436">  2  3  1 -1</clus>
</clustering>
</event>
<event>
 6    0  0.4796958E+002  0.9779100E+02  0.7546771E-02  0.1285011E+00
          2   -1    0    0  503    0 -0.00000000000E+00  0.00000000000E+00  0.19922265711E+03  0.19922265711E+03  0.00000000000E+00 0.  1.
         21   -1    0    0  505  502  0.00000000000E+00 -0.00000000000E+00 -0.44841695111E+03  0.44841695111E+03  0.00000000000E+00 0.  1.
         21    1    1    2  503  502 -0.31231560382E+02  0.17127604863E+02 -0.72080646469E+02  0.80401398046E+02  0.00000000000E+00 0.  1.
         21    1    1    2  504  501 -0.32975268760E+02 -0.74163295442E+02 -0.11506756458E+02  0.81975412075E+02  0.00000000000E+00 0.  1.
         21    1    1    2  505  504  0.11994316582E+03  0.39020436773E+02 -0.30717101748E+03  0.33205871694E+03  0.00000000000E+00 0.  1.
          2    1    1    2  501    0 -0.55736336679E+02  0.18015253806E+02  0.14156412641E+03  0.15320408116E+03  0.00000000000E+00 0.  1.
<scales pt_clust_3="35.61973" pt_clust_4="14000.00000" pt_clust_5="97.79100" pt_clust_6="59.12268"></scales>
<clustering>
<clus scale="   35.620">  2  3  1 -1</clus>
<clus scale="   59.123">  1  6  2 -1</clus>
<clus scale="   97.791">  2  5  1 -1</clus>
<clus scale="   35.620">  2  3  1 -1</clus>
</clustering>
</event>
<event>
 6    0  0.4796958E+002  0.9137532E+02  0.7546771E-02  0.1299555E+00
         -3   -1    0    0    0  501 -0.00000000000E+00  0.00000000000E+00  0.93194014986E+03  0.93194014986E+03  0.00000000000E+00 0.  1.
         21   -1    0    0  503  502  0.00000000000E+00 -0.00000000000E+00 -0.60970990576E+02  0.60970990576E+02  0.00000000000E+00 0.  1.
         21    1    1    2  503  504  0.34106971467E+02 -0.10157101671E+02  0.46067094495E+02  0.58211935308E+02  0.00000000000E+00 0. -1.
         21    1    1    2  504  501  0.48059030746E+02  0.38960209947E+02  0.41950214776E+02  0.74748838888E+02  0.00000000000E+00 0.  1.
         21    1    1    2  505  502 -0.11678857637E+03 -0.69025403933E+02  0.85230100325E+02  0.16021313292E+03  0.00000000000E+00 0.  1.
         -3    1    1    2    0  505  0.34622574157E+02  0.40222295657E+02  0.69772174969E+03  0.69973723332E+03  0.00000000000E+00 0.  1.
<scales pt_clust_3="35.58725" pt_clust_4="91.37532" pt_clust_5="14000.00000" pt_clust_6="53.34170"></scales>
<clustering>
<clus scale="   35.587">  2  3  1 -1</clus>
<clus scale="   53.342">  1  6  2 -1</clus>
<clus scale="   91.375">  2  4  1 -1</clus>
<clus scale="   35.587">  2  3  1 -1</clus>
</clustering>
</event>
<event>
 6    0  0.4796958E+002  0.8885781E+02  0.7546771E-02  0.1305641E+00
         21   -1    0    0  504  502  0.00000000000E+00  0.00000000000E+00  0.23263416919E+03  0.23263416919E+03  0.00000000000E+00 0. -1.
          1   -1    0    0  503    0 -0.00000000000E+00 -0.00000000000E+00 -0.52270144290E+03  0.52270144290E+03  0.00000000000E+00 0.  1.
         21    1    1    2  503  502  0.12027563336E+03  0.26567165636E+02 -0.23647630904E+03  0.26663286933E+03  0.00000000000E+00 0.  1.
         21    1    1    2  504  505  0.41297226236E+02  0.11077466951E+01  0.58013148730E+02  0.71219473623E+02  0.00000000000E+00 0. -1.
         21    1    1    2  505  501 -0.10820469491E+03 -0.49801448873E+02  0.12574396437E+03  0.17320503712E+03  0.00000000000E+00 0. -1.
          1    1    1    2  501    0 -0.53368164681E+02  0.22126536542E+02 -0.23734807777E+03  0.24427823203E+03  0.00000000000E+00 0.  1.
<scales pt_clust_3="88.85781" pt_clust_4="41.31208" pt_clust_5="14000.00000" pt_clust_6="56.99628"></scales>
<clustering>
<clus scale="   41.312">  1  4  2 -1</clus>
<clus scale="   56.996">  2  6  1 -1</clus>
<clus scale="   88.858">  2  3  1 -1</clus>
<clus scale="   41.312">  1  3  2 -1</clus>
</clustering>
</event>
<event>
 6    0  0.4796958E+002  0.1101481E+03  0.7546771E-02  0.1260296E+00
          2   -1    0    0  504    0 -0.00000000000E+00  0.00000000000E+00  0.58863534407E+03  0.58863534407E+03  0.00000000000E+00 0. -1.
         21   -1    0    0  503  502  0.00000000000E+00 -0.00000000000E+00 -0.11671508187E+04  0.11671508187E+04  0.00000000000E+00 0. -1.
         21    1    1    2  503  501 -0.14824712943E+02 -0.88677668293E+02 -0.29416880214E+03  0.30760166631E+03  0.00000000000E+00 0. -1.
         21    1    1    2  504  505  0.26664465463E+02  0.10613256650E+03  0.53374004374E+02  0.12175343828E+03  0.00000000000E+00 0. -1.
         21    1    1    2  505  502 -0.62579390017E+02  0.16722364817E+01 -0.82940576193E+03  0.83176492734E+03  0.00000000000E+00 0. -1.
          2    1    1    2  501    0  0.50739637497E+02 -0.19127134688E+02  0.49168508508E+03  0.49466613082E+03  0.00000000000E+00 0. -1.
<scales pt_clust_3="110.14807" pt_clust_4="14000.00000" pt_clust_5="61.96905" pt_clust_6="54.22507"></scales>
<clustering>
<clus scale="   54.225">  1  6  2 -1</clus>
<clus scale="   61.969">  2  5  1 -1</clus>
<clus scale="  110.148">  2  3  1 -1</clus>
<clus scale="   61.969">  2  3  1 -1</clus>
</clustering>
</event>
<event>
 6    0  0.4796958E+002  0.1484410E+03  0.7546771E-02  0.1202402E+00
          2   -1    0    0  503    0 -0.00000000000E+00  0.00000000000E+00  0.13085645929E+04  0.13085645929E+04  0.00000000000E+00 0.  1.
         21   -1    0    0  505  502  0.00000000000E+00 -0.00000000000E+00 -0.50152321137E+03  0.50152321137E+03  0.00000000000E+00 0. -1.
         21    1    1    2  503  504  0.50697005545E+02  0.15915494890E+03  0.12067720388E+03  0.20606666801E+03  0.00000000000E+00 0. -1.
         21    1    1    2  504  502 -0.22486701565E+02 -0.28576073639E+02 -0.45347652534E+03  0.45493208588E+03  0.00000000000E+00 0. -1.
         21    1    1    2  505  501  0.97262501603E+01 -0.58695715905E+02  0.34384935865E+03  0.34895869161E+03  0.00000000000E+00 0.  1.
          2    1    1    2  501    0 -0.37936554140E+02 -0.71883159357E+02  0.79599134432E+03  0.80013035874E+03  0.00000000000E+00 0.  1.
<scales pt_clust_3="136.79390" pt_clust_4="36.36267" pt_clust_5="49.39261" pt_clust_6="49.39261"></scales>
<clustering>
<clus scale="   36.363">  2  4  1 -1</clus>
<clus scale="   49.393">  5  6 -1 -1</clus>
<clus scale="  136.794">  2  3  1 -1</clus>
<clus scale="   36.363">  2  3  1 -1</clus>
</clustering>
</event>
<event>
 6    0  0.4796958E+002  0.6435304E+02  0.7546771E-02  0.1380422E+00
          2   -1    0    0  502    0 -0.00000000000E+00  0.00000000000E+00  0.94262509949E+03  0.94262509949E+03  0.00000000000E+00 0. -1.
         21   -1    0    0  504  502  0.00000000000E+00 -0.00000000000E+00 -0.88406296072E+03  0.88406296072E+03  0.00000000000E+00 0.  1.
         21    1    1    2  503  505 -0.67624061181E+02 -0.14141426759E+02 -0.43351741383E+03  0.43898786054E+03  0.00000000000E+00 0. -1.
         21    1    1    2  504  503  0.11680501769E+02  0.52181160820E+02 -0.40701350345E+03  0.41051102257E+03  0.00000000000E+00 0.  1.
         21    1    1    2  505  501  0.65775954572E+01 -0.79162858433E+02  0.37293353273E+01  0.79523146689E+02  0.00000000000E+00 0.  1.
          2    1    1    2  501    0  0.49365963954E+02  0.41123124372E+02  0.89536372073E+03  0.89766603041E+03  0.00000000000E+00 0. -1.
<scales pt_clust_3="63.92633" pt_clust_4="53.47249" pt_clust_5="14000.00000" pt_clust_6="64.35304"></scales>
<clustering>
<clus scale="   53.472">  2  4  1 -1</clus>
<clus scale="   64.353">  1  6  2 -1</clus>
<clus scale="   63.926">  2  3  1 -1</clus>
<clus scale="   53.472">  2  3  1 -1</clus>
</clustering>
</event>
<event>
 6    0  0.4796958E+002  0.1426424E+03  0.7546771E-02  0.1209817E+00
          2   -1    0    0  503    0 -0.00000000000E+00  0.00000000000E+00  0.28964145035E+04  0.28964145035E+04  0.00000000000E+00 0.  1.
         21   -1    0    0  505  502  0.00000000000E+00 -0.00000000000E+00 -0.16103086403E+03  0.16103086403E+03  0.00000000000E+00 0.  1.
         21    1    1    2  503  502 -0.54684335885E+02  0.25670593603E+02 -0.11235782069E+03  0.12756816154E+03  0.00000000000E+00 0.  1.
         21    1    1    2  504  501 -0.47081692587E+02  0.93730458548E+02  0.11597557706E+04  0.11644893868E+04  0.00000000000E+00 0.  1.
         21    1    1    2  505  504  0.89789804791E+02 -0.16654228435E+03  0.19533686323E+03  0.27194674416E+03  0.00000000000E+00 0.  1.
          2    1    1    2  501    0  0.11976223681E+02  0.47141232196E+02  0.14926488264E+04  0.14934410751E+04  0.00000000000E+00 0.  1.
<scales pt_clust_3="60.46026" pt_clust_4="142.64240" pt_clust_5="14000.00000" pt_clust_6="48.63873"></scales>
<clustering>
<clus scale="   48.639">  1  6  2 -1</clus>
<clus scale="   60.460">  2  3  1 -1</clus>
<clus scale="  142.642">  1  4  2 -1</clus>
<clus scale="   60.460">  2  3  1 -1</clus>
</clustering>
</event>
<event>
 6    0  0.4796958E+002  0.8702490E+02  0.7546771E-02  0.1310221E+00
         -3   -1    0    0    0  501 -0.00000000000E+00  0.00000000000E+00  0.85125741485E+02  0.85125741485E+02  0.00000000000E+00 0.  1.
         21   -1    0    0  504  502  0.00000000000E+00 -0.00000000000E+00 -0.11974848010E+04  0.11974848010E+04  0.00000000000E+00 0.  1.
         21    1    1    2  503  501  0.29720690154E+02 -0.41133077211E+02 -0.54730992202E+02  0.74637329612E+02  0.00000000000E+00 0. -1.
         21    1    1    2  504  503 -0.56709442172E+02 -0.49143844849E+02 -0.10093489491E+04  0.10121345658E+04  0.00000000000E+00 0.  1.
         21    1    1    2  505  502 -0.29549052117E+02  0.24148045025E+02 -0.91172416564E+02  0.98836653635E+02  0.00000000000E+00 0. -1.
         -3    1    1    2    0  505  0.56537804135E+02  0.66128877035E+02  0.42893298372E+02  0.97001993379E+02  0.00000000000E+00 0.  1.
<scales pt_clust_3="48.58657" pt_clust_4="14000.00000" pt_clust_5="38.16117" pt_clust_6="87.02490"></scales>
<clustering>
<clus scale="   38.161">  2  5  1 -1</clus>
<clus scale="   48.587">  1  3  2 -1</clus>
<clus scale="   87.025">  1  6  2 -1</clus>
<clus scale="   38.161">  2  3  1 -1</clus>
</clustering>
</event>
<event>
 6    0  0.4796958E+002  0.8789281E+02  0.7546771E-02  0.1308036E+00
         21   -1    0    0  503  502  0.00000000000E+00  0.00000000000E+00  0.22235738162E+03  0.22235738162E+03  0.00000000000E+00 0. -1.
          2   -1    0    0  505    0 -0.00000000000E+00 -0.00000000000E+00 -0.11706125751E+04  0.11706125751E+04  0.00000000000E+00 0. -1.
         21    1    1    2  503  501  0.53317743670E+02 -0.22506492057E+02  0.26487142237E+02  0.63646623466E+02  0.00000000000E+00 0. -1.
         21    1    1    2  504  502 -0.13758610043E+03  0.42917779322E+02  0.13975283179E+03  0.20075538550E+03  0.00000000000E+00 0. -1.
         21    1    1    2  505  504  0.84021482577E+02  0.34707866512E+02 -0.33466751605E+03  0.34679474020E+03  0.00000000000E+00 0. -1.
          2    1    1    2  501    0  0.24687418078E+00 -0.55119153777E+02 -0.77982765148E+03  0.78177320757E+03  0.00000000000E+00 0. -1.
<scales pt_clust_3="58.95538" pt_clust_4="14000.00000" pt_clust_5="87.89281" pt_clust_6="55.11971"></scales>
<clustering>
<clus scale="   55.120">  2  6  1 -1</clus>
<clus scale="   58.955">  1  3  2 -1</clus>
<clus scale="   87.893">  2  5  1 -1</clus>
<clus scale="   58.955">  1  3  2 -1</clus>
</clustering>
</event>
<event>
 6    0  0.4796958E+002  0.7232758E+02  0.7546771E-02  0.1352352E+00
          1   -1    0    0  503    0 -0.00000000000E+00  0.00000000000E+00  0.30812295240E+04  0.30812295240E+04  0.00000000000E+00 0. -1.
         21   -1    0    0  505  502  0.00000000000E+00 -0.00000000000E+00 -0.59162021323E+02  0.59162021323E+02  0.00000000000E+00 0. -1.
         21    1    1    2  503  502  0.19292535955E+02  0.42899616409E+02 -0.21246464174E+02  0.51613867047E+02  0.00000000000E+00 0. -1.
         21    1    1    2  504  501  0.32506282841E+02  0.72885504887E+02  0.39707838047E+03  0.40501875942E+03  0.00000000000E+00 0.  1.
         21    1    1    2  505  504 -0.76512426358E+02 -0.72777017947E+02  0.13202874787E+03  0.16906281671E+03  0.00000000000E+00 0.  1.
          1    1    1    2  501    0  0.24713607563E+02 -0.43008103349E+02  0.25142068386E+04  0.25146961022E+04  0.00000000000E+00 0. -1.
<scales pt_clust_3="47.03806" pt_clust_4="14000.00000" pt_clust_5="72.32758" pt_clust_6="49.30788"></scales>
<clustering>
<clus scale="   47.038">  2  3  1 -1</clus>
<clus scale="   49.308">  1  6  2 -1</clus>
<clus scale="   72.328">  2  5  1 -1</clus>
<clus scale="   47.038">  2  3  1 -1</clus>
</clustering>
</event>
<event>
 6    0  0.4796958E+002  0.6565209E+02  0.7546771E-02  0.1375535E+00
         21   -1    0    0  503  502  0.00000000000E+00  0.00000000000E+00  0.14922567223E+04  0.14922567223E+04  0.00000000000E+00 0. -1.
          2   -1    0    0  505    0 -0.00000000000E+00 -0.00000000000E+00 -0.41464547554E+03  0.41464547554E+03  0.00000000000E+00 0.  1.
         21    1    1    2  503  504  0.88727342793E+02  0.44371005721E+02  0.10437856988E+04  0.10484893478E+04  0.00000000000E+00 0. -1.
         21    1    1    2  504  501  0.43615592483E+02 -0.51290840159E+02  0.19521386623E+02  0.70101032286E+02  0.00000000000E+00 0.  1.
         21    1    1    2  505  502 -0.65464498012E+02  0.49594338248E+01  0.39569110532E+03  0.40110054514E+03  0.00000000000E+00 0.  1.
          2    1    1    2  501    0 -0.66878437265E+02  0.19604006135E+01 -0.38138694400E+03  0.38721127256E+03  0.00000000000E+00 0.  1.
<scales pt_clust_3="55.62725" pt_clust_4="65.64735" pt_clust_5="65.65209" pt_clust_6="14000.00000"></scales>
<clustering>
<clus scale="   65.652">  1  5  2 -1</clus>
<clus scale="   55.627">  1  3  2 -1</clus>
<clus scale="   65.647">  1  4  2 -1</clus>
<clus scale="   65.652">  1  3  2 -1</clus>
</clustering>
</event>
<event>
 6    0  0.4796958E+002  0.9525154E+02  0.7546771E-02  0.1290611E+00
         21   -1    0    0  505  502  0.00000000000E+00  0.00000000000E+00  0.25381371584E+03  0.25381371584E+03  0.00000000000E+00 0. -1.
          2   -1    0    0  503    0 -0.00000000000E+00 -0.00000000000E+00 -0.25697602152E+04  0.25697602152E+04  0.00000000000E+00 0. -1.
         21    1    1    2  503  504  0.52309127446E+02  0.40638710262E+02  0.32118343061E+02  0.73616150041E+02  0.00000000000E+00 0. -1.
         21    1    1    2  504  502 -0.37787331681E+02  0.36834240589E+02  0.17942930612E+03  0.18702812519E+03  0.00000000000E+00 0. -1.
         21    1    1    2  505  501  0.65955637859E+02 -0.25565787634E+02 -0.57716178286E+02  0.91295744143E+02  0.00000000000E+00 0.  1.
          2    1    1    2  501    0 -0.80477433625E+02 -0.51907163217E+02 -0.24697779702E+04  0.24716339116E+04  0.00000000000E+00 0. -1.
<scales pt_clust_3="95.25154" pt_clust_4="52.76972" pt_clust_5="59.39406" pt_clust_6="14000.00000"></scales>
<clustering>
<clus scale="   52.770">  1  4  2 -1</clus>
<clus scale="   59.394">  1  5  2 -1</clus>
<clus scale="   95.252">  1  3  2 -1</clus>
<clus scale="   52.770">  1  3  2 -1</clus>
</clustering>
</event>
<event>
 6    0  0.4796958E+002  0.7512120E+02  0.7546771E-02  0.1343496E+00
         21   -1    0    0  503  502  0.00000000000E+00  0.00000000000E+00  0.29478033916E+03  0.29478033916E+03  0.00000000000E+00 0. -1.
          1   -1    0    0  504    0 -0.00000000000E+00 -0.00000000000E+00 -0.24603717795E+03  0.24603717795E+03  0.00000000000E+00 0. -1.
         21    1    1    2  503  505  0.62288024524E+02 -0.25973682961E+02  0.12422763583E+03  0.14137515945E+03  0.00000000000E+00 0. -1.
         21    1    1    2  504  502 -0.72639552545E+02  0.58456596409E+02  0.10398840373E+03  0.13966841579E+03  0.00000000000E+00 0. -1.
         21    1    1    2  505  501  0.53295642943E+01 -0.72160874191E+02  0.35380408715E+01  0.72443866219E+02  0.00000000000E+00 0. -1.
          1    1    1    2  501    0  0.50219637266E+01  0.39677960743E+02 -0.18301091922E+03  0.18733007565E+03  0.00000000000E+00 0. -1.
<scales pt_clust_3="75.12120" pt_clust_4="14000.00000" pt_clust_5="50.36898" pt_clust_6="39.99451"></scales>
<clustering>
<clus scale="   39.995">  2  6  1 -1</clus>
<clus scale="   50.369">  2  5  1 -1</clus>
<clus scale="   75.121">  1  3  2 -1</clus>
<clus scale="   75.121">  1  3  2 -1</clus>
</clustering>
</event>
<event>
 6    0  0.4796958E+002  0.9342321E+02  0.7546771E-02  0.1294767E+00
          3   -1    0    0  503    0 -0.00000000000E+00  0.00000000000E+00  0.53017592007E+03  0.53017592007E+03  0.00000000000E+00 0. -1.
         21   -1    0    0  504  502  0.00000000000E+00 -0.00000000000E+00 -0.10061922597E+03  0.10061922597E+03  0.00000000000E+00 0.  1.
         21    1    1    2  503  505  0.65958594942E+02 -0.75687317890E+01  0.74039649184E+02  0.99446928554E+02  0.00000000000E+00 0.  1.
         21    1    1    2  504  501 -0.12233186675E+02  0.78096489528E+02  0.25625478363E+02  0.83098602119E+02  0.00000000000E+00 0.  1.
         21    1    1    2  505  502 -0.23952631404E+02  0.22964999830E+02 -0.47706195365E+02  0.58111968170E+02  0.00000000000E+00 0.  1.
          3    1    1    2  501    0 -0.29772776863E+02 -0.93492757569E+02  0.37759776191E+03  0.39013764720E+03  0.00000000000E+00 0. -1.
<scales pt_clust_3="59.59853" pt_clust_4="14000.00000" pt_clust_5="33.18312" pt_clust_6="93.42321"></scales>
<clustering>
<clus scale="   33.183">  2  5  1 -1</clus>
<clus scale="   59.599">  2  3  1 -1</clus>
<clus scale="   93.423">  1  6  2 -1</clus>
<clus scale="   33.183">  2  3  1 -1</clus>
</clustering>
</event>
<event>
 6    0  0.4796958E+002  0.9480748E+02  0.7546771E-02  0.1291610E+00
          1   -1    0    0  505    0 -0.00000000000E+00  0.00000000000E+00  0.53020670224E+03  0.53020670224E+03  0.00000000000E+00 0. -1.
         21   -1    0    0  503  502  0.00000000000E+00 -0.00000000000E+00 -0.16461686917E+03  0.16461686917E+03  0.00000000000E+00 0.  1.
         21    1    1    2  503  501 -0.29745566743E+02  0.85557203777E+01 -0.71224131454E+01  0.31760476398E+02  0.00000000000E+00 0.  1.
         21    1    1    2  504  502  0.11171593686E+02  0.88879365125E+02 -0.11320389606E+03  0.14435881730E+03  0.00000000000E+00 0.  1.
         21    1    1    2  505  504 -0.45479179938E+02 -0.50550033142E+02  0.79519819017E+02  0.10462821453E+03  0.00000000000E+00 0. -1.
          1    1    1    2  501    0  0.64053152995E+02 -0.46885052361E+02  0.40639632326E+03  0.41407606318E+03  0.00000000000E+00 0. -1.
<scales pt_clust_3="30.95156" pt_clust_4="94.80748" pt_clust_5="69.20979" pt_clust_6="14000.00000"></scales>
<clustering>
<clus scale="   30.952">  2  3  1 -1</clus>
<clus scale="   69.210">  1  5  2 -1</clus>
<clus scale="   94.807">  2  4  1 -1</clus>
<clus scale="   30.952">  2  3  1 -1</clus>
</clustering>
</event>
<event>
 6    0  0.4796958E+002  0.1570017E+03  0.7546771E-02  0.1192124E+00
          1   -1    0    0  504    0 -0.00000000000E+00  0.00000000000E+00  0.46501521465E+04  0.46501521465E+04  0.00000000000E+00 0. -1.
         21   -1    0    0  503  502  0.00000000000E+00 -0.00000000000E+00 -0.21871553815E+02  0.21871553815E+02  0.00000000000E+00 0. -1.
         21    1    1    2  503  501  0.32295328539E+02 -0.12021760738E+03  0.53045675264E+03  0.54486661467E+03  0.00000000000E+00 0. -1.
         21    1    1    2  504  505 -0.58453536718E+01  0.10165277417E+03  0.44427219008E+03  0.45579077824E+03  0.00000000000E+00 0. -1.
         21    1    1    2  505  502  0.82073037612E+02  0.79565353546E+02  0.41592289135E+03  0.43134496698E+03  0.00000000000E+00 0. -1.
          1    1    1    2  501    0 -0.10852301248E+03 -0.61000520331E+02  0.32376287586E+04  0.32400213404E+04  0.00000000000E+00 0. -1.
<scales pt_clust_3="124.47996" pt_clust_4="86.62147" pt_clust_5="86.62147" pt_clust_6="127.38113"></scales>
<clustering>
<clus scale="   86.621">  4  5 -1 -1</clus>
<clus scale="  124.480">  2  3  1 -1</clus>
<clus scale="  127.381">  1  6  2 -1</clus>
<clus scale="  124.480">  2  3  1 -1</clus>
</clustering>
</event>
<event>
 6    0  0.4796958E+002  0.9399834E+02  0.7546771E-02  0.1293448E+00
         21   -1    0    0  501  502  0.00000000000E+00  0.00000000000E+00  0.77026560364E+02  0.77026560364E+02  0.00000000000E+00 0.  1.
          2   -1    0    0  504    0 -0.00000000000E+00 -0.00000000000E+00 -0.14632914935E+04  0.14632914935E+04  0.00000000000E+00 0. -1.
         21    1    1    2  503  505 -0.38114411790E+02 -0.63291899104E+02 -0.23818939075E+02  0.77626765597E+02  0.00000000000E+00 0.  1.
         21    1    1    2  504  503 -0.20627442502E+02  0.39946819363E+02 -0.10604974615E+03  0.11518588637E+03  0.00000000000E+00 0. -1.
         21    1    1    2  505  502 -0.49511423959E+02  0.12803282017E+02  0.28141161825E+02  0.58371483806E+02  0.00000000000E+00 0.  1.
          2    1    1    2  501    0  0.10825327825E+03  0.10541797724E+02 -0.12845374097E+04  0.12891339180E+04  0.00000000000E+00 0. -1.
<scales pt_clust_3="14000.00000" pt_clust_4="44.95820" pt_clust_5="51.47633" pt_clust_6="93.99834"></scales>
<clustering>
<clus scale="   44.958">  2  4  1 -1</clus>
<clus scale="   51.476">  1  5  2 -1</clus>
<clus scale="   93.998">  2  6  1 -1</clus>
<clus scale="   51.476">  1  3  2 -1</clus>
</clustering>
</event>
<event>
 6    0  0.4796958E+002  0.1159587E+03  0.7546771E-02  0.1249917E+00
         21   -1    0    0  503  502  0.00000000000E+00  0.00000000000E+00  0.14863511898E+04  0.14863511898E+04  0.00000000000E+00 0.  1.
          1   -1    0    0  504    0 -0.00000000000E+00 -0.00000000000E+00 -0.49686167400E+03  0.49686167400E+03  0.00000000000E+00 0.  1.
         21    1    1    2  503  505  0.15912752054E+02  0.35990079905E+02  0.70435582158E+03  0.70545419761E+03  0.00000000000E+00 0.  1.
         21    1    1    2  504  502 -0.80645699798E+02 -0.85204062112E+02  0.29336322300E+03  0.31595164457E+03  0.00000000000E+00 0.  1.
         21    1    1    2  505  501  0.32492667605E+02  0.56190178054E+02  0.47401359983E+03  0.47843704119E+03  0.00000000000E+00 0.  1.
          1    1    1    2  501    0  0.32240280139E+02 -0.69761958467E+01 -0.48224312857E+03  0.48336998047E+03  0.00000000000E+00 0.  1.
<scales pt_clust_3="36.19030" pt_clust_4="106.03180" pt_clust_5="36.19030" pt_clust_6="32.98641"></scales>
<clustering>
<clus scale="   32.986">  2  6  1 -1</clus>
<clus scale="   36.190">  3  5 -1 -1</clus>
<clus scale="  106.032">  2  4  1 -1</clus>
<clus scale="  115.959">  1  3  2 -1</clus>
</clustering>
</event>
<event>
 6    0  0.4796958E+002  0.2237286E+03  0.7546771E-02  0.1131133E+00
          2   -1    0    0  504    0 -0.00000000000E+00  0.00000000000E+00  0.34109775993E+04  0.34109775993E+04  0.00000000000E+00 0.  1.
         21   -1    0    0  501  502  0.00000000000E+00 -0.00000000000E+00 -0.28042545222E+03  0.28042545222E+03  0.00000000000E+00 0.  1.
         21    1    1    2  503  502 -0.11273615267E+02  0.92165505196E+02 -0.24029080601E+03  0.25760676661E+03  0.00000000000E+00 0.  1.
         21    1    1    2  504  505  0.87670632205E+02 -0.21127276297E+03  0.14476762142E+04  0.14656359511E+04  0.00000000000E+00 0.  1.
         21    1    1    2  505  503 -0.11029947389E+03  0.13878119127E+03  0.33075849527E+03  0.37526973657E+03  0.00000000000E+00 0. -1.
          2    1    1    2  501    0  0.33902456952E+02 -0.19673933492E+02  0.15924082436E+04  0.15928905972E+04  0.00000000000E+00 0.  1.
<scales pt_clust_3="92.73997" pt_clust_4="223.72856" pt_clust_5="14000.00000" pt_clust_6="39.19745"></scales>
<clustering>
<clus scale="   39.197">  1  6  2 -1</clus>
<clus scale="   92.740">  2  3  1 -1</clus>
<clus scale="  223.729">  1  4  2 -1</clus>
<clus scale="   92.740">  2  3  1 -1</clus>
</clustering>
</event>
<event>
 6    0  0.4796958E+002  0.1125165E+03  0.7546771E-02  0.1255979E+00
         21   -1    0    0  504  502  0.00000000000E+00  0.00000000000E+00  0.15184410824E+03  0.15184410824E+03  0.00000000000E+00 0.  1.
          1   -1    0    0  503    0 -0.00000000000E+00 -0.00000000000E+00 -0.72175216382E+03  0.72175216382E+03  0.00000000000E+00 0. -1.
         21    1    1    2  503  502 -0.13044421684E+03  0.32006914191E+02 -0.21259494334E+02  0.13598566969E+03  0.00000000000E+00 0.  1.
         21    1    1    2  504  505  0.17271616916E+02 -0.30409533392E+02  0.53894754193E+02  0.64247124461E+02  0.00000000000E+00 0.  1.
         21    1    1    2  505  501  0.86157652349E+02 -0.44638922658E+02 -0.34400087696E+02  0.10295212726E+03  0.00000000000E+00 0.  1.
          1    1    1    2  501    0  0.27014947570E+02  0.43041541859E+02 -0.56814322774E+03  0.57041135065E+03  0.00000000000E+00 0. -1.
<scales pt_clust_3="14000.00000" pt_clust_4="34.97211" pt_clust_5="112.51653" pt_clust_6="50.61593"></scales>
<clustering>
<clus scale="   34.972">  1  4  2 -1</clus>
<clus scale="   50.616">  2  6  1 -1</clus>
<clus scale="  112.517">  2  5  1 -1</clus>
<clus scale="   34.972">  1  3  2 -1</clus>
</clustering>
</event>
<event>
 6    0  0.4796958E+002  0.1604975E+03  0.7546771E-02  0.1188136E+00
          2   -1    0    0  505    0 -0.00000000000E+00  0.00000000000E+00  0.16468674777E+04  0.16468674777E+04  0.00000000000E+00 0. -1.
         21   -1    0    0  504  502  0.00000000000E+00 -0.00000000000E+00 -0.14481454444E+03  0.14481454444E+03  0.00000000000E+00 0.  1.
         21    1    1    2  503  501  0.55139192334E+02  0.39576331743E+02  0.73611437989E+03  0.73923676643E+03  0.00000000000E+00 0. -1.
         21    1    1    2  504  503  0.33909694035E+02 -0.10343988207E+02  0.37824168462E+02  0.51841423220E+02  0.00000000000E+00 0. -1.
         21    1    1    2  505  502 -0.10242940623E+03 -0.11992888693E+03 -0.87154756048E+02  0.18019620607E+03  0.00000000000E+00 0.  1.
          2    1    1    2  501    0  0.13380519858E+02  0.90696543398E+02  0.81526914092E+03  0.82040762639E+03  0.00000000000E+00 0. -1.
<scales pt_clust_3="54.77470" pt_clust_4="35.45230" pt_clust_5="147.39608" pt_clust_6="54.77470"></scales>
<clustering>
<clus scale="   35.452">  2  4  1 -1</clus>
<clus scale="   54.775">  3  6 -1 -1</clus>
<clus scale="  147.396">  2  5  1 -1</clus>
<clus scale="   35.452">  2  3  1 -1</clus>
</clustering>
</event>
<event>
 6    0  0.4796958E+002  0.2169609E+03  0.7546771E-02  0.1136169E+00
         21   -1    0    0  503  502  0.00000000000E+00  0.00000000000E+00  0.60501845363E+03  0.60501845363E+03  0.00000000000E+00 0.  1.
          1   -1    0    0  504    0 -0.00000000000E+00 -0.00000000000E+00 -0.88597454946E+03  0.88597454946E+03  0.00000000000E+00 0.  1.
         21    1    1    2  503  505 -0.11587620413E+03  0.10649166471E+03  0.38792990590E+03  0.41863752964E+03  0.00000000000E+00 0.  1.
         21    1    1    2  504  502  0.20374256962E+03 -0.98198346492E+02  0.36868942857E+02  0.22915773798E+03  0.00000000000E+00 0.  1.
         21    1    1    2  505  501 -0.41580174921E+02  0.26531000782E+02  0.58631985058E+02  0.76619283609E+02  0.00000000000E+00 0.  1.
          1    1    1    2  501    0 -0.46286190573E+02 -0.34824319005E+02 -0.76438692964E+03  0.76657845185E+03  0.00000000000E+00 0.  1.
<scales pt_clust_3="32.51948" pt_clust_4="209.04011" pt_clust_5="32.51948" pt_clust_6="57.92361"></scales>
<clustering>
<clus scale="   32.519">  3  5 -1 -1</clus>
<clus scale="   57.924">  2  6  1 -1</clus>
<clus scale="  209.040">  2  4  1 -1</clus>
<clus scale="  216.961">  1  3  2 -1</clus>
</clustering>
</event>
<event>
 6    0  0.4796958E+002  0.1124386E+03  0.7546771E-02  0.1256119E+00
         21   -1    0    0  503  502  0.00000000000E+00  0.00000000000E+00  0.46992325898E+03  0.46992325898E+03  0.00000000000E+00 0. -1.
          2   -1    0    0  505    0 -0.00000000000E+00 -0.00000000000E+00 -0.94481562933E+03  0.94481562933E+03  0.00000000000E+00 0. -1.
         21    1    1    2  503  501  0.43780423103E+02  0.15688092590E+03 -0.70537373838E+02  0.17749329978E+03  0.00000000000E+00 0. -1.
         21    1    1    2  504  502  0.11371263059E+02  0.31318556387E+02  0.13779155469E+03  0.14176272480E+03  0.00000000000E+00 0. -1.
         21    1    1    2  505  504 -0.50705260129E+01 -0.13364226283E+03  0.25869731254E+03  0.29122201868E+03  0.00000000000E+00 0. -1.
          2    1    1    2  501    0 -0.50081160149E+02 -0.54557219453E+02 -0.80084386374E+03  0.80426084505E+03  0.00000000000E+00 0. -1.
<scales pt_clust_3="14000.00000" pt_clust_4="33.31903" pt_clust_5="112.43859" pt_clust_6="73.89901"></scales>
<clustering>
<clus scale="   33.319">  1  4  2 -1</clus>
<clus scale="   73.899">  2  6  1 -1</clus>
<clus scale="  112.439">  1  5  2 -1</clus>
<clus scale="   33.319">  1  3  2 -1</clus>
</clustering>
</event>
<event>
 6    0  0.4796958E+002  0.6020390E+02  0.7546771E-02  0.1396978E+00
         21   -1    0    0  504  502  0.00000000000E+00  0.00000000000E+00  0.26110271788E+02  0.26110271788E+02  0.00000000000E+00 0.  1.
         -1   -1    0    0    0  501 -0.00000000000E+00 -0.00000000000E+00 -0.11431551872E+04  0.11431551872E+04  0.00000000000E+00 0.  1.
         21    1    1    2  503  502 -0.18914913885E+02  0.88102848887E+02 -0.24481048674E+03  0.26086789831E+03  0.00000000000E+00 0.  1.
         21    1    1    2  504  505  0.79973715994E+01 -0.48720314587E+02 -0.30257781353E+02  0.57906479243E+02  0.00000000000E+00 0.  1.
         21    1    1    2  505  501 -0.32056380194E+02 -0.62886930031E+02 -0.45925437759E+03  0.46464713581E+03  0.00000000000E+00 0. -1.
         -1    1    1    2    0  503  0.42973922480E+02  0.23504395731E+02 -0.38272226974E+03  0.38584394564E+03  0.00000000000E+00 0.  1.
<scales pt_clust_3="14000.00000" pt_clust_4="48.50371" pt_clust_5="60.20390" pt_clust_6="48.98178"></scales>
<clustering>
<clus scale="   48.982">  2  6  1 -1</clus>
<clus scale="   48.504">  1  4  2 -1</clus>
<clus scale="   60.204">  2  5  1 -1</clus>
<clus scale="   48.504">  1  3  2 -1</clus>
</clustering>
</event>
<event>
 6    0  0.4796958E+002  0.1381941E+03  0.7546771E-02  0.1215780E+00
         -1   -1    0    0    0  501 -0.00000000000E+00  0.00000000000E+00  0.39522656345E+03  0.39522656345E+03  0.00000000000E+00 0.  1.
         21   -1    0    0  504  502  0.00000000000E+00 -0.00000000000E+00 -0.14982199870E+03  0.14982199870E+03  0.00000000000E+00 0. -1.
         21    1    1    2  503  501 -0.68105065922E+02  0.89451621251E+02 -0.28369872664E+02  0.11595146495E+03  0.00000000000E+00 0. -1.
         21    1    1    2  504  503  0.78109328667E+01  0.29179726472E+02 -0.59629699363E+02  0.66844357692E+02  0.00000000000E+00 0. -1.
         21    1    1    2  505  502  0.18814395949E+02 -0.80472902573E+02  0.16272284459E+03  0.18250642097E+03  0.00000000000E+00 0.  1.
         -1    1    1    2    0  505  0.41479737106E+02 -0.38158445150E+02  0.17068129219E+03  0.17974631854E+03  0.00000000000E+00 0.  1.
<scales pt_clust_3="129.37411" pt_clust_4="30.20707" pt_clust_5="40.61312" pt_clust_6="40.61312"></scales>
<clustering>
<clus scale="   30.207">  2  4  1 -1</clus>
<clus scale="   40.613">  5  6 -1 -1</clus>
<clus scale="  129.374">  2  3  1 -1</clus>
<clus scale="   30.207">  2  3  1 -1</clus>
</clustering>
</event>
<event>
 6    0  0.4796958E+002  0.6298437E+02  0.7546771E-02  0.1385718E+00
         21   -1    0    0  503  502  0.00000000000E+00  0.00000000000E+00  0.35235213451E+03  0.35235213451E+03  0.00000000000E+00 0.  1.
          2   -1    0    0  504    0 -0.00000000000E+00 -0.00000000000E+00 -0.20301009609E+03  0.20301009609E+03  0.00000000000E+00 0.  1.
         21    1    1    2  503  505 -0.20861662506E+02 -0.45123164517E+02  0.94765091190E+02  0.10701276301E+03  0.00000000000E+00 0.  1.
         21    1    1    2  504  502  0.37967664555E+02 -0.67023855052E+02 -0.20916322511E+02  0.79820005295E+02  0.00000000000E+00 0.  1.
         21    1    1    2  505  501  0.12107411670E+02  0.79433683062E+02  0.21116977155E+03  0.22594019527E+03  0.00000000000E+00 0.  1.
          2    1    1    2  501    0 -0.29213413719E+02  0.32713336507E+02 -0.13567650181E+03  0.14258926702E+03  0.00000000000E+00 0.  1.
<scales pt_clust_3="14000.00000" pt_clust_4="43.84973" pt_clust_5="62.98437" pt_clust_6="43.85870"></scales>
<clustering>
<clus scale="   43.859">  2  6  1 -1</clus>
<clus scale="   43.850">  2  4  1 -1</clus>
<clus scale="   62.984">  2  5  1 -1</clus>
<clus scale="   62.984">  1  3  2 -1</clus>
</clustering>
</event>
<event>
 6    0  0.4796958E+002  0.8622323E+02  0.7546771E-02  0.1312264E+00
          2   -1    0    0  503    0 -0.00000000000E+00  0.00000000000E+00  0.11912173537E+04  0.11912173537E+04  0.00000000000E+00 0. -1.
         21   -1    0    0  505  502  0.00000000000E+00 -0.00000000000E+00 -0.26706723799E+02  0.26706723799E+02  0.00000000000E+00 0.  1.
         21    1    1    2  503  502 -0.69142628566E+02  0.64912998719E+02  0.29027407653E+03  0.30537426217E+03  0.00000000000E+00 0. -1.
         21    1    1    2  504  501  0.78320674738E+02 -0.17269056805E+02  0.15056549335E+03  0.17059400987E+03  0.00000000000E+00 0. -1.
         21    1    1    2  505  504  0.20392409430E+02 -0.40778095496E+02  0.50250757395E+02  0.67851617913E+02  0.00000000000E+00 0.  1.
          2    1    1    2  501    0 -0.29570455602E+02 -0.68658464180E+01  0.67342030258E+03  0.67410418751E+03  0.00000000000E+00 0. -1.
<scales pt_clust_3="86.22323" pt_clust_4="14000.00000" pt_clust_5="44.91076" pt_clust_6="30.35707"></scales>
<clustering>
<clus scale="   30.357">  1  6  2 -1</clus>
<clus scale="   44.911">  2  5  1 -1</clus>
<clus scale="   86.223">  2  3  1 -1</clus>
<clus scale="   44.911">  2  3  1 -1</clus>
</clustering>
</event>
<event>
 6    0  0.4796958E+002  0.1157812E+03  0.7546771E-02  0.1250224E+00
          2   -1    0    0  503    0 -0.00000000000E+00  0.00000000000E+00  0.91708333689E+03  0.91708333689E+03  0.00000000000E+00 0. -1.
         21   -1    0    0  505  502  0.00000000000E+00 -0.00000000000E+00 -0.85085232718E+02  0.85085232718E+02  0.00000000000E+00 0. -1.
         21    1    1    2  503  504  0.15253447052E+01 -0.12189548122E+03  0.22982742384E+03  0.26015664467E+03  0.00000000000E+00 0. -1.
         21    1    1    2  504  502 -0.31108099230E+01  0.13139355675E+03  0.11188367933E+03  0.17260330702E+03  0.00000000000E+00 0. -1.
         21    1    1    2  505  501  0.33558854220E+02 -0.35403654715E+02 -0.23380827037E+02  0.54095087916E+02  0.00000000000E+00 0. -1.
          2    1    1    2  501    0 -0.31973389002E+02  0.25905579192E+02  0.51366782805E+03  0.51531353001E+03  0.00000000000E+00 0. -1.
<scales pt_clust_3="14000.00000" pt_clust_4="115.78119" pt_clust_5="47.22551" pt_clust_6="41.15090"></scales>
<clustering>
<clus scale="   41.151">  1  6  2 -1</clus>
<clus scale="   47.226">  2  5  1 -1</clus>
<clus scale="  115.781">  2  4  1 -1</clus>
<clus scale="   47.226">  2  3  1 -1</clus>
</clustering>
</event>
<event>
 6    0  0.4796958E+002  0.1006116E+03  0.7546771E-02  0.1279015E+00
          3   -1    0    0  504    0 -0.00000000000E+00  0.00000000000E+00  0.58147881858E+03  0.58147881858E+03  0.00000000000E+00 0.  1.
         21   -1    0    0  503  502  0.00000000000E+00 -0.00000000000E+00 -0.58994232336E+03  0.58994232336E+03  0.00000000000E+00 0. -1.
         21    1    1    2  503  501 -0.55676647085E+02 -0.66762284958E+02  0.16957173259E+03  0.19055619701E+03  0.00000000000E+00 0.  1.
         21    1    1    2  504  505 -0.34562449324E+02  0.93551053138E+01  0.13407147024E+02  0.38233918057E+02  0.00000000000E+00 0. -1.
         21    1    1    2  505  502  0.10056931206E+03  0.13862180688E+02 -0.56113240920E+03  0.57024199007E+03  0.00000000000E+00 0. -1.
          3    1    1    2  501    0 -0.10330215647E+02  0.43544998957E+02  0.36969002481E+03  0.37238903680E+03  0.00000000000E+00 0.  1.
<scales pt_clust_3="100.61156" pt_clust_4="35.80616" pt_clust_5="14000.00000" pt_clust_6="59.96168"></scales>
<clustering>
<clus scale="   35.806">  1  4  2 -1</clus>
<clus scale="   59.962">  1  6  2 -1</clus>
<clus scale="  100.612">  1  3  2 -1</clus>
<clus scale="  100.612">  2  3  1 -1</clus>
</clustering>
</event>
<event>
 6    0  0.4796958E+002  0.1927251E+03  0.7546771E-02  0.1156026E+00
          2   -1    0    0  503    0 -0.00000000000E+00  0.00000000000E+00  0.31208492117E+04  0.31208492117E+04  0.00000000000E+00 0.  1.
         21   -1    0    0  505  502  0.00000000000E+00 -0.00000000000E+00 -0.10568227720E+03  0.10568227720E+03  0.00000000000E+00 0. -1.
         21    1    1    2  503  504 -0.11937168969E+03  0.14522314951E+03  0.94409081432E+02  0.21036263478E+03  0.00000000000E+00 0. -1.
         21    1    1    2  504  502 -0.30799790208E+02  0.29534860163E+02 -0.17944652610E+02  0.46291960415E+02  0.00000000000E+00 0. -1.
         21    1    1    2  505  501  0.79666493682E+02 -0.17405783287E+02  0.11534558734E+03  0.14125974666E+03  0.00000000000E+00 0.  1.
          2    1    1    2  501    0  0.70504986217E+02 -0.15735222639E+03  0.28233569184E+04  0.28286171471E+04  0.00000000000E+00 0.  1.
<scales pt_clust_3="39.67049" pt_clust_4="39.67049" pt_clust_5="81.54576" pt_clust_6="173.81036"></scales>
<clustering>
<clus scale="   39.670">  3  4 -1 -1</clus>
<clus scale="   81.546">  2  5  1 -1</clus>
<clus scale="  173.810">  1  6  2 -1</clus>
<clus scale="   81.546">  2  3  1 -1</clus>
</clustering>
</event>
<event>
 6    0  0.4796958E+002  0.7486696E+02  0.7546771E-02  0.1344284E+00
          2   -1    0    0  503    0 -0.00000000000E+00  0.00000000000E+00  0.14313405005E+04  0.14313405005E+04  0.00000000000E+00 0.  1.
         21   -1    0    0  504  502  0.00000000000E+00 -0.00000000000E+00 -0.10154050499E+03  0.10154050499E+03  0.00000000000E+00 0. -1.
         21    1    1    2  503  502  0.20970249587E+02  0.26157342609E+02  0.20609564080E+02  0.39353679265E+02  0.00000000000E+00 0.  1.
         21    1    1    2  504  505  0.28803847605E+02 -0.54985518462E+02 -0.74317089984E+02  0.96830257363E+02  0.00000000000E+00 0. -1.
         21    1    1    2  505  501 -0.18246797291E+02  0.94561401907E+02  0.44194739952E+03  0.45231881266E+03  0.00000000000E+00 0.  1.
          2    1    1    2  501    0 -0.31527299901E+02 -0.65733226054E+02  0.94156012191E+03  0.94437825622E+03  0.00000000000E+00 0.  1.
<scales pt_clust_3="33.52548" pt_clust_4="57.20857" pt_clust_5="74.86696" pt_clust_6="14000.00000"></scales>
<clustering>
<clus scale="   33.525">  2  3  1 -1</clus>
<clus scale="   57.209">  2  4  1 -1</clus>
<clus scale="   74.867">  2  5  1 -1</clus>
<clus scale="   33.525">  2  3  1 -1</clus>
</clustering>
</event>
<event>
 6    0  0.4796958E+002  0.1779395E+03  0.7546771E-02  0.1169812E+00
          3   -1    0    0  505    0 -0.00000000000E+00  0.00000000000E+00  0.26171878791E+04  0.26171878791E+04  0.00000000000E+00 0. -1.
         21   -1    0    0  504  502  0.00000000000E+00 -0.00000000000E+00 -0.18469369109E+04  0.18469369109E+04  0.00000000000E+00 0.  1.
         21    1    1    2  503  501 -0.17803855817E+03 -0.55907587103E+02 -0.70559935975E+03  0.72985878290E+03  0.00000000000E+00 0.  1.
         21    1    1    2  504  503  0.18675229831E+03 -0.96004663671E+01 -0.10929357872E+04  0.11088179403E+04  0.00000000000E+00 0.  1.
         21    1    1    2  505  502 -0.40340442362E+02  0.65848402529E+01 -0.12926369536E+02  0.42869598091E+02  0.00000000000E+00 0.  1.
          3    1    1    2  501    0  0.31626702226E+02  0.58923213217E+02  0.25817124846E+04  0.25825784687E+04  0.00000000000E+00 0. -1.
<scales pt_clust_3="177.93954" pt_clust_4="14000.00000" pt_clust_5="40.87434" pt_clust_6="66.87130"></scales>
<clustering>
<clus scale="   40.874">  2  5  1 -1</clus>
<clus scale="   66.871">  1  6  2 -1</clus>
<clus scale="  177.940">  1  3  2 -1</clus>
<clus scale="   40.874">  2  3  1 -1</clus>
</clustering>
</event>
<event>
 6    0  0.4796958E+002  0.1296522E+03  0.7546771E-02  0.1227973E+00
          2   -1    0    0  505    0 -0.00000000000E+00  0.00000000000E+00  0.10271327833E+04  0.10271327833E+04  0.00000000000E+00 0. -1.
         21   -1    0    0  504  502  0.00000000000E+00 -0.00000000000E+00 -0.13355536283E+03  0.13355536283E+03  0.00000000000E+00 0. -1.
         21    1    1    2  503  502  0.60454255004E+02  0.59823935798E+02  0.19840125890E+02  0.87334133292E+02  0.00000000000E+00 0. -1.
         21    1    1    2  504  501  0.84697726745E+02 -0.17366997378E+02 -0.69102174881E+02  0.11068165199E+03  0.00000000000E+00 0. -1.
         21    1    1    2  505  503 -0.77754016943E+02 -0.70826624956E+02  0.35353770036E+03  0.36885092317E+03  0.00000000000E+00 0. -1.
          2    1    1    2  501    0 -0.67397964806E+02  0.28369686536E+02  0.58930176907E+03  0.59382143764E+03  0.00000000000E+00 0. -1.
<scales pt_clust_3="82.03419" pt_clust_4="129.65223" pt_clust_5="14000.00000" pt_clust_6="73.12540"></scales>
<clustering>
<clus scale="   73.125">  1  6  2 -1</clus>
<clus scale="   82.034">  2  3  1 -1</clus>
<clus scale="  129.652">  2  4  1 -1</clus>
<clus scale="   82.034">  2  3  1 -1</clus>
</clustering>
</event>
<event>
 6    0  0.4796958E+002  0.1552846E+03  0.7546771E-02  0.1194126E+00
          2   -1    0    0  503    0 -0.00000000000E+00  0.00000000000E+00  0.91990333382E+03  0.91990333382E+03  0.00000000000E+00 0.  1.
         21   -1    0    0  504  502  0.00000000000E+00 -0.00000000000E+00 -0.55083643551E+03  0.55083643551E+03  0.00000000000E+00 0.  1.
         21    1    1    2  503  505 -0.59878695176E+02  0.16552599574E+03  0.30871810195E+03  0.35537470347E+03  0.00000000000E+00 0.  1.
         21    1    1    2  504  501 -0.33017607235E+02  0.37166367828E+02 -0.46444073785E+03  0.46709388806E+03  0.00000000000E+00 0.  1.
         21    1    1    2  505  502  0.10191580108E+03 -0.15110040213E+03  0.77709151033E+02  0.19813347569E+03  0.00000000000E+00 0.  1.
          2    1    1    2  501    0 -0.90194986683E+01 -0.51591961433E+02  0.44708038318E+03  0.45013770212E+03  0.00000000000E+00 0.  1.
<scales pt_clust_3="155.28455" pt_clust_4="49.71420" pt_clust_5="14000.00000" pt_clust_6="51.82345"></scales>
<clustering>
<clus scale="   49.714">  2  4  1 -1</clus>
<clus scale="   51.823">  1  6  2 -1</clus>
<clus scale="  155.285">  1  3  2 -1</clus>
<clus scale="   49.714">  2  3  1 -1</clus>
</clustering>
</event>
<event>
 6    0  0.4796958E+002  0.6458181E+02  0.7546771E-02  0.1379551E+00
          2   -1    0    0  503    0 -0.00000000000E+00  0.00000000000E+00  0.32002490653E+04  0.32002490653E+04  0.00000000000E+00 0.  1.
         21   -1    0    0  504  502  0.00000000000E+00 -0.00000000000E+00 -0.19759977995E+03  0.19759977995E+03  0.00000000000E+00 0. -1.
         21    1    1    2  503  505  0.81404858819E+02 -0.89272562058E+02  0.54170708011E+03  0.55501612771E+03  0.00000000000E+00 0. -1.
         21    1    1    2  504  501  0.41674251538E+01  0.33686933311E+02  0.87741111837E+01  0.35059405805E+02  0.00000000000E+00 0. -1.
         21    1    1    2  505  502 -0.42652956283E+02  0.11482833731E+02 -0.17469327001E+03  0.18019120050E+03  0.00000000000E+00 0. -1.
          2    1    1    2  501    0 -0.42919327690E+02  0.44102795016E+02  0.26268613641E+04  0.26275821112E+04  0.00000000000E+00 0.  1.
<scales pt_clust_3="14000.00000" pt_clust_4="33.94373" pt_clust_5="58.47712" pt_clust_6="64.58181"></scales>
<clustering>
<clus scale="   33.944">  2  4  1 -1</clus>
<clus scale="   58.477">  2  5  1 -1</clus>
<clus scale="   64.582">  1  6  2 -1</clus>
<clus scale="   33.944">  2  3  1 -1</clus>
</clustering>
</event>
<event>
 6    0  0.4796958E+002  0.8403258E+02  0.7546771E-02  0.1317982E+00
         -2   -1    0    0    0  501 -0.00000000000E+00  0.00000000000E+00  0.13232543211E+04  0.13232543211E+04  0.00000000000E+00 0.  1.
         21   -1    0    0  505  502  0.00000000000E+00 -0.00000000000E+00 -0.26742691498E+03  0.26742691498E+03  0.00000000000E+00 0. -1.
         21    1    1    2  503  502 -0.29820266621E+02  0.18414200964E+02 -0.18276922621E+03  0.18609922393E+03  0.00000000000E+00 0. -1.
         21    1    1    2  504  503  0.83265975501E+01 -0.10145917792E+03 -0.33682698682E+02  0.10722789377E+03  0.00000000000E+00 0. -1.
         21    1    1    2  505  501 -0.28803405342E+02  0.71521722334E+02  0.11226437811E+03  0.13619208317E+03  0.00000000000E+00 0.  1.
         -2    1    1    2    0  504  0.50297074413E+02  0.11523254621E+02  0.11600149529E+04  0.11611620352E+04  0.00000000000E+00 0.  1.
<scales pt_clust_3="35.04755" pt_clust_4="84.03258" pt_clust_5="14000.00000" pt_clust_6="51.42803"></scales>
<clustering>
<clus scale="   35.048">  2  3  1 -1</clus>
<clus scale="   51.428">  1  6  2 -1</clus>
<clus scale="   84.033">  2  4  1 -1</clus>
<clus scale="   35.048">  2  3  1 -1</clus>
</clustering>
</event>
<event>
 6    0  0.4796958E+002  0.1176143E+03  0.7546771E-02  0.1247085E+00
          2   -1    0    0  505    0 -0.00000000000E+00  0.00000000000E+00  0.10076261283E+03  0.10076261283E+03  0.00000000000E+00 0.  1.
         21   -1    0    0  504  502  0.00000000000E+00 -0.00000000000E+00 -0.78965548851E+03  0.78965548851E+03  0.00000000000E+00 0.  1.
         21    1    1    2  503  502  0.32693253185E+02  0.11986526383E+02 -0.35239862217E+03  0.35411483240E+03  0.00000000000E+00 0.  1.
         21    1    1    2  504  501 -0.12498749183E+03 -0.56477243771E+00 -0.22775703482E+03  0.25979888181E+03  0.00000000000E+00 0.  1.
         21    1    1    2  505  503  0.13088942934E+03  0.34480254064E+02 -0.15126614843E+03  0.20298368972E+03  0.00000000000E+00 0.  1.
          2    1    1    2  501    0 -0.38595190695E+02 -0.45902008009E+02  0.42528929724E+02  0.73520697409E+02  0.00000000000E+00 0.  1.
<scales pt_clust_3="34.82134" pt_clust_4="117.61431" pt_clust_5="14000.00000" pt_clust_6="58.90185"></scales>
<clustering>
<clus scale="   34.821">  2  3  1 -1</clus>
<clus scale="   58.902">  1  6  2 -1</clus>
<clus scale="  117.614">  2  4  1 -1</clus>
<clus scale="   34.821">  2  3  1 -1</clus>
</clustering>
</event>
<event>
 6    0  0.4796958E+002  0.1065057E+03  0.7546771E-02  0.1267181E+00
         -1   -1    0    0    0  501 -0.00000000000E+00  0.00000000000E+00  0.13259308697E+03  0.13259308697E+03  0.00000000000E+00 0.  1.
         21   -1    0    0  505  502  0.00000000000E+00 -0.00000000000E+00 -0.67342706325E+03  0.67342706325E+03  0.00000000000E+00 0. -1.
         21    1    1    2  503  501 -0.88447627835E+02  0.48005360413E+02 -0.11799882210E+03  0.15508455601E+03  0.00000000000E+00 0. -1.
         21    1    1    2  504  502  0.10900909226E+03 -0.34351542783E+02 -0.42944756874E+03  0.44439647274E+03  0.00000000000E+00 0. -1.
         21    1    1    2  505  503  0.19904129706E+01  0.30554076294E+02 -0.91555494327E+02  0.96539742404E+02  0.00000000000E+00 0. -1.
         -1    1    1    2    0  504 -0.22551877399E+02 -0.44207893924E+02  0.98167908886E+02  0.10999937906E+03  0.00000000000E+00 0.  1.
<scales pt_clust_3="106.50565" pt_clust_4="14000.00000" pt_clust_5="30.61884" pt_clust_6="49.34089"></scales>
<clustering>
<clus scale="   30.619">  2  5  1 -1</clus>
<clus scale="   49.341">  1  6  2 -1</clus>
<clus scale="  106.506">  1  3  2 -1</clus>
<clus scale="   30.619">  2  3  1 -1</clus>
</clustering>
</event>
<event>
 6    0  0.4796958E+002  0.2339968E+03  0.7546771E-02  0.1123858E+00
          2   -1    0    0  503    0 -0.00000000000E+00  0.00000000000E+00  0.23913560064E+04  0.23913560064E+04  0.00000000000E+00 0.  1.
         21   -1    0    0  505  502  0.00000000000E+00 -0.00000000000E+00 -0.32030185884E+03  0.32030185884E+03  0.00000000000E+00 0. -1.
         21    1    1    2  503  502 -0.25860272472E+03  0.46952132034E+02  0.26475518905E+03  0.37306190112E+03  0.00000000000E+00 0. -1.
         21    1    1    2  504  501  0.21007921524E+03 -0.23961483960E+02  0.70407659120E+03  0.73514031019E+03  0.00000000000E+00 0.  1.
         21    1    1    2  505  504  0.24262274426E+02 -0.47040976861E+02 -0.24760350389E+03  0.25319756437E+03  0.00000000000E+00 0. -1.
          2    1    1    2  501    0  0.24261235061E+02  0.24050328788E+02  0.13498258712E+04  0.13502580896E+04  0.00000000000E+00 0.  1.
<scales pt_clust_3="233.99682" pt_clust_4="14000.00000" pt_clust_5="52.90184" pt_clust_6="34.16176"></scales>
<clustering>
<clus scale="   34.162">  1  6  2 -1</clus>
<clus scale="   52.902">  2  5  1 -1</clus>
<clus scale="  233.997">  2  3  1 -1</clus>
<clus scale="   52.902">  2  3  1 -1</clus>
</clustering>
</event>
<event>
 6    0  0.4796958E+002  0.7789458E+02  0.7546771E-02  0.1335135E+00
          2   -1    0    0  504    0 -0.00000000000E+00  0.00000000000E+00  0.32182617319E+03  0.32182617319E+03  0.00000000000E+00 0.  1.
         21   -1    0    0  505  502  0.00000000000E+00 -0.00000000000E+00 -0.27469610439E+03  0.27469610439E+03  0.00000000000E+00 0. -1.
         21    1    1    2  503  501  0.59971639081E+02  0.15790545994E+02  0.12130264356E+03  0.13623608248E+03  0.00000000000E+00 0. -1.
         21    1    1    2  504  502 -0.11205666850E+03 -0.39487093883E+02 -0.19342871477E+03  0.22700351371E+03  0.00000000000E+00 0. -1.
         21    1    1    2  505  503  0.32381570578E+02  0.48286009705E+02 -0.40238483296E+02  0.70705306621E+02  0.00000000000E+00 0. -1.
          2    1    1    2  501    0  0.19703458840E+02 -0.24589461817E+02  0.15949462331E+03  0.16257737477E+03  0.00000000000E+00 0.  1.
<scales pt_clust_3="77.89458" pt_clust_4="14000.00000" pt_clust_5="57.31435" pt_clust_6="31.50981"></scales>
<clustering>
<clus scale="   31.510">  1  6  2 -1</clus>
<clus scale="   57.314">  2  5  1 -1</clus>
<clus scale="   77.895">  1  3  2 -1</clus>
<clus scale="   57.314">  2  3  1 -1</clus>
</clustering>
</event>
<event>
 6    0  0.4796958E+002  0.6386369E+02  0.7546771E-02  0.1382298E+00
         21   -1    0    0  505  502  0.00000000000E+00  0.00000000000E+00  0.50029730789E+03  0.50029730789E+03  0.00000000000E+00 0.  1.
         -1   -1    0    0    0  501 -0.00000000000E+00 -0.00000000000E+00 -0.79563907332E+03  0.79563907332E+03  0.00000000000E+00 0. -1.
         21    1    1    2  503  504  0.10045961314E+03  0.14030383524E+02 -0.31262999161E+03  0.32867384622E+03  0.00000000000E+00 0. -1.
         21    1    1    2  504  502 -0.59684616790E+02  0.22249824323E+02  0.48154099485E+03  0.48573556374E+03  0.00000000000E+00 0.  1.
         21    1    1    2  505  501 -0.19358399289E+01 -0.62840801853E+02 -0.13491277642E+03  0.14884277307E+03  0.00000000000E+00 0. -1.
         -1    1    1    2    0  503 -0.38839156423E+02  0.26560594007E+02 -0.32933999224E+03  0.33268419818E+03  0.00000000000E+00 0. -1.
<scales pt_clust_3="63.86369" pt_clust_4="14000.00000" pt_clust_5="56.44225" pt_clust_6="47.05258"></scales>
<clustering>
<clus scale="   47.053">  2  6  1 -1</clus>
<clus scale="   56.442">  2  5  1 -1</clus>
<clus scale="   63.864">  2  3  1 -1</clus>
<clus scale="   63.864">  1  3  2 -1</clus>
</clustering>
</event>
<event>
 6    0  0.4796958E+002  0.1487793E+03  0.7546771E-02  0.1201981E+00
         21   -1    0    0  505  502  0.00000000000E+00  0.00000000000E+00  0.15136629557E+03  0.15136629557E+03  0.00000000000E+00 0. -1.
          4   -1    0    0  502    0 -0.00000000000E+00 -0.00000000000E+00 -0.66893070964E+03  0.66893070964E+03  0.00000000000E+00 0. -1.
         21    1    1    2  503  504 -0.38346891961E+02 -0.45290326449E+02  0.32860410285E+02  0.67834389192E+02  0.00000000000E+00 0. -1.
         21    1    1    2  504  501  0.16650584843E+03  0.16557922555E+02 -0.37807364220E+02  0.17154521023E+03  0.00000000000E+00 0. -1.
         21    1    1    2  505  503 -0.44013399097E+02 -0.60945479432E+02 -0.26852642939E+02  0.79828536227E+02  0.00000000000E+00 0. -1.
          4    1    1    2  501    0 -0.84145557375E+02  0.89677883326E+02 -0.48576481720E+03  0.50108886957E+03  0.00000000000E+00 0. -1.
<scales pt_clust_3="54.03655" pt_clust_4="135.78034" pt_clust_5="54.03655" pt_clust_6="122.97397"></scales>
<clustering>
<clus scale="   54.037">  3  5 -1 -1</clus>
<clus scale="  122.974">  2  6  1 -1</clus>
<clus scale="  135.780">  2  4  1 -1</clus>
<clus scale="  148.779">  1  3  2 -1</clus>
</clustering>
</event>
<event>
 6    0  0.4796958E+002  0.1253268E+03  0.7546771E-02  0.1234559E+00
         21   -1    0    0  505  502  0.00000000000E+00  0.00000000000E+00  0.12628184834E+04  0.12628184834E+04  0.00000000000E+00 0.  1.
         -2   -1    0    0    0  501 -0.00000000000E+00 -0.00000000000E+00 -0.37624293603E+03  0.37624293603E+03  0.00000000000E+00 0.  1.
         21    1    1    2  503  502 -0.25468144092E+02  0.11725501445E+03  0.35278901941E+03  0.37263582355E+03  0.00000000000E+00 0.  1.
         21    1    1    2  504  503  0.55125206081E+02 -0.17535470841E+03  0.58033901372E+02  0.19275890593E+03  0.00000000000E+00 0.  1.
         21    1    1    2  505  501  0.35213398566E+02  0.44389070195E+00  0.76799878015E+03  0.76880576663E+03  0.00000000000E+00 0.  1.
         -2    1    1    2    0  504 -0.64870460555E+02  0.57655803255E+02 -0.29224615356E+03  0.30486092333E+03  0.00000000000E+00 0.  1.
<scales pt_clust_3="14000.00000" pt_clust_4="125.32681" pt_clust_5="35.21620" pt_clust_6="86.45774"></scales>
<clustering>
<clus scale="   35.216">  1  5  2 -1</clus>
<clus scale="   86.458">  2  6  1 -1</clus>
<clus scale="  125.327">  2  4  1 -1</clus>
<clus scale="   35.216">  1  3  2 -1</clus>
</clustering>
</event>
<event>
 6    0  0.4796958E+002  0.1033245E+03  0.7546771E-02  0.1273456E+00
         21   -1    0    0  505  502  0.00000000000E+00  0.00000000000E+00  0.18979308898E+04  0.18979308898E+04  0.00000000000E+00 0. -1.
          2   -1    0    0  503    0 -0.00000000000E+00 -0.00000000000E+00 -0.12731073969E+03  0.12731073969E+03  0.00000000000E+00 0.  1.
         21    1    1    2  503  502 -0.79025126195E+02  0.52835798583E+02  0.62878443764E+03  0.63592960396E+03  0.00000000000E+00 0. -1.
         21    1    1    2  504  501  0.55271887164E+02  0.34872338145E+02  0.73280294410E+03  0.73571136756E+03  0.00000000000E+00 0. -1.
         21    1    1    2  505  504 -0.32502423266E+02 -0.37821637368E+00  0.50864215276E+03  0.50967969366E+03  0.00000000000E+00 0. -1.
          2    1    1    2  501    0  0.56255662297E+02 -0.87329920354E+02 -0.99609384348E+02  0.14392096435E+03  0.00000000000E+00 0.  1.
<scales pt_clust_3="103.32449" pt_clust_4="51.50565" pt_clust_5="32.50462" pt_clust_6="14000.00000"></scales>
<clustering>
<clus scale="   32.505">  1  5  2 -1</clus>
<clus scale="   51.506">  1  4  2 -1</clus>
<clus scale="  103.324">  1  3  2 -1</clus>
<clus scale="   32.505">  1  3  2 -1</clus>
</clustering>
</event>
<event>
 6    0  0.4796958E+002  0.1063312E+03  0.7546771E-02  0.1267519E+00
         21   -1    0    0  504  502  0.00000000000E+00  0.00000000000E+00  0.54639503205E+03  0.54639503205E+03  0.00000000000E+00 0.  1.
          2   -1    0    0  505    0 -0.00000000000E+00 -0.00000000000E+00 -0.19970634189E+03  0.19970634189E+03  0.00000000000E+00 0.  1.
         21    1    1    2  503  501 -0.73341076139E+02 -0.16419394429E+01  0.50544183309E+02  0.89086047621E+02  0.00000000000E+00 0.  1.
         21    1    1    2  504  503  0.11593397558E+03 -0.42667974206E+02  0.41669567787E+03  0.43462228506E+03  0.00000000000E+00 0.  1.
         21    1    1    2  505  502 -0.74916213241E+01  0.62383594590E+02  0.27924617864E+02  0.68757701728E+02  0.00000000000E+00 0.  1.
          2    1    1    2  501    0 -0.35101278116E+02 -0.18073680941E+02 -0.14847578888E+03  0.15363533953E+03  0.00000000000E+00 0.  1.
<scales pt_clust_3="14000.00000" pt_clust_4="106.33117" pt_clust_5="59.13322" pt_clust_6="39.48111"></scales>
<clustering>
<clus scale="   39.481">  2  6  1 -1</clus>
<clus scale="   59.133">  2  5  1 -1</clus>
<clus scale="  106.331">  1  4  2 -1</clus>
<clus scale="  106.331">  1  3  2 -1</clus>
</clustering>
</event>
<event>
 6    0  0.4796958E+002  0.1165032E+03  0.7546771E-02  0.1248980E+00
         21   -1    0    0  505  502  0.00000000000E+00  0.00000000000E+00  0.12747459756E+03  0.12747459756E+03  0.00000000000E+00 0.  1.
          2   -1    0    0  503    0 -0.00000000000E+00 -0.00000000000E+00 -0.82442184171E+03  0.82442184171E+03  0.00000000000E+00 0. -1.
         21    1    1    2  503  504  0.63138890686E+02  0.14085933162E+01 -0.55131750030E+03  0.55492295842E+03  0.00000000000E+00 0. -1.
         21    1    1    2  504  502  0.90836945174E+02  0.58006342424E+02  0.33527955089E+02  0.11287253936E+03  0.00000000000E+00 0.  1.
         21    1    1    2  505  501 -0.11073005612E+03 -0.84234178644E+02 -0.53759248975E+02  0.14915293839E+03  0.00000000000E+00 0.  1.
          2    1    1    2  501    0 -0.43245779744E+02  0.24819242904E+02 -0.12539844997E+03  0.13494800309E+03  0.00000000000E+00 0. -1.
<scales pt_clust_3="35.65786" pt_clust_4="116.50322" pt_clust_5="14000.00000" pt_clust_6="49.86173"></scales>
<clustering>
<clus scale="   49.862">  2  6  1 -1</clus>
<clus scale="   35.658">  2  3  1 -1</clus>
<clus scale="  116.503">  1  4  2 -1</clus>
<clus scale="  116.503">  1  3  2 -1</clus>
</clustering>
</event>
<event>
 6    0  0.4796958E+002  0.9466145E+02  0.7546771E-02  0.1291940E+00
          2   -1    0    0  504    0 -0.00000000000E+00  0.00000000000E+00  0.14661756796E+04  0.14661756796E+04  0.00000000000E+00 0. -1.
         21   -1    0    0  503  502  0.00000000000E+00 -0.00000000000E+00 -0.56036039423E+02  0.56036039423E+02  0.00000000000E+00 0. -1.
         21    1    1    2  503  501 -0.90261166978E+01 -0.30647642992E+02  0.29483110031E+02  0.43474159920E+02  0.00000000000E+00 0. -1.
         21    1    1    2  504  505 -0.45997742290E+02 -0.51827657441E+01  0.24044840325E+03  0.24486340678E+03  0.00000000000E+00 0.  1.
         21    1    1    2  505  502  0.96741129359E+02  0.71356190656E+02  0.32114051562E+02  0.12442614019E+03  0.00000000000E+00 0. -1.
          2    1    1    2  501    0 -0.41717270371E+02 -0.35525781920E+02  0.11080940753E+04  0.11094480121E+04  0.00000000000E+00 0. -1.
<scales pt_clust_3="31.94916" pt_clust_4="46.86576" pt_clust_5="94.66145" pt_clust_6="14000.00000"></scales>
<clustering>
<clus scale="   31.949">  2  3  1 -1</clus>
<clus scale="   46.866">  1  4  2 -1</clus>
<clus scale="   94.661">  2  5  1 -1</clus>
<clus scale="   31.949">  2  3  1 -1</clus>
</clustering>
</event>
<event>
 6    0  0.4796958E+002  0.6487733E+02  0.7546771E-02  0.1378434E+00
         21   -1    0    0  501  502  0.00000000000E+00  0.00000000000E+00  0.88843506987E+03  0.88843506987E+03  0.00000000000E+00 0. -1.
          2   -1    0    0  503    0 -0.00000000000E+00 -0.00000000000E+00 -0.18298922904E+04  0.18298922904E+04  0.00000000000E+00 0.  1.
         21    1    1    2  503  505  0.55494307418E+02  0.84061943146E+02 -0.74200264399E+02  0.12510678510E+03  0.00000000000E+00 0.  1.
         21    1    1    2  504  502 -0.90296492299E+01 -0.32067708812E+02  0.79177507342E+03  0.79247563963E+03  0.00000000000E+00 0. -1.
         21    1    1    2  505  504 -0.53026579340E+02  0.12219378734E+02  0.59712897591E+02  0.80788374608E+02  0.00000000000E+00 0.  1.
          2    1    1    2  501    0  0.65619211514E+01 -0.64213613069E+02 -0.17187449271E+04  0.17199565609E+04  0.00000000000E+00 0.  1.
<scales pt_clust_3="14000.00000" pt_clust_4="33.31475" pt_clust_5="60.65078" pt_clust_6="64.87733"></scales>
<clustering>
<clus scale="   33.315">  1  4  2 -1</clus>
<clus scale="   60.651">  1  5  2 -1</clus>
<clus scale="   64.877">  2  6  1 -1</clus>
<clus scale="   33.315">  1  3  2 -1</clus>
</clustering>
</event>
<event>
 6    0  0.4796958E+002  0.6464539E+02  0.7546771E-02  0.1379310E+00
         21   -1    0    0  501  502  0.00000000000E+00  0.00000000000E+00  0.13054689029E+03  0.13054689029E+03  0.00000000000E+00 0.  1.
          2   -1    0    0  503    0 -0.00000000000E+00 -0.00000000000E+00 -0.25263789282E+04  0.25263789282E+04  0.00000000000E+00 0. -1.
         21    1    1    2  503  505  0.11732144222E+03 -0.15339846405E+02 -0.12693592719E+04  0.12748617936E+04  0.00000000000E+00 0. -1.
         21    1    1    2  504  502 -0.29471218204E+02 -0.30380617681E+02  0.16301373091E+02  0.45357131719E+02  0.00000000000E+00 0. -1.
         21    1    1    2  505  504 -0.33989658720E+02  0.40297114997E+02  0.89162550911E+02  0.10358144072E+03  0.00000000000E+00 0.  1.
          2    1    1    2  501    0 -0.53860565300E+02  0.54233490891E+01 -0.12319366901E+04  0.12331254525E+04  0.00000000000E+00 0. -1.
<scales pt_clust_3="64.64539" pt_clust_4="42.32652" pt_clust_5="14000.00000" pt_clust_6="54.28992"></scales>
<clustering>
<clus scale="   42.327">  1  4  2 -1</clus>
<clus scale="   54.290">  2  6  1 -1</clus>
<clus scale="   64.645">  2  3  1 -1</clus>
<clus scale="   42.327">  1  3  2 -1</clus>
</clustering>
</event>
<event>
 6    0  0.4796958E+002  0.8112974E+02  0.7546771E-02  0.1325876E+00
         -1   -1    0    0    0  501 -0.00000000000E+00  0.00000000000E+00  0.26967050686E+03  0.26967050686E+03  0.00000000000E+00 0. -1.
         21   -1    0    0  504  502  0.00000000000E+00 -0.00000000000E+00 -0.42753870924E+03  0.42753870924E+03  0.00000000000E+00 0. -1.
         21    1    1    2  503  505 -0.81769157069E+00  0.86669929000E+02 -0.11113019409E+03  0.14093354906E+03  0.00000000000E+00 0. -1.
         21    1    1    2  504  501  0.33566458214E+02 -0.55229874405E+02 -0.67514277461E+02  0.93462419212E+02  0.00000000000E+00 0. -1.
         21    1    1    2  505  502  0.25156598354E+02  0.26884454927E+02 -0.21240467737E+03  0.21557220444E+03  0.00000000000E+00 0. -1.
         -1    1    1    2    0  503 -0.57905364998E+02 -0.58324509521E+02  0.23318094654E+03  0.24724104339E+03  0.00000000000E+00 0. -1.
<scales pt_clust_3="81.12974" pt_clust_4="62.34483" pt_clust_5="36.81886" pt_clust_6="14000.00000"></scales>
<clustering>
<clus scale="   36.819">  2  5  1 -1</clus>
<clus scale="   62.345">  2  4  1 -1</clus>
<clus scale="   81.130">  2  3  1 -1</clus>
<clus scale="   36.819">  2  3  1 -1</clus>
</clustering>
</event>
<event>
 6    0  0.4796958E+002  0.8856820E+02  0.7546771E-02  0.1306357E+00
         21   -1    0    0  501  502  0.00000000000E+00  0.00000000000E+00  0.92533356007E+03  0.92533356007E+03  0.00000000000E+00 0. -1.
          2   -1    0    0  503    0 -0.00000000000E+00 -0.00000000000E+00 -0.26244143490E+04  0.26244143490E+04  0.00000000000E+00 0.  1.
         21    1    1    2  503  505 -0.35106125592E+02  0.74418999180E+02  0.42650726952E+02  0.92680699191E+02  0.00000000000E+00 0. -1.
         21    1    1    2  504  502 -0.42173928989E+02  0.13456705236E+02  0.60642077897E+03  0.60803444340E+03  0.00000000000E+00 0. -1.
         21    1    1    2  505  504  0.29474172734E+02 -0.10247014800E+03  0.23883899569E+03  0.26155864343E+03  0.00000000000E+00 0. -1.
          2    1    1    2  501    0  0.47805881848E+02  0.14594443585E+02 -0.25869912906E+04  0.25874741231E+04  0.00000000000E+00 0.  1.
<scales pt_clust_3="88.56820" pt_clust_4="44.26876" pt_clust_5="14000.00000" pt_clust_6="49.95637"></scales>
<clustering>
<clus scale="   44.269">  1  4  2 -1</clus>
<clus scale="   49.956">  2  6  1 -1</clus>
<clus scale="   88.568">  2  3  1 -1</clus>
<clus scale="   44.269">  1  3  2 -1</clus>
</clustering>
</event>
<event>
 6    0  0.4796958E+002  0.9715507E+02  0.7546771E-02  0.1286395E+00
         21   -1    0    0  503  502  0.00000000000E+00  0.00000000000E+00  0.62043154332E+03  0.62043154332E+03  0.00000000000E+00 0.  1.
          1   -1    0    0  504    0 -0.00000000000E+00 -0.00000000000E+00 -0.21240287118E+04  0.21240287118E+04  0.00000000000E+00 0. -1.
         21    1    1    2  503  505  0.59871527189E+02 -0.17828140427E+02  0.53087705778E+03  0.53453988891E+03  0.00000000000E+00 0.  1.
         21    1    1    2  504  502  0.45325875335E+02 -0.39515136807E+02 -0.11945193584E+03  0.13373348866E+03  0.00000000000E+00 0. -1.
         21    1    1    2  505  501 -0.68620978609E+02  0.11341240021E+03  0.25098359309E+02  0.13491159649E+03  0.00000000000E+00 0. -1.
          1    1    1    2  501    0 -0.36576423915E+02 -0.56069122979E+02 -0.19401206497E+04  0.19412752810E+04  0.00000000000E+00 0. -1.
<scales pt_clust_3="62.51971" pt_clust_4="60.13220" pt_clust_5="97.15507" pt_clust_6="14000.00000"></scales>
<clustering>
<clus scale="   60.132">  2  4  1 -1</clus>
<clus scale="   62.520">  1  3  2 -1</clus>
<clus scale="   97.155">  1  5  2 -1</clus>
<clus scale="   62.520">  1  3  2 -1</clus>
</clustering>
</event>
<event>
 6    0  0.5322562E+002  0.1082459E+03  0.7546771E-02  0.1263853E+00
         21   -1    0    0  501  502  0.00000000000E+00  0.00000000000E+00  0.33311499735E+04  0.33311499735E+04  0.00000000000E+00 0. -1.
          2   -1    0    0  503    0 -0.00000000000E+00 -0.00000000000E+00 -0.32131020415E+04  0.32131020415E+04  0.00000000000E+00 0. -1.
         21    1    1    2  503  505  0.28966956155E+02 -0.67758239612E+02 -0.52210736394E+02  0.90311818601E+02  0.00000000000E+00 0. -1.
         21    1    1    2  504  502  0.11328309477E+03 -0.28964622991E+02  0.29683204530E+04  0.29706225476E+04  0.00000000000E+00 0. -1.
         21    1    1    2  505  504 -0.48265269239E+02  0.71568517793E+02  0.33642404582E+03  0.34732222440E+03  0.00000000000E+00 0.  1.
          2    1    1    2  501    0 -0.93984781685E+02  0.25154344809E+02 -0.31344858304E+04  0.31359954243E+04  0.00000000000E+00 0. -1.
<scales pt_clust_3="73.69032" pt_clust_4="108.24592" pt_clust_5="14000.00000" pt_clust_6="77.70597"></scales>
<clustering>
<clus scale="   73.690">  2  3  1 -1</clus>
<clus scale="   77.706">  2  6  1 -1</clus>
<clus scale="  108.246">  1  4  2 -1</clus>
<clus scale="  108.246">  1  3  2 -1</clus>
</clustering>
</event>
<event>
 6    0  0.4796958E+002  0.8669165E+02  0.7546771E-02  0.1311067E+00
          2   -1    0    0  504    0 -0.00000000000E+00  0.00000000000E+00  0.30374029244E+04  0.30374029244E+04  0.00000000000E+00 0.  1.
         21   -1    0    0  503  502  0.00000000000E+00 -0.00000000000E+00 -0.19681860183E+02  0.19681860183E+02  0.00000000000E+00 0.  1.
         21    1    1    2  503  501 -0.95146786667E+02  0.69494080429E+02  0.33218938829E+03  0.35246578262E+03  0.00000000000E+00 0.  1.
         21    1    1    2  504  505  0.62403069215E+02  0.25968646036E+02  0.53127923290E+03  0.53556151555E+03  0.00000000000E+00 0.  1.
         21    1    1    2  505  502  0.45932873317E+02 -0.38920647555E+01  0.76986496029E+02  0.89732366457E+02  0.00000000000E+00 0.  1.
          2    1    1    2  501    0 -0.13189155865E+02 -0.91570661710E+02  0.20772659470E+04  0.20793251199E+04  0.00000000000E+00 0.  1.
<scales pt_clust_3="86.69165" pt_clust_4="74.25140" pt_clust_5="46.09747" pt_clust_6="14000.00000"></scales>
<clustering>
<clus scale="   46.097">  2  5  1 -1</clus>
<clus scale="   74.251">  1  4  2 -1</clus>
<clus scale="   86.692">  2  3  1 -1</clus>
<clus scale="   46.097">  2  3  1 -1</clus>
</clustering>
</event>
<event>
 6    0  0.4796958E+002  0.1441402E+03  0.7546771E-02  0.1207864E+00
         21   -1    0    0  503  502  0.00000000000E+00  0.00000000000E+00  0.24487989539E+03  0.24487989539E+03  0.00000000000E+00 0.  1.
          2   -1    0    0  504    0 -0.00000000000E+00 -0.00000000000E+00 -0.13873185342E+04  0.13873185342E+04  0.00000000000E+00 0. -1.
         21    1    1    2  503  505  0.35105025665E+02 -0.58069373893E+02  0.75387882467E+02  0.10142853560E+03  0.00000000000E+00 0.  1.
         21    1    1    2  504  502 -0.15352969329E+03 -0.89178027245E+01  0.79472164720E+02  0.17310897982E+03  0.00000000000E+00 0.  1.
         21    1    1    2  505  501  0.16950019244E+03  0.58984981499E+02 -0.24297349464E+03  0.30206896957E+03  0.00000000000E+00 0.  1.
          2    1    1    2  501    0 -0.51075524816E+02  0.80021951190E+01 -0.10543251913E+04  0.10555919445E+04  0.00000000000E+00 0. -1.
<scales pt_clust_3="66.57045" pt_clust_4="144.14020" pt_clust_5="14000.00000" pt_clust_6="51.69859"></scales>
<clustering>
<clus scale="   51.699">  2  6  1 -1</clus>
<clus scale="   66.570">  1  3  2 -1</clus>
<clus scale="  144.140">  1  4  2 -1</clus>
<clus scale="   66.570">  1  3  2 -1</clus>
</clustering>
</event>
<event>
 6    0  0.4796958E+002  0.1367212E+03  0.7546771E-02  0.1217810E+00
          2   -1    0    0  503    0 -0.00000000000E+00  0.00000000000E+00  0.10174409250E+04  0.10174409250E+04  0.00000000000E+00 0. -1.
         21   -1    0    0  501  502  0.00000000000E+00 -0.00000000000E+00 -0.10805845866E+04  0.10805845866E+04  0.00000000000E+00 0.  1.
         21    1    1    2  503  504  0.11880072930E+02 -0.72054682171E+02  0.51368105510E+02  0.89284352600E+02  0.00000000000E+00 0. -1.
         21    1    1    2  504  505  0.88101091383E+02 -0.80662314900E+02 -0.75805323186E+03  0.76740661561E+03  0.00000000000E+00 0.  1.
         21    1    1    2  505  502 -0.57358534915E+02 -0.53031677229E+02 -0.28180525384E+03  0.29243214838E+03  0.00000000000E+00 0.  1.
          2    1    1    2  501    0 -0.42622629398E+02  0.20574867430E+03  0.92534671859E+03  0.94890239494E+03  0.00000000000E+00 0. -1.
<scales pt_clust_3="73.02748" pt_clust_4="136.72122" pt_clust_5="78.34384" pt_clust_6="14000.00000"></scales>
<clustering>
<clus scale="   73.027">  1  3  2 -1</clus>
<clus scale="   78.344">  2  5  1 -1</clus>
<clus scale="  136.721">  2  4  1 -1</clus>
<clus scale="   78.344">  2  3  1 -1</clus>
</clustering>
</event>
<event>
 6    0  0.4796958E+002  0.1164395E+03  0.7546771E-02  0.1249089E+00
          2   -1    0    0  505    0 -0.00000000000E+00  0.00000000000E+00  0.88350990755E+03  0.88350990755E+03  0.00000000000E+00 0.  1.
         21   -1    0    0  504  502  0.00000000000E+00 -0.00000000000E+00 -0.11546025055E+03  0.11546025055E+03  0.00000000000E+00 0.  1.
         21    1    1    2  503  502 -0.17429400403E+02  0.44196365515E+02 -0.69737620132E+02  0.84382690078E+02  0.00000000000E+00 0.  1.
         21    1    1    2  504  501  0.97201358273E+02 -0.61498503165E+02  0.25497483774E+03  0.27971831871E+03  0.00000000000E+00 0.  1.
         21    1    1    2  505  503 -0.88559155411E+02  0.49892292441E+02  0.75957958962E+02  0.12689198707E+03  0.00000000000E+00 0.  1.
          2    1    1    2  501    0  0.87871975408E+01 -0.32590154791E+02  0.50685448043E+03  0.50797716225E+03  0.00000000000E+00 0.  1.
<scales pt_clust_3="46.85598" pt_clust_4="116.43948" pt_clust_5="14000.00000" pt_clust_6="33.75401"></scales>
<clustering>
<clus scale="   33.754">  1  6  2 -1</clus>
<clus scale="   46.856">  2  3  1 -1</clus>
<clus scale="  116.439">  1  4  2 -1</clus>
<clus scale="   46.856">  2  3  1 -1</clus>
</clustering>
</event>
<event>
 6    0  0.4796958E+002  0.9168621E+02  0.7546771E-02  0.1298819E+00
          2   -1    0    0  505    0 -0.00000000000E+00  0.00000000000E+00  0.40859286910E+04  0.40859286910E+04  0.00000000000E+00 0. -1.
         21   -1    0    0  503  502  0.00000000000E+00 -0.00000000000E+00 -0.16859950257E+03  0.16859950257E+03  0.00000000000E+00 0.  1.
         21    1    1    2  503  504  0.29358669298E+02 -0.74134970941E+01 -0.13072235243E+03  0.13418354902E+03  0.00000000000E+00 0.  1.
         21    1    1    2  504  501 -0.40723994759E+02  0.63975828867E+02  0.15023105412E+03  0.16828761110E+03  0.00000000000E+00 0.  1.
         21    1    1    2  505  502 -0.10541744356E+02 -0.14450043925E+03  0.17096310674E+03  0.22409794551E+03  0.00000000000E+00 0.  1.
          2    1    1    2  501    0  0.21907069817E+02  0.87938107478E+02  0.37268573800E+04  0.37279590879E+04  0.00000000000E+00 0. -1.
<scales pt_clust_3="30.28021" pt_clust_4="70.52928" pt_clust_5="14000.00000" pt_clust_6="91.68621"></scales>
<clustering>
<clus scale="   30.280">  2  3  1 -1</clus>
<clus scale="   70.529">  2  4  1 -1</clus>
<clus scale="   91.686">  1  6  2 -1</clus>
<clus scale="   30.280">  2  3  1 -1</clus>
</clustering>
</event>
<event>
 6    0  0.4796958E+002  0.1023548E+03  0.7546771E-02  0.1275421E+00
         -1   -1    0    0    0  501 -0.00000000000E+00  0.00000000000E+00  0.94131021737E+03  0.94131021737E+03  0.00000000000E+00 0. -1.
         21   -1    0    0  503  502  0.00000000000E+00 -0.00000000000E+00 -0.16308191436E+03  0.16308191436E+03  0.00000000000E+00 0.  1.
         21    1    1    2  503  501  0.40641248441E+02 -0.14636071820E+02  0.12487531209E+03  0.13213542009E+03  0.00000000000E+00 0.  1.
         21    1    1    2  504  502 -0.12405153252E+03 -0.45932772369E+02 -0.87593329450E+02  0.15865432128E+03  0.00000000000E+00 0.  1.
         21    1    1    2  505  504  0.52535086435E+02  0.52787290858E+02  0.25480757512E+01  0.74517958057E+02  0.00000000000E+00 0.  1.
         -1    1    1    2    0  505  0.30875197642E+02  0.77815533313E+01  0.73839824462E+03  0.73908443230E+03  0.00000000000E+00 0. -1.
<scales pt_clust_3="61.00387" pt_clust_4="14000.00000" pt_clust_5="102.35483" pt_clust_6="31.84070"></scales>
<clustering>
<clus scale="   31.841">  1  6  2 -1</clus>
<clus scale="   61.004">  1  3  2 -1</clus>
<clus scale="  102.355">  1  5  2 -1</clus>
<clus scale="  102.355">  2  3  1 -1</clus>
</clustering>
</event>
<event>
 6    0  0.4796958E+002  0.7129206E+02  0.7546771E-02  0.1355754E+00
         21   -1    0    0  505  502  0.00000000000E+00  0.00000000000E+00  0.16698262288E+02  0.16698262288E+02  0.00000000000E+00 0. -1.
          2   -1    0    0  503    0 -0.00000000000E+00 -0.00000000000E+00 -0.24058918027E+04  0.24058918027E+04  0.00000000000E+00 0. -1.
         21    1    1    2  503  502  0.10318987235E+03  0.22896973004E+02 -0.22465920061E+03  0.24828245518E+03  0.00000000000E+00 0. -1.
         21    1    1    2  504  501 -0.61231040984E+02  0.30901834050E+02 -0.76242302940E+03  0.76550182200E+03  0.00000000000E+00 0. -1.
         21    1    1    2  505  504 -0.35410010760E+02 -0.99273392728E+01 -0.11101352243E+03  0.11694624016E+03  0.00000000000E+00 0. -1.
          2    1    1    2  501    0 -0.65488206070E+01 -0.43871467781E+02 -0.12910977879E+04  0.12918595476E+04  0.00000000000E+00 0. -1.
<scales pt_clust_3="14000.00000" pt_clust_4="71.29206" pt_clust_5="36.77528" pt_clust_6="44.78457"></scales>
<clustering>
<clus scale="   36.775">  1  5  2 -1</clus>
<clus scale="   44.785">  2  6  1 -1</clus>
<clus scale="   71.292">  2  4  1 -1</clus>
<clus scale="   36.775">  1  3  2 -1</clus>
</clustering>
</event>
<event>
 6    0  0.4796958E+002  0.9436114E+02  0.7546771E-02  0.1292621E+00
          1   -1    0    0  502    0 -0.00000000000E+00  0.00000000000E+00  0.11676999793E+04  0.11676999793E+04  0.00000000000E+00 0. -1.
         21   -1    0    0  503  502  0.00000000000E+00 -0.00000000000E+00 -0.23133811179E+03  0.23133811179E+03  0.00000000000E+00 0.  1.
         21    1    1    2  503  505  0.39146988116E+02 -0.12911382683E+02 -0.11850508619E+03  0.12546970126E+03  0.00000000000E+00 0.  1.
         21    1    1    2  504  501  0.84169972981E+02 -0.10603638465E+02  0.12541527548E+03  0.15141338390E+03  0.00000000000E+00 0.  1.
         21    1    1    2  505  504 -0.12835217416E+03 -0.92546484869E+01 -0.52979544542E+02  0.13916451153E+03  0.00000000000E+00 0.  1.
          1    1    1    2  501    0  0.50352130619E+01  0.32769669635E+02  0.98243122274E+03  0.98299049438E+03  0.00000000000E+00 0. -1.
<scales pt_clust_3="41.12264" pt_clust_4="94.36114" pt_clust_5="14000.00000" pt_clust_6="33.15425"></scales>
<clustering>
<clus scale="   33.154">  1  6  2 -1</clus>
<clus scale="   41.123">  2  3  1 -1</clus>
<clus scale="   94.361">  1  4  2 -1</clus>
<clus scale="   41.123">  2  3  1 -1</clus>
</clustering>
</event>
<event>
 6    0  0.4796958E+002  0.6988738E+02  0.7546771E-02  0.1360476E+00
         21   -1    0    0  503  502  0.00000000000E+00  0.00000000000E+00  0.83069678602E+03  0.83069678602E+03  0.00000000000E+00 0. -1.
          2   -1    0    0  505    0 -0.00000000000E+00 -0.00000000000E+00 -0.13081684450E+04  0.13081684450E+04  0.00000000000E+00 0. -1.
         21    1    1    2  503  501 -0.97240283457E+02 -0.50998772622E+02  0.58587981280E+03  0.59608028199E+03  0.00000000000E+00 0. -1.
         21    1    1    2  504  502  0.35264856734E+02  0.20837733173E+02  0.17466120279E+03  0.17939999165E+03  0.00000000000E+00 0. -1.
         21    1    1    2  505  504  0.11744899087E+01  0.64654917581E+02  0.44800579833E+02  0.78668480012E+02  0.00000000000E+00 0.  1.
          2    1    1    2  501    0  0.60800936814E+02 -0.34493878131E+02 -0.12828132544E+04  0.12847164774E+04  0.00000000000E+00 0. -1.
<scales pt_clust_3="69.88738" pt_clust_4="40.96122" pt_clust_5="66.77505" pt_clust_6="14000.00000"></scales>
<clustering>
<clus scale="   40.961">  1  4  2 -1</clus>
<clus scale="   66.775">  1  5  2 -1</clus>
<clus scale="   69.887">  1  3  2 -1</clus>
<clus scale="   40.961">  1  3  2 -1</clus>
</clustering>
</event>
<event>
 6    0  0.4796958E+002  0.6366616E+02  0.7546771E-02  0.1383060E+00
          1   -1    0    0  504    0 -0.00000000000E+00  0.00000000000E+00  0.99955941169E+03  0.99955941169E+03  0.00000000000E+00 0. -1.
         21   -1    0    0  505  502  0.00000000000E+00 -0.00000000000E+00 -0.38553874720E+03  0.38553874720E+03  0.00000000000E+00 0. -1.
         21    1    1    2  503  501  0.98720558903E+01 -0.73948748434E+02  0.34075349098E+02  0.82018316848E+02  0.00000000000E+00 0.  1.
         21    1    1    2  504  502 -0.51247529164E+02 -0.12932064350E+02 -0.52804718847E+02  0.74712019557E+02  0.00000000000E+00 0.  1.
         21    1    1    2  505  503  0.68521526753E+02  0.70277774955E+02 -0.28943947527E+03  0.30562947359E+03  0.00000000000E+00 0. -1.
          1    1    1    2  501    0 -0.27146053480E+02  0.16603037829E+02  0.92218950951E+03  0.92273834890E+03  0.00000000000E+00 0. -1.
<scales pt_clust_3="63.66616" pt_clust_4="56.10960" pt_clust_5="14000.00000" pt_clust_6="31.82089"></scales>
<clustering>
<clus scale="   31.821">  1  6  2 -1</clus>
<clus scale="   56.110">  2  4  1 -1</clus>
<clus scale="   63.666">  1  3  2 -1</clus>
<clus scale="   56.110">  2  3  1 -1</clus>
</clustering>
</event>
<event>
 6    0  0.4796958E+002  0.1351092E+03  0.7546771E-02  0.1220066E+00
         21   -1    0    0  505  502  0.00000000000E+00  0.00000000000E+00  0.10036015026E+04  0.10036015026E+04  0.00000000000E+00 0.  1.
          1   -1    0    0  503    0 -0.00000000000E+00 -0.00000000000E+00 -0.18428352089E+04  0.18428352089E+04  0.00000000000E+00 0. -1.
         21    1    1    2  503  502  0.47207257512E+02  0.15730788527E+03  0.72817355724E+03  0.74646568936E+03  0.00000000000E+00 0.  1.
         21    1    1    2  504  501 -0.40933949018E+02 -0.72846797874E+02 -0.15104430255E+02  0.84914003297E+02  0.00000000000E+00 0.  1.
         21    1    1    2  505  504 -0.27217719943E+02 -0.15641576919E+02  0.22958323006E+03  0.23171949148E+03  0.00000000000E+00 0.  1.
          1    1    1    2  501    0  0.20944411448E+02 -0.68819510479E+02 -0.17818860634E+04  0.17833375273E+04  0.00000000000E+00 0. -1.
<scales pt_clust_3="14000.00000" pt_clust_4="135.10923" pt_clust_5="31.39209" pt_clust_6="71.94265"></scales>
<clustering>
<clus scale="   31.392">  1  5  2 -1</clus>
<clus scale="   71.943">  2  6  1 -1</clus>
<clus scale="  135.109">  2  4  1 -1</clus>
<clus scale="   31.392">  1  3  2 -1</clus>
</clustering>
</event>
<event>
 6    0  0.4796958E+002  0.2288507E+03  0.7546771E-02  0.1127451E+00
         21   -1    0    0  504  502  0.00000000000E+00  0.00000000000E+00  0.12078850751E+03  0.12078850751E+03  0.00000000000E+00 0.  1.
          2   -1    0    0  503    0 -0.00000000000E+00 -0.00000000000E+00 -0.23792819845E+04  0.23792819845E+04  0.00000000000E+00 0. -1.
         21    1    1    2  503  505  0.21953535082E+03  0.28840463135E+02 -0.27281867403E+03  0.35136529634E+03  0.00000000000E+00 0.  1.
         21    1    1    2  504  501 -0.97533393357E+02 -0.76970037760E+02 -0.29583231151E+03  0.32086431099E+03  0.00000000000E+00 0.  1.
         21    1    1    2  505  502  0.10124662198E+03 -0.21519655951E+02  0.17135886150E+02  0.10491717042E+03  0.00000000000E+00 0.  1.
          2    1    1    2  501    0 -0.22324857945E+03  0.69649230575E+02 -0.17069783776E+04  0.17229237142E+04  0.00000000000E+00 0. -1.
<scales pt_clust_3="228.85072" pt_clust_4="111.64515" pt_clust_5="103.50833" pt_clust_6="14000.00000"></scales>
<clustering>
<clus scale="  103.508">  1  5  2 -1</clus>
<clus scale="  111.645">  1  4  2 -1</clus>
<clus scale="  228.851">  1  3  2 -1</clus>
<clus scale="  103.508">  1  3  2 -1</clus>
</clustering>
</event>
<event>
 6    0  0.4796958E+002  0.7240902E+02  0.7546771E-02  0.1352087E+00
          1   -1    0    0  503    0 -0.00000000000E+00  0.00000000000E+00  0.28519218955E+03  0.28519218955E+03  0.00000000000E+00 0. -1.
         21   -1    0    0  504  502  0.00000000000E+00 -0.00000000000E+00 -0.18166715552E+03  0.18166715552E+03  0.00000000000E+00 0. -1.
         21    1    1    2  503  505 -0.21321614622E+02 -0.37204289763E+02  0.13407865842E+02  0.44928179278E+02  0.00000000000E+00 0. -1.
         21    1    1    2  504  501 -0.87386072612E+02  0.54747130063E+02 -0.23417236966E+02  0.10574469691E+03  0.00000000000E+00 0. -1.
         21    1    1    2  505  502  0.52182675722E+02 -0.37836385697E+02 -0.86191032535E+02  0.10762675233E+03  0.00000000000E+00 0. -1.
          1    1    1    2  501    0  0.56525011512E+02  0.20293545397E+02  0.19972543768E+03  0.20855971655E+03  0.00000000000E+00 0. -1.
<scales pt_clust_3="42.88089" pt_clust_4="14000.00000" pt_clust_5="72.40902" pt_clust_6="40.61993"></scales>
<clustering>
<clus scale="   42.881">  1  3  2 -1</clus>
<clus scale="   40.620">  1  6  2 -1</clus>
<clus scale="   72.409">  2  5  1 -1</clus>
<clus scale="   72.409">  2  3  1 -1</clus>
</clustering>
</event>
<event>
 6    0  0.4796958E+002  0.1064862E+03  0.7546771E-02  0.1267219E+00
          2   -1    0    0  504    0 -0.00000000000E+00  0.00000000000E+00  0.10091598758E+04  0.10091598758E+04  0.00000000000E+00 0.  1.
         21   -1    0    0  505  502  0.00000000000E+00 -0.00000000000E+00 -0.10501324003E+03  0.10501324003E+03  0.00000000000E+00 0.  1.
         21    1    1    2  503  501 -0.63763017108E+02 -0.54002606367E+01  0.31780031620E+03  0.32417884901E+03  0.00000000000E+00 0.  1.
         21    1    1    2  504  502  0.67168165736E+02 -0.63678066465E+02  0.17052422727E+03  0.19402311904E+03  0.00000000000E+00 0.  1.
         21    1    1    2  505  503  0.41880960963E+02  0.77529815534E+02 -0.67161749109E+02  0.11079525139E+03  0.00000000000E+00 0.  1.
          2    1    1    2  501    0 -0.45286109590E+02 -0.84514884329E+01  0.48298384144E+03  0.48517589642E+03  0.00000000000E+00 0.  1.
<scales pt_clust_3="35.15037" pt_clust_4="98.09714" pt_clust_5="88.11860" pt_clust_6="35.15037"></scales>
<clustering>
<clus scale="   35.150">  3  6 -1 -1</clus>
<clus scale="   88.119">  2  5  1 -1</clus>
<clus scale="   98.097">  2  4  1 -1</clus>
<clus scale="   88.119">  2  3  1 -1</clus>
</clustering>
</event>
<event>
 6    0  0.4796958E+002  0.2038473E+03  0.7546771E-02  0.1146533E+00
         21   -1    0    0  504  502  0.00000000000E+00  0.00000000000E+00  0.16826946456E+04  0.16826946456E+04  0.00000000000E+00 0.  1.
          1   -1    0    0  505    0 -0.00000000000E+00 -0.00000000000E+00 -0.63404863383E+03  0.63404863383E+03  0.00000000000E+00 0. -1.
         21    1    1    2  503  502 -0.54129010521E+02  0.19055992971E+03  0.14493922023E+04  0.14628673189E+04  0.00000000000E+00 0.  1.
         21    1    1    2  504  501 -0.39927739168E+02 -0.13587815314E+02  0.63000246431E+02  0.75814801526E+02  0.00000000000E+00 0.  1.
         21    1    1    2  505  503 -0.14210717572E+02  0.18147539472E+03 -0.16387191785E-01  0.18203094147E+03  0.00000000000E+00 0.  1.
          1    1    1    2  501    0  0.10826746726E+03 -0.35844750912E+03 -0.46373004972E+03  0.59603021759E+03  0.00000000000E+00 0. -1.
<scales pt_clust_3="203.84727" pt_clust_4="42.17645" pt_clust_5="181.45726" pt_clust_6="14000.00000"></scales>
<clustering>
<clus scale="   42.176">  1  4  2 -1</clus>
<clus scale="  181.457">  2  5  1 -1</clus>
<clus scale="  203.847">  1  3  2 -1</clus>
<clus scale="   42.176">  1  3  2 -1</clus>
</clustering>
</event>
<event>
 6    0  0.4796958E+002  0.1872346E+03  0.7546771E-02  0.1160979E+00
         21   -1    0    0  505  502  0.00000000000E+00  0.00000000000E+00  0.18735179394E+04  0.18735179394E+04  0.00000000000E+00 0.  1.
          1   -1    0    0  503    0 -0.00000000000E+00 -0.00000000000E+00 -0.18083035841E+04  0.18083035841E+04  0.00000000000E+00 0.  1.
         21    1    1    2  503  504  0.14936126358E+03 -0.12728739486E+03  0.42351794223E+03  0.46677437305E+03  0.00000000000E+00 0.  1.
         21    1    1    2  504  502 -0.13222507830E+02 -0.28139633637E+02  0.11455616838E+04  0.11459835274E+04  0.00000000000E+00 0.  1.
         21    1    1    2  505  501 -0.92127386161E+02  0.15255714982E+03  0.25419773918E+03  0.31044746712E+03  0.00000000000E+00 0.  1.
          1    1    1    2  501    0 -0.44011369591E+02  0.28698786859E+01 -0.17580630099E+04  0.17586161559E+04  0.00000000000E+00 0.  1.
<scales pt_clust_3="14000.00000" pt_clust_4="31.09138" pt_clust_5="187.23461" pt_clust_6="44.10916"></scales>
<clustering>
<clus scale="   31.091">  1  4  2 -1</clus>
<clus scale="   44.109">  2  6  1 -1</clus>
<clus scale="  187.235">  2  5  1 -1</clus>
<clus scale="   31.091">  1  3  2 -1</clus>
</clustering>
</event>
<event>
 6    0  0.4796958E+002  0.9648871E+02  0.7546771E-02  0.1287858E+00
          1   -1    0    0  505    0 -0.00000000000E+00  0.00000000000E+00  0.13389690252E+04  0.13389690252E+04  0.00000000000E+00 0.  1.
         21   -1    0    0  504  502  0.00000000000E+00 -0.00000000000E+00 -0.64069089130E+03  0.64069089130E+03  0.00000000000E+00 0. -1.
         21    1    1    2  503  501 -0.57041960708E+02  0.68358593650E+02  0.59979942783E+02  0.10735118138E+03  0.00000000000E+00 0.  1.
         21    1    1    2  504  503  0.73048960691E+02 -0.92487913974E+01 -0.43347469747E+03  0.43968398214E+03  0.00000000000E+00 0. -1.
         21    1    1    2  505  502 -0.56247098227E+02 -0.95183106017E+02 -0.16284206726E+03  0.19682758597E+03  0.00000000000E+00 0. -1.
          1    1    1    2  501    0  0.40240098243E+02  0.36073303765E+02  0.12346149559E+04  0.12357971670E+04  0.00000000000E+00 0.  1.
<scales pt_clust_3="14000.00000" pt_clust_4="74.70102" pt_clust_5="96.48871" pt_clust_6="54.04210"></scales>
<clustering>
<clus scale="   54.042">  1  6  2 -1</clus>
<clus scale="   74.701">  2  4  1 -1</clus>
<clus scale="   96.489">  2  5  1 -1</clus>
<clus scale="   74.701">  2  3  1 -1</clus>
</clustering>
</event>
<event>
 6    0  0.4796958E+002  0.8925504E+02  0.7546771E-02  0.1304666E+00
         21   -1    0    0  503  502  0.00000000000E+00  0.00000000000E+00  0.38225771777E+03  0.38225771777E+03  0.00000000000E+00 0.  1.
          2   -1    0    0  502    0 -0.00000000000E+00 -0.00000000000E+00 -0.48927936942E+03  0.48927936942E+03  0.00000000000E+00 0. -1.
         21    1    1    2  503  505  0.41069533314E+01 -0.47210334141E+02  0.29328402868E+03  0.29708787284E+03  0.00000000000E+00 0.  1.
         21    1    1    2  504  501 -0.11068921192E+02 -0.85891164642E+02  0.32747061184E+02  0.92586085327E+02  0.00000000000E+00 0. -1.
         21    1    1    2  505  504  0.20191114768E+02  0.44398111307E+02 -0.10491407624E+02  0.49889307844E+02  0.00000000000E+00 0. -1.
          2    1    1    2  501    0 -0.13229146907E+02  0.88703387477E+02 -0.42256133389E+03  0.43197382117E+03  0.00000000000E+00 0. -1.
<scales pt_clust_3="47.38863" pt_clust_4="14000.00000" pt_clust_5="39.78598" pt_clust_6="89.25504"></scales>
<clustering>
<clus scale="   47.389">  1  3  2 -1</clus>
<clus scale="   39.786">  1  5  2 -1</clus>
<clus scale="   89.255">  2  6  1 -1</clus>
<clus scale="   47.389">  1  3  2 -1</clus>
</clustering>
</event>
<event>
 6    0  0.4796958E+002  0.1076205E+03  0.7546771E-02  0.1265041E+00
         21   -1    0    0  501  502  0.00000000000E+00  0.00000000000E+00  0.10706769036E+03  0.10706769036E+03  0.00000000000E+00 0.  1.
          2   -1    0    0  505    0 -0.00000000000E+00 -0.00000000000E+00 -0.30474752642E+04  0.30474752642E+04  0.00000000000E+00 0.  1.
         21    1    1    2  503  504  0.11457546328E+03 -0.29831505806E+02 -0.37623205171E+02  0.12422946950E+03  0.00000000000E+00 0.  1.
         21    1    1    2  504  502 -0.25695452150E+02 -0.33770642318E+02  0.53815473890E+02  0.68533333304E+02  0.00000000000E+00 0.  1.
         21    1    1    2  505  503 -0.56131640039E+02  0.75042118065E+02 -0.89581837339E+03  0.90070674395E+03  0.00000000000E+00 0.  1.
          2    1    1    2  501    0 -0.32748371091E+02 -0.11439969941E+02 -0.20607814691E+04  0.20610734078E+04  0.00000000000E+00 0.  1.
<scales pt_clust_3="14000.00000" pt_clust_4="42.65087" pt_clust_5="107.62046" pt_clust_6="34.68903"></scales>
<clustering>
<clus scale="   34.689">  2  6  1 -1</clus>
<clus scale="   42.651">  1  4  2 -1</clus>
<clus scale="  107.620">  2  5  1 -1</clus>
<clus scale="   42.651">  1  3  2 -1</clus>
</clustering>
</event>
<event>
 6    0  0.4796958E+002  0.1595585E+03  0.7546771E-02  0.1189196E+00
          1   -1    0    0  505    0 -0.00000000000E+00  0.00000000000E+00  0.50025361102E+03  0.50025361102E+03  0.00000000000E+00 0. -1.
         21   -1    0    0  503  502  0.00000000000E+00 -0.00000000000E+00 -0.16360089158E+03  0.16360089158E+03  0.00000000000E+00 0.  1.
         21    1    1    2  503  504 -0.19944413596E+01  0.41999678840E+02 -0.24680439122E+01  0.42119378673E+02  0.00000000000E+00 0. -1.
         21    1    1    2  504  501 -0.23440655823E+03  0.38880495083E+01  0.17840824003E+03  0.29460321041E+03  0.00000000000E+00 0.  1.
         21    1    1    2  505  502  0.12895899655E+03 -0.61254862278E+02  0.12340464560E+02  0.14329992327E+03  0.00000000000E+00 0.  1.
          1    1    1    2  501    0  0.10744200304E+03  0.15367133929E+02  0.14837205875E+03  0.18383199025E+03  0.00000000000E+00 0. -1.
<scales pt_clust_3="42.04701" pt_clust_4="14000.00000" pt_clust_5="159.55852" pt_clust_6="109.16022"></scales>
<clustering>
<clus scale="   42.047">  2  3  1 -1</clus>
<clus scale="  109.160">  1  6  2 -1</clus>
<clus scale="  159.559">  2  5  1 -1</clus>
<clus scale="   42.047">  2  3  1 -1</clus>
</clustering>
</event>
<event>
 6    0  0.4796958E+002  0.6867254E+02  0.7546771E-02  0.1364666E+00
         21   -1    0    0  505  502  0.00000000000E+00  0.00000000000E+00  0.10845457892E+03  0.10845457892E+03  0.00000000000E+00 0.  1.
          2   -1    0    0  504    0 -0.00000000000E+00 -0.00000000000E+00 -0.29194548325E+04  0.29194548325E+04  0.00000000000E+00 0.  1.
         21    1    1    2  503  501 -0.68884399857E+02  0.66751180576E+02 -0.37712647526E+03  0.38913385743E+03  0.00000000000E+00 0.  1.
         21    1    1    2  504  502  0.37820551547E+02 -0.52036750822E+02 -0.64008035998E+03  0.64330481483E+03  0.00000000000E+00 0. -1.
         21    1    1    2  505  503  0.63375242331E+02 -0.45565404053E+00  0.90698776303E+02  0.11064762530E+03  0.00000000000E+00 0.  1.
          2    1    1    2  501    0 -0.32311394022E+02 -0.14258775714E+02 -0.18844921947E+04  0.18848231139E+04  0.00000000000E+00 0.  1.
<scales pt_clust_3="14000.00000" pt_clust_4="68.67254" pt_clust_5="63.06658" pt_clust_6="35.31768"></scales>
<clustering>
<clus scale="   35.318">  2  6  1 -1</clus>
<clus scale="   63.067">  1  5  2 -1</clus>
<clus scale="   68.673">  2  4  1 -1</clus>
<clus scale="   63.067">  1  3  2 -1</clus>
</clustering>
</event>
<event>
 6    0  0.4796958E+002  0.1839876E+03  0.7546771E-02  0.1163999E+00
          2   -1    0    0  503    0 -0.00000000000E+00  0.00000000000E+00  0.50833045648E+03  0.50833045648E+03  0.00000000000E+00 0. -1.
         21   -1    0    0  504  502  0.00000000000E+00 -0.00000000000E+00 -0.10955503021E+04  0.10955503021E+04  0.00000000000E+00 0.  1.
         21    1    1    2  503  505 -0.11023142244E+03  0.11430896644E+03 -0.68940511913E+02  0.17311932441E+03  0.00000000000E+00 0.  1.
         21    1    1    2  504  501  0.17864870183E+03 -0.60975057733E+02 -0.51064451192E+03  0.54441816087E+03  0.00000000000E+00 0.  1.
         21    1    1    2  505  502 -0.16018566321E+02 -0.57449886680E+02 -0.44341340197E+03  0.44740644720E+03  0.00000000000E+00 0.  1.
          2    1    1    2  501    0 -0.52398713067E+02  0.41159779712E+01  0.43577858016E+03  0.43893682613E+03  0.00000000000E+00 0. -1.
<scales pt_clust_3="183.98764" pt_clust_4="14000.00000" pt_clust_5="59.94322" pt_clust_6="52.56012"></scales>
<clustering>
<clus scale="   52.560">  1  6  2 -1</clus>
<clus scale="   59.943">  2  5  1 -1</clus>
<clus scale="  183.988">  1  3  2 -1</clus>
<clus scale="   59.943">  2  3  1 -1</clus>
</clustering>
</event>
<event>
 6    0  0.4796958E+002  0.1119735E+03  0.7546771E-02  0.1256958E+00
          2   -1    0    0  505    0 -0.00000000000E+00  0.00000000000E+00  0.14015910850E+04  0.14015910850E+04  0.00000000000E+00 0. -1.
         21   -1    0    0  503  502  0.00000000000E+00 -0.00000000000E+00 -0.28691803001E+03  0.28691803001E+03  0.00000000000E+00 0. -1.
         21    1    1    2  503  504  0.11822321374E+03  0.20587735605E+02 -0.12939638986E+03  0.17647665238E+03  0.00000000000E+00 0. -1.
         21    1    1    2  504  501 -0.71663739165E+02 -0.96686754984E+02 -0.62089645733E+02  0.13542209645E+03  0.00000000000E+00 0. -1.
         21    1    1    2  505  502  0.57360726732E+02  0.88445881478E+02  0.51018504357E+02  0.11711453671E+03  0.00000000000E+00 0. -1.
          2    1    1    2  501    0 -0.10392020131E+03 -0.12346862098E+02  0.12551405862E+04  0.12594958295E+04  0.00000000000E+00 0. -1.
<scales pt_clust_3="14000.00000" pt_clust_4="111.97352" pt_clust_5="81.31418" pt_clust_6="104.65110"></scales>
<clustering>
<clus scale="  104.651">  1  6  2 -1</clus>
<clus scale="   81.314">  1  5  2 -1</clus>
<clus scale="  111.974">  1  4  2 -1</clus>
<clus scale="  111.974">  2  3  1 -1</clus>
</clustering>
</event>
<event>
 6    0  0.4796958E+002  0.1793421E+03  0.7546771E-02  0.1168441E+00
         21   -1    0    0  503  502  0.00000000000E+00  0.00000000000E+00  0.55323796639E+03  0.55323796639E+03  0.00000000000E+00 0.  1.
          2   -1    0    0  504    0 -0.00000000000E+00 -0.00000000000E+00 -0.11139645517E+03  0.11139645517E+03  0.00000000000E+00 0. -1.
         21    1    1    2  503  505  0.21726714634E+02 -0.41466214270E+02  0.10643420833E+03  0.11627440715E+03  0.00000000000E+00 0.  1.
         21    1    1    2  504  502  0.88776899707E+02  0.15532745107E+03  0.32590552349E+03  0.37178268547E+03  0.00000000000E+00 0.  1.
         21    1    1    2  505  501 -0.80877561733E+02 -0.53322008479E+02  0.37116107950E+02  0.10374016604E+03  0.00000000000E+00 0. -1.
          2    1    1    2  501    0 -0.29626052608E+02 -0.60539228316E+02 -0.27614328547E+02  0.72837162901E+02  0.00000000000E+00 0. -1.
<scales pt_clust_3="46.81343" pt_clust_4="162.01778" pt_clust_5="64.48698" pt_clust_6="64.48698"></scales>
<clustering>
<clus scale="   46.813">  1  3  2 -1</clus>
<clus scale="   64.487">  5  6 -1 -1</clus>
<clus scale="  162.018">  1  4  2 -1</clus>
<clus scale="   46.813">  1  3  2 -1</clus>
</clustering>
</event>
<event>
 6    0  0.4796958E+002  0.3382373E+03  0.7546771E-02  0.1067549E+00
          2   -1    0    0  505    0 -0.00000000000E+00  0.00000000000E+00  0.19386856946E+04  0.19386856946E+04  0.00000000000E+00 0. -1.
         21   -1    0    0  504  502  0.00000000000E+00 -0.00000000000E+00 -0.48240256944E+03  0.48240256944E+03  0.00000000000E+00 0. -1.
         21    1    1    2  503  502  0.36361630055E+02  0.15408289083E+02 -0.15653183710E+03  0.16143667347E+03  0.00000000000E+00 0. -1.
         21    1    1    2  504  501  0.21198159901E+02  0.33060952909E+03 -0.10343285571E+03  0.34705961786E+03  0.00000000000E+00 0. -1.
         21    1    1    2  505  503 -0.17411273029E+02 -0.33154372729E+03  0.18366871318E+03  0.37941875512E+03  0.00000000000E+00 0. -1.
          2    1    1    2  501    0 -0.40148516927E+02 -0.14474090886E+02  0.15325791048E+04  0.15331732176E+04  0.00000000000E+00 0. -1.
<scales pt_clust_3="39.49156" pt_clust_4="338.23733" pt_clust_5="14000.00000" pt_clust_6="42.64168"></scales>
<clustering>
<clus scale="   39.492">  2  3  1 -1</clus>
<clus scale="   42.642">  1  6  2 -1</clus>
<clus scale="  338.237">  2  4  1 -1</clus>
<clus scale="   39.492">  2  3  1 -1</clus>
</clustering>
</event>
<event>
 6    0  0.4796958E+002  0.9235727E+02  0.7546771E-02  0.1297242E+00
          2   -1    0    0  503    0 -0.00000000000E+00  0.00000000000E+00  0.36896432988E+03  0.36896432988E+03  0.00000000000E+00 0.  1.
         21   -1    0    0  504  502  0.00000000000E+00 -0.00000000000E+00 -0.14316268330E+03  0.14316268330E+03  0.00000000000E+00 0. -1.
         21    1    1    2  503  505 -0.10969265664E+03 -0.50499870996E+02  0.96929197925E+02  0.15484826541E+03  0.00000000000E+00 0.  1.
         21    1    1    2  504  501  0.72253698106E+02  0.34770046953E+01  0.38390627524E+02  0.81893386383E+02  0.00000000000E+00 0. -1.
         21    1    1    2  505  502  0.32220545208E+02  0.14465449926E+02 -0.87508265553E+02  0.94366886751E+02  0.00000000000E+00 0. -1.
          2    1    1    2  501    0  0.52184133252E+01  0.32557416374E+02  0.17799008669E+03  0.18101847463E+03  0.00000000000E+00 0.  1.
<scales pt_clust_3="14000.00000" pt_clust_4="92.35727" pt_clust_5="35.64975" pt_clust_6="32.97298"></scales>
<clustering>
<clus scale="   32.973">  1  6  2 -1</clus>
<clus scale="   35.650">  2  5  1 -1</clus>
<clus scale="   92.357">  2  4  1 -1</clus>
<clus scale="   35.650">  2  3  1 -1</clus>
</clustering>
</event>
<event>
 6    0  0.4796958E+002  0.7357428E+02  0.7546771E-02  0.1348344E+00
         21   -1    0    0  501  502  0.00000000000E+00  0.00000000000E+00  0.82877755003E+02  0.82877755003E+02  0.00000000000E+00 0. -1.
          1   -1    0    0  503    0 -0.00000000000E+00 -0.00000000000E+00 -0.16390901671E+04  0.16390901671E+04  0.00000000000E+00 0. -1.
         21    1    1    2  503  504  0.36994663692E+02  0.14227289854E+02 -0.46583867346E+03  0.46752186110E+03  0.00000000000E+00 0.  1.
         21    1    1    2  504  505 -0.11180943951E+03 -0.72724444829E+02 -0.84067660737E+03  0.85119172566E+03  0.00000000000E+00 0. -1.
         21    1    1    2  505  502  0.72382444160E+02  0.61431570172E+01  0.56859719645E+02  0.92249576252E+02  0.00000000000E+00 0. -1.
          1    1    1    2  501    0  0.24323316559E+01  0.52353997958E+02 -0.30655685094E+03  0.31100475912E+03  0.00000000000E+00 0. -1.
<scales pt_clust_3="39.63611" pt_clust_4="14000.00000" pt_clust_5="73.57428" pt_clust_6="57.40713"></scales>
<clustering>
<clus scale="   39.636">  2  3  1 -1</clus>
<clus scale="   57.407">  2  6  1 -1</clus>
<clus scale="   73.574">  1  5  2 -1</clus>
<clus scale="   73.574">  1  3  2 -1</clus>
</clustering>
</event>
<event>
 6    0  0.4796958E+002  0.1098515E+03  0.7546771E-02  0.1260845E+00
         21   -1    0    0  504  502  0.00000000000E+00  0.00000000000E+00  0.58513751981E+02  0.58513751981E+02  0.00000000000E+00 0.  1.
          2   -1    0    0  505    0 -0.00000000000E+00 -0.00000000000E+00 -0.41751732824E+04  0.41751732824E+04  0.00000000000E+00 0. -1.
         21    1    1    2  503  501 -0.11835331026E+03 -0.77167674147E+02 -0.86112884882E+03  0.87264268189E+03  0.00000000000E+00 0. -1.
         21    1    1    2  504  503  0.10817666644E+03  0.10828360685E+02 -0.79443771516E+01  0.10900714511E+03  0.00000000000E+00 0.  1.
         21    1    1    2  505  502  0.29829594512E+02  0.17104557726E+02 -0.14587455842E+03  0.14987247045E+03  0.00000000000E+00 0. -1.
          2    1    1    2  501    0 -0.19652950687E+02  0.49234755736E+02 -0.31017117460E+04  0.31021647369E+04  0.00000000000E+00 0. -1.
<scales pt_clust_3="14000.00000" pt_clust_4="109.85151" pt_clust_5="34.38562" pt_clust_6="62.49755"></scales>
<clustering>
<clus scale="   34.386">  2  5  1 -1</clus>
<clus scale="   62.498">  2  6  1 -1</clus>
<clus scale="  109.852">  1  4  2 -1</clus>
<clus scale="  109.852">  1  3  2 -1</clus>
</clustering>
</event>
<event>
 6    0  0.4796958E+002  0.1094837E+03  0.7546771E-02  0.1261529E+00
         -2   -1    0    0    0  501 -0.00000000000E+00  0.00000000000E+00  0.12161541716E+03  0.12161541716E+03  0.00000000000E+00 0. -1.
         21   -1    0    0  505  502  0.00000000000E+00 -0.00000000000E+00 -0.73483287871E+03  0.73483287871E+03  0.00000000000E+00 0. -1.
         21    1    1    2  503  501 -0.71451883252E+02  0.82680375803E+01 -0.93579106334E+02  0.11802873043E+03  0.00000000000E+00 0.  1.
         21    1    1    2  504  502 -0.16414744714E+02  0.28755324253E+02 -0.27322589897E+03  0.27522482516E+03  0.00000000000E+00 0.  1.
         21    1    1    2  505  503 -0.33543899089E+02 -0.27195100257E+02 -0.31866000270E+03  0.32157264182E+03  0.00000000000E+00 0. -1.
         -2    1    1    2    0  504  0.12141052705E+03 -0.98282615762E+01  0.72247546448E+02  0.14162209846E+03  0.00000000000E+00 0. -1.
<scales pt_clust_3="14000.00000" pt_clust_4="33.11061" pt_clust_5="45.52657" pt_clust_6="109.48373"></scales>
<clustering>
<clus scale="   33.111">  2  4  1 -1</clus>
<clus scale="   45.527">  2  5  1 -1</clus>
<clus scale="  109.484">  1  6  2 -1</clus>
<clus scale="   33.111">  2  3  1 -1</clus>
</clustering>
</event>
<event>
 6    0  0.4796958E+002  0.6048596E+02  0.7546771E-02  0.1395804E+00
          2   -1    0    0  504    0 -0.00000000000E+00  0.00000000000E+00  0.44775600936E+03  0.44775600936E+03  0.00000000000E+00 0.  1.
         21   -1    0    0  503  502  0.00000000000E+00 -0.00000000000E+00 -0.19530333936E+03  0.19530333936E+03  0.00000000000E+00 0.  1.
         21    1    1    2  503  505 -0.15676081854E+02 -0.45676413566E+02  0.50823500297E+01  0.48558259651E+02  0.00000000000E+00 0.  1.
         21    1    1    2  504  502  0.28733228744E+02  0.73261158916E+02 -0.14323067868E+03  0.16342528310E+03  0.00000000000E+00 0.  1.
         21    1    1    2  505  501  0.44854801481E+02 -0.46325925398E+02  0.41443869061E+02  0.76652715951E+02  0.00000000000E+00 0.  1.
          2    1    1    2  501    0 -0.57911948371E+02  0.18741180048E+02  0.34915712960E+03  0.35442309002E+03  0.00000000000E+00 0.  1.
<scales pt_clust_3="48.29156" pt_clust_4="36.12014" pt_clust_5="60.48596" pt_clust_6="14000.00000"></scales>
<clustering>
<clus scale="   48.292">  2  3  1 -1</clus>
<clus scale="   36.120">  2  4  1 -1</clus>
<clus scale="   60.486">  2  5  1 -1</clus>
<clus scale="   48.292">  2  3  1 -1</clus>
</clustering>
</event>
<event>
 6    0  0.4796958E+002  0.6687672E+02  0.7546771E-02  0.1371048E+00
         -1   -1    0    0    0  501 -0.00000000000E+00  0.00000000000E+00  0.29236561126E+03  0.29236561126E+03  0.00000000000E+00 0.  1.
         21   -1    0    0  504  502  0.00000000000E+00 -0.00000000000E+00 -0.29348339432E+03  0.29348339432E+03  0.00000000000E+00 0. -1.
         21    1    1    2  503  502 -0.94242875983E+02 -0.13274030141E+02  0.97737498126E+02  0.13642044601E+03  0.00000000000E+00 0. -1.
         21    1    1    2  504  505 -0.18495212329E+02 -0.27837188104E+02 -0.10115989844E+03  0.10653781945E+03  0.00000000000E+00 0.  1.
         21    1    1    2  505  501  0.68176740350E+02  0.63775431752E+02 -0.15327964762E+03  0.17947151304E+03  0.00000000000E+00 0. -1.
         -1    1    1    2    0  503  0.44561347961E+02 -0.22664213507E+02  0.15558426487E+03  0.16341922709E+03  0.00000000000E+00 0.  1.
<scales pt_clust_3="66.87672" pt_clust_4="33.42128" pt_clust_5="14000.00000" pt_clust_6="49.91865"></scales>
<clustering>
<clus scale="   33.421">  2  4  1 -1</clus>
<clus scale="   49.919">  1  6  2 -1</clus>
<clus scale="   66.877">  1  3  2 -1</clus>
<clus scale="   33.421">  2  3  1 -1</clus>
</clustering>
</event>
<event>
 6    0  0.4796958E+002  0.8609930E+02  0.7546771E-02  0.1312583E+00
         21   -1    0    0  505  502  0.00000000000E+00  0.00000000000E+00  0.36935050414E+02  0.36935050414E+02  0.00000000000E+00 0.  1.
          2   -1    0    0  503    0 -0.00000000000E+00 -0.00000000000E+00 -0.21075911426E+04  0.21075911426E+04  0.00000000000E+00 0.  1.
         21    1    1    2  503  502  0.26366456854E+02  0.84667806449E+02 -0.48118131874E+03  0.48928446634E+03  0.00000000000E+00 0.  1.
         21    1    1    2  504  501 -0.58563724005E+02  0.43075791965E+02 -0.42510918693E+02  0.84216458194E+02  0.00000000000E+00 0.  1.
         21    1    1    2  505  504 -0.37484723936E+02 -0.52592769008E+02 -0.91718879121E+02  0.11217600754E+03  0.00000000000E+00 0.  1.
          2    1    1    2  501    0  0.69681991087E+02 -0.75150829406E+02 -0.14552449756E+04  0.14588492609E+04  0.00000000000E+00 0.  1.
<scales pt_clust_3="79.42838" pt_clust_4="86.09930" pt_clust_5="64.58408" pt_clust_6="14000.00000"></scales>
<clustering>
<clus scale="   64.584">  1  5  2 -1</clus>
<clus scale="   79.428">  2  3  1 -1</clus>
<clus scale="   86.099">  1  4  2 -1</clus>
<clus scale="   64.584">  1  3  2 -1</clus>
</clustering>
</event>
<event>
 6    0  0.4796958E+002  0.1096769E+03  0.7546771E-02  0.1261169E+00
          1   -1    0    0  503    0 -0.00000000000E+00  0.00000000000E+00  0.14008651420E+04  0.14008651420E+04  0.00000000000E+00 0. -1.
         21   -1    0    0  501  502  0.00000000000E+00 -0.00000000000E+00 -0.21373510106E+03  0.21373510106E+03  0.00000000000E+00 0.  1.
         21    1    1    2  503  505  0.25444848768E+02  0.10667161227E+03  0.12762964865E+04  0.12809992173E+04  0.00000000000E+00 0. -1.
         21    1    1    2  504  502 -0.79684739752E+01  0.47090559550E+02  0.40875749610E+02  0.62863696061E+02  0.00000000000E+00 0.  1.
         21    1    1    2  505  504 -0.33051744125E+01 -0.11298891020E+03 -0.17505072778E+03  0.20837508321E+03  0.00000000000E+00 0.  1.
          1    1    1    2  501    0 -0.14171200380E+02 -0.40773261621E+02  0.45008532577E+02  0.62362246497E+02  0.00000000000E+00 0. -1.
<scales pt_clust_3="14000.00000" pt_clust_4="45.74495" pt_clust_5="109.67693" pt_clust_6="43.16575"></scales>
<clustering>
<clus scale="   43.166">  2  6  1 -1</clus>
<clus scale="   45.745">  2  4  1 -1</clus>
<clus scale="  109.677">  2  5  1 -1</clus>
<clus scale="   43.166">  2  3  1 -1</clus>
</clustering>
</event>
<event>
 6    0  0.4796958E+002  0.9099671E+02  0.7546771E-02  0.1300456E+00
         21   -1    0    0  505  502  0.00000000000E+00  0.00000000000E+00  0.25443382453E+03  0.25443382453E+03  0.00000000000E+00 0. -1.
          2   -1    0    0  504    0 -0.00000000000E+00 -0.00000000000E+00 -0.19371887651E+04  0.19371887651E+04  0.00000000000E+00 0.  1.
         21    1    1    2  503  501 -0.54489275082E+02  0.65341655013E+02 -0.51636747210E+02  0.99523698892E+02  0.00000000000E+00 0.  1.
         21    1    1    2  504  502  0.56363104192E+02 -0.70835162018E+02  0.50440312282E+02  0.10362743264E+03  0.00000000000E+00 0. -1.
         21    1    1    2  505  503  0.51826262917E+02  0.49244134519E+02  0.14443767630E+03  0.16116199505E+03  0.00000000000E+00 0. -1.
          2    1    1    2  501    0 -0.53700092027E+02 -0.43750627514E+02 -0.18259961819E+04  0.18273094631E+04  0.00000000000E+00 0.  1.
<scales pt_clust_3="14000.00000" pt_clust_4="90.99671" pt_clust_5="66.26722" pt_clust_6="69.26628"></scales>
<clustering>
<clus scale="   69.266">  2  6  1 -1</clus>
<clus scale="   66.267">  1  5  2 -1</clus>
<clus scale="   90.997">  1  4  2 -1</clus>
<clus scale="   66.267">  1  3  2 -1</clus>
</clustering>
</event>
<event>
 6    0  0.4796958E+002  0.1292541E+03  0.7546771E-02  0.1228567E+00
          2   -1    0    0  503    0 -0.00000000000E+00  0.00000000000E+00  0.63661836122E+03  0.63661836122E+03  0.00000000000E+00 0. -1.
         21   -1    0    0  504  502  0.00000000000E+00 -0.00000000000E+00 -0.75246217366E+03  0.75246217366E+03  0.00000000000E+00 0. -1.
         21    1    1    2  503  505  0.72929765440E+02 -0.44008870185E+02 -0.41671266846E+02  0.94826292886E+02  0.00000000000E+00 0. -1.
         21    1    1    2  504  501  0.75406916536E+02 -0.21668882605E+02  0.58940126409E+02  0.98130943315E+02  0.00000000000E+00 0.  1.
         21    1    1    2  505  502 -0.14193128450E+03  0.22599669277E+02 -0.65593238414E+03  0.67149276030E+03  0.00000000000E+00 0. -1.
          2    1    1    2  501    0 -0.64053974727E+01  0.43078083513E+02  0.52281971214E+03  0.52463053838E+03  0.00000000000E+00 0. -1.
<scales pt_clust_3="129.25406" pt_clust_4="71.43462" pt_clust_5="14000.00000" pt_clust_6="43.55170"></scales>
<clustering>
<clus scale="   43.552">  1  6  2 -1</clus>
<clus scale="   71.435">  1  4  2 -1</clus>
<clus scale="  129.254">  1  3  2 -1</clus>
<clus scale="  129.254">  2  3  1 -1</clus>
</clustering>
</event>
<event>
 6    0  0.4796958E+002  0.1152653E+03  0.7546771E-02  0.1251119E+00
          2   -1    0    0  503    0 -0.00000000000E+00  0.00000000000E+00  0.13175354290E+04  0.13175354290E+04  0.00000000000E+00 0.  1.
         21   -1    0    0  505  502  0.00000000000E+00 -0.00000000000E+00 -0.13114524303E+04  0.13114524303E+04  0.00000000000E+00 0.  1.
         21    1    1    2  503  504  0.28137776498E+02  0.54368945668E+02  0.17203067387E+03  0.18259865682E+03  0.00000000000E+00 0.  1.
         21    1    1    2  504  502  0.65371880203E+02 -0.10087268723E+02 -0.11517130702E+04  0.11536109534E+04  0.00000000000E+00 0.  1.
         21    1    1    2  505  501  0.13886103548E+00 -0.88237832303E+02 -0.13825166541E+03  0.16401054027E+03  0.00000000000E+00 0.  1.
          2    1    1    2  501    0 -0.93648517736E+02  0.43956155358E+02  0.11240170604E+04  0.11287677089E+04  0.00000000000E+00 0.  1.
<scales pt_clust_3="61.21860" pt_clust_4="66.16183" pt_clust_5="115.26529" pt_clust_6="14000.00000"></scales>
<clustering>
<clus scale="   61.219">  1  3  2 -1</clus>
<clus scale="   66.162">  2  4  1 -1</clus>
<clus scale="  115.265">  2  5  1 -1</clus>
<clus scale="   66.162">  2  3  1 -1</clus>
</clustering>
</event>
<event>
 6    0  0.4796958E+002  0.1014230E+03  0.7546771E-02  0.1277332E+00
          3   -1    0    0  502    0 -0.00000000000E+00  0.00000000000E+00  0.20409563064E+03  0.20409563064E+03  0.00000000000E+00 0.  1.
         21   -1    0    0  504  502  0.00000000000E+00 -0.00000000000E+00 -0.12942681432E+04  0.12942681432E+04  0.00000000000E+00 0. -1.
         21    1    1    2  503  501  0.33050391652E+02 -0.45496550246E+02  0.33106598706E+02  0.65255738065E+02  0.00000000000E+00 0.  1.
         21    1    1    2  504  505 -0.92183712512E+02  0.60628322147E+02 -0.10699578256E+04  0.10756316186E+04  0.00000000000E+00 0. -1.
         21    1    1    2  505  503  0.62680767767E+02 -0.46489758929E+02 -0.19620176086E+03  0.21115233197E+03  0.00000000000E+00 0.  1.
          3    1    1    2  501    0 -0.35474469060E+01  0.31357987028E+02  0.14288047519E+03  0.14632408524E+03  0.00000000000E+00 0.  1.
<scales pt_clust_3="35.91968" pt_clust_4="101.42297" pt_clust_5="14000.00000" pt_clust_6="31.55801"></scales>
<clustering>
<clus scale="   31.558">  1  6  2 -1</clus>
<clus scale="   35.920">  1  3  2 -1</clus>
<clus scale="  101.423">  2  4  1 -1</clus>
<clus scale="  101.423">  2  3  1 -1</clus>
</clustering>
</event>
<event>
 6    0  0.4796958E+002  0.1132148E+03  0.7546771E-02  0.1254730E+00
         21   -1    0    0  504  502  0.00000000000E+00  0.00000000000E+00  0.58139024327E+03  0.58139024327E+03  0.00000000000E+00 0. -1.
          2   -1    0    0  505    0 -0.00000000000E+00 -0.00000000000E+00 -0.10913604921E+04  0.10913604921E+04  0.00000000000E+00 0. -1.
         21    1    1    2  503  501 -0.81096507752E+02 -0.77807704486E+01 -0.20853812352E+03  0.22388687528E+03  0.00000000000E+00 0.  1.
         21    1    1    2  504  503  0.12249334055E+03 -0.55903545775E+02  0.20317693874E+03  0.24374308882E+03  0.00000000000E+00 0. -1.
         21    1    1    2  505  502 -0.93068526185E+01  0.33547435692E+02  0.34882200313E+03  0.35055504249E+03  0.00000000000E+00 0. -1.
          2    1    1    2  501    0 -0.32089980184E+02  0.30136880531E+02 -0.85343106720E+03  0.85456572881E+03  0.00000000000E+00 0. -1.
<scales pt_clust_3="113.21479" pt_clust_4="14000.00000" pt_clust_5="34.81448" pt_clust_6="44.09557"></scales>
<clustering>
<clus scale="   34.814">  1  5  2 -1</clus>
<clus scale="   44.096">  2  6  1 -1</clus>
<clus scale="  113.215">  2  3  1 -1</clus>
<clus scale="   34.814">  1  3  2 -1</clus>
</clustering>
</event>
<event>
 6    0  0.4796958E+002  0.7467995E+02  0.7546771E-02  0.1344865E+00
          2   -1    0    0  505    0 -0.00000000000E+00  0.00000000000E+00  0.13034102448E+04  0.13034102448E+04  0.00000000000E+00 0.  1.
         21   -1    0    0  503  502  0.00000000000E+00 -0.00000000000E+00 -0.43564390194E+03  0.43564390194E+03  0.00000000000E+00 0.  1.
         21    1    1    2  503  504  0.33678145520E+02  0.29229975168E+01 -0.26849106870E+03  0.27061081903E+03  0.00000000000E+00 0.  1.
         21    1    1    2  504  501 -0.54055792952E+02  0.95699681428E+02  0.25421556260E+03  0.27695849877E+03  0.00000000000E+00 0.  1.
         21    1    1    2  505  502  0.33436719380E+02 -0.38524803539E+02 -0.14957606441E+03  0.15803535597E+03  0.00000000000E+00 0.  1.
          2    1    1    2  501    0 -0.13059071948E+02 -0.60097875406E+02  0.10316179133E+04  0.10334494729E+04  0.00000000000E+00 0.  1.
<scales pt_clust_3="33.80475" pt_clust_4="14000.00000" pt_clust_5="74.67995" pt_clust_6="61.44544"></scales>
<clustering>
<clus scale="   33.805">  2  3  1 -1</clus>
<clus scale="   61.445">  1  6  2 -1</clus>
<clus scale="   74.680">  2  5  1 -1</clus>
<clus scale="   33.805">  2  3  1 -1</clus>
</clustering>
</event>
<event>
 6    0  0.4796958E+002  0.7721458E+02  0.7546771E-02  0.1337147E+00
         21   -1    0    0  505  502  0.00000000000E+00  0.00000000000E+00  0.27230367263E+03  0.27230367263E+03  0.00000000000E+00 0. -1.
         -3   -1    0    0    0  501 -0.00000000000E+00 -0.00000000000E+00 -0.10237003500E+04  0.10237003500E+04  0.00000000000E+00 0. -1.
         21    1    1    2  503  501 -0.61738696660E+02  0.28194982421E+02  0.29925607722E+02  0.74176584557E+02  0.00000000000E+00 0. -1.
         21    1    1    2  504  502  0.84288678223E+02  0.54818164555E+02 -0.13128859383E+03  0.16536718934E+03  0.00000000000E+00 0. -1.
         21    1    1    2  505  503 -0.15751217387E+02 -0.51300343933E+02  0.19935551353E+03  0.20645204507E+03  0.00000000000E+00 0. -1.
         -3    1    1    2    0  504 -0.67987641763E+01 -0.31712803043E+02 -0.84938920475E+03  0.85000820362E+03  0.00000000000E+00 0. -1.
<scales pt_clust_3="14000.00000" pt_clust_4="77.21458" pt_clust_5="54.32294" pt_clust_6="32.43339"></scales>
<clustering>
<clus scale="   32.433">  2  6  1 -1</clus>
<clus scale="   54.323">  1  5  2 -1</clus>
<clus scale="   77.215">  2  4  1 -1</clus>
<clus scale="   54.323">  1  3  2 -1</clus>
</clustering>
</event>
<event>
 6    0  0.4796958E+002  0.1112268E+03  0.7546771E-02  0.1258315E+00
         21   -1    0    0  503  502  0.00000000000E+00  0.00000000000E+00  0.13188681000E+04  0.13188681000E+04  0.00000000000E+00 0. -1.
          2   -1    0    0  504    0 -0.00000000000E+00 -0.00000000000E+00 -0.60678890884E+03  0.60678890884E+03  0.00000000000E+00 0.  1.
         21    1    1    2  503  501  0.60851474720E+02  0.50410276487E+02 -0.76325570723E+02  0.10986214406E+03  0.00000000000E+00 0. -1.
         21    1    1    2  504  505  0.26594184801E+02 -0.18136211747E+02  0.11454876954E+02  0.34167046226E+02  0.00000000000E+00 0. -1.
         21    1    1    2  505  502 -0.38441051235E+02 -0.10558609221E+03  0.12729248044E+04  0.12778746789E+04  0.00000000000E+00 0. -1.
          2    1    1    2  501    0 -0.49004608285E+02  0.73312027471E+02 -0.49597491946E+03  0.50375313968E+03  0.00000000000E+00 0.  1.
<scales pt_clust_3="14000.00000" pt_clust_4="32.18964" pt_clust_5="111.22677" pt_clust_6="63.92050"></scales>
<clustering>
<clus scale="   32.190">  2  4  1 -1</clus>
<clus scale="   63.921">  2  6  1 -1</clus>
<clus scale="  111.227">  1  5  2 -1</clus>
<clus scale="  111.227">  1  3  2 -1</clus>
</clustering>
</event>
<event>
 6    0  0.4796958E+002  0.8524913E+02  0.7546771E-02  0.1314782E+00
         -4   -1    0    0    0  501 -0.00000000000E+00  0.00000000000E+00  0.21267320608E+03  0.21267320608E+03  0.00000000000E+00 0.  1.
         21   -1    0    0  503  502  0.00000000000E+00 -0.00000000000E+00 -0.34450141083E+03  0.34450141083E+03  0.00000000000E+00 0. -1.
         21    1    1    2  503  501  0.76687336401E+02  0.12133298639E+03 -0.67348543092E+02  0.15855115076E+03  0.00000000000E+00 0. -1.
         21    1    1    2  504  502  0.50290522419E+00 -0.39909564807E+02 -0.30645650671E+02  0.50320792738E+02  0.00000000000E+00 0. -1.
         21    1    1    2  505  504 -0.40814823886E+02 -0.30756632843E+02 -0.18120615487E+03  0.18827504050E+03  0.00000000000E+00 0. -1.
         -4    1    1    2    0  505 -0.36375417739E+02 -0.50666788745E+02  0.14737214389E+03  0.16002763290E+03  0.00000000000E+00 0.  1.
<scales pt_clust_3="85.24913" pt_clust_4="39.91273" pt_clust_5="14000.00000" pt_clust_6="63.04282"></scales>
<clustering>
<clus scale="   39.913">  2  4  1 -1</clus>
<clus scale="   63.043">  1  6  2 -1</clus>
<clus scale="   85.249">  1  3  2 -1</clus>
<clus scale="   39.913">  2  3  1 -1</clus>
</clustering>
</event>
<event>
 6    0  0.4796958E+002  0.9957562E+02  0.7546771E-02  0.1281191E+00
          2   -1    0    0  504    0 -0.00000000000E+00  0.00000000000E+00  0.43414155100E+04  0.43414155100E+04  0.00000000000E+00 0.  1.
         21   -1    0    0  505  502  0.00000000000E+00 -0.00000000000E+00 -0.19099599448E+02  0.19099599448E+02  0.00000000000E+00 0. -1.
         21    1    1    2  503  502 -0.49371128590E+02  0.82176966790E+02  0.53790839231E+03  0.54638448068E+03  0.00000000000E+00 0.  1.
         21    1    1    2  504  503  0.69487933245E+02 -0.72701565538E+02  0.34391804313E+04  0.34406505387E+04  0.00000000000E+00 0.  1.
         21    1    1    2  505  501  0.18800740339E+02  0.23593867571E+02  0.64180027028E+01  0.30843624672E+02  0.00000000000E+00 0. -1.
          2    1    1    2  501    0 -0.38917544994E+02 -0.33069268823E+02  0.33880908430E+03  0.34263646544E+03  0.00000000000E+00 0.  1.
<scales pt_clust_3="14000.00000" pt_clust_4="99.57562" pt_clust_5="30.16850" pt_clust_6="42.87394"></scales>
<clustering>
<clus scale="   30.169">  2  5  1 -1</clus>
<clus scale="   42.874">  2  6  1 -1</clus>
<clus scale="   99.576">  1  4  2 -1</clus>
<clus scale="   30.169">  2  3  1 -1</clus>
</clustering>
</event>
<event>
 6    0  0.4796958E+002  0.3149930E+03  0.7546771E-02  0.1077977E+00
          4   -1    0    0  503    0 -0.00000000000E+00  0.00000000000E+00  0.25957646945E+04  0.25957646945E+04  0.00000000000E+00 0.  1.
         21   -1    0    0  504  502  0.00000000000E+00 -0.00000000000E+00 -0.32947737855E+03  0.32947737855E+03  0.00000000000E+00 0. -1.
         21    1    1    2  503  502  0.18188823504E+02  0.36701672518E+02  0.21549213692E+02  0.46284065042E+02  0.00000000000E+00 0. -1.
         21    1    1    2  504  505 -0.22611570059E+03 -0.18129110886E+03 -0.18022629521E+03  0.34128623425E+03  0.00000000000E+00 0. -1.
         21    1    1    2  505  501 -0.55429464390E+02  0.96333315532E+01 -0.30801888569E+02  0.64140337845E+02  0.00000000000E+00 0.  1.
          4    1    1    2  501    0  0.26335634147E+03  0.13495610479E+03  0.24557662861E+04  0.24735314360E+04  0.00000000000E+00 0.  1.
<scales pt_clust_3="40.96152" pt_clust_4="48.42391" pt_clust_5="48.42391" pt_clust_6="296.84485"></scales>
<clustering>
<clus scale="   40.962">  2  3  1 -1</clus>
<clus scale="   48.424">  4  5 -1 -1</clus>
<clus scale="  296.845">  1  6  2 -1</clus>
<clus scale="   40.962">  2  3  1 -1</clus>
</clustering>
</event>
<event>
 6    0  0.4796958E+002  0.1519884E+03  0.7546771E-02  0.1198051E+00
         -1   -1    0    0    0  501 -0.00000000000E+00  0.00000000000E+00  0.48536145559E+03  0.48536145559E+03  0.00000000000E+00 0.  1.
         21   -1    0    0  504  502  0.00000000000E+00 -0.00000000000E+00 -0.29561947353E+03  0.29561947353E+03  0.00000000000E+00 0. -1.
         21    1    1    2  503  502 -0.84015202461E+02 -0.13483383103E+03 -0.17865028608E+03  0.23907036820E+03  0.00000000000E+00 0. -1.
         21    1    1    2  504  501  0.31758147635E+02 -0.28281868946E+02 -0.18892599633E+02  0.46533583283E+02  0.00000000000E+00 0.  1.
         21    1    1    2  505  503  0.53752572607E+02  0.12251334882E+03  0.31716383214E+02  0.13749468595E+03  0.00000000000E+00 0.  1.
         -1    1    1    2    0  505 -0.14955177806E+01  0.40602351158E+02  0.35556848456E+03  0.35788229169E+03  0.00000000000E+00 0.  1.
<scales pt_clust_3="151.98839" pt_clust_4="39.63014" pt_clust_5="14000.00000" pt_clust_6="40.62988"></scales>
<clustering>
<clus scale="   40.630">  1  6  2 -1</clus>
<clus scale="   39.630">  1  4  2 -1</clus>
<clus scale="  151.988">  2  3  1 -1</clus>
<clus scale="  151.988">  2  3  1 -1</clus>
</clustering>
</event>
<event>
 6    0  0.4796958E+002  0.1084180E+03  0.7546771E-02  0.1263528E+00
          3   -1    0    0  503    0 -0.00000000000E+00  0.00000000000E+00  0.15539259673E+04  0.15539259673E+04  0.00000000000E+00 0.  1.
         21   -1    0    0  505  502  0.00000000000E+00 -0.00000000000E+00 -0.15061027249E+03  0.15061027249E+03  0.00000000000E+00 0. -1.
         21    1    1    2  503  502 -0.13779338965E+02  0.11900008926E+03  0.38579083630E+03  0.40396220219E+03  0.00000000000E+00 0.  1.
         21    1    1    2  504  501 -0.20626097590E+02 -0.10205866363E+03  0.36771563543E+03  0.38217299128E+03  0.00000000000E+00 0.  1.
         21    1    1    2  505  504 -0.28902496289E+02  0.23811845883E+02 -0.12983609438E+03  0.13512871531E+03  0.00000000000E+00 0. -1.
          3    1    1    2  501    0  0.63307932844E+02 -0.40753271518E+02  0.77964531744E+03  0.78327233100E+03  0.00000000000E+00 0.  1.
<scales pt_clust_3="108.41801" pt_clust_4="14000.00000" pt_clust_5="37.44807" pt_clust_6="71.57166"></scales>
<clustering>
<clus scale="   37.448">  2  5  1 -1</clus>
<clus scale="   71.572">  1  6  2 -1</clus>
<clus scale="  108.418">  1  3  2 -1</clus>
<clus scale="   37.448">  2  3  1 -1</clus>
</clustering>
</event>
<event>
 6    0  0.4796958E+002  0.6729283E+02  0.7546771E-02  0.1369549E+00
         -1   -1    0    0    0  501 -0.00000000000E+00  0.00000000000E+00  0.12850841861E+04  0.12850841861E+04  0.00000000000E+00 0.  1.
         21   -1    0    0  505  502  0.00000000000E+00 -0.00000000000E+00 -0.12571253671E+04  0.12571253671E+04  0.00000000000E+00 0.  1.
         21    1    1    2  503  502  0.30714532977E+02 -0.57555169487E+02 -0.88299669371E+03  0.88540337767E+03  0.00000000000E+00 0.  1.
         21    1    1    2  504  503 -0.10666829603E+03 -0.60014485167E+01 -0.15623403993E+03  0.18927022479E+03  0.00000000000E+00 0.  1.
         21    1    1    2  505  501  0.98579966842E+01  0.52033599686E+02 -0.19576431271E+03  0.20280123699E+03  0.00000000000E+00 0.  1.
         -1    1    1    2    0  504  0.66095766364E+02  0.11523018318E+02  0.12629538654E+04  0.12647347138E+04  0.00000000000E+00 0.  1.
<scales pt_clust_3="41.41502" pt_clust_4="67.29283" pt_clust_5="52.95919" pt_clust_6="14000.00000"></scales>
<clustering>
<clus scale="   52.959">  2  5  1 -1</clus>
<clus scale="   41.415">  2  3  1 -1</clus>
<clus scale="   67.293">  2  4  1 -1</clus>
<clus scale="   52.959">  2  3  1 -1</clus>
</clustering>
</event>
<event>
 6    0  0.4796958E+002  0.7732657E+02  0.7546771E-02  0.1336814E+00
          1   -1    0    0  505    0 -0.00000000000E+00  0.00000000000E+00  0.27722757955E+03  0.27722757955E+03  0.00000000000E+00 0.  1.
         21   -1    0    0  503  502  0.00000000000E+00 -0.00000000000E+00 -0.18734110797E+03  0.18734110797E+03  0.00000000000E+00 0. -1.
         21    1    1    2  503  504  0.45020846614E+02  0.25713431798E+02 -0.10362421315E+03  0.11587076748E+03  0.00000000000E+00 0. -1.
         21    1    1    2  504  501 -0.64490622816E+01  0.76712744633E+02  0.28470508964E+02  0.82079263362E+02  0.00000000000E+00 0.  1.
         21    1    1    2  505  502 -0.90953083265E+01 -0.88418137647E+02 -0.91897629573E+01  0.89358510741E+02  0.00000000000E+00 0.  1.
          1    1    1    2  501    0 -0.29476476006E+02 -0.14008038783E+02  0.17422993872E+03  0.17726014593E+03  0.00000000000E+00 0.  1.
<scales pt_clust_3="49.88310" pt_clust_4="14000.00000" pt_clust_5="77.32657" pt_clust_6="32.63568"></scales>
<clustering>
<clus scale="   32.636">  1  6  2 -1</clus>
<clus scale="   49.883">  2  3  1 -1</clus>
<clus scale="   77.327">  2  5  1 -1</clus>
<clus scale="   49.883">  2  3  1 -1</clus>
</clustering>
</event>
<event>
 6    0  0.4796958E+002  0.1300607E+03  0.7546771E-02  0.1227366E+00
          1   -1    0    0  505    0 -0.00000000000E+00  0.00000000000E+00  0.11198368682E+04  0.11198368682E+04  0.00000000000E+00 0. -1.
         21   -1    0    0  503  502  0.00000000000E+00 -0.00000000000E+00 -0.77083055150E+02  0.77083055150E+02  0.00000000000E+00 0. -1.
         21    1    1    2  503  501  0.21799759672E+02  0.42223336994E+02 -0.40800939011E+01  0.47693677515E+02  0.00000000000E+00 0. -1.
         21    1    1    2  504  502 -0.77241081098E+02 -0.14084975740E+02  0.81874019777E+02  0.11343688230E+03  0.00000000000E+00 0. -1.
         21    1    1    2  505  504  0.15814413371E+03 -0.92473087186E+02  0.24617614769E+03  0.30686077392E+03  0.00000000000E+00 0. -1.
          1    1    1    2  501    0 -0.10270281228E+03  0.64334725932E+02  0.71878373944E+03  0.72892858957E+03  0.00000000000E+00 0. -1.
<scales pt_clust_3="47.51884" pt_clust_4="70.52932" pt_clust_5="14000.00000" pt_clust_6="130.06068"></scales>
<clustering>
<clus scale="   47.519">  2  3  1 -1</clus>
<clus scale="   70.529">  2  4  1 -1</clus>
<clus scale="  130.061">  1  6  2 -1</clus>
<clus scale="   47.519">  2  3  1 -1</clus>
</clustering>
</event>
<event>
 6    0  0.4796958E+002  0.1204635E+03  0.7546771E-02  0.1242334E+00
          4   -1    0    0  503    0 -0.00000000000E+00  0.00000000000E+00  0.52418314112E+03  0.52418314112E+03  0.00000000000E+00 0.  1.
         21   -1    0    0  505  502  0.00000000000E+00 -0.00000000000E+00 -0.92437109398E+03  0.92437109398E+03  0.00000000000E+00 0. -1.
         21    1    1    2  503  504  0.10813739185E+03 -0.33167519190E+02  0.37729614761E+03  0.39388597696E+03  0.00000000000E+00 0.  1.
         21    1    1    2  504  502 -0.47081260439E+01 -0.36462722317E+02 -0.70906372755E+03  0.71001624368E+03  0.00000000000E+00 0. -1.
         21    1    1    2  505  501 -0.11634608773E+03  0.23063235334E+02 -0.18426093663E+03  0.21913561491E+03  0.00000000000E+00 0. -1.
          4    1    1    2  501    0  0.12916821926E+02  0.46567006174E+02  0.11584056372E+03  0.12551639955E+03  0.00000000000E+00 0.  1.
<scales pt_clust_3="120.46349" pt_clust_4="36.76543" pt_clust_5="14000.00000" pt_clust_6="47.50581"></scales>
<clustering>
<clus scale="   36.765">  2  4  1 -1</clus>
<clus scale="   47.506">  1  6  2 -1</clus>
<clus scale="  120.463">  1  3  2 -1</clus>
<clus scale="   36.765">  2  3  1 -1</clus>
</clustering>
</event>
<event>
 6    0  0.4796958E+002  0.9111720E+02  0.7546771E-02  0.1300169E+00
         21   -1    0    0  503  502  0.00000000000E+00  0.00000000000E+00  0.14574168173E+03  0.14574168173E+03  0.00000000000E+00 0. -1.
         -1   -1    0    0    0  501 -0.00000000000E+00 -0.00000000000E+00 -0.10839305252E+04  0.10839305252E+04  0.00000000000E+00 0. -1.
         21    1    1    2  503  501 -0.38947653661E+01  0.35914870415E+02 -0.13620256569E+03  0.14091197967E+03  0.00000000000E+00 0. -1.
         21    1    1    2  504  505  0.47892971622E+02  0.34894259646E+02 -0.54883121173E+01  0.59510231531E+02  0.00000000000E+00 0. -1.
         21    1    1    2  505  502  0.44769443167E+02 -0.61203147635E+01  0.10854070132E+03  0.11757059640E+03  0.00000000000E+00 0. -1.
         -1    1    1    2    0  504 -0.88767649423E+02 -0.64688815297E+02 -0.90503866696E+03  0.91167939930E+03  0.00000000000E+00 0. -1.
<scales pt_clust_3="36.12544" pt_clust_4="14000.00000" pt_clust_5="45.14450" pt_clust_6="91.11720"></scales>
<clustering>
<clus scale="   36.125">  2  3  1 -1</clus>
<clus scale="   45.145">  1  5  2 -1</clus>
<clus scale="   91.117">  2  6  1 -1</clus>
<clus scale="   45.145">  1  3  2 -1</clus>
</clustering>
</event>
<event>
 6    0  0.4796958E+002  0.1089368E+03  0.7546771E-02  0.1262551E+00
         21   -1    0    0  505  502  0.00000000000E+00  0.00000000000E+00  0.98130891916E+03  0.98130891916E+03  0.00000000000E+00 0.  1.
         -2   -1    0    0    0  501 -0.00000000000E+00 -0.00000000000E+00 -0.68886264566E+02  0.68886264566E+02  0.00000000000E+00 0.  1.
         21    1    1    2  503  504 -0.81385389530E+02 -0.49398819767E+02  0.52312109191E+03  0.53171374049E+03  0.00000000000E+00 0.  1.
         21    1    1    2  504  501  0.83097810765E+02 -0.11403040719E+02  0.33937979955E+02  0.90482384888E+02  0.00000000000E+00 0.  1.
         21    1    1    2  505  503  0.20708138504E+01 -0.46905735903E+02  0.30578441912E+03  0.30936798042E+03  0.00000000000E+00 0.  1.
         -2    1    1    2    0  502 -0.37832350856E+01  0.10770759639E+03  0.49579163609E+02  0.11863107793E+03  0.00000000000E+00 0.  1.
<scales pt_clust_3="108.93683" pt_clust_4="84.76217" pt_clust_5="46.95143" pt_clust_6="14000.00000"></scales>
<clustering>
<clus scale="   46.951">  1  5  2 -1</clus>
<clus scale="   84.762">  2  4  1 -1</clus>
<clus scale="  108.937">  1  3  2 -1</clus>
<clus scale="   46.951">  1  3  2 -1</clus>
</clustering>
</event>
<event>
 6    0  0.4796958E+002  0.6867254E+02  0.7546771E-02  0.1364666E+00
         21   -1    0    0  504  502  0.00000000000E+00  0.00000000000E+00  0.38216510006E+03  0.38216510006E+03  0.00000000000E+00 0. -1.
          2   -1    0    0  503    0 -0.00000000000E+00 -0.00000000000E+00 -0.46893919636E+03  0.46893919636E+03  0.00000000000E+00 0.  1.
         21    1    1    2  503  505  0.43937095012E+02 -0.49507761743E+02 -0.54692622813E+02  0.85864834368E+02  0.00000000000E+00 0.  1.
         21    1    1    2  504  501  0.24348164789E+02  0.22502203703E+02  0.14575465285E+03  0.14947776132E+03  0.00000000000E+00 0.  1.
         21    1    1    2  505  502 -0.87896380805E+02 -0.43051925679E+02  0.20442097876E+03  0.22664328496E+03  0.00000000000E+00 0. -1.
          2    1    1    2  501    0  0.19611121004E+02  0.70057483719E+02 -0.38225710510E+03  0.38911841577E+03  0.00000000000E+00 0.  1.
<scales pt_clust_3="66.18504" pt_clust_4="33.15392" pt_clust_5="68.67254" pt_clust_6="14000.00000"></scales>
<clustering>
<clus scale="   33.154">  1  4  2 -1</clus>
<clus scale="   66.185">  2  3  1 -1</clus>
<clus scale="   68.673">  1  5  2 -1</clus>
<clus scale="   33.154">  1  3  2 -1</clus>
</clustering>
</event>
<event>
 6    0  0.4796958E+002  0.1232116E+03  0.7546771E-02  0.1237891E+00
         21   -1    0    0  504  502  0.00000000000E+00  0.00000000000E+00  0.10850654274E+03  0.10850654274E+03  0.00000000000E+00 0.  1.
          2   -1    0    0  503    0 -0.00000000000E+00 -0.00000000000E+00 -0.30323918587E+04  0.30323918587E+04  0.00000000000E+00 0.  1.
         21    1    1    2  503  502  0.73788932744E+02  0.51923037841E+02  0.78323395144E+02  0.11947954922E+03  0.00000000000E+00 0.  1.
         21    1    1    2  504  505  0.28574458495E+02  0.43625060511E+02 -0.99696122101E+02  0.11251205422E+03  0.00000000000E+00 0.  1.
         21    1    1    2  505  501 -0.51604964099E+02 -0.53749301320E+02 -0.50257258391E+03  0.50806619826E+03  0.00000000000E+00 0.  1.
          2    1    1    2  501    0 -0.50758427140E+02 -0.41798797032E+02 -0.23999400051E+04  0.24008405997E+04  0.00000000000E+00 0.  1.
<scales pt_clust_3="14000.00000" pt_clust_4="52.15022" pt_clust_5="123.21157" pt_clust_6="65.53420"></scales>
<clustering>
<clus scale="   52.150">  1  4  2 -1</clus>
<clus scale="   65.534">  2  6  1 -1</clus>
<clus scale="  123.212">  2  5  1 -1</clus>
<clus scale="   52.150">  1  3  2 -1</clus>
</clustering>
</event>
<event>
 6    0  0.4796958E+002  0.1369520E+03  0.7546771E-02  0.1217490E+00
         21   -1    0    0  503  502  0.00000000000E+00  0.00000000000E+00  0.97629335332E+03  0.97629335332E+03  0.00000000000E+00 0.  1.
          2   -1    0    0  505    0 -0.00000000000E+00 -0.00000000000E+00 -0.35950479618E+04  0.35950479618E+04  0.00000000000E+00 0. -1.
         21    1    1    2  503  501  0.41834392251E+02 -0.97351980398E+02  0.86204177275E+03  0.86852952882E+03  0.00000000000E+00 0.  1.
         21    1    1    2  504  502 -0.20168719918E+02  0.15068092216E+03  0.46082101207E+01  0.15209455337E+03  0.00000000000E+00 0. -1.
         21    1    1    2  505  504 -0.42836227709E+02  0.68728225042E+02 -0.20420658725E+02  0.83519546362E+02  0.00000000000E+00 0. -1.
          2    1    1    2  501    0  0.21170555375E+02 -0.12205716680E+03 -0.34649839326E+04  0.34671976865E+04  0.00000000000E+00 0. -1.
<scales pt_clust_3="105.96001" pt_clust_4="40.98955" pt_clust_5="40.98955" pt_clust_6="124.90752"></scales>
<clustering>
<clus scale="   40.990">  4  5 -1 -1</clus>
<clus scale="  105.960">  1  3  2 -1</clus>
<clus scale="  124.908">  2  6  1 -1</clus>
<clus scale="  105.960">  1  3  2 -1</clus>
</clustering>
</event>
<event>
 6    0  0.4796958E+002  0.1185685E+03  0.7546771E-02  0.1245477E+00
          2   -1    0    0  504    0 -0.00000000000E+00  0.00000000000E+00  0.30878298393E+04  0.30878298393E+04  0.00000000000E+00 0.  1.
         21   -1    0    0  503  502  0.00000000000E+00 -0.00000000000E+00 -0.17202077038E+04  0.17202077038E+04  0.00000000000E+00 0.  1.
         21    1    1    2  503  501  0.82301687255E+02 -0.68155988407E+02 -0.35362634634E+02  0.11255808460E+03  0.00000000000E+00 0.  1.
         21    1    1    2  504  505 -0.69807620548E+02  0.13024968106E+01  0.77864265816E+03  0.78176671040E+03  0.00000000000E+00 0. -1.
         21    1    1    2  505  502  0.31925846739E+02  0.22493590898E+02 -0.16440191624E+04  0.16444829667E+04  0.00000000000E+00 0.  1.
          2    1    1    2  501    0 -0.44419913446E+02  0.44359900698E+02  0.22683612744E+04  0.22692297814E+04  0.00000000000E+00 0.  1.
<scales pt_clust_3="118.56846" pt_clust_4="14000.00000" pt_clust_5="39.05408" pt_clust_6="62.73893"></scales>
<clustering>
<clus scale="   39.054">  2  5  1 -1</clus>
<clus scale="   62.739">  1  6  2 -1</clus>
<clus scale="  118.568">  2  3  1 -1</clus>
<clus scale="   39.054">  2  3  1 -1</clus>
</clustering>
</event>
<event>
 6    0  0.4796958E+002  0.1039481E+03  0.7546771E-02  0.1272206E+00
          2   -1    0    0  504    0 -0.00000000000E+00  0.00000000000E+00  0.26281490304E+04  0.26281490304E+04  0.00000000000E+00 0. -1.
         21   -1    0    0  503  502  0.00000000000E+00 -0.00000000000E+00 -0.11725670627E+04  0.11725670627E+04  0.00000000000E+00 0.  1.
         21    1    1    2  503  505 -0.20612501466E+02  0.53273556793E+02 -0.23594183025E+03  0.24275809839E+03  0.00000000000E+00 0.  1.
         21    1    1    2  504  502 -0.21436629222E+02  0.27998835617E+02 -0.89821786155E+03  0.89890977894E+03  0.00000000000E+00 0.  1.
         21    1    1    2  505  501  0.10770083812E+03  0.77713219779E+00  0.52832996396E+02  0.11996416120E+03  0.00000000000E+00 0.  1.
          2    1    1    2  501    0 -0.65651707428E+02 -0.82049524608E+02  0.25369086631E+04  0.25390840546E+04  0.00000000000E+00 0. -1.
<scales pt_clust_3="87.11858" pt_clust_4="35.26278" pt_clust_5="103.94810" pt_clust_6="14000.00000"></scales>
<clustering>
<clus scale="   35.263">  2  4  1 -1</clus>
<clus scale="   87.119">  2  3  1 -1</clus>
<clus scale="  103.948">  2  5  1 -1</clus>
<clus scale="   35.263">  2  3  1 -1</clus>
</clustering>
</event>
<event>
 6    0  0.4796958E+002  0.8684024E+02  0.7546771E-02  0.1310689E+00
         21   -1    0    0  505  502  0.00000000000E+00  0.00000000000E+00  0.39429762240E+03  0.39429762240E+03  0.00000000000E+00 0.  1.
         -2   -1    0    0    0  501 -0.00000000000E+00 -0.00000000000E+00 -0.41712804722E+03  0.41712804722E+03  0.00000000000E+00 0. -1.
         21    1    1    2  503  504 -0.45682313514E+02  0.37257021365E+02 -0.12143605662E+02  0.60186597906E+02  0.00000000000E+00 0.  1.
         21    1    1    2  504  502 -0.27601848457E+02 -0.21261640076E+02  0.23659965232E+03  0.23915123846E+03  0.00000000000E+00 0.  1.
         21    1    1    2  505  501  0.81140264266E+02 -0.68716191786E+02  0.10874450008E+03  0.15208886809E+03  0.00000000000E+00 0.  1.
         -2    1    1    2    0  503 -0.78561022953E+01  0.52720810497E+02 -0.35603097157E+03  0.35999896516E+03  0.00000000000E+00 0. -1.
<scales pt_clust_3="14000.00000" pt_clust_4="34.84135" pt_clust_5="86.84024" pt_clust_6="53.08920"></scales>
<clustering>
<clus scale="   34.841">  1  4  2 -1</clus>
<clus scale="   53.089">  2  6  1 -1</clus>
<clus scale="   86.840">  1  5  2 -1</clus>
<clus scale="   34.841">  1  3  2 -1</clus>
</clustering>
</event>
<event>
 6    0  0.4796958E+002  0.1043693E+03  0.7546771E-02  0.1271367E+00
         21   -1    0    0  503  502  0.00000000000E+00  0.00000000000E+00  0.73795681523E+03  0.73795681523E+03  0.00000000000E+00 0.  1.
         -3   -1    0    0    0  501 -0.00000000000E+00 -0.00000000000E+00 -0.23794720557E+03  0.23794720557E+03  0.00000000000E+00 0. -1.
         21    1    1    2  503  501 -0.11908614912E+03 -0.57522393770E+02  0.14536463052E+03  0.19652280403E+03  0.00000000000E+00 0.  1.
         21    1    1    2  504  505  0.77998183143E+02  0.17292605995E+02 -0.16900577644E+01  0.79909993686E+02  0.00000000000E+00 0.  1.
         21    1    1    2  505  502  0.13523703950E+02  0.28159186339E+02  0.52611684133E+03  0.52704341479E+03  0.00000000000E+00 0.  1.
         -3    1    1    2    0  504  0.27564262032E+02  0.12070601435E+02 -0.16978180442E+03  0.17242780829E+03  0.00000000000E+00 0. -1.
<scales pt_clust_3="14000.00000" pt_clust_4="104.36927" pt_clust_5="31.39670" pt_clust_6="30.09133"></scales>
<clustering>
<clus scale="   30.091">  2  6  1 -1</clus>
<clus scale="   31.397">  1  5  2 -1</clus>
<clus scale="  104.369">  2  4  1 -1</clus>
<clus scale="   31.397">  1  3  2 -1</clus>
</clustering>
</event>
<event>
 6    0  0.4796958E+002  0.1300514E+03  0.7546771E-02  0.1227380E+00
         21   -1    0    0  503  502  0.00000000000E+00  0.00000000000E+00  0.75139748380E+02  0.75139748380E+02  0.00000000000E+00 0. -1.
         -1   -1    0    0    0  501 -0.00000000000E+00 -0.00000000000E+00 -0.12436266581E+04  0.12436266581E+04  0.00000000000E+00 0.  1.
         21    1    1    2  503  501  0.33614734634E+02  0.95139480630E+02  0.23310480989E+02  0.10356085015E+03  0.00000000000E+00 0. -1.
         21    1    1    2  504  505 -0.54618053577E+02 -0.94896597208E+02 -0.62192310482E+03  0.63148780213E+03  0.00000000000E+00 0.  1.
         21    1    1    2  505  502  0.57958708879E+01  0.37733457849E+02 -0.53491743247E+02  0.65717368756E+02  0.00000000000E+00 0. -1.
         -1    1    1    2    0  504  0.15207448055E+02 -0.37976341271E+02 -0.51638254260E+03  0.51800038540E+03  0.00000000000E+00 0.  1.
<scales pt_clust_3="14000.00000" pt_clust_4="130.05135" pt_clust_5="38.17599" pt_clust_6="40.52344"></scales>
<clustering>
<clus scale="   38.176">  1  5  2 -1</clus>
<clus scale="   40.523">  2  6  1 -1</clus>
<clus scale="  130.051">  2  4  1 -1</clus>
<clus scale="   38.176">  1  3  2 -1</clus>
</clustering>
</event>
<event>
 6    0  0.4796958E+002  0.1457679E+03  0.7546771E-02  0.1205772E+00
         21   -1    0    0  505  502  0.00000000000E+00  0.00000000000E+00  0.53439070153E+03  0.53439070153E+03  0.00000000000E+00 0. -1.
          2   -1    0    0  504    0 -0.00000000000E+00 -0.00000000000E+00 -0.60960879528E+03  0.60960879528E+03  0.00000000000E+00 0. -1.
         21    1    1    2  503  502 -0.44981732638E+02 -0.12978434865E+03  0.12062130885E+03  0.18280271763E+03  0.00000000000E+00 0. -1.
         21    1    1    2  504  503 -0.40110352669E+02 -0.92674297306E+01 -0.71310923796E+02  0.82340594471E+02  0.00000000000E+00 0. -1.
         21    1    1    2  505  501  0.10953451613E+03  0.10964865953E+03  0.36045768957E+03  0.39236511661E+03  0.00000000000E+00 0. -1.
          2    1    1    2  501    0 -0.24442430827E+02  0.29403118846E+02 -0.48498616838E+03  0.48649106810E+03  0.00000000000E+00 0. -1.
<scales pt_clust_3="145.76786" pt_clust_4="55.99280" pt_clust_5="14000.00000" pt_clust_6="38.23579"></scales>
<clustering>
<clus scale="   38.236">  2  6  1 -1</clus>
<clus scale="   55.993">  2  4  1 -1</clus>
<clus scale="  145.768">  2  3  1 -1</clus>
<clus scale="  145.768">  1  3  2 -1</clus>
</clustering>
</event>
<event>
 6    0  0.4796958E+002  0.2262203E+03  0.7546771E-02  0.1129329E+00
          2   -1    0    0  503    0 -0.00000000000E+00  0.00000000000E+00  0.66688718810E+03  0.66688718810E+03  0.00000000000E+00 0. -1.
         21   -1    0    0  505  502  0.00000000000E+00 -0.00000000000E+00 -0.63879684197E+03  0.63879684197E+03  0.00000000000E+00 0.  1.
         21    1    1    2  503  502 -0.21018179220E+02  0.72764941153E+02  0.14107666629E+03  0.16012222298E+03  0.00000000000E+00 0.  1.
         21    1    1    2  504  501  0.20206679211E+03 -0.15078020814E+03  0.32095190242E+02  0.25415696110E+03  0.00000000000E+00 0. -1.
         21    1    1    2  505  504 -0.19488284180E+03  0.10683656153E+03 -0.49365068450E+03  0.54137267313E+03  0.00000000000E+00 0.  1.
          2    1    1    2  501    0  0.13834228919E+02 -0.28821294542E+02  0.34856917409E+03  0.35003217286E+03  0.00000000000E+00 0. -1.
<scales pt_clust_3="60.84073" pt_clust_4="14000.00000" pt_clust_5="226.22035" pt_clust_6="31.96956"></scales>
<clustering>
<clus scale="   31.970">  1  6  2 -1</clus>
<clus scale="   60.841">  1  3  2 -1</clus>
<clus scale="  226.220">  2  5  1 -1</clus>
<clus scale="  226.220">  2  3  1 -1</clus>
</clustering>
</event>
<event>
 6    0  0.4796958E+002  0.1130934E+03  0.7546771E-02  0.1254946E+00
          2   -1    0    0  504    0 -0.00000000000E+00  0.00000000000E+00  0.16977918273E+04  0.16977918273E+04  0.00000000000E+00 0. -1.
         21   -1    0    0  503  502  0.00000000000E+00 -0.00000000000E+00 -0.40292561347E+03  0.40292561347E+03  0.00000000000E+00 0. -1.
         21    1    1    2  503  505  0.27300297862E+02  0.10940021737E+03 -0.38149433832E+03  0.39780855194E+03  0.00000000000E+00 0. -1.
         21    1    1    2  504  502  0.35778881295E+02  0.36249476470E+01  0.45160646091E+02  0.57729996947E+02  0.00000000000E+00 0. -1.
         21    1    1    2  505  501 -0.32754333531E+02 -0.14683329813E+03  0.89303720797E+03  0.90562040537E+03  0.00000000000E+00 0. -1.
          2    1    1    2  501    0 -0.30324845626E+02  0.33808133113E+02  0.73816269808E+03  0.73955848651E+03  0.00000000000E+00 0. -1.
<scales pt_clust_3="14000.00000" pt_clust_4="35.96204" pt_clust_5="113.09344" pt_clust_6="38.19953"></scales>
<clustering>
<clus scale="   35.962">  1  4  2 -1</clus>
<clus scale="   38.200">  1  6  2 -1</clus>
<clus scale="  113.093">  1  5  2 -1</clus>
<clus scale="  113.093">  2  3  1 -1</clus>
</clustering>
</event>
<event>
 6    0  0.4796958E+002  0.9681100E+02  0.7546771E-02  0.1287149E+00
         -4   -1    0    0    0  501 -0.00000000000E+00  0.00000000000E+00  0.51533670149E+03  0.51533670149E+03  0.00000000000E+00 0.  1.
         21   -1    0    0  503  502  0.00000000000E+00 -0.00000000000E+00 -0.22138562953E+03  0.22138562953E+03  0.00000000000E+00 0.  1.
         21    1    1    2  503  501  0.29632791683E+02  0.18288271516E+02 -0.11578617222E+03  0.12090906043E+03  0.00000000000E+00 0.  1.
         21    1    1    2  504  505 -0.76908339843E+02  0.87909764319E+01  0.42266698330E+02  0.88196642746E+02  0.00000000000E+00 0. -1.
         21    1    1    2  505  502  0.85276410796E+02 -0.65132398769E+02 -0.41555612743E+02  0.11507025923E+03  0.00000000000E+00 0.  1.
         -4    1    1    2    0  504 -0.38000862636E+02  0.38053150821E+02  0.40902615859E+03  0.41254636862E+03  0.00000000000E+00 0.  1.
<scales pt_clust_3="34.82188" pt_clust_4="96.81100" pt_clust_5="14000.00000" pt_clust_6="53.64481"></scales>
<clustering>
<clus scale="   34.822">  2  3  1 -1</clus>
<clus scale="   53.645">  1  6  2 -1</clus>
<clus scale="   96.811">  1  4  2 -1</clus>
<clus scale="   34.822">  2  3  1 -1</clus>
</clustering>
</event>
<event>
 6    0  0.4796958E+002  0.7612857E+02  0.7546771E-02  0.1340411E+00
         21   -1    0    0  505  502  0.00000000000E+00  0.00000000000E+00  0.45478449891E+03  0.45478449891E+03  0.00000000000E+00 0.  1.
         -4   -1    0    0    0  501 -0.00000000000E+00 -0.00000000000E+00 -0.34378701164E+03  0.34378701164E+03  0.00000000000E+00 0. -1.
         21    1    1    2  503  504  0.31253657254E+02  0.36874101928E+02  0.17814354474E+03  0.18458497506E+03  0.00000000000E+00 0.  1.
         21    1    1    2  504  501 -0.12677492877E+03 -0.52014866321E+02 -0.13730606557E+03  0.19398552659E+03  0.00000000000E+00 0. -1.
         21    1    1    2  505  503  0.37466716298E+02 -0.85083621575E+00  0.23839044020E+03  0.24131821467E+03  0.00000000000E+00 0.  1.
         -4    1    1    2    0  502  0.58054555220E+02  0.15991600608E+02 -0.16823043210E+03  0.17868279424E+03  0.00000000000E+00 0. -1.
<scales pt_clust_3="14000.00000" pt_clust_4="76.12857" pt_clust_5="37.47638" pt_clust_6="61.09018"></scales>
<clustering>
<clus scale="   37.476">  1  5  2 -1</clus>
<clus scale="   61.090">  2  6  1 -1</clus>
<clus scale="   76.129">  2  4  1 -1</clus>
<clus scale="   37.476">  1  3  2 -1</clus>
</clustering>
</event>
<event>
 6    0  0.4796958E+002  0.6662708E+02  0.7546771E-02  0.1371954E+00
         -3   -1    0    0    0  501 -0.00000000000E+00  0.00000000000E+00  0.33573938388E+03  0.33573938388E+03  0.00000000000E+00 0.  1.
         21   -1    0    0  505  502  0.00000000000E+00 -0.00000000000E+00 -0.25037577573E+03  0.25037577573E+03  0.00000000000E+00 0. -1.
         21    1    1    2  503  502 -0.10391554433E+03  0.44842250342E+02 -0.40637830540E+02  0.12025265502E+03  0.00000000000E+00 0. -1.
         21    1    1    2  504  501 -0.24675041976E+01 -0.49347017766E+02  0.31696427877E+02  0.58701620758E+02  0.00000000000E+00 0. -1.
         21    1    1    2  505  504  0.42356929489E+02  0.11746403021E+02 -0.14906236671E+03  0.15540809705E+03  0.00000000000E+00 0. -1.
         -3    1    1    2    0  503  0.64026119040E+02 -0.72416355973E+01  0.24336737753E+03  0.25175278678E+03  0.00000000000E+00 0.  1.
<scales pt_clust_3="14000.00000" pt_clust_4="47.84902" pt_clust_5="43.95552" pt_clust_6="66.62708"></scales>
<clustering>
<clus scale="   43.956">  2  5  1 -1</clus>
<clus scale="   47.849">  2  4  1 -1</clus>
<clus scale="   66.627">  1  6  2 -1</clus>
<clus scale="   43.956">  2  3  1 -1</clus>
</clustering>
</event>
<event>
 6    0  0.4796958E+002  0.6636874E+02  0.7546771E-02  0.1372896E+00
         21   -1    0    0  505  502  0.00000000000E+00  0.00000000000E+00  0.39225814844E+03  0.39225814844E+03  0.00000000000E+00 0.  1.
          1   -1    0    0  504    0 -0.00000000000E+00 -0.00000000000E+00 -0.18670450793E+04  0.18670450793E+04  0.00000000000E+00 0.  1.
         21    1    1    2  503  502 -0.38640434705E+02  0.40039395860E+02  0.27834276008E+03  0.28385018673E+03  0.00000000000E+00 0.  1.
         21    1    1    2  504  503  0.64403949154E+02  0.68584402399E+02 -0.29909669124E+03  0.31354508388E+03  0.00000000000E+00 0.  1.
         21    1    1    2  505  501 -0.11660424429E+01 -0.49204946980E+02  0.97406973589E+02  0.10913571810E+03  0.00000000000E+00 0.  1.
          1    1    1    2  501    0 -0.24597472007E+02 -0.59418851279E+02 -0.15514399733E+04  0.15527722390E+04  0.00000000000E+00 0.  1.
<scales pt_clust_3="40.53649" pt_clust_4="66.36874" pt_clust_5="49.21876" pt_clust_6="14000.00000"></scales>
<clustering>
<clus scale="   49.219">  1  5  2 -1</clus>
<clus scale="   40.536">  1  3  2 -1</clus>
<clus scale="   66.369">  1  4  2 -1</clus>
<clus scale="   49.219">  1  3  2 -1</clus>
</clustering>
</event>
<event>
 6    0  0.4796958E+002  0.9707447E+02  0.7546771E-02  0.1286571E+00
         21   -1    0    0  505  502  0.00000000000E+00  0.00000000000E+00  0.18091220408E+03  0.18091220408E+03  0.00000000000E+00 0.  1.
          1   -1    0    0  504    0 -0.00000000000E+00 -0.00000000000E+00 -0.13068958258E+04  0.13068958258E+04  0.00000000000E+00 0. -1.
         21    1    1    2  503  501 -0.12859971707E+02 -0.11755196950E+03 -0.18881147284E+03  0.22278603341E+03  0.00000000000E+00 0. -1.
         21    1    1    2  504  502  0.15762378791E+02  0.65457215358E+02  0.13069552806E+03  0.14701843654E+03  0.00000000000E+00 0.  1.
         21    1    1    2  505  503  0.34500259385E+02  0.20180107876E+02  0.82099007149E+01  0.40803273413E+02  0.00000000000E+00 0. -1.
          1    1    1    2  501    0 -0.37402666469E+02  0.31914646268E+02 -0.10760775777E+04  0.10772002865E+04  0.00000000000E+00 0. -1.
<scales pt_clust_3="97.07447" pt_clust_4="14000.00000" pt_clust_5="39.96880" pt_clust_6="49.12113"></scales>
<clustering>
<clus scale="   39.969">  1  5  2 -1</clus>
<clus scale="   49.121">  2  6  1 -1</clus>
<clus scale="   97.074">  2  3  1 -1</clus>
<clus scale="   39.969">  1  3  2 -1</clus>
</clustering>
</event>
<event>
 6    0  0.4796958E+002  0.6503295E+02  0.7546771E-02  0.1377848E+00
         21   -1    0    0  503  502  0.00000000000E+00  0.00000000000E+00  0.21328343818E+04  0.21328343818E+04  0.00000000000E+00 0.  1.
          1   -1    0    0  504    0 -0.00000000000E+00 -0.00000000000E+00 -0.26631882830E+02  0.26631882830E+02  0.00000000000E+00 0.  1.
         21    1    1    2  503  501 -0.76236577043E+02 -0.95399914015E+02  0.58971889598E+03  0.60223046714E+03  0.00000000000E+00 0.  1.
         21    1    1    2  504  505 -0.17713196936E+01  0.38278484066E+02  0.22845351336E+03  0.23164496040E+03  0.00000000000E+00 0.  1.
         21    1    1    2  505  502  0.24551181535E+02  0.27912224357E+02  0.12564044699E+04  0.12569542731E+04  0.00000000000E+00 0.  1.
          1    1    1    2  501    0  0.53456715201E+02  0.29209205592E+02  0.31625619794E+02  0.68636564008E+02  0.00000000000E+00 0.  1.
<scales pt_clust_3="65.03295" pt_clust_4="45.84629" pt_clust_5="37.17328" pt_clust_6="14000.00000"></scales>
<clustering>
<clus scale="   37.173">  1  5  2 -1</clus>
<clus scale="   45.846">  1  4  2 -1</clus>
<clus scale="   65.033">  1  3  2 -1</clus>
<clus scale="   37.173">  1  3  2 -1</clus>
</clustering>
</event>
<event>
 6    0  0.4796958E+002  0.1264950E+03  0.7546771E-02  0.1232751E+00
         -4   -1    0    0    0  501 -0.00000000000E+00  0.00000000000E+00  0.42907736576E+03  0.42907736576E+03  0.00000000000E+00 0.  1.
         21   -1    0    0  504  502  0.00000000000E+00 -0.00000000000E+00 -0.10317330698E+03  0.10317330698E+03  0.00000000000E+00 0.  1.
         21    1    1    2  503  505 -0.25471451583E+02 -0.66147258590E+02 -0.96713079451E+01  0.71538722816E+02  0.00000000000E+00 0.  1.
         21    1    1    2  504  501  0.24171795989E+02  0.10725178956E+03  0.20393815537E+03  0.23168511670E+03  0.00000000000E+00 0.  1.
         21    1    1    2  505  502 -0.55558547492E+02 -0.15844558337E+02 -0.23122539832E+02  0.62229045281E+02  0.00000000000E+00 0.  1.
         -4    1    1    2    0  503  0.56858203086E+02 -0.25259972633E+02  0.15475975119E+03  0.16679778795E+03  0.00000000000E+00 0.  1.
<scales pt_clust_3="53.63842" pt_clust_4="111.67419" pt_clust_5="53.63842" pt_clust_6="62.21673"></scales>
<clustering>
<clus scale="   53.638">  3  5 -1 -1</clus>
<clus scale="   62.217">  1  6  2 -1</clus>
<clus scale="  111.674">  1  4  2 -1</clus>
<clus scale="  126.495">  2  3  1 -1</clus>
</clustering>
</event>
<event>
 6    0  0.4796958E+002  0.1400600E+03  0.7546771E-02  0.1213248E+00
          2   -1    0    0  503    0 -0.00000000000E+00  0.00000000000E+00  0.14786451794E+04  0.14786451794E+04  0.00000000000E+00 0.  1.
         21   -1    0    0  505  502  0.00000000000E+00 -0.00000000000E+00 -0.28516642926E+03  0.28516642926E+03  0.00000000000E+00 0.  1.
         21    1    1    2  503  504 -0.21876136597E+02  0.29390167968E+02  0.59065160031E+03  0.59178683686E+03  0.00000000000E+00 0.  1.
         21    1    1    2  504  502 -0.26285786014E+02  0.25037765645E+02 -0.22483129658E+03  0.22774315396E+03  0.00000000000E+00 0.  1.
         21    1    1    2  505  501 -0.10935617655E+03 -0.64015583974E+02  0.28749665944E+02  0.12993579812E+03  0.00000000000E+00 0. -1.
          2    1    1    2  501    0  0.15751809916E+03  0.95876503605E+01  0.79890878043E+03  0.81434581969E+03  0.00000000000E+00 0.  1.
<scales pt_clust_3="36.98304" pt_clust_4="36.30196" pt_clust_5="14000.00000" pt_clust_6="140.05998"></scales>
<clustering>
<clus scale="   36.302">  2  4  1 -1</clus>
<clus scale="   36.983">  1  3  2 -1</clus>
<clus scale="  140.060">  1  6  2 -1</clus>
<clus scale="   36.302">  2  3  1 -1</clus>
</clustering>
</event>
<event>
 6    0  0.4796958E+002  0.1178120E+03  0.7546771E-02  0.1246751E+00
         21   -1    0    0  504  502  0.00000000000E+00  0.00000000000E+00  0.15118338556E+03  0.15118338556E+03  0.00000000000E+00 0.  1.
          2   -1    0    0  502    0 -0.00000000000E+00 -0.00000000000E+00 -0.19555102263E+04  0.19555102263E+04  0.00000000000E+00 0.  1.
         21    1    1    2  503  501  0.95248847318E+02  0.37775058399E+02 -0.57271972810E+03  0.58181370293E+03  0.00000000000E+00 0.  1.
         21    1    1    2  504  505 -0.51023380985E+02 -0.10089016680E+00 -0.12089186056E+01  0.51037800405E+02  0.00000000000E+00 0.  1.
         21    1    1    2  505  503 -0.71184173760E+02 -0.25938487551E+01  0.11090478816E+03  0.13180966081E+03  0.00000000000E+00 0.  1.
          2    1    1    2  501    0  0.26958707427E+02 -0.35080319477E+02 -0.13413029822E+04  0.13420324478E+04  0.00000000000E+00 0.  1.
<scales pt_clust_3="117.81200" pt_clust_4="49.90156" pt_clust_5="14000.00000" pt_clust_6="44.24252"></scales>
<clustering>
<clus scale="   44.243">  2  6  1 -1</clus>
<clus scale="   49.902">  1  4  2 -1</clus>
<clus scale="  117.812">  2  3  1 -1</clus>
<clus scale="   49.902">  1  3  2 -1</clus>
</clustering>
</event>
<event>
 6    0  0.4796958E+002  0.7285621E+02  0.7546771E-02  0.1350641E+00
          2   -1    0    0  505    0 -0.00000000000E+00  0.00000000000E+00  0.57038204890E+03  0.57038204890E+03  0.00000000000E+00 0. -1.
         21   -1    0    0  501  502  0.00000000000E+00 -0.00000000000E+00 -0.13790524265E+03  0.13790524265E+03  0.00000000000E+00 0. -1.
         21    1    1    2  503  504  0.29958272742E+02 -0.72746519092E+02  0.32124735733E+01  0.78739279474E+02  0.00000000000E+00 0.  1.
         21    1    1    2  504  502  0.13206375178E+02  0.72883116164E+02 -0.71795246445E+02  0.10315480783E+03  0.00000000000E+00 0. -1.
         21    1    1    2  505  503 -0.49092024242E+02  0.44788974172E+02  0.85100209547E+02  0.10797279619E+03  0.00000000000E+00 0.  1.
          2    1    1    2  501    0  0.59273763215E+01 -0.44925571244E+02  0.41595936957E+03  0.41842040805E+03  0.00000000000E+00 0. -1.
<scales pt_clust_3="14000.00000" pt_clust_4="72.85621" pt_clust_5="48.25740" pt_clust_6="45.31491"></scales>
<clustering>
<clus scale="   45.315">  1  6  2 -1</clus>
<clus scale="   48.257">  1  5  2 -1</clus>
<clus scale="   72.856">  2  4  1 -1</clus>
<clus scale="   72.856">  2  3  1 -1</clus>
</clustering>
</event>
<event>
 6    0  0.4796958E+002  0.7641797E+02  0.7546771E-02  0.1339535E+00
          3   -1    0    0  504    0 -0.00000000000E+00  0.00000000000E+00  0.64262930055E+03  0.64262930055E+03  0.00000000000E+00 0.  1.
         21   -1    0    0  505  502  0.00000000000E+00 -0.00000000000E+00 -0.20345680180E+03  0.20345680180E+03  0.00000000000E+00 0.  1.
         21    1    1    2  503  501  0.41542154484E+02 -0.78372137157E+02  0.18238112932E+03  0.20280734408E+03  0.00000000000E+00 0.  1.
         21    1    1    2  504  502  0.18638301794E+02  0.99399683191E+02 -0.16854537652E+03  0.19655845761E+03  0.00000000000E+00 0.  1.
         21    1    1    2  505  503 -0.18207579384E+02 -0.25148140854E+02  0.15467645543E+02  0.34687072435E+02  0.00000000000E+00 0.  1.
          3    1    1    2  501    0 -0.41972876894E+02  0.41205948205E+01  0.40986910041E+03  0.41203322823E+03  0.00000000000E+00 0.  1.
<scales pt_clust_3="14000.00000" pt_clust_4="76.41797" pt_clust_5="31.04746" pt_clust_6="42.26236"></scales>
<clustering>
<clus scale="   31.047">  2  5  1 -1</clus>
<clus scale="   42.262">  1  6  2 -1</clus>
<clus scale="   76.418">  2  4  1 -1</clus>
<clus scale="   31.047">  2  3  1 -1</clus>
</clustering>
</event>
<event>
 6    0  0.4796958E+002  0.8632498E+02  0.7546771E-02  0.1312003E+00
         21   -1    0    0  505  502  0.00000000000E+00  0.00000000000E+00  0.32732703739E+03  0.32732703739E+03  0.00000000000E+00 0.  1.
         -1   -1    0    0    0  501 -0.00000000000E+00 -0.00000000000E+00 -0.14036157848E+04  0.14036157848E+04  0.00000000000E+00 0. -1.
         21    1    1    2  503  504  0.71482512341E+00  0.49237118978E+02 -0.13393527879E+03  0.14270060885E+03  0.00000000000E+00 0. -1.
         21    1    1    2  504  502  0.66160890219E+02 -0.97228758642E+02  0.88176921634E+02  0.14698933434E+03  0.00000000000E+00 0.  1.
         21    1    1    2  505  501 -0.61719179942E+02  0.34974771739E+01  0.20029246099E+03  0.20961526530E+03  0.00000000000E+00 0.  1.
         -1    1    1    2    0  503 -0.51565354009E+01  0.44494162490E+02 -0.12308228512E+04  0.12316376137E+04  0.00000000000E+00 0. -1.
<scales pt_clust_3="14000.00000" pt_clust_4="86.32498" pt_clust_5="62.03696" pt_clust_6="44.79197"></scales>
<clustering>
<clus scale="   44.792">  2  6  1 -1</clus>
<clus scale="   62.037">  1  5  2 -1</clus>
<clus scale="   86.325">  1  4  2 -1</clus>
<clus scale="   62.037">  1  3  2 -1</clus>
</clustering>
</event>
<event>
 6    0  0.4796958E+002  0.1109108E+03  0.7546771E-02  0.1258892E+00
         21   -1    0    0  504  502  0.00000000000E+00  0.00000000000E+00  0.38691246054E+03  0.38691246054E+03  0.00000000000E+00 0. -1.
          2   -1    0    0  505    0 -0.00000000000E+00 -0.00000000000E+00 -0.17036587526E+04  0.17036587526E+04  0.00000000000E+00 0. -1.
         21    1    1    2  503  502 -0.48613671448E+02  0.89024002026E+01  0.67708316550E+02  0.83826952175E+02  0.00000000000E+00 0. -1.
         21    1    1    2  504  501  0.50376660186E+02 -0.11926792380E+03  0.28633138071E+03  0.31424243049E+03  0.00000000000E+00 0. -1.
         21    1    1    2  505  503 -0.75511198946E+02 -0.15795229060E+02 -0.19822842122E+03  0.21271092451E+03  0.00000000000E+00 0. -1.
          2    1    1    2  501    0  0.73748210208E+02  0.12616075266E+03 -0.14725575681E+04  0.14797909059E+04  0.00000000000E+00 0. -1.
<scales pt_clust_3="49.42208" pt_clust_4="110.91082" pt_clust_5="78.21172" pt_clust_6="14000.00000"></scales>
<clustering>
<clus scale="   49.422">  1  3  2 -1</clus>
<clus scale="   78.212">  2  5  1 -1</clus>
<clus scale="  110.911">  1  4  2 -1</clus>
<clus scale="   49.422">  1  3  2 -1</clus>
</clustering>
</event>
<event>
 6    0  0.4796958E+002  0.8528935E+02  0.7546771E-02  0.1314678E+00
         21   -1    0    0  505  502  0.00000000000E+00  0.00000000000E+00  0.72691101125E+03  0.72691101125E+03  0.00000000000E+00 0.  1.
          3   -1    0    0  504    0 -0.00000000000E+00 -0.00000000000E+00 -0.11779567777E+03  0.11779567777E+03  0.00000000000E+00 0. -1.
         21    1    1    2  503  502 -0.42911936862E+02 -0.39338843323E+01  0.22774103552E+03  0.23178198600E+03  0.00000000000E+00 0.  1.
         21    1    1    2  504  503  0.83129009736E+02 -0.83685351095E+02  0.24073336599E+03  0.26807876408E+03  0.00000000000E+00 0.  1.
         21    1    1    2  505  501 -0.23963837384E+02  0.59587075758E+02  0.23576396338E+03  0.24435533866E+03  0.00000000000E+00 0.  1.
          3    1    1    2  501    0 -0.16253235491E+02  0.28032159669E+02 -0.95123031424E+02  0.10049060029E+03  0.00000000000E+00 0. -1.
<scales pt_clust_3="44.56840" pt_clust_4="85.28935" pt_clust_5="14000.00000" pt_clust_6="32.40324"></scales>
<clustering>
<clus scale="   32.403">  2  6  1 -1</clus>
<clus scale="   44.568">  1  3  2 -1</clus>
<clus scale="   85.289">  2  4  1 -1</clus>
<clus scale="   44.568">  1  3  2 -1</clus>
</clustering>
</event>
<event>
 6    0  0.4796958E+002  0.2614324E+03  0.7546771E-02  0.1106286E+00
         -1   -1    0    0    0  501 -0.00000000000E+00  0.00000000000E+00  0.23239423319E+03  0.23239423319E+03  0.00000000000E+00 0.  1.
         21   -1    0    0  505  502  0.00000000000E+00 -0.00000000000E+00 -0.85992433579E+03  0.85992433579E+03  0.00000000000E+00 0.  1.
         21    1    1    2  503  502 -0.29234496306E+02  0.46295586653E+02 -0.25563556766E+03  0.26143351080E+03  0.00000000000E+00 0.  1.
         21    1    1    2  504  501 -0.12940450478E+03  0.18177074028E+03 -0.14078509743E+03  0.26383057355E+03  0.00000000000E+00 0.  1.
         21    1    1    2  505  504  0.24602960901E+02  0.23762136216E+02 -0.27613525857E+03  0.27824562140E+03  0.00000000000E+00 0.  1.
         -1    1    1    2    0  503  0.13403604018E+03 -0.25182846315E+03  0.45025821068E+02  0.28880886323E+03  0.00000000000E+00 0.  1.
<scales pt_clust_3="59.71712" pt_clust_4="14000.00000" pt_clust_5="34.20446" pt_clust_6="261.43238"></scales>
<clustering>
<clus scale="   34.204">  2  5  1 -1</clus>
<clus scale="   59.717">  2  3  1 -1</clus>
<clus scale="  261.432">  1  6  2 -1</clus>
<clus scale="   34.204">  2  3  1 -1</clus>
</clustering>
</event>
<event>
 6    0  0.4796958E+002  0.1421184E+03  0.7546771E-02  0.1210507E+00
          1   -1    0    0  504    0 -0.00000000000E+00  0.00000000000E+00  0.20773257300E+04  0.20773257300E+04  0.00000000000E+00 0.  1.
         21   -1    0    0  503  502  0.00000000000E+00 -0.00000000000E+00 -0.60083057319E+02  0.60083057319E+02  0.00000000000E+00 0. -1.
         21    1    1    2  503  501 -0.17129113323E+03  0.94994643929E+02  0.31002867915E+03  0.36671844322E+03  0.00000000000E+00 0. -1.
         21    1    1    2  504  505  0.17048721339E+02 -0.38791001247E+02 -0.68641062215E+01  0.42924545790E+02  0.00000000000E+00 0. -1.
         21    1    1    2  505  502  0.18295660271E+02 -0.34626793525E+02  0.93745846334E+02  0.10159739032E+03  0.00000000000E+00 0. -1.
          1    1    1    2  501    0  0.13594675162E+03 -0.21576849157E+02  0.16203322534E+04  0.16261684080E+04  0.00000000000E+00 0.  1.
<scales pt_clust_3="14000.00000" pt_clust_4="59.70111" pt_clust_5="39.16307" pt_clust_6="142.11838"></scales>
<clustering>
<clus scale="   39.163">  2  5  1 -1</clus>
<clus scale="   59.701">  2  4  1 -1</clus>
<clus scale="  142.118">  1  6  2 -1</clus>
<clus scale="   39.163">  2  3  1 -1</clus>
</clustering>
</event>
<event>
 6    0  0.4796958E+002  0.9305291E+02  0.7546771E-02  0.1295623E+00
         21   -1    0    0  505  502  0.00000000000E+00  0.00000000000E+00  0.38524981042E+02  0.38524981042E+02  0.00000000000E+00 0.  1.
          2   -1    0    0  503    0 -0.00000000000E+00 -0.00000000000E+00 -0.11169293162E+04  0.11169293162E+04  0.00000000000E+00 0.  1.
         21    1    1    2  503  504 -0.42814716622E+02 -0.21443571233E+02 -0.61499508762E+02  0.77943032303E+02  0.00000000000E+00 0.  1.
         21    1    1    2  504  502  0.21690116211E+02  0.88422459891E+02 -0.10350260939E+03  0.13784695392E+03  0.00000000000E+00 0.  1.
         21    1    1    2  505  501 -0.61440815228E-01 -0.97872206961E+02 -0.17657407058E+03  0.20188455878E+03  0.00000000000E+00 0.  1.
          2    1    1    2  501    0  0.21186041226E+02  0.30893318304E+02 -0.73682814642E+03  0.73777975224E+03  0.00000000000E+00 0.  1.
<scales pt_clust_3="41.99693" pt_clust_4="93.05291" pt_clust_5="14000.00000" pt_clust_6="37.45992"></scales>
<clustering>
<clus scale="   37.460">  2  6  1 -1</clus>
<clus scale="   41.997">  2  3  1 -1</clus>
<clus scale="   93.053">  1  4  2 -1</clus>
<clus scale="   93.053">  1  3  2 -1</clus>
</clustering>
</event>
<event>
 6    0  0.4796958E+002  0.8983795E+02  0.7546771E-02  0.1303245E+00
          3   -1    0    0  502    0 -0.00000000000E+00  0.00000000000E+00  0.30146204226E+03  0.30146204226E+03  0.00000000000E+00 0. -1.
         21   -1    0    0  503  502  0.00000000000E+00 -0.00000000000E+00 -0.19148793089E+03  0.19148793089E+03  0.00000000000E+00 0. -1.
         21    1    1    2  503  505 -0.50107789825E+02 -0.55583513435E+02 -0.50900089150E+02  0.90504898444E+02  0.00000000000E+00 0. -1.
         21    1    1    2  504  501  0.80218799347E+01 -0.40099398967E+02  0.44291951057E+02  0.60283408029E+02  0.00000000000E+00 0.  1.
         21    1    1    2  505  504  0.26588330870E+02  0.12208354685E+03 -0.76607986944E+02  0.14656096142E+03  0.00000000000E+00 0. -1.
          3    1    1    2  501    0  0.15497579021E+02 -0.26400634444E+02  0.19319023641E+03  0.19560070526E+03  0.00000000000E+00 0. -1.
<scales pt_clust_3="89.83795" pt_clust_4="55.23832" pt_clust_5="14000.00000" pt_clust_6="30.61321"></scales>
<clustering>
<clus scale="   30.613">  1  6  2 -1</clus>
<clus scale="   55.238">  1  4  2 -1</clus>
<clus scale="   89.838">  2  3  1 -1</clus>
<clus scale="   89.838">  2  3  1 -1</clus>
</clustering>
</event>
<event>
 6    0  0.4796958E+002  0.1088862E+03  0.7546771E-02  0.1262647E+00
         21   -1    0    0  503  502  0.00000000000E+00  0.00000000000E+00  0.12220208737E+04  0.12220208737E+04  0.00000000000E+00 0.  1.
          2   -1    0    0  505    0 -0.00000000000E+00 -0.00000000000E+00 -0.61861766150E+03  0.61861766150E+03  0.00000000000E+00 0.  1.
         21    1    1    2  503  501 -0.12540206877E+02  0.10478590683E+03  0.80183448316E+03  0.80874957894E+03  0.00000000000E+00 0.  1.
         21    1    1    2  504  502  0.37332463865E+02 -0.28188432140E+02  0.22355613765E+03  0.22839800184E+03  0.00000000000E+00 0.  1.
         21    1    1    2  505  504  0.58215921261E+02 -0.44124781989E+02  0.18035631997E+03  0.19458800587E+03  0.00000000000E+00 0.  1.
          2    1    1    2  501    0 -0.83008178248E+02 -0.32472692703E+02 -0.60234372856E+03  0.60890294856E+03  0.00000000000E+00 0.  1.
<scales pt_clust_3="102.19100" pt_clust_4="30.08305" pt_clust_5="30.08305" pt_clust_6="89.13380"></scales>
<clustering>
<clus scale="   30.083">  4  5 -1 -1</clus>
<clus scale="   89.134">  2  6  1 -1</clus>
<clus scale="  102.191">  1  3  2 -1</clus>
<clus scale="  102.191">  1  3  2 -1</clus>
</clustering>
</event>
<event>
 6    0  0.4796958E+002  0.8198004E+02  0.7546771E-02  0.1323524E+00
         21   -1    0    0  504  502  0.00000000000E+00  0.00000000000E+00  0.88146243921E+02  0.88146243921E+02  0.00000000000E+00 0.  1.
          2   -1    0    0  505    0 -0.00000000000E+00 -0.00000000000E+00 -0.19268927643E+04  0.19268927643E+04  0.00000000000E+00 0. -1.
         21    1    1    2  503  501  0.54608845291E+02 -0.13933415028E+02 -0.61550105712E+02  0.83454667643E+02  0.00000000000E+00 0.  1.
         21    1    1    2  504  503  0.74819904851E+01 -0.40223287807E+02 -0.18260107554E+02  0.44803176132E+02  0.00000000000E+00 0.  1.
         21    1    1    2  505  502 -0.75286153359E+02 -0.27403014799E+02  0.37490098090E+02  0.88455850923E+02  0.00000000000E+00 0.  1.
          2    1    1    2  501    0  0.13195317584E+02  0.81559717634E+02 -0.17964264052E+04  0.17983253135E+04  0.00000000000E+00 0. -1.
<scales pt_clust_3="59.12335" pt_clust_4="40.91324" pt_clust_5="81.98004" pt_clust_6="14000.00000"></scales>
<clustering>
<clus scale="   40.913">  1  4  2 -1</clus>
<clus scale="   59.123">  1  3  2 -1</clus>
<clus scale="   81.980">  1  5  2 -1</clus>
<clus scale="   40.913">  1  3  2 -1</clus>
</clustering>
</event>
<event>
 6    0  0.4796958E+002  0.1406316E+03  0.7546771E-02  0.1212482E+00
         21   -1    0    0  505  502  0.00000000000E+00  0.00000000000E+00  0.47836861735E+03  0.47836861735E+03  0.00000000000E+00 0. -1.
          2   -1    0    0  504    0 -0.00000000000E+00 -0.00000000000E+00 -0.81867485722E+03  0.81867485722E+03  0.00000000000E+00 0. -1.
         21    1    1    2  503  501  0.46296568421E+02 -0.99958496669E+02 -0.21700810221E+03  0.24336719115E+03  0.00000000000E+00 0.  1.
         21    1    1    2  504  502 -0.72711183586E+01  0.14151565788E+03 -0.21652078660E+02  0.14334700241E+03  0.00000000000E+00 0.  1.
         21    1    1    2  505  503 -0.57525885104E+02  0.11775342724E+02  0.40062030766E+03  0.40490062615E+03  0.00000000000E+00 0. -1.
          2    1    1    2  501    0  0.18500435041E+02 -0.53332503940E+02 -0.50226636665E+03  0.50542865485E+03  0.00000000000E+00 0. -1.
<scales pt_clust_3="140.63159" pt_clust_4="14000.00000" pt_clust_5="58.52372" pt_clust_6="56.45017"></scales>
<clustering>
<clus scale="   56.450">  2  6  1 -1</clus>
<clus scale="   58.524">  1  5  2 -1</clus>
<clus scale="  140.632">  2  3  1 -1</clus>
<clus scale="   58.524">  1  3  2 -1</clus>
</clustering>
</event>
<event>
 6    0  0.4796958E+002  0.1176427E+03  0.7546771E-02  0.1247037E+00
         21   -1    0    0  504  502  0.00000000000E+00  0.00000000000E+00  0.22131288237E+03  0.22131288237E+03  0.00000000000E+00 0.  1.
         -1   -1    0    0    0  501 -0.00000000000E+00 -0.00000000000E+00 -0.64727379729E+03  0.64727379729E+03  0.00000000000E+00 0. -1.
         21    1    1    2  503  505  0.48600652550E+02 -0.97072700893E+02 -0.31951818715E+03  0.33745667071E+03  0.00000000000E+00 0. -1.
         21    1    1    2  504  501  0.17358121869E+02  0.88217461692E+02  0.22686014431E+02  0.92726911913E+02  0.00000000000E+00 0. -1.
         21    1    1    2  505  502 -0.50562998805E+02  0.37382295451E+02  0.14725805627E+03  0.16012179114E+03  0.00000000000E+00 0.  1.
         -1    1    1    2    0  503 -0.15395775614E+02 -0.28527056250E+02 -0.27638679847E+03  0.27828130590E+03  0.00000000000E+00 0. -1.
<scales pt_clust_3="117.64272" pt_clust_4="14000.00000" pt_clust_5="62.80412" pt_clust_6="32.41640"></scales>
<clustering>
<clus scale="   32.416">  2  6  1 -1</clus>
<clus scale="   62.804">  1  5  2 -1</clus>
<clus scale="  117.643">  2  3  1 -1</clus>
<clus scale="   62.804">  1  3  2 -1</clus>
</clustering>
</event>
<event>
 6    0  0.4796958E+002  0.1429834E+03  0.7546771E-02  0.1209370E+00
         21   -1    0    0  503  502  0.00000000000E+00  0.00000000000E+00  0.17422454765E+04  0.17422454765E+04  0.00000000000E+00 0. -1.
          4   -1    0    0  505    0 -0.00000000000E+00 -0.00000000000E+00 -0.95260800679E+02  0.95260800679E+02  0.00000000000E+00 0. -1.
         21    1    1    2  503  501 -0.13505442999E+02  0.67487542757E+02  0.12092276617E+04  0.12111847519E+04  0.00000000000E+00 0. -1.
         21    1    1    2  504  502  0.10862907013E+03  0.26614413199E+02  0.14648880642E+03  0.18430293615E+03  0.00000000000E+00 0. -1.
         21    1    1    2  505  504 -0.17253640505E+03 -0.59977400907E+02  0.30577800892E+03  0.35618294517E+03  0.00000000000E+00 0. -1.
          4    1    1    2  501    0  0.77412777922E+02 -0.34124555049E+02 -0.14509801221E+02  0.85835643962E+02  0.00000000000E+00 0. -1.
<scales pt_clust_3="68.82562" pt_clust_4="142.98340" pt_clust_5="14000.00000" pt_clust_6="82.03418"></scales>
<clustering>
<clus scale="   68.826">  1  3  2 -1</clus>
<clus scale="   82.034">  2  6  1 -1</clus>
<clus scale="  142.983">  1  4  2 -1</clus>
<clus scale="   68.826">  1  3  2 -1</clus>
</clustering>
</event>
<event>
 6    0  0.4796958E+002  0.7794749E+02  0.7546771E-02  0.1334979E+00
          2   -1    0    0  505    0 -0.00000000000E+00  0.00000000000E+00  0.19694765465E+03  0.19694765465E+03  0.00000000000E+00 0.  1.
         21   -1    0    0  503  502  0.00000000000E+00 -0.00000000000E+00 -0.22019727000E+03  0.22019727000E+03  0.00000000000E+00 0. -1.
         21    1    1    2  503  504  0.33182384288E+02 -0.23557227752E+02 -0.13533946369E+03  0.14132510052E+03  0.00000000000E+00 0. -1.
         21    1    1    2  504  501  0.15641428555E+02  0.72414041528E+02 -0.14125494638E+02  0.75418680023E+02  0.00000000000E+00 0.  1.
         21    1    1    2  505  502 -0.74448857931E+02 -0.73256723754E+02  0.48804441637E+02  0.11528683162E+03  0.00000000000E+00 0.  1.
          2    1    1    2  501    0  0.25625045089E+02  0.24399909978E+02  0.77410901338E+02  0.85114312478E+02  0.00000000000E+00 0.  1.
<scales pt_clust_3="40.87917" pt_clust_4="14000.00000" pt_clust_5="77.94749" pt_clust_6="35.38359"></scales>
<clustering>
<clus scale="   35.384">  1  6  2 -1</clus>
<clus scale="   40.879">  2  3  1 -1</clus>
<clus scale="   77.947">  1  5  2 -1</clus>
<clus scale="   40.879">  2  3  1 -1</clus>
</clustering>
</event>
<event>
 6    0  0.4796958E+002  0.1457532E+03  0.7546771E-02  0.1205791E+00
          2   -1    0    0  503    0 -0.00000000000E+00  0.00000000000E+00  0.17169978998E+04  0.17169978998E+04  0.00000000000E+00 0.  1.
         21   -1    0    0  505  502  0.00000000000E+00 -0.00000000000E+00 -0.13731385882E+04  0.13731385882E+04  0.00000000000E+00 0. -1.
         21    1    1    2  503  502 -0.21127915069E+03 -0.87716473075E+01  0.36590072610E+03  0.42260994152E+03  0.00000000000E+00 0. -1.
         21    1    1    2  504  501  0.38830121599E+02 -0.49859523420E+02  0.12290251678E+02  0.64380126634E+02  0.00000000000E+00 0. -1.
         21    1    1    2  505  504  0.14484195286E+03  0.84478046616E+01 -0.13141059246E+04  0.13220911231E+04  0.00000000000E+00 0. -1.
          2    1    1    2  501    0  0.27607076225E+02  0.50183366066E+02  0.12797742584E+04  0.12810552967E+04  0.00000000000E+00 0.  1.
<scales pt_clust_3="145.75322" pt_clust_4="61.38315" pt_clust_5="14000.00000" pt_clust_6="57.27583"></scales>
<clustering>
<clus scale="   57.276">  1  6  2 -1</clus>
<clus scale="   61.383">  1  4  2 -1</clus>
<clus scale="  145.753">  1  3  2 -1</clus>
<clus scale="  145.753">  2  3  1 -1</clus>
</clustering>
</event>
<event>
 6    0  0.4796958E+002  0.7804372E+02  0.7546771E-02  0.1334697E+00
         21   -1    0    0  504  502  0.00000000000E+00  0.00000000000E+00  0.48032780146E+03  0.48032780146E+03  0.00000000000E+00 0. -1.
          1   -1    0    0  505    0 -0.00000000000E+00 -0.00000000000E+00 -0.17531204081E+04  0.17531204081E+04  0.00000000000E+00 0. -1.
         21    1    1    2  503  502  0.28143706997E+02 -0.33082271279E+02  0.34458013644E+03  0.34730674532E+03  0.00000000000E+00 0. -1.
         21    1    1    2  504  501 -0.81928762680E+02  0.12499036639E+02  0.31619531455E+02  0.88703679972E+02  0.00000000000E+00 0. -1.
         21    1    1    2  505  503  0.65247392756E+02  0.85858489455E+02  0.34054440849E+02  0.11308672519E+03  0.00000000000E+00 0. -1.
          1    1    1    2  501    0 -0.11462337072E+02 -0.65275254814E+02 -0.16830467154E+04  0.16843510591E+04  0.00000000000E+00 0. -1.
<scales pt_clust_3="43.43391" pt_clust_4="14000.00000" pt_clust_5="78.04372" pt_clust_6="66.40871"></scales>
<clustering>
<clus scale="   43.434">  1  3  2 -1</clus>
<clus scale="   66.409">  2  6  1 -1</clus>
<clus scale="   78.044">  2  5  1 -1</clus>
<clus scale="   43.434">  1  3  2 -1</clus>
</clustering>
</event>
<event>
 6    0  0.4796958E+002  0.1788999E+03  0.7546771E-02  0.1168872E+00
         21   -1    0    0  504  502  0.00000000000E+00  0.00000000000E+00  0.12463010544E+03  0.12463010544E+03  0.00000000000E+00 0.  1.
          2   -1    0    0  505    0 -0.00000000000E+00 -0.00000000000E+00 -0.27073591180E+04  0.27073591180E+04  0.00000000000E+00 0.  1.
         21    1    1    2  503  502 -0.28223192131E+01 -0.69243973800E+02 -0.15303361352E+01  0.69318362084E+02  0.00000000000E+00 0.  1.
         21    1    1    2  504  501  0.10855830436E+03  0.23178468737E+03 -0.23053489045E+03  0.34446390588E+03  0.00000000000E+00 0.  1.
         21    1    1    2  505  503 -0.52964382888E+02 -0.64731022319E+02 -0.21452163737E+02  0.86345390347E+02  0.00000000000E+00 0.  1.
          2    1    1    2  501    0 -0.52771602257E+02 -0.97809691246E+02 -0.23292116222E+04  0.23318615651E+04  0.00000000000E+00 0.  1.
<scales pt_clust_3="46.78416" pt_clust_4="171.35815" pt_clust_5="46.78416" pt_clust_6="111.13765"></scales>
<clustering>
<clus scale="   46.784">  3  5 -1 -1</clus>
<clus scale="  111.138">  2  6  1 -1</clus>
<clus scale="  171.358">  2  4  1 -1</clus>
<clus scale="  178.900">  1  3  2 -1</clus>
</clustering>
</event>
<event>
 6    0  0.4796958E+002  0.1044920E+03  0.7546771E-02  0.1271124E+00
         21   -1    0    0  503  502  0.00000000000E+00  0.00000000000E+00  0.80886274711E+02  0.80886274711E+02  0.00000000000E+00 0.  1.
          2   -1    0    0  504    0 -0.00000000000E+00 -0.00000000000E+00 -0.38288476038E+04  0.38288476038E+04  0.00000000000E+00 0. -1.
         21    1    1    2  503  501  0.10988648813E+03  0.70329907919E+02 -0.10127174295E+02  0.13085830459E+03  0.00000000000E+00 0.  1.
         21    1    1    2  504  505 -0.30544614986E+02  0.40425413963E+01 -0.33161239165E+03  0.33304067911E+03  0.00000000000E+00 0.  1.
         21    1    1    2  505  502 -0.13303712805E+02 -0.30363262886E+02  0.51436057692E+01  0.33546582356E+02  0.00000000000E+00 0. -1.
          2    1    1    2  501    0 -0.66038160336E+02 -0.44009186429E+02 -0.34113653689E+04  0.34122883124E+04  0.00000000000E+00 0. -1.
<scales pt_clust_3="14000.00000" pt_clust_4="30.81097" pt_clust_5="33.18488" pt_clust_6="104.49204"></scales>
<clustering>
<clus scale="   30.811">  2  4  1 -1</clus>
<clus scale="   33.185">  1  5  2 -1</clus>
<clus scale="  104.492">  2  6  1 -1</clus>
<clus scale="   33.185">  1  3  2 -1</clus>
</clustering>
</event>
<event>
 6    0  0.4796958E+002  0.1393034E+03  0.7546771E-02  0.1214269E+00
         21   -1    0    0  504  502  0.00000000000E+00  0.00000000000E+00  0.79252011335E+02  0.79252011335E+02  0.00000000000E+00 0. -1.
          2   -1    0    0  505    0 -0.00000000000E+00 -0.00000000000E+00 -0.24768818963E+04  0.24768818963E+04  0.00000000000E+00 0.  1.
         21    1    1    2  503  502 -0.97159046440E+01  0.54228380044E+02 -0.41012787630E+02  0.68681618752E+02  0.00000000000E+00 0.  1.
         21    1    1    2  504  501 -0.25180435507E+02  0.87637128079E+02  0.28128450425E+02  0.95422902249E+02  0.00000000000E+00 0. -1.
         21    1    1    2  505  503  0.21558970819E+02 -0.55174062721E+02 -0.32094641841E+03  0.32636723167E+03  0.00000000000E+00 0.  1.
          2    1    1    2  501    0  0.13337369332E+02 -0.86691445402E+02 -0.20637991293E+04  0.20656621549E+04  0.00000000000E+00 0.  1.
<scales pt_clust_3="55.09189" pt_clust_4="14000.00000" pt_clust_5="56.99902" pt_clust_6="139.30343"></scales>
<clustering>
<clus scale="   55.092">  1  3  2 -1</clus>
<clus scale="   56.999">  2  5  1 -1</clus>
<clus scale="  139.303">  2  6  1 -1</clus>
<clus scale="   55.092">  1  3  2 -1</clus>
</clustering>
</event>
<event>
 6    0  0.4796958E+002  0.8628196E+02  0.7546771E-02  0.1312114E+00
          2   -1    0    0  505    0 -0.00000000000E+00  0.00000000000E+00  0.17700623935E+04  0.17700623935E+04  0.00000000000E+00 0.  1.
         21   -1    0    0  503  502  0.00000000000E+00 -0.00000000000E+00 -0.78809648309E+02  0.78809648309E+02  0.00000000000E+00 0. -1.
         21    1    1    2  503  501  0.62238045557E+02 -0.98239384062E+02 -0.12392227919E+02  0.11695348737E+03  0.00000000000E+00 0. -1.
         21    1    1    2  504  502  0.10984923173E+02  0.32153876902E+02  0.30614053894E+02  0.45735769730E+02  0.00000000000E+00 0.  1.
         21    1    1    2  505  504 -0.28133539147E+02  0.50661665147E+02  0.12901754285E+03  0.14143417799E+03  0.00000000000E+00 0.  1.
          2    1    1    2  501    0 -0.45089429583E+02  0.15423842013E+02  0.15440133764E+04  0.15447486067E+04  0.00000000000E+00 0.  1.
<scales pt_clust_3="86.28196" pt_clust_4="33.97853" pt_clust_5="14000.00000" pt_clust_6="47.65489"></scales>
<clustering>
<clus scale="   33.979">  2  4  1 -1</clus>
<clus scale="   47.655">  1  6  2 -1</clus>
<clus scale="   86.282">  2  3  1 -1</clus>
<clus scale="   33.979">  2  3  1 -1</clus>
</clustering>
</event>
<event>
 6    0  0.4796958E+002  0.1258383E+03  0.7546771E-02  0.1233765E+00
         21   -1    0    0  504  502  0.00000000000E+00  0.00000000000E+00  0.13473108042E+04  0.13473108042E+04  0.00000000000E+00 0. -1.
          2   -1    0    0  505    0 -0.00000000000E+00 -0.00000000000E+00 -0.11157357124E+03  0.11157357124E+03  0.00000000000E+00 0. -1.
         21    1    1    2  503  501  0.98180612767E+02  0.11330347031E+03  0.21291464797E+03  0.26040306532E+03  0.00000000000E+00 0. -1.
         21    1    1    2  504  503 -0.88335683652E+02 -0.11314422999E+03  0.48470134840E+03  0.50550984849E+03  0.00000000000E+00 0. -1.
         21    1    1    2  505  502  0.28224955078E+02  0.30812989382E+02  0.60697802016E+03  0.60841466563E+03  0.00000000000E+00 0. -1.
          2    1    1    2  501    0 -0.38069884193E+02 -0.30972229702E+02 -0.68856783599E+02  0.84556795958E+02  0.00000000000E+00 0. -1.
<scales pt_clust_3="125.83834" pt_clust_4="14000.00000" pt_clust_5="41.78622" pt_clust_6="48.63871"></scales>
<clustering>
<clus scale="   41.786">  1  5  2 -1</clus>
<clus scale="   48.639">  2  6  1 -1</clus>
<clus scale="  125.838">  2  3  1 -1</clus>
<clus scale="   41.786">  1  3  2 -1</clus>
</clustering>
</event>
<event>
 6    0  0.4796958E+002  0.1281506E+03  0.7546771E-02  0.1230226E+00
          3   -1    0    0  504    0 -0.00000000000E+00  0.00000000000E+00  0.36459710192E+03  0.36459710192E+03  0.00000000000E+00 0. -1.
         21   -1    0    0  501  502  0.00000000000E+00 -0.00000000000E+00 -0.85200602555E+03  0.85200602555E+03  0.00000000000E+00 0. -1.
         21    1    1    2  503  505  0.78915558622E+02  0.60846337356E+02 -0.22343780312E+03  0.24465157679E+03  0.00000000000E+00 0. -1.
         21    1    1    2  504  503 -0.59170663171E+02  0.12636897944E+02  0.11392045267E+02  0.61568151387E+02  0.00000000000E+00 0.  1.
         21    1    1    2  505  502  0.19135102409E+02  0.31361124375E+02 -0.58243120118E+03  0.58358870480E+03  0.00000000000E+00 0. -1.
          3    1    1    2  501    0 -0.38879997860E+02 -0.10484435967E+03  0.30706803540E+03  0.32679469450E+03  0.00000000000E+00 0. -1.
<scales pt_clust_3="14000.00000" pt_clust_4="59.45860" pt_clust_5="36.73789" pt_clust_6="128.15060"></scales>
<clustering>
<clus scale="   36.738">  2  5  1 -1</clus>
<clus scale="   59.459">  1  4  2 -1</clus>
<clus scale="  128.151">  1  6  2 -1</clus>
<clus scale="   36.738">  2  3  1 -1</clus>
</clustering>
</event>
<event>
 6    0  0.4796958E+002  0.1445952E+03  0.7546771E-02  0.1207276E+00
         21   -1    0    0  501  502  0.00000000000E+00  0.00000000000E+00  0.12738319558E+03  0.12738319558E+03  0.00000000000E+00 0. -1.
          1   -1    0    0  503    0 -0.00000000000E+00 -0.00000000000E+00 -0.46864420169E+03  0.46864420169E+03  0.00000000000E+00 0. -1.
         21    1    1    2  503  504  0.12342200336E+03  0.48199013147E+02 -0.31278185284E+03  0.33968900960E+03  0.00000000000E+00 0. -1.
         21    1    1    2  504  505 -0.11829416815E+03 -0.45982854146E+02  0.27170886612E-01  0.12691703523E+03  0.00000000000E+00 0. -1.
         21    1    1    2  505  502 -0.38877550170E+02  0.21631737367E+02  0.32949740713E+02  0.55363177129E+02  0.00000000000E+00 0. -1.
          1    1    1    2  501    0  0.33749714958E+02 -0.23847896368E+02 -0.61456064871E+02  0.74058175311E+02  0.00000000000E+00 0. -1.
<scales pt_clust_3="144.59516" pt_clust_4="14000.00000" pt_clust_5="43.34200" pt_clust_6="41.32512"></scales>
<clustering>
<clus scale="   41.325">  2  6  1 -1</clus>
<clus scale="   43.342">  1  5  2 -1</clus>
<clus scale="  144.595">  2  3  1 -1</clus>
<clus scale="   43.342">  1  3  2 -1</clus>
</clustering>
</event>
<event>
 6    0  0.4796958E+002  0.1913927E+03  0.7546771E-02  0.1157211E+00
          2   -1    0    0  504    0 -0.00000000000E+00  0.00000000000E+00  0.16050276450E+04  0.16050276450E+04  0.00000000000E+00 0.  1.
         21   -1    0    0  503  502  0.00000000000E+00 -0.00000000000E+00 -0.29052000902E+03  0.29052000902E+03  0.00000000000E+00 0.  1.
         21    1    1    2  503  505 -0.41691839480E+02  0.72532958569E+02 -0.19391544991E+02  0.85879401344E+02  0.00000000000E+00 0.  1.
         21    1    1    2  504  502  0.44123889675E+02 -0.11901271770E+02  0.69775847785E+01  0.46230342841E+02  0.00000000000E+00 0.  1.
         21    1    1    2  505  501 -0.12502521449E+03 -0.20585282525E+03 -0.14378627669E+03  0.28050166361E+03  0.00000000000E+00 0.  1.
          2    1    1    2  501    0  0.12259316430E+03  0.14522113845E+03  0.14707078729E+04  0.14829362462E+04  0.00000000000E+00 0.  1.
<scales pt_clust_3="77.63858" pt_clust_4="45.70074" pt_clust_5="191.39273" pt_clust_6="14000.00000"></scales>
<clustering>
<clus scale="   45.701">  2  4  1 -1</clus>
<clus scale="   77.639">  2  3  1 -1</clus>
<clus scale="  191.393">  2  5  1 -1</clus>
<clus scale="   45.701">  2  3  1 -1</clus>
</clustering>
</event>
<event>
 6    0  0.4796958E+002  0.7820591E+02  0.7546771E-02  0.1334221E+00
         -2   -1    0    0    0  501 -0.00000000000E+00  0.00000000000E+00  0.12040444400E+03  0.12040444400E+03  0.00000000000E+00 0. -1.
         21   -1    0    0  503  502  0.00000000000E+00 -0.00000000000E+00 -0.27821218400E+03  0.27821218400E+03  0.00000000000E+00 0. -1.
         21    1    1    2  503  505  0.96017729165E+02  0.65562137842E+01 -0.12419018206E+03  0.15711648409E+03  0.00000000000E+00 0. -1.
         21    1    1    2  504  502 -0.28457265731E+02 -0.62963742770E+02 -0.10076075359E+03  0.12217601377E+03  0.00000000000E+00 0. -1.
         21    1    1    2  505  501 -0.28983620206E+02  0.94065021288E+01  0.24953338811E+01  0.30573832173E+02  0.00000000000E+00 0. -1.
         -2    1    1    2    0  504 -0.38576843227E+02  0.47001026857E+02  0.64647861766E+02  0.88750297971E+02  0.00000000000E+00 0. -1.
<scales pt_clust_3="78.20591" pt_clust_4="69.51300" pt_clust_5="30.47183" pt_clust_6="14000.00000"></scales>
<clustering>
<clus scale="   30.472">  1  5  2 -1</clus>
<clus scale="   69.513">  2  4  1 -1</clus>
<clus scale="   78.206">  2  3  1 -1</clus>
<clus scale="   69.513">  2  3  1 -1</clus>
</clustering>
</event>
<event>
 6    0  0.4796958E+002  0.7859702E+02  0.7546771E-02  0.1333081E+00
         21   -1    0    0  505  502  0.00000000000E+00  0.00000000000E+00  0.79723987522E+03  0.79723987522E+03  0.00000000000E+00 0. -1.
         -2   -1    0    0    0  501 -0.00000000000E+00 -0.00000000000E+00 -0.23261160172E+03  0.23261160172E+03  0.00000000000E+00 0. -1.
         21    1    1    2  503  504 -0.75223021016E+02 -0.53768105738E+02  0.25230790501E+01  0.92497989239E+02  0.00000000000E+00 0.  1.
         21    1    1    2  504  502 -0.33238358116E+02  0.36719529035E+02  0.44176383477E+03  0.44453166139E+03  0.00000000000E+00 0. -1.
         21    1    1    2  505  501  0.65260833899E+02  0.37221208578E+02  0.29880183141E+03  0.30810214096E+03  0.00000000000E+00 0. -1.
         -2    1    1    2    0  503  0.43200545233E+02 -0.20172631875E+02 -0.17846047174E+03  0.18471968536E+03  0.00000000000E+00 0. -1.
<scales pt_clust_3="14000.00000" pt_clust_4="48.33948" pt_clust_5="78.59702" pt_clust_6="47.67832"></scales>
<clustering>
<clus scale="   47.678">  2  6  1 -1</clus>
<clus scale="   48.339">  1  4  2 -1</clus>
<clus scale="   78.597">  1  5  2 -1</clus>
<clus scale="   48.339">  1  3  2 -1</clus>
</clustering>
</event>
<event>
 6    0  0.4796958E+002  0.1703681E+03  0.7546771E-02  0.1177464E+00
         -2   -1    0    0    0  501 -0.00000000000E+00  0.00000000000E+00  0.55291544417E+03  0.55291544417E+03  0.00000000000E+00 0.  1.
         21   -1    0    0  503  502  0.00000000000E+00 -0.00000000000E+00 -0.43369251885E+03  0.43369251885E+03  0.00000000000E+00 0. -1.
         21    1    1    2  503  504 -0.61550195838E+02  0.87586136044E+01 -0.67884414594E+02  0.92051255640E+02  0.00000000000E+00 0.  1.
         21    1    1    2  504  505 -0.59187554871E+02  0.14809001300E+03 -0.22403700821E+03  0.27500254481E+03  0.00000000000E+00 0. -1.
         21    1    1    2  505  501  0.59890967689E+02 -0.15013976428E+03 -0.38169271712E+02  0.16608964487E+03  0.00000000000E+00 0. -1.
         -2    1    1    2    0  502  0.60846783020E+02 -0.67088623236E+01  0.44931361984E+03  0.45346451770E+03  0.00000000000E+00 0.  1.
<scales pt_clust_3="54.88863" pt_clust_4="170.36815" pt_clust_5="14000.00000" pt_clust_6="61.21552"></scales>
<clustering>
<clus scale="   61.216">  1  6  2 -1</clus>
<clus scale="   54.889">  2  3  1 -1</clus>
<clus scale="  170.368">  2  4  1 -1</clus>
<clus scale="   54.889">  2  3  1 -1</clus>
</clustering>
</event>
<event>
 6    0  0.4796958E+002  0.1010022E+03  0.7546771E-02  0.1278202E+00
         21   -1    0    0  504  502  0.00000000000E+00  0.00000000000E+00  0.15311923596E+03  0.15311923596E+03  0.00000000000E+00 0.  1.
          3   -1    0    0  505    0 -0.00000000000E+00 -0.00000000000E+00 -0.24261020043E+03  0.24261020043E+03  0.00000000000E+00 0.  1.
         21    1    1    2  503  502 -0.31983813955E+02  0.78585987580E+02  0.20669066398E+02  0.87326583036E+02  0.00000000000E+00 0.  1.
         21    1    1    2  504  501 -0.24732884630E+02 -0.14081248643E+03  0.19576519934E+02  0.14430215539E+03  0.00000000000E+00 0.  1.
         21    1    1    2  505  503  0.10335935117E+02  0.48472472010E+02 -0.47259500299E+02  0.68482643538E+02  0.00000000000E+00 0. -1.
          3    1    1    2  501    0  0.46380763468E+02  0.13754026843E+02 -0.82477050498E+02  0.95618054431E+02  0.00000000000E+00 0.  1.
<scales pt_clust_3="101.00222" pt_clust_4="14000.00000" pt_clust_5="60.43679" pt_clust_6="48.37715"></scales>
<clustering>
<clus scale="   48.377">  2  6  1 -1</clus>
<clus scale="   60.437">  2  5  1 -1</clus>
<clus scale="  101.002">  1  3  2 -1</clus>
<clus scale="  101.002">  1  3  2 -1</clus>
</clustering>
</event>
<event>
 6    0  0.4796958E+002  0.3119794E+03  0.7546771E-02  0.1079401E+00
          1   -1    0    0  504    0 -0.00000000000E+00  0.00000000000E+00  0.90895511155E+03  0.90895511155E+03  0.00000000000E+00 0. -1.
         21   -1    0    0  505  502  0.00000000000E+00 -0.00000000000E+00 -0.31238996101E+04  0.31238996101E+04  0.00000000000E+00 0.  1.
         21    1    1    2  503  502  0.58310203417E+02 -0.88646335781E+02 -0.19304552067E+04  0.19333689658E+04  0.00000000000E+00 0.  1.
         21    1    1    2  504  503  0.23599009937E+03 -0.52473119721E+02 -0.10118199043E+04  0.10403000885E+04  0.00000000000E+00 0.  1.
         21    1    1    2  505  501 -0.30119935125E+03  0.96680429431E+02 -0.13853285388E+02  0.31663870286E+03  0.00000000000E+00 0.  1.
          1    1    1    2  501    0  0.68990484638E+01  0.44439026070E+02  0.74118389794E+03  0.74254696449E+03  0.00000000000E+00 0. -1.
<scales pt_clust_3="105.81458" pt_clust_4="311.97942" pt_clust_5="14000.00000" pt_clust_6="44.97137"></scales>
<clustering>
<clus scale="   44.971">  1  6  2 -1</clus>
<clus scale="  105.815">  2  3  1 -1</clus>
<clus scale="  311.979">  2  4  1 -1</clus>
<clus scale="  105.815">  2  3  1 -1</clus>
</clustering>
</event>
<event>
 6    0  0.4796958E+002  0.1527629E+03  0.7546771E-02  0.1197118E+00
         21   -1    0    0  505  502  0.00000000000E+00  0.00000000000E+00  0.22453811638E+03  0.22453811638E+03  0.00000000000E+00 0.  1.
         -4   -1    0    0    0  501 -0.00000000000E+00 -0.00000000000E+00 -0.24038418583E+04  0.24038418583E+04  0.00000000000E+00 0. -1.
         21    1    1    2  503  501 -0.19513554205E+02  0.48096997703E+02  0.49892705262E+02  0.71995708373E+02  0.00000000000E+00 0.  1.
         21    1    1    2  504  502 -0.59509261158E+01 -0.10377685444E+03 -0.81288094579E+03  0.81950014098E+03  0.00000000000E+00 0.  1.
         21    1    1    2  505  503  0.36166827426E+02  0.93664139680E+02  0.14428672707E+03  0.17578301988E+03  0.00000000000E+00 0.  1.
         -4    1    1    2    0  504 -0.10702347105E+02 -0.37984282939E+02 -0.15606022285E+04  0.15611011055E+04  0.00000000000E+00 0. -1.
<scales pt_clust_3="41.38625" pt_clust_4="141.49707" pt_clust_5="41.38625" pt_clust_6="39.46322"></scales>
<clustering>
<clus scale="   39.463">  2  6  1 -1</clus>
<clus scale="   41.386">  3  5 -1 -1</clus>
<clus scale="  141.497">  2  4  1 -1</clus>
<clus scale="  152.763">  1  3  2 -1</clus>
</clustering>
</event>
<event>
 6    0  0.4796958E+002  0.1259896E+03  0.7546771E-02  0.1233531E+00
         21   -1    0    0  503  502  0.00000000000E+00  0.00000000000E+00  0.79307380800E+03  0.79307380800E+03  0.00000000000E+00 0.  1.
          1   -1    0    0  504    0 -0.00000000000E+00 -0.00000000000E+00 -0.97881728048E+02  0.97881728048E+02  0.00000000000E+00 0.  1.
         21    1    1    2  503  501  0.82500215636E+02 -0.38743002902E+00  0.32885793102E+03  0.33904863143E+03  0.00000000000E+00 0.  1.
         21    1    1    2  504  505 -0.18094016096E+03  0.20113946246E+02  0.30582801285E+03  0.35591387459E+03  0.00000000000E+00 0.  1.
         21    1    1    2  505  502  0.39570343180E+00  0.47676384511E+02  0.60482075629E+02  0.77014775814E+02  0.00000000000E+00 0.  1.
          1    1    1    2  501    0  0.98044241896E+02 -0.67402900728E+02  0.24060452436E-01  0.11897825421E+03  0.00000000000E+00 0.  1.
<scales pt_clust_3="85.45596" pt_clust_4="14000.00000" pt_clust_5="47.67803" pt_clust_6="125.98955"></scales>
<clustering>
<clus scale="   47.678">  1  5  2 -1</clus>
<clus scale="   85.456">  1  3  2 -1</clus>
<clus scale="  125.990">  2  6  1 -1</clus>
<clus scale="   47.678">  1  3  2 -1</clus>
</clustering>
</event>
<event>
 6    0  0.4796958E+002  0.1319030E+03  0.7546771E-02  0.1224659E+00
          1   -1    0    0  504    0 -0.00000000000E+00  0.00000000000E+00  0.16787978586E+04  0.16787978586E+04  0.00000000000E+00 0.  1.
         21   -1    0    0  505  502  0.00000000000E+00 -0.00000000000E+00 -0.25722827927E+03  0.25722827927E+03  0.00000000000E+00 0. -1.
         21    1    1    2  503  502  0.94894923182E+02  0.18288238047E+02  0.30649566787E+02  0.10138492018E+03  0.00000000000E+00 0.  1.
         21    1    1    2  504  503 -0.14203629704E+03 -0.22135518287E+02  0.94919143241E+03  0.96001493020E+03  0.00000000000E+00 0.  1.
         21    1    1    2  505  501  0.39429848153E+02 -0.68515196395E+02 -0.20712863481E+03  0.22170096170E+03  0.00000000000E+00 0. -1.
          1    1    1    2  501    0  0.77115257071E+01  0.72362476635E+02  0.64885721494E+03  0.65292532577E+03  0.00000000000E+00 0.  1.
<scales pt_clust_3="131.90295" pt_clust_4="14000.00000" pt_clust_5="78.63418" pt_clust_6="72.77222"></scales>
<clustering>
<clus scale="   72.772">  1  6  2 -1</clus>
<clus scale="   78.634">  2  5  1 -1</clus>
<clus scale="  131.903">  2  3  1 -1</clus>
<clus scale="   78.634">  2  3  1 -1</clus>
</clustering>
</event>
<event>
 6    0  0.4796958E+002  0.1819322E+03  0.7546771E-02  0.1165946E+00
          2   -1    0    0  502    0 -0.00000000000E+00  0.00000000000E+00  0.30580483201E+04  0.30580483201E+04  0.00000000000E+00 0.  1.
         21   -1    0    0  504  502  0.00000000000E+00 -0.00000000000E+00 -0.27377824648E+03  0.27377824648E+03  0.00000000000E+00 0. -1.
         21    1    1    2  503  501 -0.10785305914E+03  0.10538885096E+03  0.17641704340E+04  0.17706034035E+04  0.00000000000E+00 0.  1.
         21    1    1    2  504  505  0.40541078693E+02  0.43339842998E+02  0.34511771496E+01  0.59446040040E+02  0.00000000000E+00 0.  1.
         21    1    1    2  505  503  0.83861936893E+02 -0.17767495680E+03 -0.20251445762E+03  0.28215832485E+03  0.00000000000E+00 0. -1.
          2    1    1    2  501    0 -0.16549956446E+02  0.28946262840E+02  0.12191629201E+04  0.12196187983E+04  0.00000000000E+00 0.  1.
<scales pt_clust_3="181.93216" pt_clust_4="59.51646" pt_clust_5="14000.00000" pt_clust_6="33.34347"></scales>
<clustering>
<clus scale="   33.343">  1  6  2 -1</clus>
<clus scale="   59.516">  2  4  1 -1</clus>
<clus scale="  181.932">  1  3  2 -1</clus>
<clus scale="   59.516">  2  3  1 -1</clus>
</clustering>
</event>
<event>
 6    0  0.4796958E+002  0.1144021E+03  0.7546771E-02  0.1252628E+00
         21   -1    0    0  503  502  0.00000000000E+00  0.00000000000E+00  0.12276651077E+03  0.12276651077E+03  0.00000000000E+00 0. -1.
          2   -1    0    0  504    0 -0.00000000000E+00 -0.00000000000E+00 -0.49345190922E+03  0.49345190922E+03  0.00000000000E+00 0. -1.
         21    1    1    2  503  505 -0.46563426940E+02  0.88638261747E+02 -0.87893660506E+02  0.13322983799E+03  0.00000000000E+00 0.  1.
         21    1    1    2  504  502  0.11033645641E+03 -0.58816304541E+02  0.49955352074E+02  0.13464408079E+03  0.00000000000E+00 0. -1.
         21    1    1    2  505  501 -0.30640926232E+02 -0.29297151725E+02 -0.59288751098E+02  0.72885838586E+02  0.00000000000E+00 0.  1.
          2    1    1    2  501    0 -0.33132103235E+02 -0.52480548209E+00 -0.27345833892E+03  0.27545866262E+03  0.00000000000E+00 0. -1.
<scales pt_clust_3="14000.00000" pt_clust_4="114.40210" pt_clust_5="50.19156" pt_clust_6="33.13626"></scales>
<clustering>
<clus scale="   33.136">  2  6  1 -1</clus>
<clus scale="   50.192">  2  5  1 -1</clus>
<clus scale="  114.402">  1  4  2 -1</clus>
<clus scale="  114.402">  1  3  2 -1</clus>
</clustering>
</event>
<event>
 6    0  0.4796958E+002  0.8996766E+02  0.7546771E-02  0.1302930E+00
         21   -1    0    0  503  502  0.00000000000E+00  0.00000000000E+00  0.54498808745E+03  0.54498808745E+03  0.00000000000E+00 0.  1.
         -2   -1    0    0    0  501 -0.00000000000E+00 -0.00000000000E+00 -0.14828151446E+03  0.14828151446E+03  0.00000000000E+00 0.  1.
         21    1    1    2  503  504  0.59406394810E+02 -0.17932465308E+02  0.69957714964E+02  0.93513501375E+02  0.00000000000E+00 0.  1.
         21    1    1    2  504  505 -0.46246643084E+02  0.57027171686E+02  0.34853501806E+03  0.35618465593E+03  0.00000000000E+00 0.  1.
         21    1    1    2  505  501 -0.44817602807E+02  0.20203176332E+02  0.96056179678E+02  0.10790540074E+03  0.00000000000E+00 0.  1.
         -2    1    1    2    0  502  0.31657851082E+02 -0.59297882709E+02 -0.11784233971E+03  0.13566604386E+03  0.00000000000E+00 0.  1.
<scales pt_clust_3="62.05395" pt_clust_4="48.13905" pt_clust_5="48.13905" pt_clust_6="68.06729"></scales>
<clustering>
<clus scale="   48.139">  4  5 -1 -1</clus>
<clus scale="   62.054">  1  3  2 -1</clus>
<clus scale="   68.067">  2  6  1 -1</clus>
<clus scale="   62.054">  1  3  2 -1</clus>
</clustering>
</event>
<event>
 6    0  0.4796958E+002  0.6855515E+02  0.7546771E-02  0.1365076E+00
         21   -1    0    0  505  502  0.00000000000E+00  0.00000000000E+00  0.10939907424E+03  0.10939907424E+03  0.00000000000E+00 0. -1.
         -1   -1    0    0    0  501 -0.00000000000E+00 -0.00000000000E+00 -0.38980099231E+03  0.38980099231E+03  0.00000000000E+00 0.  1.
         21    1    1    2  503  501  0.83045962012E+02 -0.17162357807E+02 -0.11513144887E+03  0.14299100968E+03  0.00000000000E+00 0.  1.
         21    1    1    2  504  502 -0.95164295118E+02  0.25929248153E+02  0.21998016473E+02  0.10105682413E+03  0.00000000000E+00 0. -1.
         21    1    1    2  505  503  0.44582367632E+02 -0.52654464115E+01  0.17213773315E+02  0.48079376258E+02  0.00000000000E+00 0.  1.
         -1    1    1    2    0  504 -0.32464034526E+02 -0.35014439348E+01 -0.20448225899E+03  0.20707285648E+03  0.00000000000E+00 0.  1.
<scales pt_clust_3="68.55515" pt_clust_4="14000.00000" pt_clust_5="42.22735" pt_clust_6="32.65231"></scales>
<clustering>
<clus scale="   32.652">  2  6  1 -1</clus>
<clus scale="   42.227">  1  5  2 -1</clus>
<clus scale="   68.555">  2  3  1 -1</clus>
<clus scale="   42.227">  1  3  2 -1</clus>
</clustering>
</event>
<event>
 6    0  0.4796958E+002  0.9523877E+02  0.7546771E-02  0.1290639E+00
          2   -1    0    0  505    0 -0.00000000000E+00  0.00000000000E+00  0.67180570259E+03  0.67180570259E+03  0.00000000000E+00 0. -1.
         21   -1    0    0  501  502  0.00000000000E+00 -0.00000000000E+00 -0.24784840198E+03  0.24784840198E+03  0.00000000000E+00 0.  1.
         21    1    1    2  503  502  0.34317138535E+02 -0.82176628797E+02 -0.14584705784E+03  0.17088601054E+03  0.00000000000E+00 0.  1.
         21    1    1    2  504  503 -0.85961016486E+02  0.10120285098E+03 -0.65693044357E+00  0.13278458103E+03  0.00000000000E+00 0.  1.
         21    1    1    2  505  504  0.11731626373E+03 -0.71208855020E-01  0.15216230298E+03  0.19213661092E+03  0.00000000000E+00 0.  1.
          2    1    1    2  501    0 -0.65672385781E+02 -0.18955013324E+02  0.41829898592E+03  0.42384690208E+03  0.00000000000E+00 0. -1.
<scales pt_clust_3="95.23877" pt_clust_4="14000.00000" pt_clust_5="73.40235" pt_clust_6="68.35316"></scales>
<clustering>
<clus scale="   68.353">  1  6  2 -1</clus>
<clus scale="   73.402">  1  5  2 -1</clus>
<clus scale="   95.239">  2  3  1 -1</clus>
<clus scale="   95.239">  2  3  1 -1</clus>
</clustering>
</event>
<event>
 6    0  0.4796958E+002  0.1157303E+03  0.7546771E-02  0.1250312E+00
          2   -1    0    0  505    0 -0.00000000000E+00  0.00000000000E+00  0.19796486953E+04  0.19796486953E+04  0.00000000000E+00 0. -1.
         21   -1    0    0  504  502  0.00000000000E+00 -0.00000000000E+00 -0.57318173405E+02  0.57318173405E+02  0.00000000000E+00 0. -1.
         21    1    1    2  503  502 -0.34291310416E+02  0.15347493745E+02  0.29596340841E+01  0.37685527304E+02  0.00000000000E+00 0.  1.
         21    1    1    2  504  501 -0.15267977254E+02 -0.56092672563E+02  0.14806145637E+03  0.15906506187E+03  0.00000000000E+00 0. -1.
         21    1    1    2  505  503 -0.17414604302E+02 -0.57982882527E+02 -0.42151816219E+01  0.60688144354E+02  0.00000000000E+00 0. -1.
          2    1    1    2  501    0  0.66973891972E+02  0.98728061345E+02  0.17755246131E+04  0.17795281352E+04  0.00000000000E+00 0. -1.
<scales pt_clust_3="37.56913" pt_clust_4="57.56182" pt_clust_5="14000.00000" pt_clust_6="115.73027"></scales>
<clustering>
<clus scale="   37.569">  2  3  1 -1</clus>
<clus scale="   57.562">  2  4  1 -1</clus>
<clus scale="  115.730">  1  6  2 -1</clus>
<clus scale="   37.569">  2  3  1 -1</clus>
</clustering>
</event>
<event>
 6    0  0.4796958E+002  0.8143843E+02  0.7546771E-02  0.1325018E+00
          2   -1    0    0  503    0 -0.00000000000E+00  0.00000000000E+00  0.16286660255E+04  0.16286660255E+04  0.00000000000E+00 0. -1.
         21   -1    0    0  505  502  0.00000000000E+00 -0.00000000000E+00 -0.53376842742E+03  0.53376842742E+03  0.00000000000E+00 0.  1.
         21    1    1    2  503  504  0.57417591818E+02 -0.93291818934E+02  0.52538135582E+02  0.12149238256E+03  0.00000000000E+00 0. -1.
         21    1    1    2  504  502  0.40777563839E+01  0.39810548383E+02 -0.49574862848E+03  0.49736124748E+03  0.00000000000E+00 0.  1.
         21    1    1    2  505  501 -0.27992707397E+02  0.63608594894E+02  0.49162684827E+03  0.49651445392E+03  0.00000000000E+00 0.  1.
          2    1    1    2  501    0 -0.33502640805E+02 -0.10127324343E+02  0.10464812427E+04  0.10470663689E+04  0.00000000000E+00 0. -1.
<scales pt_clust_3="81.43843" pt_clust_4="40.00018" pt_clust_5="14000.00000" pt_clust_6="34.99985"></scales>
<clustering>
<clus scale="   35.000">  1  6  2 -1</clus>
<clus scale="   40.000">  2  4  1 -1</clus>
<clus scale="   81.438">  2  3  1 -1</clus>
<clus scale="   40.000">  2  3  1 -1</clus>
</clustering>
</event>
<event>
 6    0  0.4796958E+002  0.9216648E+02  0.7546771E-02  0.1297688E+00
          2   -1    0    0  503    0 -0.00000000000E+00  0.00000000000E+00  0.17222747881E+04  0.17222747881E+04  0.00000000000E+00 0. -1.
         21   -1    0    0  505  502  0.00000000000E+00 -0.00000000000E+00 -0.15330622253E+03  0.15330622253E+03  0.00000000000E+00 0.  1.
         21    1    1    2  503  502  0.23857819780E+02  0.24418896288E+02 -0.87463375184E+02  0.93889935878E+02  0.00000000000E+00 0.  1.
         21    1    1    2  504  501 -0.11878446242E+03 -0.51088329905E+02  0.17848441896E+03  0.22040066646E+03  0.00000000000E+00 0.  1.
         21    1    1    2  505  504  0.66725853305E+02  0.28947918816E+01 -0.14535199238E+02  0.68351966587E+02  0.00000000000E+00 0.  1.
          2    1    1    2  501    0  0.28200789335E+02  0.23774641734E+02  0.14924827210E+04  0.14929384417E+04  0.00000000000E+00 0. -1.
<scales pt_clust_3="34.13910" pt_clust_4="14000.00000" pt_clust_5="92.16648" pt_clust_6="37.00883"></scales>
<clustering>
<clus scale="   34.139">  2  3  1 -1</clus>
<clus scale="   37.009">  1  6  2 -1</clus>
<clus scale="   92.166">  2  5  1 -1</clus>
<clus scale="   34.139">  2  3  1 -1</clus>
</clustering>
</event>
<event>
 6    0  0.4796958E+002  0.8478262E+02  0.7546771E-02  0.1316002E+00
          1   -1    0    0  505    0 -0.00000000000E+00  0.00000000000E+00  0.11114136709E+04  0.11114136709E+04  0.00000000000E+00 0. -1.
         21   -1    0    0  504  502  0.00000000000E+00 -0.00000000000E+00 -0.35584110569E+02  0.35584110569E+02  0.00000000000E+00 0. -1.
         21    1    1    2  503  502  0.19410262467E+02  0.36287742943E+02  0.65620928121E+02  0.77457503087E+02  0.00000000000E+00 0.  1.
         21    1    1    2  504  501  0.42927992019E+02 -0.28337452197E+02  0.42170850576E+02  0.66514692618E+02  0.00000000000E+00 0. -1.
         21    1    1    2  505  503 -0.86545379060E+02 -0.85415489041E+02  0.22664597681E+03  0.25720479624E+03  0.00000000000E+00 0. -1.
          1    1    1    2  501    0  0.24207124574E+02  0.77465198295E+02  0.74139180486E+03  0.74582078956E+03  0.00000000000E+00 0. -1.
<scales pt_clust_3="41.15287" pt_clust_4="52.63899" pt_clust_5="14000.00000" pt_clust_6="84.78262"></scales>
<clustering>
<clus scale="   41.153">  2  3  1 -1</clus>
<clus scale="   52.639">  2  4  1 -1</clus>
<clus scale="   84.783">  1  6  2 -1</clus>
<clus scale="   41.153">  2  3  1 -1</clus>
</clustering>
</event>
<event>
 6    0  0.4796958E+002  0.1231399E+03  0.7546771E-02  0.1238005E+00
         21   -1    0    0  504  502  0.00000000000E+00  0.00000000000E+00  0.10707655060E+03  0.10707655060E+03  0.00000000000E+00 0.  1.
          2   -1    0    0  503    0 -0.00000000000E+00 -0.00000000000E+00 -0.19643562709E+04  0.19643562709E+04  0.00000000000E+00 0.  1.
         21    1    1    2  503  502 -0.24400363916E+02 -0.32776812290E+02  0.15059806931E+02  0.43548765401E+02  0.00000000000E+00 0.  1.
         21    1    1    2  504  505  0.95812189521E+02  0.42777694775E+02  0.18587271018E+01  0.10494456488E+03  0.00000000000E+00 0.  1.
         21    1    1    2  505  501 -0.14610067866E+02 -0.12152987567E+03 -0.14734098935E+03  0.19155242600E+03  0.00000000000E+00 0.  1.
          2    1    1    2  501    0 -0.56801757739E+02  0.11152899318E+03 -0.17268572650E+04  0.17313870652E+04  0.00000000000E+00 0.  1.
<scales pt_clust_3="40.86193" pt_clust_4="81.61554" pt_clust_5="123.13988" pt_clust_6="14000.00000"></scales>
<clustering>
<clus scale="   40.862">  1  3  2 -1</clus>
<clus scale="   81.616">  1  4  2 -1</clus>
<clus scale="  123.140">  1  5  2 -1</clus>
<clus scale="   40.862">  1  3  2 -1</clus>
</clustering>
</event>
<event>
 6    0  0.4796958E+002  0.1375355E+03  0.7546771E-02  0.1216684E+00
          2   -1    0    0  504    0 -0.00000000000E+00  0.00000000000E+00  0.23252000433E+04  0.23252000433E+04  0.00000000000E+00 0. -1.
         21   -1    0    0  505  502  0.00000000000E+00 -0.00000000000E+00 -0.32942031207E+03  0.32942031207E+03  0.00000000000E+00 0. -1.
         21    1    1    2  503  502  0.25073600668E+02  0.58060196695E+02 -0.98329449464E+02  0.11691172962E+03  0.00000000000E+00 0. -1.
         21    1    1    2  504  503 -0.15060317768E+03 -0.10664873359E+03 -0.16329031326E+03  0.24641224789E+03  0.00000000000E+00 0. -1.
         21    1    1    2  505  501  0.65063699567E+02  0.16400375315E+03  0.52199656607E+03  0.55100901176E+03  0.00000000000E+00 0. -1.
          2    1    1    2  501    0  0.60465877450E+02 -0.11541521626E+03  0.17354029279E+04  0.17402873661E+04  0.00000000000E+00 0. -1.
<scales pt_clust_3="63.24296" pt_clust_4="14000.00000" pt_clust_5="137.53554" pt_clust_6="129.85799"></scales>
<clustering>
<clus scale="   63.243">  2  3  1 -1</clus>
<clus scale="  129.858">  1  6  2 -1</clus>
<clus scale="  137.536">  1  5  2 -1</clus>
<clus scale="   63.243">  2  3  1 -1</clus>
</clustering>
</event>
<event>
 6    0  0.4796958E+002  0.2028440E+03  0.7546771E-02  0.1147362E+00
          2   -1    0    0  504    0 -0.00000000000E+00  0.00000000000E+00  0.26053813338E+04  0.26053813338E+04  0.00000000000E+00 0. -1.
         21   -1    0    0  505  502  0.00000000000E+00 -0.00000000000E+00 -0.11393747774E+04  0.11393747774E+04  0.00000000000E+00 0. -1.
         21    1    1    2  503  501  0.22330302581E+03  0.21923114699E+02 -0.24568131015E+03  0.33272236241E+03  0.00000000000E+00 0. -1.
         21    1    1    2  504  502 -0.20500403136E+03  0.82650203553E+02 -0.51477732796E+02  0.22695300394E+03  0.00000000000E+00 0. -1.
         21    1    1    2  505  503 -0.59742641176E+02 -0.11707898622E+03 -0.70469098551E+03  0.71684451400E+03  0.00000000000E+00 0. -1.
          2    1    1    2  501    0  0.41443646730E+02  0.12505667965E+02  0.24678565849E+04  0.24682362308E+04  0.00000000000E+00 0. -1.
<scales pt_clust_3="14000.00000" pt_clust_4="202.84396" pt_clust_5="130.12171" pt_clust_6="43.28935"></scales>
<clustering>
<clus scale="   43.289">  1  6  2 -1</clus>
<clus scale="  130.122">  2  5  1 -1</clus>
<clus scale="  202.844">  1  4  2 -1</clus>
<clus scale="  130.122">  2  3  1 -1</clus>
</clustering>
</event>
<event>
 6    0  0.4796958E+002  0.9370147E+02  0.7546771E-02  0.1294128E+00
         21   -1    0    0  505  502  0.00000000000E+00  0.00000000000E+00  0.95781483593E+02  0.95781483593E+02  0.00000000000E+00 0. -1.
          2   -1    0    0  504    0 -0.00000000000E+00 -0.00000000000E+00 -0.15426359621E+04  0.15426359621E+04  0.00000000000E+00 0. -1.
         21    1    1    2  503  501 -0.86496554616E+02 -0.71500205030E+02 -0.44873835243E+02  0.12086188137E+03  0.00000000000E+00 0. -1.
         21    1    1    2  504  502  0.75063127300E+02  0.23718550511E+02 -0.68582839764E+02  0.10440617141E+03  0.00000000000E+00 0. -1.
         21    1    1    2  505  503 -0.22259273050E+02  0.48178051995E+02  0.21914600733E+02  0.57418199694E+02  0.00000000000E+00 0. -1.
          2    1    1    2  501    0  0.33692700366E+02 -0.39639747540E+00 -0.13553124043E+04  0.13557311933E+04  0.00000000000E+00 0. -1.
<scales pt_clust_3="93.70147" pt_clust_4="14000.00000" pt_clust_5="51.77734" pt_clust_6="33.69503"></scales>
<clustering>
<clus scale="   33.695">  2  6  1 -1</clus>
<clus scale="   51.777">  1  5  2 -1</clus>
<clus scale="   93.701">  1  3  2 -1</clus>
<clus scale="   51.777">  1  3  2 -1</clus>
</clustering>
</event>
<event>
 6    0  0.6100618E+002  0.1478246E+03  0.7546771E-02  0.1203172E+00
         21   -1    0    0  505  502  0.00000000000E+00  0.00000000000E+00  0.12255751372E+04  0.12255751372E+04  0.00000000000E+00 0.  1.
          2   -1    0    0  503    0 -0.00000000000E+00 -0.00000000000E+00 -0.59773560733E+03  0.59773560733E+03  0.00000000000E+00 0.  1.
         21    1    1    2  503  504 -0.81697999865E+02 -0.71930669877E+02 -0.60832191753E+02  0.12469619082E+03  0.00000000000E+00 0. -1.
         21    1    1    2  504  502  0.37020045778E+02  0.10592650678E+01  0.10424551624E+03  0.11062880948E+03  0.00000000000E+00 0.  1.
         21    1    1    2  505  501  0.73492106305E+02  0.10383954907E+03  0.10815155124E+04  0.10889717835E+04  0.00000000000E+00 0.  1.
          2    1    1    2  501    0 -0.28814152218E+02 -0.32968144260E+02 -0.49708930701E+03  0.49901396077E+03  0.00000000000E+00 0.  1.
<scales pt_clust_3="14000.00000" pt_clust_4="37.03520" pt_clust_5="147.82464" pt_clust_6="43.76367"></scales>
<clustering>
<clus scale="   37.035">  1  4  2 -1</clus>
<clus scale="   43.764">  2  6  1 -1</clus>
<clus scale="  147.825">  1  5  2 -1</clus>
<clus scale="   37.035">  1  3  2 -1</clus>
</clustering>
</event>
<event>
 6    0  0.4796958E+002  0.1668225E+03  0.7546771E-02  0.1181203E+00
         21   -1    0    0  505  502  0.00000000000E+00  0.00000000000E+00  0.40765496462E+03  0.40765496462E+03  0.00000000000E+00 0.  1.
          1   -1    0    0  503    0 -0.00000000000E+00 -0.00000000000E+00 -0.91619320155E+03  0.91619320155E+03  0.00000000000E+00 0.  1.
         21    1    1    2  503  504  0.77475054147E+02 -0.52412176589E+02 -0.11477311963E+03  0.14806177515E+03  0.00000000000E+00 0.  1.
         21    1    1    2  504  502 -0.15691266781E+03 -0.15085266374E+02  0.62525105524E+02  0.16958342903E+03  0.00000000000E+00 0.  1.
         21    1    1    2  505  501 -0.16157242816E+02  0.60057332263E+02  0.26824009558E+03  0.27535556746E+03  0.00000000000E+00 0.  1.
          1    1    1    2  501    0  0.95594856478E+02  0.74401107000E+01 -0.72453031840E+03  0.73084739454E+03  0.00000000000E+00 0.  1.
<scales pt_clust_3="87.91744" pt_clust_4="14000.00000" pt_clust_5="62.19276" pt_clust_6="166.82253"></scales>
<clustering>
<clus scale="   62.193">  1  5  2 -1</clus>
<clus scale="   87.917">  2  3  1 -1</clus>
<clus scale="  166.823">  2  6  1 -1</clus>
<clus scale="   62.193">  1  3  2 -1</clus>
</clustering>
</event>
<event>
 6    0  0.4796958E+002  0.8586470E+02  0.7546771E-02  0.1313187E+00
         -4   -1    0    0    0  501 -0.00000000000E+00  0.00000000000E+00  0.51924708624E+03  0.51924708624E+03  0.00000000000E+00 0. -1.
         21   -1    0    0  504  502  0.00000000000E+00 -0.00000000000E+00 -0.25987948647E+03  0.25987948647E+03  0.00000000000E+00 0. -1.
         21    1    1    2  503  505 -0.12947057042E+03  0.10458649018E+03 -0.87593568595E+02  0.18807869574E+03  0.00000000000E+00 0. -1.
         21    1    1    2  504  501  0.67799645617E+02  0.10545965877E+02  0.89431571680E+01  0.69195298989E+02  0.00000000000E+00 0.  1.
         21    1    1    2  505  502  0.66115530404E+01 -0.52332928904E+02 -0.79861064949E+02  0.95709131101E+02  0.00000000000E+00 0.  1.
         -4    1    1    2    0  503  0.55059371767E+02 -0.62799527151E+02  0.41787907615E+03  0.42614344688E+03  0.00000000000E+00 0. -1.
<scales pt_clust_3="14000.00000" pt_clust_4="68.97094" pt_clust_5="52.74892" pt_clust_6="85.86470"></scales>
<clustering>
<clus scale="   52.749">  2  5  1 -1</clus>
<clus scale="   68.971">  2  4  1 -1</clus>
<clus scale="   85.865">  1  6  2 -1</clus>
<clus scale="   52.749">  2  3  1 -1</clus>
</clustering>
</event>
<event>
 6    0  0.4796958E+002  0.1070616E+03  0.7546771E-02  0.1266110E+00
          2   -1    0    0  503    0 -0.00000000000E+00  0.00000000000E+00  0.44369205765E+04  0.44369205765E+04  0.00000000000E+00 0.  1.
         21   -1    0    0  505  502  0.00000000000E+00 -0.00000000000E+00 -0.36235926425E+02  0.36235926425E+02  0.00000000000E+00 0. -1.
         21    1    1    2  503  504 -0.55716055430E+02 -0.13202175366E+03  0.91913875513E+03  0.93024194350E+03  0.00000000000E+00 0. -1.
         21    1    1    2  504  502  0.34089763372E+02 -0.22151648304E+02  0.72869941927E+02  0.83443609257E+02  0.00000000000E+00 0. -1.
         21    1    1    2  505  501  0.12944566465E+02  0.10939203826E+03  0.94944956348E+02  0.14542601064E+03  0.00000000000E+00 0. -1.
          2    1    1    2  501    0  0.86817255935E+01  0.44781363702E+02  0.33137309967E+04  0.33140449396E+04  0.00000000000E+00 0.  1.
<scales pt_clust_3="107.06165" pt_clust_4="40.65474" pt_clust_5="14000.00000" pt_clust_6="45.53817"></scales>
<clustering>
<clus scale="   40.655">  2  4  1 -1</clus>
<clus scale="   45.538">  1  6  2 -1</clus>
<clus scale="  107.062">  1  3  2 -1</clus>
<clus scale="   40.655">  2  3  1 -1</clus>
</clustering>
</event>
<event>
 6    0  0.4796958E+002  0.1169065E+03  0.7546771E-02  0.1248289E+00
         -2   -1    0    0    0  501 -0.00000000000E+00  0.00000000000E+00  0.18690613845E+03  0.18690613845E+03  0.00000000000E+00 0. -1.
         21   -1    0    0  504  502  0.00000000000E+00 -0.00000000000E+00 -0.37803592497E+03  0.37803592497E+03  0.00000000000E+00 0. -1.
         21    1    1    2  503  502  0.25484387668E+02  0.41688055272E+02 -0.12943906681E+03  0.13835396627E+03  0.00000000000E+00 0. -1.
         21    1    1    2  504  505 -0.42725831898E+02  0.11196654553E+03 -0.14523335206E+03  0.18829426592E+03  0.00000000000E+00 0. -1.
         21    1    1    2  505  501 -0.35290131708E+02 -0.10222178334E+03 -0.21323573911E+02  0.11022423141E+03  0.00000000000E+00 0.  1.
         -2    1    1    2    0  503  0.52531575937E+02 -0.51432817468E+02  0.10486620626E+03  0.12806959982E+03  0.00000000000E+00 0. -1.
<scales pt_clust_3="48.86049" pt_clust_4="116.90654" pt_clust_5="14000.00000" pt_clust_6="73.03250"></scales>
<clustering>
<clus scale="   48.860">  2  3  1 -1</clus>
<clus scale="   73.032">  1  6  2 -1</clus>
<clus scale="  116.907">  2  4  1 -1</clus>
<clus scale="   48.860">  2  3  1 -1</clus>
</clustering>
</event>
<event>
 6    0  0.4796958E+002  0.1032700E+03  0.7546771E-02  0.1273566E+00
          2   -1    0    0  504    0 -0.00000000000E+00  0.00000000000E+00  0.37667416560E+04  0.37667416560E+04  0.00000000000E+00 0. -1.
         21   -1    0    0  505  502  0.00000000000E+00 -0.00000000000E+00 -0.61461055940E+02  0.61461055940E+02  0.00000000000E+00 0. -1.
         21    1    1    2  503  502 -0.18182983027E+02  0.34079405405E+02 -0.39318974903E+02  0.55118132515E+02  0.00000000000E+00 0. -1.
         21    1    1    2  504  503  0.65198898042E+01 -0.19727563530E+03  0.91206214935E+03  0.93317605494E+03  0.00000000000E+00 0. -1.
         21    1    1    2  505  501 -0.58052233835E+01  0.69636031768E+02  0.44308057879E+03  0.44855688250E+03  0.00000000000E+00 0. -1.
          2    1    1    2  501    0  0.17468316606E+02  0.93560198130E+02  0.23894568468E+04  0.23913516420E+04  0.00000000000E+00 0. -1.
<scales pt_clust_3="38.62676" pt_clust_4="103.27005" pt_clust_5="76.75350" pt_clust_6="14000.00000"></scales>
<clustering>
<clus scale="   38.627">  2  3  1 -1</clus>
<clus scale="   76.753">  2  5  1 -1</clus>
<clus scale="  103.270">  2  4  1 -1</clus>
<clus scale="   38.627">  2  3  1 -1</clus>
</clustering>
</event>
<event>
 6    0  0.4796958E+002  0.1741475E+03  0.7546771E-02  0.1173590E+00
         21   -1    0    0  505  502  0.00000000000E+00  0.00000000000E+00  0.22706930286E+03  0.22706930286E+03  0.00000000000E+00 0.  1.
          1   -1    0    0  503    0 -0.00000000000E+00 -0.00000000000E+00 -0.27789952495E+03  0.27789952495E+03  0.00000000000E+00 0. -1.
         21    1    1    2  503  504 -0.22523909435E+02  0.23261025609E+02  0.30690172858E+02  0.44612649761E+02  0.00000000000E+00 0.  1.
         21    1    1    2  504  502  0.25430259453E+02  0.16493779395E+03  0.90065840384E+02  0.18963920895E+03  0.00000000000E+00 0.  1.
         21    1    1    2  505  501 -0.11118520329E+02 -0.33489756307E+02  0.51814805372E+01  0.35665571808E+02  0.00000000000E+00 0.  1.
          1    1    1    2  501    0  0.82121703106E+01 -0.15470906325E+03 -0.17676771587E+03  0.23505139728E+03  0.00000000000E+00 0. -1.
<scales pt_clust_3="30.72190" pt_clust_4="30.72190" pt_clust_5="35.28718" pt_clust_6="159.57028"></scales>
<clustering>
<clus scale="   30.722">  3  4 -1 -1</clus>
<clus scale="   35.287">  1  5  2 -1</clus>
<clus scale="  159.570">  2  6  1 -1</clus>
<clus scale="   35.287">  1  3  2 -1</clus>
</clustering>
</event>
<event>
 6    0  0.4796958E+002  0.1307333E+03  0.7546771E-02  0.1226372E+00
         21   -1    0    0  501  502  0.00000000000E+00  0.00000000000E+00  0.92138522904E+02  0.92138522904E+02  0.00000000000E+00 0. -1.
          2   -1    0    0  503    0 -0.00000000000E+00 -0.00000000000E+00 -0.21518552510E+04  0.21518552510E+04  0.00000000000E+00 0. -1.
         21    1    1    2  503  505  0.16104613485E+02 -0.76849179215E+02 -0.46712800271E+03  0.47368103808E+03  0.00000000000E+00 0. -1.
         21    1    1    2  504  502 -0.47562193206E+02  0.25881961146E+02  0.25305148789E+02  0.59769462860E+02  0.00000000000E+00 0. -1.
         21    1    1    2  505  504 -0.18181731454E+02  0.77276777432E+02  0.11469940905E+02  0.80211191447E+02  0.00000000000E+00 0. -1.
          2    1    1    2  501    0  0.49639311175E+02 -0.26309559363E+02 -0.16293638151E+04  0.16303320815E+04  0.00000000000E+00 0. -1.
<scales pt_clust_3="117.52880" pt_clust_4="47.28626" pt_clust_5="47.28626" pt_clust_6="56.18055"></scales>
<clustering>
<clus scale="   47.286">  4  5 -1 -1</clus>
<clus scale="   56.181">  2  6  1 -1</clus>
<clus scale="  117.529">  2  3  1 -1</clus>
<clus scale="  130.733">  1  3  2 -1</clus>
</clustering>
</event>
<event>
 6    0  0.4796958E+002  0.1656505E+03  0.7546771E-02  0.1182461E+00
         21   -1    0    0  505  502  0.00000000000E+00  0.00000000000E+00  0.42817708047E+02  0.42817708047E+02  0.00000000000E+00 0. -1.
         -1   -1    0    0    0  501 -0.00000000000E+00 -0.00000000000E+00 -0.28148255643E+04  0.28148255643E+04  0.00000000000E+00 0. -1.
         21    1    1    2  503  504  0.86376339141E+02 -0.33667687189E+02 -0.12298212845E+03  0.15400970438E+03  0.00000000000E+00 0. -1.
         21    1    1    2  504  502  0.55569367597E+02 -0.32911021174E+02 -0.25792779719E+02  0.69543924360E+02  0.00000000000E+00 0. -1.
         21    1    1    2  505  501 -0.12120699785E+03  0.89300722524E+02 -0.10686928812E+04  0.10792452129E+04  0.00000000000E+00 0. -1.
         -1    1    1    2    0  503 -0.20738708889E+02 -0.22722014161E+02 -0.15545400669E+04  0.15548444307E+04  0.00000000000E+00 0. -1.
<scales pt_clust_3="47.88020" pt_clust_4="47.88020" pt_clust_5="155.49649" pt_clust_6="30.76335"></scales>
<clustering>
<clus scale="   30.763">  2  6  1 -1</clus>
<clus scale="   47.880">  3  4 -1 -1</clus>
<clus scale="  155.496">  2  5  1 -1</clus>
<clus scale="  165.651">  1  3  2 -1</clus>
</clustering>
</event>
<event>
 6    0  0.4796958E+002  0.3162998E+03  0.7546771E-02  0.1077365E+00
         21   -1    0    0  501  502  0.00000000000E+00  0.00000000000E+00  0.55778525669E+03  0.55778525669E+03  0.00000000000E+00 0.  1.
          2   -1    0    0  505    0 -0.00000000000E+00 -0.00000000000E+00 -0.14244515920E+04  0.14244515920E+04  0.00000000000E+00 0.  1.
         21    1    1    2  503  502 -0.32159320088E+02 -0.19918945339E+02  0.52112241303E+02  0.64394657741E+02  0.00000000000E+00 0.  1.
         21    1    1    2  504  503 -0.47361484423E+02 -0.75157795598E+02 -0.16833224772E+02  0.90416601917E+02  0.00000000000E+00 0.  1.
         21    1    1    2  505  504  0.26685908321E+03  0.34351271475E+03  0.33684058626E+03  0.55016028213E+03  0.00000000000E+00 0.  1.
          2    1    1    2  501    0 -0.18733827870E+03 -0.24843597381E+03 -0.12387859381E+04  0.12772653069E+04  0.00000000000E+00 0.  1.
<scales pt_clust_3="37.82838" pt_clust_4="91.34798" pt_clust_5="316.29983" pt_clust_6="14000.00000"></scales>
<clustering>
<clus scale="   37.828">  1  3  2 -1</clus>
<clus scale="   91.348">  1  4  2 -1</clus>
<clus scale="  316.300">  1  5  2 -1</clus>
<clus scale="   37.828">  1  3  2 -1</clus>
</clustering>
</event>
<event>
 6    0  0.4796958E+002  0.1513040E+03  0.7546771E-02  0.1198880E+00
          1   -1    0    0  505    0 -0.00000000000E+00  0.00000000000E+00  0.11867430131E+04  0.11867430131E+04  0.00000000000E+00 0. -1.
         21   -1    0    0  503  502  0.00000000000E+00 -0.00000000000E+00 -0.79946915593E+03  0.79946915593E+03  0.00000000000E+00 0. -1.
         21    1    1    2  503  501 -0.90925465779E+02  0.14953525500E+03 -0.48544502108E+03  0.51602819817E+03  0.00000000000E+00 0. -1.
         21    1    1    2  504  502 -0.98486861542E+01 -0.29976976702E+02 -0.28061765990E+03  0.28238605986E+03  0.00000000000E+00 0. -1.
         21    1    1    2  505  504  0.98837457244E+02 -0.19792871113E+02  0.15762874456E+03  0.18710270392E+03  0.00000000000E+00 0. -1.
          1    1    1    2  501    0  0.19366946891E+01 -0.99765407187E+02  0.99570779364E+03  0.10006952071E+04  0.00000000000E+00 0. -1.
<scales pt_clust_3="14000.00000" pt_clust_4="31.55338" pt_clust_5="151.30395" pt_clust_6="99.92759"></scales>
<clustering>
<clus scale="   31.553">  2  4  1 -1</clus>
<clus scale="   99.928">  1  6  2 -1</clus>
<clus scale="  151.304">  1  5  2 -1</clus>
<clus scale="   31.553">  2  3  1 -1</clus>
</clustering>
</event>
<event>
 6    0  0.4796958E+002  0.6741417E+02  0.7546771E-02  0.1369114E+00
          2   -1    0    0  504    0 -0.00000000000E+00  0.00000000000E+00  0.38326529196E+04  0.38326529196E+04  0.00000000000E+00 0. -1.
         21   -1    0    0  503  502  0.00000000000E+00 -0.00000000000E+00 -0.13774451590E+03  0.13774451590E+03  0.00000000000E+00 0.  1.
         21    1    1    2  503  501 -0.81223259706E+02 -0.51613816256E+02  0.32865576086E+03  0.34245556367E+03  0.00000000000E+00 0.  1.
         21    1    1    2  504  505  0.52421916170E+02  0.45382430485E+02  0.16892402146E+03  0.18260051292E+03  0.00000000000E+00 0.  1.
         21    1    1    2  505  502  0.43714647082E+02  0.50438564289E+02 -0.11484873641E+03  0.13283542974E+03  0.00000000000E+00 0.  1.
          2    1    1    2  501    0 -0.14913303545E+02 -0.44207178518E+02  0.33121773578E+04  0.33125059291E+04  0.00000000000E+00 0. -1.
<scales pt_clust_3="67.41417" pt_clust_4="56.32415" pt_clust_5="14000.00000" pt_clust_6="46.65492"></scales>
<clustering>
<clus scale="   46.655">  1  6  2 -1</clus>
<clus scale="   56.324">  1  4  2 -1</clus>
<clus scale="   67.414">  1  3  2 -1</clus>
<clus scale="   67.414">  2  3  1 -1</clus>
</clustering>
</event>
<event>
 6    0  0.4796958E+002  0.7093942E+02  0.7546771E-02  0.1356927E+00
         21   -1    0    0  504  502  0.00000000000E+00  0.00000000000E+00  0.48248374620E+03  0.48248374620E+03  0.00000000000E+00 0. -1.
          1   -1    0    0  503    0 -0.00000000000E+00 -0.00000000000E+00 -0.99944456370E+03  0.99944456370E+03  0.00000000000E+00 0.  1.
         21    1    1    2  503  505 -0.72949697175E+01 -0.59579447745E+02 -0.25542576105E+03  0.26238377728E+03  0.00000000000E+00 0.  1.
         21    1    1    2  504  501 -0.35364032736E+02  0.57061375590E+02  0.36699946000E+03  0.37308875490E+03  0.00000000000E+00 0. -1.
         21    1    1    2  505  502 -0.22812648956E+02 -0.54519453230E+02  0.98167384139E+02  0.11458456721E+03  0.00000000000E+00 0.  1.
          1    1    1    2  501    0  0.65471651410E+02  0.57037525385E+02 -0.72670190059E+03  0.73187121050E+03  0.00000000000E+00 0.  1.
<scales pt_clust_3="14000.00000" pt_clust_4="57.91002" pt_clust_5="59.09981" pt_clust_6="70.93942"></scales>
<clustering>
<clus scale="   59.100">  1  5  2 -1</clus>
<clus scale="   57.910">  1  4  2 -1</clus>
<clus scale="   70.939">  2  6  1 -1</clus>
<clus scale="   59.100">  1  3  2 -1</clus>
</clustering>
</event>
<event>
 6    0  0.4796958E+002  0.1218030E+03  0.7546771E-02  0.1240152E+00
         21   -1    0    0  503  502  0.00000000000E+00  0.00000000000E+00  0.20457040012E+04  0.20457040012E+04  0.00000000000E+00 0. -1.
          1   -1    0    0  504    0 -0.00000000000E+00 -0.00000000000E+00 -0.26271561618E+03  0.26271561618E+03  0.00000000000E+00 0. -1.
         21    1    1    2  503  501  0.65573334033E+02  0.11721219385E+02  0.67419281944E+03  0.67747561352E+03  0.00000000000E+00 0. -1.
         21    1    1    2  504  505 -0.13302835427E+03 -0.43795540770E+02  0.24944900376E+02  0.14225624938E+03  0.00000000000E+00 0. -1.
         21    1    1    2  505  502 -0.33519144176E+02 -0.30220561392E+02  0.12684480549E+04  0.12692506779E+04  0.00000000000E+00 0. -1.
          1    1    1    2  501    0  0.10097416441E+03  0.62294882776E+02 -0.18459738970E+03  0.21943707659E+03  0.00000000000E+00 0. -1.
<scales pt_clust_3="39.21956" pt_clust_4="121.80298" pt_clust_5="45.13109" pt_clust_6="14000.00000"></scales>
<clustering>
<clus scale="   45.131">  1  5  2 -1</clus>
<clus scale="   39.220">  1  3  2 -1</clus>
<clus scale="  121.803">  1  4  2 -1</clus>
<clus scale="   45.131">  1  3  2 -1</clus>
</clustering>
</event>
<event>
 6    0  0.4796958E+002  0.1180643E+03  0.7546771E-02  0.1246325E+00
          1   -1    0    0  503    0 -0.00000000000E+00  0.00000000000E+00  0.26971044912E+04  0.26971044912E+04  0.00000000000E+00 0.  1.
         21   -1    0    0  505  502  0.00000000000E+00 -0.00000000000E+00 -0.99695779960E+02  0.99695779960E+02  0.00000000000E+00 0. -1.
         21    1    1    2  503  504 -0.24644116090E+02 -0.46857281416E+02  0.55388627785E+02  0.76621389752E+02  0.00000000000E+00 0. -1.
         21    1    1    2  504  502 -0.23645616580E+02 -0.44941731950E+02  0.37256283405E+01  0.50919100156E+02  0.00000000000E+00 0.  1.
         21    1    1    2  505  501  0.11581834075E+03  0.43763695297E+02 -0.56749905036E+01  0.12394093189E+03  0.00000000000E+00 0. -1.
          1    1    1    2  501    0 -0.67528608080E+02  0.48035318069E+02  0.25439694456E+04  0.25453188493E+04  0.00000000000E+00 0.  1.
<scales pt_clust_3="43.94298" pt_clust_4="43.94298" pt_clust_5="109.20646" pt_clust_6="82.87041"></scales>
<clustering>
<clus scale="   43.943">  3  4 -1 -1</clus>
<clus scale="   82.870">  1  6  2 -1</clus>
<clus scale="  109.206">  2  5  1 -1</clus>
<clus scale="  109.206">  2  3  1 -1</clus>
</clustering>
</event>
<event>
 6    0  0.4796958E+002  0.1011107E+03  0.7546771E-02  0.1277978E+00
         21   -1    0    0  505  502  0.00000000000E+00  0.00000000000E+00  0.12840588128E+04  0.12840588128E+04  0.00000000000E+00 0. -1.
          3   -1    0    0  504    0 -0.00000000000E+00 -0.00000000000E+00 -0.25817237580E+04  0.25817237580E+04  0.00000000000E+00 0.  1.
         21    1    1    2  503  502 -0.22333816107E+02 -0.30982398059E+02  0.11104102033E+04  0.11110668422E+04  0.00000000000E+00 0. -1.
         21    1    1    2  504  503  0.95080440497E+02  0.65633359262E+01  0.14367557703E+03  0.17241240958E+03  0.00000000000E+00 0.  1.
         21    1    1    2  505  501  0.27856049446E+02  0.34909239726E+02 -0.20687431586E+02  0.49219755532E+02  0.00000000000E+00 0.  1.
          3    1    1    2  501    0 -0.10060267384E+03 -0.10490177594E+02 -0.25310632939E+04  0.25330835635E+04  0.00000000000E+00 0.  1.
<scales pt_clust_3="38.19304" pt_clust_4="101.11065" pt_clust_5="41.52144" pt_clust_6="14000.00000"></scales>
<clustering>
<clus scale="   38.193">  1  3  2 -1</clus>
<clus scale="   41.521">  1  5  2 -1</clus>
<clus scale="  101.111">  1  4  2 -1</clus>
<clus scale="   38.193">  1  3  2 -1</clus>
</clustering>
</event>
<event>
 6    0  0.4796958E+002  0.6668976E+02  0.7546771E-02  0.1371726E+00
          1   -1    0    0  503    0 -0.00000000000E+00  0.00000000000E+00  0.72218390356E+03  0.72218390356E+03  0.00000000000E+00 0. -1.
         21   -1    0    0  504  502  0.00000000000E+00 -0.00000000000E+00 -0.40280476958E+03  0.40280476958E+03  0.00000000000E+00 0. -1.
         21    1    1    2  503  502  0.28729208190E+02 -0.13236624269E+02  0.68933581030E+02  0.75844671658E+02  0.00000000000E+00 0. -1.
         21    1    1    2  504  505  0.51816574450E+02  0.36592340016E+02 -0.28607012332E+03  0.29301889392E+03  0.00000000000E+00 0. -1.
         21    1    1    2  505  501 -0.11724252263E+03 -0.26928405204E+02 -0.76136342716E+02  0.14236464028E+03  0.00000000000E+00 0. -1.
          1    1    1    2  501    0  0.36696739994E+02  0.35726894567E+01  0.61265201899E+03  0.61376046729E+03  0.00000000000E+00 0. -1.
<scales pt_clust_3="31.63188" pt_clust_4="63.51949" pt_clust_5="14000.00000" pt_clust_6="66.68976"></scales>
<clustering>
<clus scale="   31.632">  1  3  2 -1</clus>
<clus scale="   63.519">  2  4  1 -1</clus>
<clus scale="   66.690">  1  6  2 -1</clus>
<clus scale="   63.519">  2  3  1 -1</clus>
</clustering>
</event>
<event>
 6    0  0.4796958E+002  0.6692026E+02  0.7546771E-02  0.1370890E+00
         21   -1    0    0  505  502  0.00000000000E+00  0.00000000000E+00  0.10028747180E+03  0.10028747180E+03  0.00000000000E+00 0.  1.
          2   -1    0    0  504    0 -0.00000000000E+00 -0.00000000000E+00 -0.15925930358E+04  0.15925930358E+04  0.00000000000E+00 0. -1.
         21    1    1    2  503  502  0.11905128546E+02  0.36085323407E+02 -0.65490250092E+02  0.75715622616E+02  0.00000000000E+00 0. -1.
         21    1    1    2  504  503  0.31964385795E+02  0.41831966906E+02 -0.76794651948E+03  0.76974897999E+03  0.00000000000E+00 0. -1.
         21    1    1    2  505  501  0.26342872568E+02 -0.92156193464E+02  0.67685990897E+02  0.11733756556E+03  0.00000000000E+00 0.  1.
          2    1    1    2  501    0 -0.70212386909E+02  0.14238903151E+02 -0.72655478532E+03  0.73007833943E+03  0.00000000000E+00 0. -1.
<scales pt_clust_3="37.99846" pt_clust_4="52.98641" pt_clust_5="66.92026" pt_clust_6="14000.00000"></scales>
<clustering>
<clus scale="   37.998">  1  3  2 -1</clus>
<clus scale="   52.986">  2  4  1 -1</clus>
<clus scale="   66.920">  1  5  2 -1</clus>
<clus scale="   37.998">  1  3  2 -1</clus>
</clustering>
</event>
<event>
 6    0  0.4796958E+002  0.7570549E+02  0.7546771E-02  0.1341700E+00
         21   -1    0    0  503  502  0.00000000000E+00  0.00000000000E+00  0.81773518722E+03  0.81773518722E+03  0.00000000000E+00 0. -1.
          2   -1    0    0  505    0 -0.00000000000E+00 -0.00000000000E+00 -0.59097136636E+03  0.59097136636E+03  0.00000000000E+00 0. -1.
         21    1    1    2  503  504  0.69528220529E+02  0.24791511076E+01  0.32273248629E+03  0.33014629688E+03  0.00000000000E+00 0. -1.
         21    1    1    2  504  501 -0.15487965582E+02 -0.72293606183E+02  0.35249755308E+03  0.36016769358E+03  0.00000000000E+00 0. -1.
         21    1    1    2  505  502 -0.91147043484E+01  0.77967953672E+02  0.12255992346E+03  0.14554385756E+03  0.00000000000E+00 0. -1.
          2    1    1    2  501    0 -0.44925550598E+02 -0.81534985973E+01 -0.57102614197E+03  0.57284870555E+03  0.00000000000E+00 0. -1.
<scales pt_clust_3="60.78540" pt_clust_4="14000.00000" pt_clust_5="75.70549" pt_clust_6="45.65944"></scales>
<clustering>
<clus scale="   45.659">  2  6  1 -1</clus>
<clus scale="   60.785">  1  3  2 -1</clus>
<clus scale="   75.705">  2  5  1 -1</clus>
<clus scale="   60.785">  1  3  2 -1</clus>
</clustering>
</event>
<event>
 6    0  0.4796958E+002  0.1143009E+03  0.7546771E-02  0.1252806E+00
          2   -1    0    0  503    0 -0.00000000000E+00  0.00000000000E+00  0.69138347016E+03  0.69138347016E+03  0.00000000000E+00 0.  1.
         21   -1    0    0  504  502  0.00000000000E+00 -0.00000000000E+00 -0.13654880983E+04  0.13654880983E+04  0.00000000000E+00 0.  1.
         21    1    1    2  503  505 -0.71986516614E-02 -0.46539741483E+02 -0.34143057509E+02  0.57720845153E+02  0.00000000000E+00 0.  1.
         21    1    1    2  504  501 -0.60923287556E+02 -0.26121999726E+02 -0.10558806201E+02  0.67122978366E+02  0.00000000000E+00 0.  1.
         21    1    1    2  505  502  0.43601507209E+02  0.11297312873E+03 -0.12771088555E+04  0.12828371089E+04  0.00000000000E+00 0.  1.
          2    1    1    2  501    0  0.17328978999E+02 -0.40311387519E+02  0.64770609107E+03  0.64919063601E+03  0.00000000000E+00 0.  1.
<scales pt_clust_3="57.80380" pt_clust_4="14000.00000" pt_clust_5="114.30092" pt_clust_6="43.87826"></scales>
<clustering>
<clus scale="   43.878">  1  6  2 -1</clus>
<clus scale="   57.804">  1  3  2 -1</clus>
<clus scale="  114.301">  2  5  1 -1</clus>
<clus scale="  114.301">  2  3  1 -1</clus>
</clustering>
</event>
<event>
 6    0  0.4796958E+002  0.8950745E+02  0.7546771E-02  0.1304049E+00
         21   -1    0    0  501  502  0.00000000000E+00  0.00000000000E+00  0.16254497154E+03  0.16254497154E+03  0.00000000000E+00 0.  1.
          1   -1    0    0  503    0 -0.00000000000E+00 -0.00000000000E+00 -0.41750514145E+03  0.41750514145E+03  0.00000000000E+00 0. -1.
         21    1    1    2  503  505 -0.29380179192E+02  0.20078592818E+02 -0.41044424020E+02  0.54323011348E+02  0.00000000000E+00 0.  1.
         21    1    1    2  504  502  0.41787314612E+02  0.81361010451E+02  0.12486489884E+03  0.15478060811E+03  0.00000000000E+00 0.  1.
         21    1    1    2  505  504  0.34964664151E+02 -0.62322746364E+02 -0.91226610468E+02  0.11588333319E+03  0.00000000000E+00 0.  1.
          1    1    1    2  501    0 -0.47371799572E+02 -0.39116856905E+02 -0.24755403426E+03  0.25506316035E+03  0.00000000000E+00 0. -1.
<scales pt_clust_3="35.58574" pt_clust_4="89.50745" pt_clust_5="62.68855" pt_clust_6="14000.00000"></scales>
<clustering>
<clus scale="   35.586">  2  3  1 -1</clus>
<clus scale="   62.689">  2  5  1 -1</clus>
<clus scale="   89.507">  1  4  2 -1</clus>
<clus scale="   89.507">  1  3  2 -1</clus>
</clustering>
</event>
<event>
 6    0  0.4796958E+002  0.1104105E+03  0.7546771E-02  0.1259812E+00
          2   -1    0    0  505    0 -0.00000000000E+00  0.00000000000E+00  0.20985227343E+04  0.20985227343E+04  0.00000000000E+00 0. -1.
         21   -1    0    0  501  502  0.00000000000E+00 -0.00000000000E+00 -0.10676773552E+03  0.10676773552E+03  0.00000000000E+00 0. -1.
         21    1    1    2  503  502  0.43395443187E+02  0.86491854141E+00 -0.87108617955E+02  0.97323295749E+02  0.00000000000E+00 0. -1.
         21    1    1    2  504  503  0.29276595910E+02 -0.87997717541E+02  0.24151181027E+03  0.25870576310E+03  0.00000000000E+00 0.  1.
         21    1    1    2  505  504 -0.10232839449E+03  0.93530826514E+02  0.83344295617E+03  0.84489424014E+03  0.00000000000E+00 0.  1.
          2    1    1    2  501    0  0.29656355392E+02 -0.63980275146E+01  0.10039088502E+04  0.10043671708E+04  0.00000000000E+00 0. -1.
<scales pt_clust_3="43.54185" pt_clust_4="14000.00000" pt_clust_5="110.41051" pt_clust_6="30.33866"></scales>
<clustering>
<clus scale="   30.339">  1  6  2 -1</clus>
<clus scale="   43.542">  2  3  1 -1</clus>
<clus scale="  110.411">  1  5  2 -1</clus>
<clus scale="   43.542">  2  3  1 -1</clus>
</clustering>
</event>
<event>
 6    0  0.4796958E+002  0.9920781E+02  0.7546771E-02  0.1281971E+00
         21   -1    0    0  501  502  0.00000000000E+00  0.00000000000E+00  0.56482182167E+02  0.56482182167E+02  0.00000000000E+00 0.  1.
          1   -1    0    0  503    0 -0.00000000000E+00 -0.00000000000E+00 -0.10273159457E+04  0.10273159457E+04  0.00000000000E+00 0.  1.
         21    1    1    2  503  505  0.40381066131E+02  0.87633471334E+02 -0.71334984912E+03  0.71984599953E+03  0.00000000000E+00 0.  1.
         21    1    1    2  504  502 -0.11818014491E+02  0.39347008306E+02  0.20447317488E+01  0.41134334285E+02  0.00000000000E+00 0.  1.
         21    1    1    2  505  504 -0.52598432915E+02  0.92334063673E+01 -0.64931003524E+02  0.84070721163E+02  0.00000000000E+00 0.  1.
          1    1    1    2  501    0  0.24035381275E+02 -0.13621388601E+03 -0.19459764265E+03  0.23874707290E+03  0.00000000000E+00 0.  1.
<scales pt_clust_3="14000.00000" pt_clust_4="41.08348" pt_clust_5="59.32176" pt_clust_6="99.20781"></scales>
<clustering>
<clus scale="   41.083">  1  4  2 -1</clus>
<clus scale="   59.322">  1  5  2 -1</clus>
<clus scale="   99.208">  1  6  2 -1</clus>
<clus scale="   41.083">  1  3  2 -1</clus>
</clustering>
</event>
<event>
 6    0  0.4796958E+002  0.9112477E+02  0.7546771E-02  0.1300151E+00
         21   -1    0    0  504  502  0.00000000000E+00  0.00000000000E+00  0.21552132110E+02  0.21552132110E+02  0.00000000000E+00 0. -1.
          2   -1    0    0  505    0 -0.00000000000E+00 -0.00000000000E+00 -0.13802109338E+04  0.13802109338E+04  0.00000000000E+00 0. -1.
         21    1    1    2  503  501 -0.49173464943E+02 -0.62232983461E+02 -0.74250986982E+03  0.74673414323E+03  0.00000000000E+00 0. -1.
         21    1    1    2  504  503 -0.25553884301E+02  0.37733665613E+02 -0.82942408684E+02  0.94637591272E+02  0.00000000000E+00 0. -1.
         21    1    1    2  505  502  0.11197620550E+03  0.61477082690E+01 -0.24799276560E+03  0.27217067569E+03  0.00000000000E+00 0. -1.
          2    1    1    2  501    0 -0.37248856256E+02  0.18351609579E+02 -0.28521375756E+03  0.28822065569E+03  0.00000000000E+00 0. -1.
<scales pt_clust_3="14000.00000" pt_clust_4="48.53074" pt_clust_5="91.12477" pt_clust_6="41.52420"></scales>
<clustering>
<clus scale="   41.524">  2  6  1 -1</clus>
<clus scale="   48.531">  1  4  2 -1</clus>
<clus scale="   91.125">  1  5  2 -1</clus>
<clus scale="   48.531">  1  3  2 -1</clus>
</clustering>
</event>
<event>
 6    0  0.4796958E+002  0.6864534E+02  0.7546771E-02  0.1364761E+00
          1   -1    0    0  505    0 -0.00000000000E+00  0.00000000000E+00  0.54738460446E+03  0.54738460446E+03  0.00000000000E+00 0. -1.
         21   -1    0    0  503  502  0.00000000000E+00 -0.00000000000E+00 -0.10697102073E+03  0.10697102073E+03  0.00000000000E+00 0. -1.
         21    1    1    2  503  504  0.61812101553E+02  0.14230862313E+02 -0.73319705859E+02  0.96948608076E+02  0.00000000000E+00 0. -1.
         21    1    1    2  504  501  0.29367297404E+02  0.69222781827E+02  0.19608805267E+03  0.21001132370E+03  0.00000000000E+00 0. -1.
         21    1    1    2  505  502 -0.57487723167E+02 -0.28183911005E+02  0.88156479432E+02  0.10895290735E+03  0.00000000000E+00 0. -1.
          1    1    1    2  501    0 -0.33691675791E+02 -0.55269733135E+02  0.22948875748E+03  0.23844278607E+03  0.00000000000E+00 0. -1.
<scales pt_clust_3="63.42912" pt_clust_4="14000.00000" pt_clust_5="35.28909" pt_clust_6="68.64534"></scales>
<clustering>
<clus scale="   63.429">  2  3  1 -1</clus>
<clus scale="   35.289">  2  5  1 -1</clus>
<clus scale="   68.645">  1  6  2 -1</clus>
<clus scale="   63.429">  2  3  1 -1</clus>
</clustering>
</event>
<event>
 6    0  0.4796958E+002  0.4261954E+03  0.7546771E-02  0.1035069E+00
         21   -1    0    0  505  502  0.00000000000E+00  0.00000000000E+00  0.39762204205E+03  0.39762204205E+03  0.00000000000E+00 0. -1.
         -3   -1    0    0    0  501 -0.00000000000E+00 -0.00000000000E+00 -0.61636235300E+03  0.61636235300E+03  0.00000000000E+00 0. -1.
         21    1    1    2  503  504 -0.44806593865E+02 -0.80077933622E+02 -0.58210812933E+02  0.10866740564E+03  0.00000000000E+00 0.  1.
         21    1    1    2  504  502 -0.14032155559E+03 -0.27909776477E+03  0.81770135280E+02  0.32291183981E+03  0.00000000000E+00 0. -1.
         21    1    1    2  505  501  0.90236139283E+02  0.38916929587E+03 -0.10541622153E+03  0.41316810313E+03  0.00000000000E+00 0. -1.
         -3    1    1    2    0  503  0.94892010174E+02 -0.29993597477E+02 -0.13688341176E+03  0.16923704647E+03  0.00000000000E+00 0. -1.
<scales pt_clust_3="81.16310" pt_clust_4="81.16310" pt_clust_5="399.01942" pt_clust_6="99.51939"></scales>
<clustering>
<clus scale="   81.163">  3  4 -1 -1</clus>
<clus scale="   99.519">  2  6  1 -1</clus>
<clus scale="  399.019">  2  5  1 -1</clus>
<clus scale="  426.195">  1  3  2 -1</clus>
</clustering>
</event>
<event>
 6    0  0.4796958E+002  0.1230666E+03  0.7546771E-02  0.1238122E+00
          1   -1    0    0  503    0 -0.00000000000E+00  0.00000000000E+00  0.23402030836E+03  0.23402030836E+03  0.00000000000E+00 0.  1.
         21   -1    0    0  505  502  0.00000000000E+00 -0.00000000000E+00 -0.53657038812E+03  0.53657038812E+03  0.00000000000E+00 0.  1.
         21    1    1    2  503  504 -0.53896478448E+01 -0.48615834196E+02  0.13648241059E+03  0.14498274394E+03  0.00000000000E+00 0.  1.
         21    1    1    2  504  502 -0.41034232615E+01 -0.10214647619E+03 -0.44979733203E+03  0.46126823063E+03  0.00000000000E+00 0.  1.
         21    1    1    2  505  501 -0.98322398449E+01  0.10164813452E+03 -0.18807837142E+02  0.10384002566E+03  0.00000000000E+00 0.  1.
          1    1    1    2  501    0  0.19325310951E+02  0.49114175875E+02  0.29572678821E+02  0.60499696263E+02  0.00000000000E+00 0.  1.
<scales pt_clust_3="48.91368" pt_clust_4="105.22893" pt_clust_5="45.87645" pt_clust_6="45.87645"></scales>
<clustering>
<clus scale="   45.876">  5  6 -1 -1</clus>
<clus scale="   48.914">  1  3  2 -1</clus>
<clus scale="  105.229">  2  4  1 -1</clus>
<clus scale="  105.229">  2  3  1 -1</clus>
</clustering>
</event>
<event>
 6    0  0.4796958E+002  0.8146088E+02  0.7546771E-02  0.1324956E+00
         21   -1    0    0  501  502  0.00000000000E+00  0.00000000000E+00  0.17390848766E+02  0.17390848766E+02  0.00000000000E+00 0.  1.
          2   -1    0    0  505    0 -0.00000000000E+00 -0.00000000000E+00 -0.24872286736E+04  0.24872286736E+04  0.00000000000E+00 0.  1.
         21    1    1    2  503  504  0.41687564058E+02  0.47030619583E+02 -0.99152753793E+02  0.11739250726E+03  0.00000000000E+00 0.  1.
         21    1    1    2  504  502  0.47138054383E+02 -0.19262459673E+02 -0.11077310708E+03  0.12191685600E+03  0.00000000000E+00 0. -1.
         21    1    1    2  505  503 -0.45663508410E+02  0.41370391554E+02 -0.54687181753E+03  0.55033212709E+03  0.00000000000E+00 0. -1.
          2    1    1    2  501    0 -0.43162110031E+02 -0.69138551463E+02 -0.17130401464E+04  0.17149780320E+04  0.00000000000E+00 0.  1.
<scales pt_clust_3="81.46088" pt_clust_4="50.92189" pt_clust_5="54.66923" pt_clust_6="14000.00000"></scales>
<clustering>
<clus scale="   50.922">  1  4  2 -1</clus>
<clus scale="   54.669">  2  5  1 -1</clus>
<clus scale="   81.461">  1  3  2 -1</clus>
<clus scale="   50.922">  1  3  2 -1</clus>
</clustering>
</event>
<event>
 6    0  0.4796958E+002  0.9614142E+02  0.7546771E-02  0.1288626E+00
          2   -1    0    0  504    0 -0.00000000000E+00  0.00000000000E+00  0.74304854291E+02  0.74304854291E+02  0.00000000000E+00 0. -1.
         21   -1    0    0  503  502  0.00000000000E+00 -0.00000000000E+00 -0.16546977401E+04  0.16546977401E+04  0.00000000000E+00 0. -1.
         21    1    1    2  503  501  0.27221341032E+02  0.22954944656E+02 -0.11319218477E+03  0.11866086796E+03  0.00000000000E+00 0. -1.
         21    1    1    2  504  505 -0.14425538435E+03 -0.70339085284E+02 -0.61302932603E+03  0.63368932247E+03  0.00000000000E+00 0. -1.
         21    1    1    2  505  502  0.47915763687E+02  0.27715768025E+02 -0.89317437852E+03  0.89488801235E+03  0.00000000000E+00 0. -1.
          2    1    1    2  501    0  0.69118279631E+02  0.19668372603E+02  0.39003003484E+02  0.81764391643E+02  0.00000000000E+00 0. -1.
<scales pt_clust_3="35.60802" pt_clust_4="96.14142" pt_clust_5="14000.00000" pt_clust_6="72.31361"></scales>
<clustering>
<clus scale="   35.608">  2  3  1 -1</clus>
<clus scale="   72.314">  1  6  2 -1</clus>
<clus scale="   96.141">  1  4  2 -1</clus>
<clus scale="   35.608">  2  3  1 -1</clus>
</clustering>
</event>
<event>
 6    0  0.4796958E+002  0.7792254E+02  0.7546771E-02  0.1335053E+00
         -2   -1    0    0    0  501 -0.00000000000E+00  0.00000000000E+00  0.11819635213E+04  0.11819635213E+04  0.00000000000E+00 0. -1.
         21   -1    0    0  504  502  0.00000000000E+00 -0.00000000000E+00 -0.43570091506E+03  0.43570091506E+03  0.00000000000E+00 0. -1.
         21    1    1    2  503  502  0.22378361946E+02  0.33206360535E+02  0.11048414487E+02  0.41539390053E+02  0.00000000000E+00 0.  1.
         21    1    1    2  504  505 -0.74917875746E+02  0.54058738449E+01 -0.37315345260E+03  0.38063816252E+03  0.00000000000E+00 0. -1.
         21    1    1    2  505  501 -0.52587063434E+01 -0.91438481491E+02  0.75634801736E+01  0.91901339066E+02  0.00000000000E+00 0. -1.
         -2    1    1    2    0  503  0.57798220144E+02  0.52826247111E+02  0.11008041641E+04  0.11035855447E+04  0.00000000000E+00 0. -1.
<scales pt_clust_3="40.04315" pt_clust_4="65.16490" pt_clust_5="14000.00000" pt_clust_6="77.92254"></scales>
<clustering>
<clus scale="   40.043">  2  3  1 -1</clus>
<clus scale="   65.165">  2  4  1 -1</clus>
<clus scale="   77.923">  1  6  2 -1</clus>
<clus scale="   40.043">  2  3  1 -1</clus>
</clustering>
</event>
<event>
 6    0  0.4796958E+002  0.1195223E+03  0.7546771E-02  0.1243887E+00
          4   -1    0    0  505    0 -0.00000000000E+00  0.00000000000E+00  0.16925496987E+03  0.16925496987E+03  0.00000000000E+00 0.  1.
         21   -1    0    0  504  502  0.00000000000E+00 -0.00000000000E+00 -0.75914698676E+03  0.75914698676E+03  0.00000000000E+00 0. -1.
         21    1    1    2  503  502 -0.52455765121E+02 -0.43714523204E+02 -0.13118408995E+03  0.14789128537E+03  0.00000000000E+00 0.  1.
         21    1    1    2  504  501 -0.35000985153E+01 -0.68890673925E+02 -0.58168667306E+03  0.58576237610E+03  0.00000000000E+00 0. -1.
         21    1    1    2  505  503 -0.66934840287E+01  0.33488675875E+02 -0.18829876817E+01  0.34202920678E+02  0.00000000000E+00 0.  1.
          4    1    1    2  501    0  0.62649347665E+02  0.79116521254E+02  0.12486173380E+03  0.16054537447E+03  0.00000000000E+00 0.  1.
<scales pt_clust_3="67.41362" pt_clust_4="119.52231" pt_clust_5="34.15105" pt_clust_6="14000.00000"></scales>
<clustering>
<clus scale="   34.151">  1  5  2 -1</clus>
<clus scale="   67.414">  2  3  1 -1</clus>
<clus scale="  119.522">  2  4  1 -1</clus>
<clus scale="   67.414">  2  3  1 -1</clus>
</clustering>
</event>
<event>
 6    0  0.4796958E+002  0.9603303E+02  0.7546771E-02  0.1288866E+00
          2   -1    0    0  502    0 -0.00000000000E+00  0.00000000000E+00  0.21536387351E+03  0.21536387351E+03  0.00000000000E+00 0.  1.
         21   -1    0    0  504  502  0.00000000000E+00 -0.00000000000E+00 -0.51536877546E+03  0.51536877546E+03  0.00000000000E+00 0.  1.
         21    1    1    2  503  505 -0.68486149711E+02 -0.11140117197E+03 -0.96189042029E+02  0.16233578048E+03  0.00000000000E+00 0.  1.
         21    1    1    2  504  503  0.56891472680E+02  0.84241765705E+01 -0.36143817219E+03  0.36598518923E+03  0.00000000000E+00 0.  1.
         21    1    1    2  505  501 -0.44126939101E+01  0.70652146310E+02  0.44351173168E+02  0.83535766035E+02  0.00000000000E+00 0.  1.
          2    1    1    2  501    0  0.16007370942E+02  0.32324849086E+02  0.11327113910E+03  0.11887591323E+03  0.00000000000E+00 0.  1.
<scales pt_clust_3="96.03303" pt_clust_4="57.98676" pt_clust_5="14000.00000" pt_clust_6="36.07120"></scales>
<clustering>
<clus scale="   36.071">  1  6  2 -1</clus>
<clus scale="   57.987">  2  4  1 -1</clus>
<clus scale="   96.033">  2  3  1 -1</clus>
<clus scale="   57.987">  2  3  1 -1</clus>
</clustering>
</event>
<event>
 6    0  0.4796958E+002  0.1124926E+03  0.7546771E-02  0.1256022E+00
          1   -1    0    0  505    0 -0.00000000000E+00  0.00000000000E+00  0.31440494777E+03  0.31440494777E+03  0.00000000000E+00 0. -1.
         21   -1    0    0  503  502  0.00000000000E+00 -0.00000000000E+00 -0.26030707283E+03  0.26030707283E+03  0.00000000000E+00 0.  1.
         21    1    1    2  503  501  0.41612872210E+02  0.26826843996E+02 -0.24234744405E+02  0.55123801835E+02  0.00000000000E+00 0.  1.
         21    1    1    2  504  502 -0.74460533004E+02 -0.21665826785E+02 -0.99362310674E+02  0.12604224612E+03  0.00000000000E+00 0.  1.
         21    1    1    2  505  504  0.37590232007E+02 -0.11671919280E+03 -0.55803247618E+02  0.13472341280E+03  0.00000000000E+00 0.  1.
          1    1    1    2  501    0 -0.47425712134E+01  0.11155817559E+03  0.23349817763E+03  0.25882255984E+03  0.00000000000E+00 0. -1.
<scales pt_clust_3="49.51071" pt_clust_4="53.79608" pt_clust_5="112.49262" pt_clust_6="14000.00000"></scales>
<clustering>
<clus scale="   49.511">  2  3  1 -1</clus>
<clus scale="   53.796">  2  4  1 -1</clus>
<clus scale="  112.493">  2  5  1 -1</clus>
<clus scale="   49.511">  2  3  1 -1</clus>
</clustering>
</event>
<event>
 6    0  0.4796958E+002  0.1154404E+03  0.7546771E-02  0.1250814E+00
          2   -1    0    0  505    0 -0.00000000000E+00  0.00000000000E+00  0.10856205586E+04  0.10856205586E+04  0.00000000000E+00 0.  1.
         21   -1    0    0  501  502  0.00000000000E+00 -0.00000000000E+00 -0.92638044175E+02  0.92638044175E+02  0.00000000000E+00 0.  1.
         21    1    1    2  503  502 -0.97740892321E+02  0.68273563127E+02 -0.35643348918E+02  0.12443877923E+03  0.00000000000E+00 0.  1.
         21    1    1    2  504  503  0.47207128132E+02  0.39677436742E+02  0.24292828870E+03  0.25063312906E+03  0.00000000000E+00 0.  1.
         21    1    1    2  505  504  0.18902542089E+02 -0.53700302140E+02  0.10366073695E+03  0.11826485925E+03  0.00000000000E+00 0. -1.
          2    1    1    2  501    0  0.31631222100E+02 -0.54250697729E+02  0.68203683765E+03  0.68492183519E+03  0.00000000000E+00 0.  1.
<scales pt_clust_3="115.44042" pt_clust_4="58.16781" pt_clust_5="56.93003" pt_clust_6="14000.00000"></scales>
<clustering>
<clus scale="   56.930">  1  5  2 -1</clus>
<clus scale="   58.168">  1  4  2 -1</clus>
<clus scale="  115.440">  2  3  1 -1</clus>
<clus scale="  115.440">  2  3  1 -1</clus>
</clustering>
</event>
<event>
 6    0  0.4796958E+002  0.7004621E+02  0.7546771E-02  0.1359936E+00
          1   -1    0    0  503    0 -0.00000000000E+00  0.00000000000E+00  0.10899956960E+04  0.10899956960E+04  0.00000000000E+00 0.  1.
         21   -1    0    0  504  502  0.00000000000E+00 -0.00000000000E+00 -0.71401746480E+03  0.71401746480E+03  0.00000000000E+00 0.  1.
         21    1    1    2  503  502  0.28084751539E+02 -0.44183119609E+02 -0.12390284694E+03  0.13450954170E+03  0.00000000000E+00 0.  1.
         21    1    1    2  504  505 -0.44356466815E+02  0.91404031487E+02 -0.55401724769E+03  0.56325598431E+03  0.00000000000E+00 0.  1.
         21    1    1    2  505  501  0.67145416725E+02  0.23126953237E+01  0.20260226370E+02  0.70173587049E+02  0.00000000000E+00 0.  1.
          1    1    1    2  501    0 -0.50873701448E+02 -0.49533607201E+02  0.10336380995E+04  0.10360740478E+04  0.00000000000E+00 0.  1.
<scales pt_clust_3="52.35362" pt_clust_4="52.22779" pt_clust_5="14000.00000" pt_clust_6="70.04621"></scales>
<clustering>
<clus scale="   52.354">  2  3  1 -1</clus>
<clus scale="   52.228">  2  4  1 -1</clus>
<clus scale="   70.046">  1  6  2 -1</clus>
<clus scale="   52.354">  2  3  1 -1</clus>
</clustering>
</event>
<event>
 6    0  0.4796958E+002  0.1033372E+03  0.7546771E-02  0.1273431E+00
         -1   -1    0    0    0  501 -0.00000000000E+00  0.00000000000E+00  0.15153003077E+04  0.15153003077E+04  0.00000000000E+00 0. -1.
         21   -1    0    0  504  502  0.00000000000E+00 -0.00000000000E+00 -0.97044226160E+02  0.97044226160E+02  0.00000000000E+00 0.  1.
         21    1    1    2  503  502  0.42986361910E+02  0.10702923216E+03  0.55815962922E+02  0.12813471647E+03  0.00000000000E+00 0. -1.
         21    1    1    2  504  505 -0.50806183284E+02 -0.57081001599E+01 -0.59825408688E+01  0.51474668164E+02  0.00000000000E+00 0.  1.
         21    1    1    2  505  501  0.42382252640E+02 -0.99945147234E+02  0.60353682653E+02  0.12420891596E+03  0.00000000000E+00 0.  1.
         -1    1    1    2    0  503 -0.34562431266E+02 -0.13759847696E+01  0.13080689769E+04  0.13085262333E+04  0.00000000000E+00 0. -1.
<scales pt_clust_3="14000.00000" pt_clust_4="54.91747" pt_clust_5="103.33722" pt_clust_6="34.58981"></scales>
<clustering>
<clus scale="   34.590">  1  6  2 -1</clus>
<clus scale="   54.917">  2  4  1 -1</clus>
<clus scale="  103.337">  1  5  2 -1</clus>
<clus scale="   54.917">  2  3  1 -1</clus>
</clustering>
</event>
<event>
 6    0  0.4796958E+002  0.1822879E+03  0.7546771E-02  0.1165607E+00
         -4   -1    0    0    0  501 -0.00000000000E+00  0.00000000000E+00  0.30086663641E+03  0.30086663641E+03  0.00000000000E+00 0.  1.
         21   -1    0    0  505  502  0.00000000000E+00 -0.00000000000E+00 -0.53387687616E+03  0.53387687616E+03  0.00000000000E+00 0. -1.
         21    1    1    2  503  504 -0.12126993617E+03 -0.94822396619E+02 -0.14402189493E+02  0.15461276591E+03  0.00000000000E+00 0. -1.
         21    1    1    2  504  501 -0.50750727047E+02  0.11844239977E+03  0.34836241803E+02  0.13348334017E+03  0.00000000000E+00 0. -1.
         21    1    1    2  505  503  0.20169703895E+03  0.32658111714E+01 -0.37108940206E+03  0.42237389285E+03  0.00000000000E+00 0. -1.
         -4    1    1    2    0  502 -0.29676375731E+02 -0.26885814322E+02  0.11764511000E+03  0.12427351365E+03  0.00000000000E+00 0.  1.
<scales pt_clust_3="182.28787" pt_clust_4="124.03597" pt_clust_5="14000.00000" pt_clust_6="40.04415"></scales>
<clustering>
<clus scale="   40.044">  1  6  2 -1</clus>
<clus scale="  124.036">  1  4  2 -1</clus>
<clus scale="  182.288">  1  3  2 -1</clus>
<clus scale="  182.288">  2  3  1 -1</clus>
</clustering>
</event>
<event>
 6    0  0.4796958E+002  0.8536052E+02  0.7546771E-02  0.1314492E+00
         21   -1    0    0  504  502  0.00000000000E+00  0.00000000000E+00  0.12107641238E+03  0.12107641238E+03  0.00000000000E+00 0. -1.
          1   -1    0    0  505    0 -0.00000000000E+00 -0.00000000000E+00 -0.10170969367E+04  0.10170969367E+04  0.00000000000E+00 0.  1.
         21    1    1    2  503  502  0.26573555065E+02  0.42081425908E+02  0.51785369313E+00  0.49772164989E+02  0.00000000000E+00 0. -1.
         21    1    1    2  504  501 -0.38254075761E+02 -0.17387317564E+02  0.73864537999E+02  0.84980368899E+02  0.00000000000E+00 0. -1.
         21    1    1    2  505  503  0.40937302574E+02  0.58135823895E+02 -0.73635899934E+02  0.10236152852E+03  0.00000000000E+00 0.  1.
          1    1    1    2  501    0 -0.29256781878E+02 -0.82829932239E+02 -0.89676701605E+03  0.90105928664E+03  0.00000000000E+00 0.  1.
<scales pt_clust_3="31.77656" pt_clust_4="42.02015" pt_clust_5="14000.00000" pt_clust_6="85.36052"></scales>
<clustering>
<clus scale="   42.020">  1  4  2 -1</clus>
<clus scale="   31.777">  1  3  2 -1</clus>
<clus scale="   85.361">  2  6  1 -1</clus>
<clus scale="   42.020">  1  3  2 -1</clus>
</clustering>
</event>
<event>
 6    0  0.4796958E+002  0.1600311E+03  0.7546771E-02  0.1188662E+00
          1   -1    0    0  505    0 -0.00000000000E+00  0.00000000000E+00  0.23176776162E+03  0.23176776162E+03  0.00000000000E+00 0.  1.
         21   -1    0    0  503  502  0.00000000000E+00 -0.00000000000E+00 -0.42243855449E+03  0.42243855449E+03  0.00000000000E+00 0. -1.
         21    1    1    2  503  501 -0.61696590132E+02 -0.13506240720E+03 -0.34315829656E+03  0.37390632459E+03  0.00000000000E+00 0. -1.
         21    1    1    2  504  502  0.34168890060E+02  0.45255215699E+02  0.47209509192E+02  0.73785400683E+02  0.00000000000E+00 0. -1.
         21    1    1    2  505  504  0.53686541723E+02  0.68674220595E+02 -0.87729717801E+01  0.87609122643E+02  0.00000000000E+00 0.  1.
          1    1    1    2  501    0 -0.26158841651E+02  0.21132970907E+02  0.11405096628E+03  0.11890546819E+03  0.00000000000E+00 0.  1.
<scales pt_clust_3="147.43686" pt_clust_4="51.32579" pt_clust_5="51.32579" pt_clust_6="33.62867"></scales>
<clustering>
<clus scale="   33.629">  1  6  2 -1</clus>
<clus scale="   51.326">  4  5 -1 -1</clus>
<clus scale="  147.437">  2  3  1 -1</clus>
<clus scale="  147.437">  2  3  1 -1</clus>
</clustering>
</event>
<event>
 6    0  0.4796958E+002  0.1377359E+03  0.7546771E-02  0.1216408E+00
          3   -1    0    0  503    0 -0.00000000000E+00  0.00000000000E+00  0.11827242592E+04  0.11827242592E+04  0.00000000000E+00 0.  1.
         21   -1    0    0  505  502  0.00000000000E+00 -0.00000000000E+00 -0.10301679001E+04  0.10301679001E+04  0.00000000000E+00 0. -1.
         21    1    1    2  503  502  0.98470741864E+02 -0.47843214533E+02  0.29331429411E+03  0.31307943930E+03  0.00000000000E+00 0.  1.
         21    1    1    2  504  501 -0.46847433760E+02  0.64621579105E+02 -0.28330737522E+03  0.29433603141E+03  0.00000000000E+00 0.  1.
         21    1    1    2  505  504 -0.78176313106E+02  0.40857068616E+01 -0.72904120614E+03  0.73323209775E+03  0.00000000000E+00 0. -1.
          3    1    1    2  501    0  0.26553005001E+02 -0.20864071433E+02  0.87159064628E+03  0.87224459083E+03  0.00000000000E+00 0.  1.
<scales pt_clust_3="14000.00000" pt_clust_4="137.73587" pt_clust_5="78.09700" pt_clust_6="33.76939"></scales>
<clustering>
<clus scale="   33.769">  1  6  2 -1</clus>
<clus scale="   78.097">  2  5  1 -1</clus>
<clus scale="  137.736">  2  4  1 -1</clus>
<clus scale="   78.097">  2  3  1 -1</clus>
</clustering>
</event>
<event>
 6    0  0.4796958E+002  0.6622620E+02  0.7546771E-02  0.1373417E+00
         21   -1    0    0  504  502  0.00000000000E+00  0.00000000000E+00  0.93190841481E+03  0.93190841481E+03  0.00000000000E+00 0. -1.
         -2   -1    0    0    0  501 -0.00000000000E+00 -0.00000000000E+00 -0.32448384940E+03  0.32448384940E+03  0.00000000000E+00 0. -1.
         21    1    1    2  503  505 -0.42151935402E+02  0.73787548597E+02  0.24633299881E+02  0.88477044758E+02  0.00000000000E+00 0. -1.
         21    1    1    2  504  501  0.75955962108E+02 -0.56749690939E+02  0.20022426617E+03  0.22153914409E+03  0.00000000000E+00 0. -1.
         21    1    1    2  505  502 -0.38992017860E+02  0.48219495200E+02  0.65919619311E+03  0.66210657615E+03  0.00000000000E+00 0. -1.
         -2    1    1    2    0  503  0.51879911552E+01 -0.65257352858E+02 -0.27662919374E+03  0.28426949922E+03  0.00000000000E+00 0. -1.
<scales pt_clust_3="14000.00000" pt_clust_4="49.54091" pt_clust_5="62.01207" pt_clust_6="66.22620"></scales>
<clustering>
<clus scale="   62.012">  1  5  2 -1</clus>
<clus scale="   49.541">  1  4  2 -1</clus>
<clus scale="   66.226">  2  6  1 -1</clus>
<clus scale="   62.012">  1  3  2 -1</clus>
</clustering>
</event>
<event>
 6    0  0.4796958E+002  0.5682672E+02  0.7546771E-02  0.1411652E+00
         21   -1    0    0  504  502  0.00000000000E+00  0.00000000000E+00  0.63803124884E+02  0.63803124884E+02  0.00000000000E+00 0. -1.
          1   -1    0    0  505    0 -0.00000000000E+00 -0.00000000000E+00 -0.53958041151E+03  0.53958041151E+03  0.00000000000E+00 0.  1.
         21    1    1    2  503  502 -0.64129895869E+02  0.48188494603E+02 -0.58701850099E+01  0.80431546226E+02  0.00000000000E+00 0. -1.
         21    1    1    2  504  501  0.14618861589E+02 -0.47471331848E+02 -0.37616450151E+02  0.62307590096E+02  0.00000000000E+00 0.  1.
         21    1    1    2  505  503  0.48767867793E+02  0.55709831780E+02 -0.10473182198E+03  0.12826006713E+03  0.00000000000E+00 0.  1.
          1    1    1    2  501    0  0.74316648765E+00 -0.56426994535E+02 -0.32755882948E+03  0.33238433294E+03  0.00000000000E+00 0.  1.
<scales pt_clust_3="55.28751" pt_clust_4="49.67130" pt_clust_5="14000.00000" pt_clust_6="56.82672"></scales>
<clustering>
<clus scale="   49.671">  1  4  2 -1</clus>
<clus scale="   55.288">  1  3  2 -1</clus>
<clus scale="   56.827">  2  6  1 -1</clus>
<clus scale="   49.671">  1  3  2 -1</clus>
</clustering>
</event>
<event>
 6    0  0.4796958E+002  0.1465349E+03  0.7546771E-02  0.1204797E+00
         21   -1    0    0  505  502  0.00000000000E+00  0.00000000000E+00  0.30923724461E+03  0.30923724461E+03  0.00000000000E+00 0.  1.
          1   -1    0    0  503    0 -0.00000000000E+00 -0.00000000000E+00 -0.12085658786E+04  0.12085658786E+04  0.00000000000E+00 0. -1.
         21    1    1    2  503  502 -0.26443201360E+02 -0.48543926516E+02  0.10988039940E+03  0.12300186125E+03  0.00000000000E+00 0.  1.
         21    1    1    2  504  501  0.11503022433E+02  0.15525347349E+03  0.52040329835E+02  0.16414675289E+03  0.00000000000E+00 0.  1.
         21    1    1    2  505  504  0.16829111041E+02  0.39429009124E+02  0.74277263760E+02  0.85761166332E+02  0.00000000000E+00 0.  1.
          1    1    1    2  501    0 -0.18889321139E+01 -0.14613855610E+03 -0.11355266270E+04  0.11448933427E+04  0.00000000000E+00 0. -1.
<scales pt_clust_3="33.66398" pt_clust_4="14000.00000" pt_clust_5="42.87034" pt_clust_6="146.53494"></scales>
<clustering>
<clus scale="   42.870">  1  5  2 -1</clus>
<clus scale="   33.664">  1  3  2 -1</clus>
<clus scale="  146.535">  2  6  1 -1</clus>
<clus scale="   42.870">  1  3  2 -1</clus>
</clustering>
</event>
<event>
 6    0  0.4796958E+002  0.1328481E+03  0.7546771E-02  0.1223290E+00
         21   -1    0    0  501  502  0.00000000000E+00  0.00000000000E+00  0.78547653870E+03  0.78547653870E+03  0.00000000000E+00 0.  1.
          2   -1    0    0  504    0 -0.00000000000E+00 -0.00000000000E+00 -0.33778663929E+04  0.33778663929E+04  0.00000000000E+00 0. -1.
         21    1    1    2  503  502  0.32018061652E+02 -0.54829876940E+02  0.45454695315E+03  0.45896013367E+03  0.00000000000E+00 0.  1.
         21    1    1    2  504  505 -0.54515438496E+02  0.90192052406E+01 -0.12385447625E+03  0.13562157050E+03  0.00000000000E+00 0. -1.
         21    1    1    2  505  503  0.97925113417E+01 -0.66057836554E+02  0.31839825277E+03  0.32532595718E+03  0.00000000000E+00 0.  1.
          2    1    1    2  501    0  0.12704865502E+02  0.11186850825E+03 -0.32414805839E+04  0.32434352703E+04  0.00000000000E+00 0. -1.
<scales pt_clust_3="35.13588" pt_clust_4="55.25648" pt_clust_5="35.13588" pt_clust_6="127.86793"></scales>
<clustering>
<clus scale="   35.136">  3  5 -1 -1</clus>
<clus scale="   55.256">  2  4  1 -1</clus>
<clus scale="  127.868">  2  6  1 -1</clus>
<clus scale="  132.848">  1  3  2 -1</clus>
</clustering>
</event>
<event>
 6    0  0.4796958E+002  0.7777307E+02  0.7546771E-02  0.1335493E+00
         21   -1    0    0  504  502  0.00000000000E+00  0.00000000000E+00  0.59199661108E+02  0.59199661108E+02  0.00000000000E+00 0. -1.
          2   -1    0    0  505    0 -0.00000000000E+00 -0.00000000000E+00 -0.81493224372E+03  0.81493224372E+03  0.00000000000E+00 0. -1.
         21    1    1    2  503  502  0.36130803056E+02 -0.92574030054E+02 -0.30555255798E+03  0.32130632060E+03  0.00000000000E+00 0. -1.
         21    1    1    2  504  501  0.98496723160E+01  0.46509361920E+02  0.31199288555E+02  0.56864157404E+02  0.00000000000E+00 0. -1.
         21    1    1    2  505  503 -0.70204162824E+02  0.24666592170E+02 -0.21260827040E+03  0.22525394977E+03  0.00000000000E+00 0. -1.
          2    1    1    2  501    0  0.24223687451E+02  0.21398075963E+02 -0.26877104278E+03  0.27070747704E+03  0.00000000000E+00 0. -1.
<scales pt_clust_3="14000.00000" pt_clust_4="48.15389" pt_clust_5="77.77307" pt_clust_6="32.32127"></scales>
<clustering>
<clus scale="   32.321">  2  6  1 -1</clus>
<clus scale="   48.154">  1  4  2 -1</clus>
<clus scale="   77.773">  2  5  1 -1</clus>
<clus scale="   48.154">  1  3  2 -1</clus>
</clustering>
</event>
<event>
 6    0  0.4796958E+002  0.1050118E+03  0.7546771E-02  0.1270096E+00
         -1   -1    0    0    0  501 -0.00000000000E+00  0.00000000000E+00  0.69414076079E+03  0.69414076079E+03  0.00000000000E+00 0.  1.
         21   -1    0    0  504  502  0.00000000000E+00 -0.00000000000E+00 -0.71471527727E+03  0.71471527727E+03  0.00000000000E+00 0. -1.
         21    1    1    2  503  502  0.35925352950E+02 -0.22490241569E+02 -0.45404165931E+03  0.45601564704E+03  0.00000000000E+00 0. -1.
         21    1    1    2  504  501 -0.80552428595E+02 -0.18132183388E+02  0.12623267389E+03  0.15083818411E+03  0.00000000000E+00 0. -1.
         21    1    1    2  505  503  0.44474829680E+02 -0.31453951904E+02 -0.24200174527E+03  0.24805686098E+03  0.00000000000E+00 0. -1.
         -1    1    1    2    0  505  0.15224596530E+00  0.72076376862E+02  0.54923621421E+03  0.55394534593E+03  0.00000000000E+00 0.  1.
<scales pt_clust_3="38.11906" pt_clust_4="95.70778" pt_clust_5="38.11906" pt_clust_6="72.07654"></scales>
<clustering>
<clus scale="   38.119">  3  5 -1 -1</clus>
<clus scale="   72.077">  1  6  2 -1</clus>
<clus scale="   95.708">  1  4  2 -1</clus>
<clus scale="  105.012">  2  3  1 -1</clus>
</clustering>
</event>
<event>
 6    0  0.4796958E+002  0.1846959E+03  0.7546771E-02  0.1163334E+00
         -4   -1    0    0    0  501 -0.00000000000E+00  0.00000000000E+00  0.26226502153E+03  0.26226502153E+03  0.00000000000E+00 0.  1.
         21   -1    0    0  504  502  0.00000000000E+00 -0.00000000000E+00 -0.47885174857E+03  0.47885174857E+03  0.00000000000E+00 0. -1.
         21    1    1    2  503  502 -0.12684962094E+03 -0.98483270170E+02 -0.38857041382E+03  0.42044826951E+03  0.00000000000E+00 0. -1.
         21    1    1    2  504  501 -0.18831535427E+02  0.28390383420E+02 -0.30973251060E+02  0.46043271804E+02  0.00000000000E+00 0.  1.
         21    1    1    2  505  503  0.41062257664E+02  0.67447129052E+02  0.10413721986E+03  0.13068965063E+03  0.00000000000E+00 0. -1.
         -4    1    1    2    0  505  0.10461889870E+03  0.26457576989E+01  0.98819717974E+02  0.14393557816E+03  0.00000000000E+00 0.  1.
<scales pt_clust_3="161.31048" pt_clust_4="34.06818" pt_clust_5="78.69991" pt_clust_6="78.69991"></scales>
<clustering>
<clus scale="   34.068">  2  4  1 -1</clus>
<clus scale="   78.700">  5  6 -1 -1</clus>
<clus scale="  161.310">  2  3  1 -1</clus>
<clus scale="   34.068">  2  3  1 -1</clus>
</clustering>
</event>
<event>
 6    0  0.4796958E+002  0.1007505E+03  0.7546771E-02  0.1278726E+00
          2   -1    0    0  505    0 -0.00000000000E+00  0.00000000000E+00  0.65606029470E+03  0.65606029470E+03  0.00000000000E+00 0. -1.
         21   -1    0    0  501  502  0.00000000000E+00 -0.00000000000E+00 -0.13229465579E+03  0.13229465579E+03  0.00000000000E+00 0. -1.
         21    1    1    2  503  502 -0.25089848842E+02 -0.24388141933E+02 -0.47341735863E+02  0.58868683835E+02  0.00000000000E+00 0. -1.
         21    1    1    2  504  503 -0.90698132746E+02  0.18977323705E+01 -0.40347828689E+02  0.99285950424E+02  0.00000000000E+00 0. -1.
         21    1    1    2  505  504  0.66529878780E+02 -0.15290767037E+02  0.15270406766E+03  0.16726794256E+03  0.00000000000E+00 0.  1.
          2    1    1    2  501    0  0.49258102808E+02  0.37781176599E+02  0.45875113580E+03  0.46293237367E+03  0.00000000000E+00 0. -1.
<scales pt_clust_3="34.98974" pt_clust_4="14000.00000" pt_clust_5="100.75045" pt_clust_6="61.16147"></scales>
<clustering>
<clus scale="   34.990">  2  3  1 -1</clus>
<clus scale="   61.161">  1  6  2 -1</clus>
<clus scale="  100.750">  1  5  2 -1</clus>
<clus scale="   34.990">  2  3  1 -1</clus>
</clustering>
</event>
<event>
 6    0  0.4796958E+002  0.7699725E+02  0.7546771E-02  0.1337795E+00
         21   -1    0    0  503  502  0.00000000000E+00  0.00000000000E+00  0.32538497630E+04  0.32538497630E+04  0.00000000000E+00 0.  1.
          2   -1    0    0  502    0 -0.00000000000E+00 -0.00000000000E+00 -0.53206183515E+03  0.53206183515E+03  0.00000000000E+00 0. -1.
         21    1    1    2  503  504 -0.38347886109E+02  0.33795365683E+02  0.16961935787E+04  0.16969635658E+04  0.00000000000E+00 0.  1.
         21    1    1    2  504  505 -0.11474872050E+02 -0.92883645337E+02  0.15146397017E+04  0.15175284083E+04  0.00000000000E+00 0.  1.
         21    1    1    2  505  501  0.81478703206E+02  0.21482791540E+02 -0.44957241484E+01  0.84383060765E+02  0.00000000000E+00 0.  1.
          2    1    1    2  501    0 -0.31655945047E+02  0.37605488114E+02 -0.48454962838E+03  0.48703656326E+03  0.00000000000E+00 0. -1.
<scales pt_clust_3="51.51899" pt_clust_4="14000.00000" pt_clust_5="76.99725" pt_clust_6="49.15559"></scales>
<clustering>
<clus scale="   49.156">  2  6  1 -1</clus>
<clus scale="   51.519">  1  3  2 -1</clus>
<clus scale="   76.997">  2  5  1 -1</clus>
<clus scale="   51.519">  1  3  2 -1</clus>
</clustering>
</event>
<event>
 6    0  0.4796958E+002  0.1494737E+03  0.7546771E-02  0.1201121E+00
         21   -1    0    0  505  502  0.00000000000E+00  0.00000000000E+00  0.41521905128E+03  0.41521905128E+03  0.00000000000E+00 0.  1.
         -1   -1    0    0    0  501 -0.00000000000E+00 -0.00000000000E+00 -0.19477221752E+04  0.19477221752E+04  0.00000000000E+00 0. -1.
         21    1    1    2  503  502 -0.43626455235E+02 -0.25638640940E+01 -0.10537448207E+02  0.44954185680E+02  0.00000000000E+00 0.  1.
         21    1    1    2  504  503 -0.52862208206E+02 -0.13082836575E+03 -0.10402676279E+03  0.17530556670E+03  0.00000000000E+00 0. -1.
         21    1    1    2  505  501 -0.57238064607E+02  0.10550789771E+03  0.34888852912E+03  0.36895977866E+03  0.00000000000E+00 0.  1.
         -1    1    1    2    0  504  0.15372672805E+03  0.27884332134E+02 -0.17668274420E+04  0.17737216954E+04  0.00000000000E+00 0. -1.
<scales pt_clust_3="43.70173" pt_clust_4="149.47365" pt_clust_5="141.34041" pt_clust_6="14000.00000"></scales>
<clustering>
<clus scale="   43.702">  1  3  2 -1</clus>
<clus scale="  141.340">  1  5  2 -1</clus>
<clus scale="  149.474">  1  4  2 -1</clus>
<clus scale="   43.702">  1  3  2 -1</clus>
</clustering>
</event>
<event>
 6    0  0.4796958E+002  0.9112476E+02  0.7546771E-02  0.1300151E+00
         -2   -1    0    0    0  501 -0.00000000000E+00  0.00000000000E+00  0.10288827915E+04  0.10288827915E+04  0.00000000000E+00 0. -1.
         21   -1    0    0  504  502  0.00000000000E+00 -0.00000000000E+00 -0.86420170465E+03  0.86420170465E+03  0.00000000000E+00 0.  1.
         21    1    1    2  503  501  0.28992136448E+02  0.56174080763E+02  0.14806225544E+03  0.16099224457E+03  0.00000000000E+00 0.  1.
         21    1    1    2  504  505  0.49375172153E+01 -0.39148490730E+02 -0.59077399335E+03  0.59209027574E+03  0.00000000000E+00 0.  1.
         21    1    1    2  505  503  0.37700366107E+02  0.61003179256E+02 -0.25818912299E+03  0.26796329733E+03  0.00000000000E+00 0.  1.
         -2    1    1    2    0  502 -0.71630019771E+02 -0.78028769290E+02  0.86558194778E+03  0.87203867855E+03  0.00000000000E+00 0. -1.
<scales pt_clust_3="14000.00000" pt_clust_4="39.45863" pt_clust_5="48.40898" pt_clust_6="91.12476"></scales>
<clustering>
<clus scale="   39.459">  2  4  1 -1</clus>
<clus scale="   48.409">  2  5  1 -1</clus>
<clus scale="   91.125">  1  6  2 -1</clus>
<clus scale="   39.459">  2  3  1 -1</clus>
</clustering>
</event>
<event>
 6    0  0.4796958E+002  0.1234021E+03  0.7546771E-02  0.1237588E+00
          2   -1    0    0  504    0 -0.00000000000E+00  0.00000000000E+00  0.21195467093E+04  0.21195467093E+04  0.00000000000E+00 0.  1.
         21   -1    0    0  503  502  0.00000000000E+00 -0.00000000000E+00 -0.14709864992E+03  0.14709864992E+03  0.00000000000E+00 0. -1.
         21    1    1    2  503  501  0.43795392257E+02 -0.94774056643E+02  0.61430344399E+02  0.12113564879E+03  0.00000000000E+00 0. -1.
         21    1    1    2  504  505 -0.14399851488E+03  0.16535420641E+02  0.84613128612E+02  0.16783436465E+03  0.00000000000E+00 0. -1.
         21    1    1    2  505  502 -0.19181102084E+02  0.49608304949E+02 -0.64041001919E+02  0.83247513620E+02  0.00000000000E+00 0. -1.
          2    1    1    2  501    0  0.11938422471E+03  0.28630331053E+02  0.18904455883E+04  0.18944278322E+04  0.00000000000E+00 0.  1.
<scales pt_clust_3="82.84356" pt_clust_4="123.40214" pt_clust_5="53.18739" pt_clust_6="14000.00000"></scales>
<clustering>
<clus scale="   53.187">  2  5  1 -1</clus>
<clus scale="   82.844">  2  3  1 -1</clus>
<clus scale="  123.402">  2  4  1 -1</clus>
<clus scale="   53.187">  2  3  1 -1</clus>
</clustering>
</event>
<event>
 6    0  0.4796958E+002  0.1075696E+03  0.7546771E-02  0.1265138E+00
          2   -1    0    0  504    0 -0.00000000000E+00  0.00000000000E+00  0.46432352313E+03  0.46432352313E+03  0.00000000000E+00 0. -1.
         21   -1    0    0  503  502  0.00000000000E+00 -0.00000000000E+00 -0.11626813864E+03  0.11626813864E+03  0.00000000000E+00 0. -1.
         21    1    1    2  503  501 -0.25404058176E+02 -0.16061470679E+02 -0.61882341047E+02  0.68795066288E+02  0.00000000000E+00 0. -1.
         21    1    1    2  504  505  0.44902118549E+02  0.14819222351E+02  0.10520883816E+03  0.11534604123E+03  0.00000000000E+00 0. -1.
         21    1    1    2  505  502 -0.35701509446E+02 -0.89083392393E+02  0.20988376239E+02  0.98239302289E+02  0.00000000000E+00 0. -1.
          2    1    1    2  501    0  0.16203449073E+02  0.90325640720E+02  0.28374051114E+03  0.29821125196E+03  0.00000000000E+00 0. -1.
<scales pt_clust_3="30.05557" pt_clust_4="44.38842" pt_clust_5="107.56957" pt_clust_6="14000.00000"></scales>
<clustering>
<clus scale="   30.056">  2  3  1 -1</clus>
<clus scale="   44.388">  1  4  2 -1</clus>
<clus scale="  107.570">  2  5  1 -1</clus>
<clus scale="   30.056">  2  3  1 -1</clus>
</clustering>
</event>
<event>
 6    0  0.4796958E+002  0.1036344E+03  0.7546771E-02  0.1272834E+00
         21   -1    0    0  503  502  0.00000000000E+00  0.00000000000E+00  0.37995582832E+03  0.37995582832E+03  0.00000000000E+00 0.  1.
         -2   -1    0    0    0  501 -0.00000000000E+00 -0.00000000000E+00 -0.29458540681E+03  0.29458540681E+03  0.00000000000E+00 0.  1.
         21    1    1    2  503  501  0.98526150947E+02 -0.20522765880E+02  0.27002705423E+03  0.28817216444E+03  0.00000000000E+00 0.  1.
         21    1    1    2  504  502 -0.10241722173E+03  0.10522282999E+03  0.14202406356E+02  0.14752233595E+03  0.00000000000E+00 0.  1.
         21    1    1    2  505  504 -0.68724604776E+01 -0.45821643566E+02 -0.12248731912E+02  0.47925829837E+02  0.00000000000E+00 0. -1.
         -2    1    1    2    0  505  0.10763531263E+02 -0.38878420542E+02 -0.18661030716E+03  0.19092090490E+03  0.00000000000E+00 0.  1.
<scales pt_clust_3="14000.00000" pt_clust_4="103.63445" pt_clust_5="57.00339" pt_clust_6="40.34086"></scales>
<clustering>
<clus scale="   40.341">  2  6  1 -1</clus>
<clus scale="   57.003">  2  5  1 -1</clus>
<clus scale="  103.634">  2  4  1 -1</clus>
<clus scale="  103.634">  1  3  2 -1</clus>
</clustering>
</event>
<event>
 6    0  0.4796958E+002  0.1480564E+03  0.7546771E-02  0.1202882E+00
         21   -1    0    0  503  502  0.00000000000E+00  0.00000000000E+00  0.71394171654E+02  0.71394171654E+02  0.00000000000E+00 0. -1.
         -4   -1    0    0    0  501 -0.00000000000E+00 -0.00000000000E+00 -0.70576125467E+03  0.70576125467E+03  0.00000000000E+00 0. -1.
         21    1    1    2  503  504  0.45681041939E+02  0.91675958796E+01 -0.35390897527E+02  0.58509127789E+02  0.00000000000E+00 0. -1.
         21    1    1    2  504  501  0.12061601494E+03 -0.20140747689E+02 -0.25036216045E+03  0.27863073082E+03  0.00000000000E+00 0. -1.
         21    1    1    2  505  502 -0.12347805118E+03 -0.10308984900E+02 -0.43719667609E+02  0.13139449619E+03  0.00000000000E+00 0. -1.
         -4    1    1    2    0  505 -0.42819005694E+02  0.21282136709E+02 -0.30489435744E+03  0.30862107153E+03  0.00000000000E+00 0. -1.
<scales pt_clust_3="40.16140" pt_clust_4="40.16140" pt_clust_5="132.99382" pt_clust_6="47.81628"></scales>
<clustering>
<clus scale="   40.161">  3  4 -1 -1</clus>
<clus scale="   47.816">  2  6  1 -1</clus>
<clus scale="  132.994">  1  5  2 -1</clus>
<clus scale="  132.994">  1  3  2 -1</clus>
</clustering>
</event>
<event>
 6    0  0.4796958E+002  0.1133140E+03  0.7546771E-02  0.1254553E+00
         21   -1    0    0  501  502  0.00000000000E+00  0.00000000000E+00  0.11487592729E+03  0.11487592729E+03  0.00000000000E+00 0.  1.
          1   -1    0    0  504    0 -0.00000000000E+00 -0.00000000000E+00 -0.28873906975E+04  0.28873906975E+04  0.00000000000E+00 0.  1.
         21    1    1    2  503  502 -0.99544660273E+02  0.58408991033E+02  0.82356127499E+02  0.14178604078E+03  0.00000000000E+00 0.  1.
         21    1    1    2  504  505  0.61469904997E+02  0.26449029872E+02 -0.81529875112E+03  0.81804043541E+03  0.00000000000E+00 0.  1.
         21    1    1    2  505  503  0.12535712895E+02 -0.67136891812E+02 -0.96276338000E+03  0.96518279730E+03  0.00000000000E+00 0.  1.
          1    1    1    2  501    0  0.25539042381E+02 -0.17721129092E+02 -0.10768087666E+04  0.10772573513E+04  0.00000000000E+00 0.  1.
<scales pt_clust_3="113.31402" pt_clust_4="75.28772" pt_clust_5="14000.00000" pt_clust_6="31.08506"></scales>
<clustering>
<clus scale="   31.085">  2  6  1 -1</clus>
<clus scale="   75.288">  2  4  1 -1</clus>
<clus scale="  113.314">  1  3  2 -1</clus>
<clus scale="  113.314">  1  3  2 -1</clus>
</clustering>
</event>
<event>
 6    0  0.4796958E+002  0.7823083E+02  0.7546771E-02  0.1334148E+00
         21   -1    0    0  505  502  0.00000000000E+00  0.00000000000E+00  0.16773376409E+02  0.16773376409E+02  0.00000000000E+00 0.  1.
         -4   -1    0    0    0  501 -0.00000000000E+00 -0.00000000000E+00 -0.20847274723E+04  0.20847274723E+04  0.00000000000E+00 0.  1.
         21    1    1    2  503  501 -0.14251337235E+02 -0.84898646853E+02 -0.44126441678E+03  0.44958332528E+03  0.00000000000E+00 0.  1.
         21    1    1    2  504  502  0.31993834474E+02  0.52635370591E+02 -0.19924325555E+03  0.20854726698E+03  0.00000000000E+00 0.  1.
         21    1    1    2  505  503 -0.40794076459E+02 -0.40485549379E+02 -0.11361905812E+03  0.12732842083E+03  0.00000000000E+00 0.  1.
         -4    1    1    2    0  504  0.23051579221E+02  0.72748825640E+02 -0.13138273654E+04  0.13160418356E+04  0.00000000000E+00 0.  1.
<scales pt_clust_3="14000.00000" pt_clust_4="36.02121" pt_clust_5="57.47379" pt_clust_6="78.23083"></scales>
<clustering>
<clus scale="   57.474">  1  5  2 -1</clus>
<clus scale="   36.021">  1  4  2 -1</clus>
<clus scale="   78.231">  2  6  1 -1</clus>
<clus scale="   57.474">  1  3  2 -1</clus>
</clustering>
</event>
<event>
 6    0  0.4796958E+002  0.1871351E+03  0.7546771E-02  0.1161071E+00
         21   -1    0    0  504  502  0.00000000000E+00  0.00000000000E+00  0.35002899680E+03  0.35002899680E+03  0.00000000000E+00 0. -1.
         -3   -1    0    0    0  501 -0.00000000000E+00 -0.00000000000E+00 -0.25032412928E+03  0.25032412928E+03  0.00000000000E+00 0. -1.
         21    1    1    2  503  501 -0.35543688985E+02  0.42741147414E+02  0.61632890331E+02  0.82998630588E+02  0.00000000000E+00 0. -1.
         21    1    1    2  504  503 -0.15309561380E+03 -0.16570488516E+02  0.18485491885E+03  0.24059133209E+03  0.00000000000E+00 0. -1.
         21    1    1    2  505  502  0.11707440623E+03 -0.36807247549E+02 -0.11390316509E+02  0.12325148834E+03  0.00000000000E+00 0. -1.
         -3    1    1    2    0  505  0.71564896549E+02  0.10636588651E+02 -0.13539262515E+03  0.15351167506E+03  0.00000000000E+00 0. -1.
<scales pt_clust_3="52.66936" pt_clust_4="52.66936" pt_clust_5="165.33307" pt_clust_6="72.35103"></scales>
<clustering>
<clus scale="   52.669">  3  4 -1 -1</clus>
<clus scale="   72.351">  2  6  1 -1</clus>
<clus scale="  165.333">  2  5  1 -1</clus>
<clus scale="  187.135">  1  3  2 -1</clus>
</clustering>
</event>
<event>
 6    0  0.4796958E+002  0.1354479E+03  0.7546771E-02  0.1219589E+00
          1   -1    0    0  503    0 -0.00000000000E+00  0.00000000000E+00  0.13121088823E+04  0.13121088823E+04  0.00000000000E+00 0.  1.
         21   -1    0    0  504  502  0.00000000000E+00 -0.00000000000E+00 -0.19059614668E+02  0.19059614668E+02  0.00000000000E+00 0.  1.
         21    1    1    2  503  502 -0.88274566792E+02  0.10282643111E+03  0.69248635704E+03  0.70562244066E+03  0.00000000000E+00 0.  1.
         21    1    1    2  504  505  0.37116886024E+02  0.47624881336E+01  0.66632535850E+02  0.76421458735E+02  0.00000000000E+00 0.  1.
         21    1    1    2  505  501  0.24300081452E+02 -0.34589842208E+02  0.10484532057E+03  0.11304641696E+03  0.00000000000E+00 0.  1.
          1    1    1    2  501    0  0.26857599316E+02 -0.72999077040E+02  0.42908505417E+03  0.43607818061E+03  0.00000000000E+00 0.  1.
<scales pt_clust_3="126.81651" pt_clust_4="37.42118" pt_clust_5="35.07476" pt_clust_6="35.07476"></scales>
<clustering>
<clus scale="   35.075">  5  6 -1 -1</clus>
<clus scale="   37.421">  2  4  1 -1</clus>
<clus scale="  126.817">  1  3  2 -1</clus>
<clus scale="   37.421">  2  3  1 -1</clus>
</clustering>
</event>
<event>
 6    0  0.4796958E+002  0.1116415E+03  0.7546771E-02  0.1257560E+00
         21   -1    0    0  504  502  0.00000000000E+00  0.00000000000E+00  0.14729261096E+04  0.14729261096E+04  0.00000000000E+00 0.  1.
         -4   -1    0    0    0  501 -0.00000000000E+00 -0.00000000000E+00 -0.57480448951E+02  0.57480448951E+02  0.00000000000E+00 0.  1.
         21    1    1    2  503  505  0.74417036648E+02 -0.45281279785E+01  0.18046762440E+03  0.19526126790E+03  0.00000000000E+00 0.  1.
         21    1    1    2  504  501 -0.15934843376E+03 -0.69265644762E+02  0.67553212718E+03  0.69751939596E+03  0.00000000000E+00 0.  1.
         21    1    1    2  505  502  0.43350580540E+02  0.19953911829E+02  0.56715868472E+03  0.56916289855E+03  0.00000000000E+00 0.  1.
         -4    1    1    2    0  503  0.41580816575E+02  0.53839860911E+02 -0.77127756672E+01  0.68462996125E+02  0.00000000000E+00 0.  1.
<scales pt_clust_3="111.64146" pt_clust_4="14000.00000" pt_clust_5="47.72244" pt_clust_6="69.45091"></scales>
<clustering>
<clus scale="   47.722">  1  5  2 -1</clus>
<clus scale="   69.451">  2  6  1 -1</clus>
<clus scale="  111.641">  2  3  1 -1</clus>
<clus scale="   47.722">  1  3  2 -1</clus>
</clustering>
</event>
<event>
 6    0  0.4796958E+002  0.9525529E+02  0.7546771E-02  0.1290602E+00
         21   -1    0    0  504  502  0.00000000000E+00  0.00000000000E+00  0.66318774645E+02  0.66318774645E+02  0.00000000000E+00 0.  1.
          2   -1    0    0  505    0 -0.00000000000E+00 -0.00000000000E+00 -0.67385695538E+03  0.67385695538E+03  0.00000000000E+00 0.  1.
         21    1    1    2  503  502  0.28186206575E+02  0.12308081334E+02  0.20978956014E+02  0.37229930199E+02  0.00000000000E+00 0.  1.
         21    1    1    2  504  501 -0.62412410403E+02 -0.98049873088E+02 -0.91582108628E+02  0.14797421804E+03  0.00000000000E+00 0.  1.
         21    1    1    2  505  503  0.72057237385E+02  0.54244468078E+02 -0.31603718373E+03  0.32865515252E+03  0.00000000000E+00 0.  1.
          2    1    1    2  501    0 -0.37831033557E+02  0.31497323677E+02 -0.22089784439E+03  0.22631642926E+03  0.00000000000E+00 0.  1.
<scales pt_clust_3="30.75632" pt_clust_4="95.25529" pt_clust_5="14000.00000" pt_clust_6="48.26457"></scales>
<clustering>
<clus scale="   30.756">  1  3  2 -1</clus>
<clus scale="   48.265">  2  6  1 -1</clus>
<clus scale="   95.255">  1  4  2 -1</clus>
<clus scale="   30.756">  1  3  2 -1</clus>
</clustering>
</event>
<event>
 6    0  0.4796958E+002  0.5308414E+02  0.7546771E-02  0.1429383E+00
          2   -1    0    0  503    0 -0.00000000000E+00  0.00000000000E+00  0.78999519163E+03  0.78999519163E+03  0.00000000000E+00 0. -1.
         21   -1    0    0  505  502  0.00000000000E+00 -0.00000000000E+00 -0.65126910622E+03  0.65126910622E+03  0.00000000000E+00 0. -1.
         21    1    1    2  503  504  0.83164473601E+02 -0.36639677985E+02  0.52308268310E+03  0.53091834498E+03  0.00000000000E+00 0. -1.
         21    1    1    2  504  502 -0.76418264168E+02  0.49076046292E+02 -0.37995718959E+03  0.39066056282E+03  0.00000000000E+00 0. -1.
         21    1    1    2  505  501  0.31494194486E+02 -0.22388605874E+02 -0.25908602265E+03  0.26195171519E+03  0.00000000000E+00 0. -1.
          2    1    1    2  501    0 -0.38240403919E+02  0.99522375668E+01  0.25468661456E+03  0.25773367486E+03  0.00000000000E+00 0. -1.
<scales pt_clust_3="14000.00000" pt_clust_4="53.08414" pt_clust_5="38.64109" pt_clust_6="39.37346"></scales>
<clustering>
<clus scale="   38.641">  2  5  1 -1</clus>
<clus scale="   39.373">  1  6  2 -1</clus>
<clus scale="   53.084">  2  4  1 -1</clus>
<clus scale="   38.641">  2  3  1 -1</clus>
</clustering>
</event>
<event>
 6    0  0.4796958E+002  0.1262377E+03  0.7546771E-02  0.1233147E+00
         -3   -1    0    0    0  501 -0.00000000000E+00  0.00000000000E+00  0.13450268547E+03  0.13450268547E+03  0.00000000000E+00 0.  1.
         21   -1    0    0  505  502  0.00000000000E+00 -0.00000000000E+00 -0.12496216290E+04  0.12496216290E+04  0.00000000000E+00 0. -1.
         21    1    1    2  503  501 -0.41043547140E+02 -0.17079240585E+02 -0.30639333253E+03  0.30960159470E+03  0.00000000000E+00 0. -1.
         21    1    1    2  504  502  0.14783432445E+03  0.15520630029E+01 -0.76016523527E+03  0.77440853643E+03  0.00000000000E+00 0. -1.
         21    1    1    2  505  503  0.99135400418E+01 -0.31401082745E+02 -0.14050159023E+03  0.14430870775E+03  0.00000000000E+00 0.  1.
         -3    1    1    2    0  504 -0.11670431735E+03  0.46928260327E+02  0.91941214492E+02  0.15580547561E+03  0.00000000000E+00 0.  1.
<scales pt_clust_3="46.17552" pt_clust_4="14000.00000" pt_clust_5="32.92881" pt_clust_6="126.23774"></scales>
<clustering>
<clus scale="   32.929">  2  5  1 -1</clus>
<clus scale="   46.176">  2  3  1 -1</clus>
<clus scale="  126.238">  1  6  2 -1</clus>
<clus scale="   32.929">  2  3  1 -1</clus>
</clustering>
</event>
<event>
 6    0  0.4796958E+002  0.1146482E+03  0.7546771E-02  0.1252196E+00
         -2   -1    0    0    0  501 -0.00000000000E+00  0.00000000000E+00  0.91167886491E+03  0.91167886491E+03  0.00000000000E+00 0. -1.
         21   -1    0    0  504  502  0.00000000000E+00 -0.00000000000E+00 -0.84131275220E+02  0.84131275220E+02  0.00000000000E+00 0. -1.
         21    1    1    2  503  505 -0.89834118629E+02  0.31323183455E+02  0.12739203535E+03  0.15899698538E+03  0.00000000000E+00 0. -1.
         21    1    1    2  504  501  0.14649396226E+03  0.21511690610E+02  0.59289498917E+02  0.15949444660E+03  0.00000000000E+00 0. -1.
         21    1    1    2  505  502 -0.30072091902E+02 -0.38401754715E+01 -0.35254523911E+01  0.30520590977E+02  0.00000000000E+00 0.  1.
         -2    1    1    2    0  503 -0.26587751734E+02 -0.48994698594E+02  0.64439150782E+03  0.64679811718E+03  0.00000000000E+00 0. -1.
<scales pt_clust_3="114.64821" pt_clust_4="14000.00000" pt_clust_5="30.31629" pt_clust_6="56.06340"></scales>
<clustering>
<clus scale="   30.316">  2  5  1 -1</clus>
<clus scale="   56.063">  1  6  2 -1</clus>
<clus scale="  114.648">  1  3  2 -1</clus>
<clus scale="   30.316">  2  3  1 -1</clus>
</clustering>
</event>
<event>
 6    0  0.4796958E+002  0.1328976E+03  0.7546771E-02  0.1223218E+00
          1   -1    0    0  503    0 -0.00000000000E+00  0.00000000000E+00  0.96729485948E+03  0.96729485948E+03  0.00000000000E+00 0.  1.
         21   -1    0    0  504  502  0.00000000000E+00 -0.00000000000E+00 -0.48980905287E+02  0.48980905287E+02  0.00000000000E+00 0.  1.
         21    1    1    2  503  505 -0.37214892441E+02 -0.15457161696E+02  0.17053527946E+03  0.17523171405E+03  0.00000000000E+00 0.  1.
         21    1    1    2  504  501  0.10036747684E+03 -0.83875900076E+02  0.87901766762E+02  0.15759288569E+03  0.00000000000E+00 0.  1.
         21    1    1    2  505  502 -0.92813588105E+02  0.10845079316E+03  0.47488285848E+03  0.49587263077E+03  0.00000000000E+00 0.  1.
          1    1    1    2  501    0  0.29661003710E+02 -0.91177313872E+01  0.18499404949E+03  0.18757853425E+03  0.00000000000E+00 0.  1.
<scales pt_clust_3="35.28119" pt_clust_4="132.89758" pt_clust_5="14000.00000" pt_clust_6="31.03076"></scales>
<clustering>
<clus scale="   31.031">  1  6  2 -1</clus>
<clus scale="   35.281">  1  3  2 -1</clus>
<clus scale="  132.898">  2  4  1 -1</clus>
<clus scale="  132.898">  2  3  1 -1</clus>
</clustering>
</event>
<event>
 6    0  0.4796958E+002  0.1271264E+03  0.7546771E-02  0.1231783E+00
          2   -1    0    0  503    0 -0.00000000000E+00  0.00000000000E+00  0.87051659068E+03  0.87051659068E+03  0.00000000000E+00 0.  1.
         21   -1    0    0  504  502  0.00000000000E+00 -0.00000000000E+00 -0.64898722587E+02  0.64898722587E+02  0.00000000000E+00 0. -1.
         21    1    1    2  503  505  0.41401730806E+01 -0.35435488725E+02  0.55561799270E+02  0.66029754145E+02  0.00000000000E+00 0. -1.
         21    1    1    2  504  501 -0.95692678953E+02  0.15627751791E+03  0.17868136443E+03  0.25594292606E+03  0.00000000000E+00 0. -1.
         21    1    1    2  505  502  0.17633394402E+02 -0.28314043200E+02  0.37167023960E+01  0.33562412267E+02  0.00000000000E+00 0. -1.
          2    1    1    2  501    0  0.73919111470E+02 -0.92527985983E+02  0.56765800200E+03  0.57988022079E+03  0.00000000000E+00 0.  1.
<scales pt_clust_3="38.86472" pt_clust_4="127.12641" pt_clust_5="33.35598" pt_clust_6="14000.00000"></scales>
<clustering>
<clus scale="   33.356">  2  5  1 -1</clus>
<clus scale="   38.865">  2  3  1 -1</clus>
<clus scale="  127.126">  2  4  1 -1</clus>
<clus scale="   33.356">  2  3  1 -1</clus>
</clustering>
</event>
<event>
 6    0  0.4796958E+002  0.9876034E+02  0.7546771E-02  0.1282925E+00
         21   -1    0    0  503  502  0.00000000000E+00  0.00000000000E+00  0.12027876898E+03  0.12027876898E+03  0.00000000000E+00 0. -1.
          2   -1    0    0  505    0 -0.00000000000E+00 -0.00000000000E+00 -0.15591258480E+04  0.15591258480E+04  0.00000000000E+00 0. -1.
         21    1    1    2  503  501 -0.43864284777E+02 -0.41144489059E+02 -0.37211503939E+01  0.60256048818E+02  0.00000000000E+00 0.  1.
         21    1    1    2  504  502  0.28566320310E+02  0.39385627800E+02  0.51482739512E+02  0.70835971094E+02  0.00000000000E+00 0. -1.
         21    1    1    2  505  504  0.20064626358E+02  0.10026259121E+03 -0.60520968992E+02  0.11881903936E+03  0.00000000000E+00 0. -1.
          2    1    1    2  501    0 -0.47666618920E+01 -0.98503729947E+02 -0.14260876991E+04  0.14294935577E+04  0.00000000000E+00 0. -1.
<scales pt_clust_3="37.55298" pt_clust_4="48.65452" pt_clust_5="14000.00000" pt_clust_6="98.76034"></scales>
<clustering>
<clus scale="   48.655">  1  4  2 -1</clus>
<clus scale="   37.553">  1  3  2 -1</clus>
<clus scale="   98.760">  2  6  1 -1</clus>
<clus scale="   48.655">  1  3  2 -1</clus>
</clustering>
</event>
<event>
 6    0  0.4796958E+002  0.1195226E+03  0.7546771E-02  0.1243887E+00
          2   -1    0    0  504    0 -0.00000000000E+00  0.00000000000E+00  0.12456411475E+04  0.12456411475E+04  0.00000000000E+00 0.  1.
         21   -1    0    0  505  502  0.00000000000E+00 -0.00000000000E+00 -0.74828057045E+03  0.74828057045E+03  0.00000000000E+00 0.  1.
         21    1    1    2  503  502 -0.13809464149E+01 -0.38981254246E+02 -0.43058078930E+03  0.43234391555E+03  0.00000000000E+00 0.  1.
         21    1    1    2  504  503  0.12714376424E+03  0.56603432574E+02 -0.28053594382E+03  0.31316114245E+03  0.00000000000E+00 0.  1.
         21    1    1    2  505  501 -0.74548950017E+02 -0.23789710839E+02  0.59556829111E+02  0.98338762368E+02  0.00000000000E+00 0.  1.
          2    1    1    2  501    0 -0.51213867805E+02  0.61675325108E+01  0.11489204811E+04  0.11500778976E+04  0.00000000000E+00 0.  1.
<scales pt_clust_3="39.00571" pt_clust_4="14000.00000" pt_clust_5="119.52258" pt_clust_6="51.57794"></scales>
<clustering>
<clus scale="   39.006">  2  3  1 -1</clus>
<clus scale="   51.578">  1  6  2 -1</clus>
<clus scale="  119.523">  1  5  2 -1</clus>
<clus scale="   39.006">  2  3  1 -1</clus>
</clustering>
</event>
<event>
 6    0  0.4796958E+002  0.8503961E+02  0.7546771E-02  0.1315329E+00
         21   -1    0    0  505  502  0.00000000000E+00  0.00000000000E+00  0.17998461112E+04  0.17998461112E+04  0.00000000000E+00 0. -1.
         -2   -1    0    0    0  501 -0.00000000000E+00 -0.00000000000E+00 -0.12619211361E+04  0.12619211361E+04  0.00000000000E+00 0. -1.
         21    1    1    2  503  502  0.44928947607E+02  0.28060873212E+02  0.10148569108E+04  0.10162384427E+04  0.00000000000E+00 0. -1.
         21    1    1    2  504  503  0.22327055308E+02  0.44473483306E+02 -0.79491278644E+02  0.93783002173E+02  0.00000000000E+00 0.  1.
         21    1    1    2  505  501 -0.10956374556E+03 -0.85177561972E+02  0.77053653773E+03  0.78293421651E+03  0.00000000000E+00 0. -1.
         -2    1    1    2    0  504  0.42307742641E+02  0.12643205454E+02 -0.11679771949E+04  0.11688115859E+04  0.00000000000E+00 0. -1.
<scales pt_clust_3="53.28647" pt_clust_4="85.03961" pt_clust_5="14000.00000" pt_clust_6="44.15649"></scales>
<clustering>
<clus scale="   44.156">  2  6  1 -1</clus>
<clus scale="   53.286">  1  3  2 -1</clus>
<clus scale="   85.040">  2  4  1 -1</clus>
<clus scale="   53.286">  1  3  2 -1</clus>
</clustering>
</event>
<event>
 6    0  0.4796958E+002  0.7097710E+02  0.7546771E-02  0.1356802E+00
         21   -1    0    0  504  502  0.00000000000E+00  0.00000000000E+00  0.10211329065E+03  0.10211329065E+03  0.00000000000E+00 0.  1.
          1   -1    0    0  505    0 -0.00000000000E+00 -0.00000000000E+00 -0.13724493512E+04  0.13724493512E+04  0.00000000000E+00 0. -1.
         21    1    1    2  503  502 -0.28121441551E+02 -0.16534500780E+02 -0.23979897982E+01  0.32710174962E+02  0.00000000000E+00 0.  1.
         21    1    1    2  504  501  0.10250181503E+03 -0.58204998569E+02  0.11294316952E+02  0.11841454952E+03  0.00000000000E+00 0.  1.
         21    1    1    2  505  503 -0.93870406518E+01  0.47973357130E+02 -0.71361430631E+01  0.49401255696E+02  0.00000000000E+00 0.  1.
          1    1    1    2  501    0 -0.64993332823E+02  0.26766142219E+02 -0.12720962446E+04  0.12740366617E+04  0.00000000000E+00 0. -1.
<scales pt_clust_3="32.62216" pt_clust_4="70.97710" pt_clust_5="46.85272" pt_clust_6="14000.00000"></scales>
<clustering>
<clus scale="   32.622">  1  3  2 -1</clus>
<clus scale="   46.853">  1  5  2 -1</clus>
<clus scale="   70.977">  1  4  2 -1</clus>
<clus scale="   32.622">  1  3  2 -1</clus>
</clustering>
</event>
<event>
 6    0  0.4796958E+002  0.1116365E+03  0.7546771E-02  0.1257569E+00
          2   -1    0    0  504    0 -0.00000000000E+00  0.00000000000E+00  0.51750430138E+03  0.51750430138E+03  0.00000000000E+00 0. -1.
         21   -1    0    0  505  502  0.00000000000E+00 -0.00000000000E+00 -0.17194906796E+04  0.17194906796E+04  0.00000000000E+00 0.  1.
         21    1    1    2  503  502  0.73975840049E+02  0.82558941041E+02 -0.15084545679E+04  0.15125222600E+04  0.00000000000E+00 0.  1.
         21    1    1    2  504  503 -0.11621382399E+03 -0.11982396053E+03  0.94550514282E+02  0.19184169035E+03  0.00000000000E+00 0. -1.
         21    1    1    2  505  501  0.11177956777E+03  0.38941309573E+02 -0.13457495890E+03  0.17922476649E+03  0.00000000000E+00 0. -1.
          2    1    1    2  501    0 -0.69541583825E+02 -0.16762900865E+01  0.34649263434E+03  0.35340626407E+03  0.00000000000E+00 0. -1.
<scales pt_clust_3="14000.00000" pt_clust_4="111.63652" pt_clust_5="109.58183" pt_clust_6="69.56178"></scales>
<clustering>
<clus scale="   69.562">  1  6  2 -1</clus>
<clus scale="  109.582">  1  5  2 -1</clus>
<clus scale="  111.637">  1  4  2 -1</clus>
<clus scale="  111.637">  2  3  1 -1</clus>
</clustering>
</event>
<event>
 6    0  0.4796958E+002  0.1144299E+03  0.7546771E-02  0.1252579E+00
         21   -1    0    0  505  502  0.00000000000E+00  0.00000000000E+00  0.21115186234E+03  0.21115186234E+03  0.00000000000E+00 0. -1.
          2   -1    0    0  502    0 -0.00000000000E+00 -0.00000000000E+00 -0.66228611617E+03  0.66228611617E+03  0.00000000000E+00 0. -1.
         21    1    1    2  503  501 -0.35744026561E+02  0.71912484511E+02 -0.14387038550E+03  0.16476567812E+03  0.00000000000E+00 0. -1.
         21    1    1    2  504  503  0.10813642276E+03 -0.12455082247E+03 -0.10947715401E+03  0.19796878682E+03  0.00000000000E+00 0. -1.
         21    1    1    2  505  504 -0.29244985837E+02  0.34744598960E+02  0.15157537629E+03  0.15823258530E+03  0.00000000000E+00 0. -1.
          2    1    1    2  501    0 -0.43147410361E+02  0.17893739001E+02 -0.34936209061E+03  0.35247092827E+03  0.00000000000E+00 0. -1.
<scales pt_clust_3="114.42993" pt_clust_4="14000.00000" pt_clust_5="45.41427" pt_clust_6="47.82849"></scales>
<clustering>
<clus scale="   45.414">  1  5  2 -1</clus>
<clus scale="   47.828">  2  6  1 -1</clus>
<clus scale="  114.430">  2  3  1 -1</clus>
<clus scale="   45.414">  1  3  2 -1</clus>
</clustering>
</event>
<event>
 6    0  0.4796958E+002  0.1056147E+03  0.7546771E-02  0.1268913E+00
         -2   -1    0    0    0  501 -0.00000000000E+00  0.00000000000E+00  0.32084457647E+03  0.32084457647E+03  0.00000000000E+00 0. -1.
         21   -1    0    0  504  502  0.00000000000E+00 -0.00000000000E+00 -0.26559192454E+03  0.26559192454E+03  0.00000000000E+00 0.  1.
         21    1    1    2  503  501  0.51521201030E+02  0.10211392488E+03 -0.99668202924E+02  0.15170839952E+03  0.00000000000E+00 0.  1.
         21    1    1    2  504  503 -0.42015894644E+02 -0.14581576349E+02 -0.49912819327E+02  0.66852429310E+02  0.00000000000E+00 0.  1.
         21    1    1    2  505  502 -0.36294486558E+02 -0.10628528255E+03 -0.41236352528E+02  0.11964233285E+03  0.00000000000E+00 0.  1.
         -2    1    1    2    0  505  0.26789180172E+02  0.18752934017E+02  0.24607002671E+03  0.24823333933E+03  0.00000000000E+00 0. -1.
<scales pt_clust_3="105.61468" pt_clust_4="40.87168" pt_clust_5="14000.00000" pt_clust_6="32.70065"></scales>
<clustering>
<clus scale="   32.701">  1  6  2 -1</clus>
<clus scale="   40.872">  2  4  1 -1</clus>
<clus scale="  105.615">  2  3  1 -1</clus>
<clus scale="   40.872">  2  3  1 -1</clus>
</clustering>
</event>
<event>
 6    0  0.4796958E+002  0.1356121E+03  0.7546771E-02  0.1219358E+00
          4   -1    0    0  504    0 -0.00000000000E+00  0.00000000000E+00  0.57074859193E+03  0.57074859193E+03  0.00000000000E+00 0.  1.
         21   -1    0    0  503  502  0.00000000000E+00 -0.00000000000E+00 -0.44003107277E+03  0.44003107277E+03  0.00000000000E+00 0.  1.
         21    1    1    2  503  501  0.54349410417E+02 -0.52431786538E+01 -0.36104038056E+03  0.36514586911E+03  0.00000000000E+00 0.  1.
         21    1    1    2  504  505  0.64264656279E+02 -0.13629269027E+02  0.12331288729E+03  0.13972033206E+03  0.00000000000E+00 0.  1.
         21    1    1    2  505  502  0.74039754322E+02 -0.59032721470E+02  0.14957495561E+02  0.95866960407E+02  0.00000000000E+00 0. -1.
          4    1    1    2  501    0 -0.19265382102E+03  0.77905169152E+02  0.35348751687E+03  0.41004650311E+03  0.00000000000E+00 0.  1.
<scales pt_clust_3="54.60173" pt_clust_4="71.48207" pt_clust_5="135.61211" pt_clust_6="14000.00000"></scales>
<clustering>
<clus scale="   54.602">  2  3  1 -1</clus>
<clus scale="   71.482">  1  4  2 -1</clus>
<clus scale="  135.612">  2  5  1 -1</clus>
<clus scale="   54.602">  2  3  1 -1</clus>
</clustering>
</event>
<event>
 6    0  0.4796958E+002  0.1668374E+03  0.7546771E-02  0.1181187E+00
          1   -1    0    0  505    0 -0.00000000000E+00  0.00000000000E+00  0.31703992493E+04  0.31703992493E+04  0.00000000000E+00 0.  1.
         21   -1    0    0  504  502  0.00000000000E+00 -0.00000000000E+00 -0.18619206213E+03  0.18619206213E+03  0.00000000000E+00 0.  1.
         21    1    1    2  503  502 -0.29549770940E+02  0.10612729939E+02 -0.16665240572E+02  0.35546437834E+02  0.00000000000E+00 0.  1.
         21    1    1    2  504  501  0.70692123536E+02  0.74803786546E+02  0.67725546329E+02  0.12320605682E+03  0.00000000000E+00 0. -1.
         21    1    1    2  505  503  0.90231050015E+02  0.26392064374E+02 -0.11289651577E+03  0.14691428358E+03  0.00000000000E+00 0.  1.
          1    1    1    2  501    0 -0.13137340261E+03 -0.11180858086E+03  0.30460433972E+04  0.30509245332E+04  0.00000000000E+00 0.  1.
<scales pt_clust_3="31.39775" pt_clust_4="166.83740" pt_clust_5="74.93091" pt_clust_6="14000.00000"></scales>
<clustering>
<clus scale="   31.398">  2  3  1 -1</clus>
<clus scale="   74.931">  2  5  1 -1</clus>
<clus scale="  166.837">  2  4  1 -1</clus>
<clus scale="   31.398">  2  3  1 -1</clus>
</clustering>
</event>
<event>
 6    0  0.4796958E+002  0.1341873E+03  0.7546771E-02  0.1221372E+00
          2   -1    0    0  503    0 -0.00000000000E+00  0.00000000000E+00  0.20872829181E+04  0.20872829181E+04  0.00000000000E+00 0. -1.
         21   -1    0    0  504  502  0.00000000000E+00 -0.00000000000E+00 -0.73081611227E+02  0.73081611227E+02  0.00000000000E+00 0. -1.
         21    1    1    2  503  502 -0.34365875543E+02  0.11268296150E+02  0.18380996240E+03  0.18733416713E+03  0.00000000000E+00 0. -1.
         21    1    1    2  504  505  0.68185794292E+02  0.14731734987E+03  0.54146727286E+02  0.17112443482E+03  0.00000000000E+00 0. -1.
         21    1    1    2  505  501 -0.44083147853E+01 -0.93629327614E+02  0.17039915390E+03  0.19447816299E+03  0.00000000000E+00 0. -1.
          2    1    1    2  501    0 -0.29411603964E+02 -0.64956318407E+02  0.16058454633E+04  0.16074277644E+04  0.00000000000E+00 0. -1.
<scales pt_clust_3="36.16612" pt_clust_4="134.18729" pt_clust_5="14000.00000" pt_clust_6="80.55457"></scales>
<clustering>
<clus scale="   36.166">  1  3  2 -1</clus>
<clus scale="   80.555">  1  6  2 -1</clus>
<clus scale="  134.187">  2  4  1 -1</clus>
<clus scale="  134.187">  2  3  1 -1</clus>
</clustering>
</event>
<event>
 6    0  0.4796958E+002  0.1114877E+03  0.7546771E-02  0.1257839E+00
         21   -1    0    0  505  502  0.00000000000E+00  0.00000000000E+00  0.58558148620E+03  0.58558148620E+03  0.00000000000E+00 0.  1.
          2   -1    0    0  503    0 -0.00000000000E+00 -0.00000000000E+00 -0.95023421380E+03  0.95023421380E+03  0.00000000000E+00 0.  1.
         21    1    1    2  503  502  0.10398546362E+03 -0.73200865904E+02 -0.95229264490E+02  0.15887087911E+03  0.00000000000E+00 0.  1.
         21    1    1    2  504  501 -0.80100128711E+02  0.44679033929E+02  0.75318545785E+01  0.92027036928E+02  0.00000000000E+00 0. -1.
         21    1    1    2  505  504  0.90971366458E+01  0.61721794598E+02  0.50134489433E+03  0.50521187723E+03  0.00000000000E+00 0.  1.
          2    1    1    2  501    0 -0.32982471558E+02 -0.33199962623E+02 -0.77830021202E+03  0.77970590672E+03  0.00000000000E+00 0.  1.
<scales pt_clust_3="14000.00000" pt_clust_4="111.48769" pt_clust_5="61.96422" pt_clust_6="46.79830"></scales>
<clustering>
<clus scale="   46.798">  2  6  1 -1</clus>
<clus scale="   61.964">  1  5  2 -1</clus>
<clus scale="  111.488">  1  4  2 -1</clus>
<clus scale="   61.964">  1  3  2 -1</clus>
</clustering>
</event>
<event>
 6    0  0.4796958E+002  0.1178527E+03  0.7546771E-02  0.1246682E+00
          1   -1    0    0  503    0 -0.00000000000E+00  0.00000000000E+00  0.16629794285E+04  0.16629794285E+04  0.00000000000E+00 0. -1.
         21   -1    0    0  505  502  0.00000000000E+00 -0.00000000000E+00 -0.98061569499E+03  0.98061569499E+03  0.00000000000E+00 0.  1.
         21    1    1    2  503  504 -0.41841728266E+02  0.74456379078E+02  0.14626415796E+03  0.16937439745E+03  0.00000000000E+00 0. -1.
         21    1    1    2  504  502  0.15139439722E+03  0.91437850341E+02 -0.45654670109E+03  0.48960804145E+03  0.00000000000E+00 0.  1.
         21    1    1    2  505  501 -0.41148508121E+02 -0.54377891883E+02 -0.49074676105E+03  0.49546194438E+03  0.00000000000E+00 0.  1.
          1    1    1    2  501    0 -0.68404160831E+02 -0.11151633754E+03  0.14833930377E+04  0.14891507402E+04  0.00000000000E+00 0. -1.
<scales pt_clust_3="84.77489" pt_clust_4="117.85274" pt_clust_5="68.19204" pt_clust_6="14000.00000"></scales>
<clustering>
<clus scale="   68.192">  2  5  1 -1</clus>
<clus scale="   84.775">  1  3  2 -1</clus>
<clus scale="  117.853">  2  4  1 -1</clus>
<clus scale="   68.192">  2  3  1 -1</clus>
</clustering>
</event>
<event>
 6    0  0.4796958E+002  0.1051779E+03  0.7546771E-02  0.1269770E+00
          1   -1    0    0  504    0 -0.00000000000E+00  0.00000000000E+00  0.12591939348E+04  0.12591939348E+04  0.00000000000E+00 0. -1.
         21   -1    0    0  505  502  0.00000000000E+00 -0.00000000000E+00 -0.85716658292E+03  0.85716658292E+03  0.00000000000E+00 0. -1.
         21    1    1    2  503  502  0.89428229639E+01  0.41221777744E+02 -0.52231915626E+03  0.52401957028E+03  0.00000000000E+00 0. -1.
         21    1    1    2  504  503 -0.78746015130E+02 -0.11016246423E+03  0.56738206377E+03  0.58331733191E+03  0.00000000000E+00 0. -1.
         21    1    1    2  505  501  0.88727471650E+02 -0.32497331232E+02 -0.31516197065E+03  0.32902235260E+03  0.00000000000E+00 0. -1.
          1    1    1    2  501    0 -0.18924279483E+02  0.10143801771E+03  0.67212641508E+03  0.68000126297E+03  0.00000000000E+00 0. -1.
<scales pt_clust_3="42.18067" pt_clust_4="14000.00000" pt_clust_5="97.62151" pt_clust_6="105.17787"></scales>
<clustering>
<clus scale="   42.181">  2  3  1 -1</clus>
<clus scale="   97.622">  2  5  1 -1</clus>
<clus scale="  105.178">  1  6  2 -1</clus>
<clus scale="   42.181">  2  3  1 -1</clus>
</clustering>
</event>
<event>
 6    0  0.4796958E+002  0.1698574E+03  0.7546771E-02  0.1177997E+00
         21   -1    0    0  505  502  0.00000000000E+00  0.00000000000E+00  0.10225363617E+03  0.10225363617E+03  0.00000000000E+00 0.  1.
          2   -1    0    0  503    0 -0.00000000000E+00 -0.00000000000E+00 -0.27895451723E+04  0.27895451723E+04  0.00000000000E+00 0.  1.
         21    1    1    2  503  502 -0.76288173861E+02  0.14761109887E+01  0.45783251326E+02  0.88984102381E+02  0.00000000000E+00 0.  1.
         21    1    1    2  504  501 -0.15987316422E+03 -0.47364457242E+02 -0.25952735500E+03  0.30847571774E+03  0.00000000000E+00 0. -1.
         21    1    1    2  505  504  0.67121993633E+02  0.23669087908E+02 -0.16745415261E+03  0.18195186446E+03  0.00000000000E+00 0. -1.
          2    1    1    2  501    0  0.16903934444E+03  0.22219258346E+02 -0.23060932799E+04  0.23123871239E+04  0.00000000000E+00 0.  1.
<scales pt_clust_3="34.00228" pt_clust_4="14000.00000" pt_clust_5="71.17294" pt_clust_6="169.85741"></scales>
<clustering>
<clus scale="   71.173">  1  5  2 -1</clus>
<clus scale="   34.002">  1  3  2 -1</clus>
<clus scale="  169.857">  2  6  1 -1</clus>
<clus scale="   71.173">  1  3  2 -1</clus>
</clustering>
</event>
<event>
 6    0  0.4796958E+002  0.1529186E+03  0.7546771E-02  0.1196932E+00
          2   -1    0    0  505    0 -0.00000000000E+00  0.00000000000E+00  0.12978697612E+04  0.12978697612E+04  0.00000000000E+00 0. -1.
         21   -1    0    0  504  502  0.00000000000E+00 -0.00000000000E+00 -0.35334513194E+03  0.35334513194E+03  0.00000000000E+00 0. -1.
         21    1    1    2  503  502 -0.23065668429E+02  0.35870558240E+02 -0.20608515479E+03  0.21045145054E+03  0.00000000000E+00 0. -1.
         21    1    1    2  504  501 -0.24953943427E+02 -0.33036798046E+02 -0.11073898999E+03  0.11822543390E+03  0.00000000000E+00 0. -1.
         21    1    1    2  505  503  0.37264463230E+02 -0.15521907357E+03  0.23018098405E+03  0.28011584467E+03  0.00000000000E+00 0. -1.
          2    1    1    2  501    0  0.10755148626E+02  0.15238531337E+03  0.10311677900E+04  0.10424221640E+04  0.00000000000E+00 0. -1.
<scales pt_clust_3="45.37681" pt_clust_4="41.40204" pt_clust_5="14000.00000" pt_clust_6="152.91861"></scales>
<clustering>
<clus scale="   41.402">  2  4  1 -1</clus>
<clus scale="   45.377">  2  3  1 -1</clus>
<clus scale="  152.919">  1  6  2 -1</clus>
<clus scale="   41.402">  2  3  1 -1</clus>
</clustering>
</event>
<event>
 6    0  0.4796958E+002  0.7910054E+02  0.7546771E-02  0.1331624E+00
          2   -1    0    0  504    0 -0.00000000000E+00  0.00000000000E+00  0.18154874098E+04  0.18154874098E+04  0.00000000000E+00 0.  1.
         21   -1    0    0  503  502  0.00000000000E+00 -0.00000000000E+00 -0.49756069049E+03  0.49756069049E+03  0.00000000000E+00 0.  1.
         21    1    1    2  503  501 -0.38348605626E+02  0.14486221208E+02 -0.36347478829E+03  0.36577915178E+03  0.00000000000E+00 0.  1.
         21    1    1    2  504  505 -0.10789364612E+03  0.35543407627E+02 -0.28603155372E+02  0.11714313124E+03  0.00000000000E+00 0.  1.
         21    1    1    2  505  502  0.70216303366E+02 -0.29754610678E+02 -0.34603614182E+02  0.83744111610E+02  0.00000000000E+00 0.  1.
          2    1    1    2  501    0  0.76025948378E+02 -0.20275018156E+02  0.17446082771E+04  0.17463817056E+04  0.00000000000E+00 0.  1.
<scales pt_clust_3="40.99349" pt_clust_4="14000.00000" pt_clust_5="58.03159" pt_clust_6="79.10054"></scales>
<clustering>
<clus scale="   40.993">  2  3  1 -1</clus>
<clus scale="   58.032">  2  5  1 -1</clus>
<clus scale="   79.101">  1  6  2 -1</clus>
<clus scale="   40.993">  2  3  1 -1</clus>
</clustering>
</event>
<event>
 6    0  0.4796958E+002  0.1171542E+03  0.7546771E-02  0.1247867E+00
          2   -1    0    0  503    0 -0.00000000000E+00  0.00000000000E+00  0.27624473347E+04  0.27624473347E+04  0.00000000000E+00 0.  1.
         21   -1    0    0  501  502  0.00000000000E+00 -0.00000000000E+00 -0.39026186746E+03  0.39026186746E+03  0.00000000000E+00 0. -1.
         21    1    1    2  503  504 -0.53038758676E+02  0.12384426512E+02  0.12698255737E+03  0.13817037967E+03  0.00000000000E+00 0. -1.
         21    1    1    2  504  505  0.94390905617E+02 -0.48611747891E+02 -0.98133332191E+02  0.14457833857E+03  0.00000000000E+00 0. -1.
         21    1    1    2  505  502  0.22384430723E+02  0.27848527531E+02 -0.26170169788E+03  0.26412947942E+03  0.00000000000E+00 0. -1.
          2    1    1    2  501    0 -0.63736577664E+02  0.83787938470E+01  0.26050379399E+04  0.26058310045E+04  0.00000000000E+00 0.  1.
<scales pt_clust_3="53.80468" pt_clust_4="117.15419" pt_clust_5="35.72958" pt_clust_6="14000.00000"></scales>
<clustering>
<clus scale="   35.730">  2  5  1 -1</clus>
<clus scale="   53.805">  1  3  2 -1</clus>
<clus scale="  117.154">  2  4  1 -1</clus>
<clus scale="   35.730">  2  3  1 -1</clus>
</clustering>
</event>
<event>
 6    0  0.4796958E+002  0.4419929E+03  0.7546771E-02  0.1030137E+00
          4   -1    0    0  504    0 -0.00000000000E+00  0.00000000000E+00  0.40759986690E+03  0.40759986690E+03  0.00000000000E+00 0.  1.
         21   -1    0    0  503  502  0.00000000000E+00 -0.00000000000E+00 -0.16163401739E+04  0.16163401739E+04  0.00000000000E+00 0.  1.
         21    1    1    2  503  501 -0.50712503192E+02  0.39744086222E+03 -0.17495418365E+03  0.43719556645E+03  0.00000000000E+00 0.  1.
         21    1    1    2  504  505  0.25296008877E+02 -0.35691627738E+03 -0.88095285172E+03  0.95084543648E+03  0.00000000000E+00 0.  1.
         21    1    1    2  505  502  0.47553417717E+01 -0.75068075962E+02 -0.38906162600E+03  0.39626604464E+03  0.00000000000E+00 0.  1.
          4    1    1    2  501    0  0.20661152543E+02  0.34543491113E+02  0.23622835441E+03  0.23963299320E+03  0.00000000000E+00 0.  1.
<scales pt_clust_3="425.55695" pt_clust_4="55.01565" pt_clust_5="55.01565" pt_clust_6="40.25091"></scales>
<clustering>
<clus scale="   40.251">  1  6  2 -1</clus>
<clus scale="   55.016">  4  5 -1 -1</clus>
<clus scale="  425.557">  1  3  2 -1</clus>
<clus scale="  441.993">  2  3  1 -1</clus>
</clustering>
</event>
<event>
 6    0  0.4796958E+002  0.1508623E+03  0.7546771E-02  0.1199417E+00
         21   -1    0    0  503  502  0.00000000000E+00  0.00000000000E+00  0.26061414875E+03  0.26061414875E+03  0.00000000000E+00 0. -1.
          1   -1    0    0  504    0 -0.00000000000E+00 -0.00000000000E+00 -0.66115945479E+03  0.66115945479E+03  0.00000000000E+00 0. -1.
         21    1    1    2  503  505  0.40159560455E+02  0.51858257819E+02  0.13304027537E+03  0.14832998372E+03  0.00000000000E+00 0. -1.
         21    1    1    2  504  502 -0.18102813495E+03  0.23537784349E+02 -0.10532724766E+03  0.21075825496E+03  0.00000000000E+00 0. -1.
         21    1    1    2  505  501  0.10462766986E+03 -0.88915714676E+02 -0.47228644717E+01  0.13738725947E+03  0.00000000000E+00 0. -1.
          1    1    1    2  501    0  0.36240904630E+02  0.13519672508E+02 -0.42353546928E+03  0.42529810539E+03  0.00000000000E+00 0. -1.
<scales pt_clust_3="66.65512" pt_clust_4="14000.00000" pt_clust_5="150.86226" pt_clust_6="38.68055"></scales>
<clustering>
<clus scale="   38.681">  2  6  1 -1</clus>
<clus scale="   66.655">  1  3  2 -1</clus>
<clus scale="  150.862">  1  5  2 -1</clus>
<clus scale="   66.655">  1  3  2 -1</clus>
</clustering>
</event>
<event>
 6    0  0.4796958E+002  0.9627274E+02  0.7546771E-02  0.1288335E+00
         21   -1    0    0  504  502  0.00000000000E+00  0.00000000000E+00  0.98379258711E+03  0.98379258711E+03  0.00000000000E+00 0. -1.
          2   -1    0    0  505    0 -0.00000000000E+00 -0.00000000000E+00 -0.16118849009E+04  0.16118849009E+04  0.00000000000E+00 0. -1.
         21    1    1    2  503  501 -0.26940048116E+02 -0.81203084814E+02  0.57790243679E+02  0.10324446445E+03  0.00000000000E+00 0. -1.
         21    1    1    2  504  503  0.15180617012E+03  0.12430282197E+03  0.10322233823E+03  0.22170059979E+03  0.00000000000E+00 0. -1.
         21    1    1    2  505  502 -0.85878858242E+02 -0.32728176767E+02  0.73769593467E+03  0.74339868434E+03  0.00000000000E+00 0. -1.
          2    1    1    2  501    0 -0.38987263762E+02 -0.10371560393E+02 -0.15268008303E+04  0.15273337394E+04  0.00000000000E+00 0. -1.
<scales pt_clust_3="91.92811" pt_clust_4="96.27274" pt_clust_5="14000.00000" pt_clust_6="40.34323"></scales>
<clustering>
<clus scale="   40.343">  2  6  1 -1</clus>
<clus scale="   91.928">  2  3  1 -1</clus>
<clus scale="   96.273">  2  4  1 -1</clus>
<clus scale="   96.273">  1  3  2 -1</clus>
</clustering>
</event>
<event>
 6    0  0.4796958E+002  0.7644766E+02  0.7546771E-02  0.1339446E+00
         21   -1    0    0  505  502  0.00000000000E+00  0.00000000000E+00  0.61415256820E+02  0.61415256820E+02  0.00000000000E+00 0. -1.
          2   -1    0    0  503    0 -0.00000000000E+00 -0.00000000000E+00 -0.15401147093E+04  0.15401147093E+04  0.00000000000E+00 0. -1.
         21    1    1    2  503  502 -0.22981064113E+02 -0.19324498860E+02 -0.35369000062E+02  0.46395384785E+02  0.00000000000E+00 0. -1.
         21    1    1    2  504  501  0.88353935573E+02  0.55882152214E+01 -0.37385105002E+03  0.38419038728E+03  0.00000000000E+00 0. -1.
         21    1    1    2  505  504 -0.25658237242E+02  0.78268054984E+02  0.15084673345E+02  0.83736377634E+02  0.00000000000E+00 0. -1.
          2    1    1    2  501    0 -0.39714634218E+02 -0.64531771345E+02 -0.10845640758E+04  0.10872078164E+04  0.00000000000E+00 0. -1.
<scales pt_clust_3="30.02608" pt_clust_4="14000.00000" pt_clust_5="73.02849" pt_clust_6="76.44766"></scales>
<clustering>
<clus scale="   30.026">  1  3  2 -1</clus>
<clus scale="   76.448">  2  6  1 -1</clus>
<clus scale="   73.028">  1  5  2 -1</clus>
<clus scale="   30.026">  1  3  2 -1</clus>
</clustering>
</event>
<event>
 6    0  0.4796958E+002  0.8736191E+02  0.7546771E-02  0.1309369E+00
          1   -1    0    0  503    0 -0.00000000000E+00  0.00000000000E+00  0.69290315464E+03  0.69290315464E+03  0.00000000000E+00 0.  1.
         21   -1    0    0  501  502  0.00000000000E+00 -0.00000000000E+00 -0.28448698218E+03  0.28448698218E+03  0.00000000000E+00 0.  1.
         21    1    1    2  503  504 -0.79304353699E+02  0.53448752087E+02  0.28696704407E+03  0.30248311358E+03  0.00000000000E+00 0.  1.
         21    1    1    2  504  505  0.72297529104E+02  0.63981843076E+01  0.41399309969E+02  0.83557000562E+02  0.00000000000E+00 0. -1.
         21    1    1    2  505  502  0.30291474059E+02 -0.35331411544E+01 -0.25195760205E+03  0.25379655183E+03  0.00000000000E+00 0.  1.
          1    1    1    2  501    0 -0.23284649464E+02 -0.56313795240E+02  0.33200742047E+03  0.33755347085E+03  0.00000000000E+00 0.  1.
<scales pt_clust_3="87.36191" pt_clust_4="14000.00000" pt_clust_5="30.49683" pt_clust_6="60.26387"></scales>
<clustering>
<clus scale="   30.497">  2  5  1 -1</clus>
<clus scale="   60.264">  1  6  2 -1</clus>
<clus scale="   87.362">  1  3  2 -1</clus>
<clus scale="   30.497">  2  3  1 -1</clus>
</clustering>
</event>
<event>
 6    0  0.4796958E+002  0.1015219E+03  0.7546771E-02  0.1277128E+00
          2   -1    0    0  504    0 -0.00000000000E+00  0.00000000000E+00  0.26663038857E+04  0.26663038857E+04  0.00000000000E+00 0. -1.
         21   -1    0    0  505  502  0.00000000000E+00 -0.00000000000E+00 -0.90991305268E+02  0.90991305268E+02  0.00000000000E+00 0. -1.
         21    1    1    2  503  502 -0.35796528611E+02  0.33908883149E+02 -0.50089770761E+02  0.70286477732E+02  0.00000000000E+00 0. -1.
         21    1    1    2  504  503 -0.20172720462E+02  0.55655930510E+02  0.32862731655E+02  0.67708791036E+02  0.00000000000E+00 0. -1.
         21    1    1    2  505  501 -0.40562610432E+02 -0.12544520431E+03  0.34393618252E+03  0.36833941182E+03  0.00000000000E+00 0. -1.
          2    1    1    2  501    0  0.96531859506E+02  0.35880390655E+02  0.22486034370E+04  0.22509605104E+04  0.00000000000E+00 0. -1.
<scales pt_clust_3="49.30724" pt_clust_4="85.05384" pt_clust_5="14000.00000" pt_clust_6="101.52186"></scales>
<clustering>
<clus scale="   49.307">  2  3  1 -1</clus>
<clus scale="   85.054">  2  4  1 -1</clus>
<clus scale="  101.522">  1  6  2 -1</clus>
<clus scale="   49.307">  2  3  1 -1</clus>
</clustering>
</event>
<event>
 6    0  0.4796958E+002  0.2615551E+03  0.7546771E-02  0.1106212E+00
         21   -1    0    0  503  502  0.00000000000E+00  0.00000000000E+00  0.30007689796E+02  0.30007689796E+02  0.00000000000E+00 0. -1.
          2   -1    0    0  505    0 -0.00000000000E+00 -0.00000000000E+00 -0.32621537280E+04  0.32621537280E+04  0.00000000000E+00 0.  1.
         21    1    1    2  503  501 -0.39762295768E+02 -0.18624370607E+03 -0.15767564257E+04  0.15882155345E+04  0.00000000000E+00 0.  1.
         21    1    1    2  504  502  0.33155316882E+02  0.18854162717E+03 -0.45165405151E+03  0.49054928647E+03  0.00000000000E+00 0. -1.
         21    1    1    2  505  504 -0.16430033492E+02  0.50941891984E+02 -0.17443352495E+03  0.18246116569E+03  0.00000000000E+00 0. -1.
          2    1    1    2  501    0  0.23037012378E+02 -0.53239813089E+02 -0.10293020361E+04  0.10309354311E+04  0.00000000000E+00 0.  1.
<scales pt_clust_3="57.30082" pt_clust_4="246.89556" pt_clust_5="30.49220" pt_clust_6="57.30082"></scales>
<clustering>
<clus scale="   30.492">  4  5 -1 -1</clus>
<clus scale="   57.301">  3  6 -1 -1</clus>
<clus scale="  246.896">  1  4  2 -1</clus>
<clus scale="  246.896">  1  3  2 -1</clus>
</clustering>
</event>
<event>
 6    0  0.4796958E+002  0.1013996E+03  0.7546771E-02  0.1277380E+00
         21   -1    0    0  503  502  0.00000000000E+00  0.00000000000E+00  0.61785204973E+02  0.61785204973E+02  0.00000000000E+00 0. -1.
          2   -1    0    0  505    0 -0.00000000000E+00 -0.00000000000E+00 -0.73404161116E+03  0.73404161116E+03  0.00000000000E+00 0. -1.
         21    1    1    2  503  504 -0.55384366812E+02 -0.45911440162E+02 -0.40015857602E+02  0.82319847452E+02  0.00000000000E+00 0. -1.
         21    1    1    2  504  501  0.50594836986E+02 -0.83409889056E+02 -0.86692469150E+02  0.13050912355E+03  0.00000000000E+00 0. -1.
         21    1    1    2  505  502  0.46737532165E+02  0.11425741222E+03 -0.20318919505E+03  0.23774987307E+03  0.00000000000E+00 0. -1.
          2    1    1    2  501    0 -0.41948002340E+02  0.15063916997E+02 -0.34235888438E+03  0.34524797206E+03  0.00000000000E+00 0. -1.
<scales pt_clust_3="75.73377" pt_clust_4="101.39963" pt_clust_5="14000.00000" pt_clust_6="44.57080"></scales>
<clustering>
<clus scale="   44.571">  2  6  1 -1</clus>
<clus scale="   75.734">  1  3  2 -1</clus>
<clus scale="  101.400">  1  4  2 -1</clus>
<clus scale="   75.734">  1  3  2 -1</clus>
</clustering>
</event>
<event>
 6    0  0.4796958E+002  0.7210186E+02  0.7546771E-02  0.1353088E+00
          2   -1    0    0  504    0 -0.00000000000E+00  0.00000000000E+00  0.67565441430E+03  0.67565441430E+03  0.00000000000E+00 0. -1.
         21   -1    0    0  503  502  0.00000000000E+00 -0.00000000000E+00 -0.63389204345E+03  0.63389204345E+03  0.00000000000E+00 0.  1.
         21    1    1    2  503  501  0.12154211245E+02 -0.29964384827E+02 -0.15012969927E+03  0.15357250995E+03  0.00000000000E+00 0.  1.
         21    1    1    2  504  505  0.99793453657E+02  0.76578257840E+01  0.15077871537E+03  0.18097402216E+03  0.00000000000E+00 0.  1.
         21    1    1    2  505  502 -0.83009775518E+02  0.31056316214E+02 -0.46228010047E+03  0.47069948895E+03  0.00000000000E+00 0.  1.
          2    1    1    2  501    0 -0.28937889384E+02 -0.87497571708E+01  0.50339345521E+03  0.50430043669E+03  0.00000000000E+00 0. -1.
<scales pt_clust_3="32.30924" pt_clust_4="14000.00000" pt_clust_5="72.10186" pt_clust_6="30.23177"></scales>
<clustering>
<clus scale="   30.232">  1  6  2 -1</clus>
<clus scale="   32.309">  2  3  1 -1</clus>
<clus scale="   72.102">  2  5  1 -1</clus>
<clus scale="   32.309">  2  3  1 -1</clus>
</clustering>
</event>
<event>
 6    0  0.4796958E+002  0.1131686E+03  0.7546771E-02  0.1254812E+00
          1   -1    0    0  505    0 -0.00000000000E+00  0.00000000000E+00  0.56461929458E+03  0.56461929458E+03  0.00000000000E+00 0. -1.
         21   -1    0    0  501  502  0.00000000000E+00 -0.00000000000E+00 -0.19083713930E+03  0.19083713930E+03  0.00000000000E+00 0. -1.
         21    1    1    2  503  504 -0.21982541623E+02  0.12326667117E+03 -0.41157167681E+02  0.13180218818E+03  0.00000000000E+00 0. -1.
         21    1    1    2  504  502 -0.40037792550E+02 -0.84077624115E+01 -0.41168339375E+02  0.58039189071E+02  0.00000000000E+00 0. -1.
         21    1    1    2  505  503  0.65532629421E+02 -0.83471812821E+02 -0.22733856409E+01  0.10614724366E+03  0.00000000000E+00 0. -1.
          1    1    1    2  501    0 -0.35122952484E+01 -0.31387095943E+02  0.45838104797E+03  0.45946781297E+03  0.00000000000E+00 0. -1.
<scales pt_clust_3="14000.00000" pt_clust_4="41.76886" pt_clust_5="113.16860" pt_clust_6="31.58300"></scales>
<clustering>
<clus scale="   31.583">  1  6  2 -1</clus>
<clus scale="   41.769">  2  4  1 -1</clus>
<clus scale="  113.169">  1  5  2 -1</clus>
<clus scale="   41.769">  2  3  1 -1</clus>
</clustering>
</event>
<event>
 6    0  0.4796958E+002  0.8796820E+02  0.7546771E-02  0.1307848E+00
         21   -1    0    0  503  502  0.00000000000E+00  0.00000000000E+00  0.41050051751E+04  0.41050051751E+04  0.00000000000E+00 0.  1.
         -3   -1    0    0    0  501 -0.00000000000E+00 -0.00000000000E+00 -0.10840163147E+02  0.10840163147E+02  0.00000000000E+00 0.  1.
         21    1    1    2  503  504 -0.41218762644E+02  0.23098608543E+02  0.13550439907E+04  0.13558675263E+04  0.00000000000E+00 0.  1.
         21    1    1    2  504  501 -0.24368803091E+02  0.24791656898E+02  0.31758565828E+03  0.31948257412E+03  0.00000000000E+00 0.  1.
         21    1    1    2  505  502  0.12407424477E+03 -0.46349585341E+02  0.23163464160E+04  0.23201300440E+04  0.00000000000E+00 0.  1.
         -3    1    1    2    0  505 -0.58486679036E+02 -0.15406801003E+01  0.10518894702E+03  0.12036519387E+03  0.00000000000E+00 0.  1.
<scales pt_clust_3="48.64081" pt_clust_4="34.76298" pt_clust_5="14000.00000" pt_clust_6="87.96820"></scales>
<clustering>
<clus scale="   34.763">  2  4  1 -1</clus>
<clus scale="   48.641">  1  3  2 -1</clus>
<clus scale="   87.968">  2  6  1 -1</clus>
<clus scale="   48.641">  1  3  2 -1</clus>
</clustering>
</event>
<event>
 6    0  0.4796958E+002  0.8223897E+02  0.7546771E-02  0.1322815E+00
         21   -1    0    0  503  502  0.00000000000E+00  0.00000000000E+00  0.51956513285E+02  0.51956513285E+02  0.00000000000E+00 0. -1.
          1   -1    0    0  504    0 -0.00000000000E+00 -0.00000000000E+00 -0.93286107028E+03  0.93286107028E+03  0.00000000000E+00 0. -1.
         21    1    1    2  503  505  0.35103371377E+02  0.30930389096E+01  0.27252906558E+02  0.44548114299E+02  0.00000000000E+00 0. -1.
         21    1    1    2  504  502  0.69508779783E+01  0.88043012615E+02 -0.28278517753E+03  0.29625553734E+03  0.00000000000E+00 0. -1.
         21    1    1    2  505  501 -0.58587985107E+02 -0.12467563360E+02 -0.14377619944E+03  0.15575489610E+03  0.00000000000E+00 0.  1.
          1    1    1    2  501    0  0.16533735752E+02 -0.78668488165E+02 -0.48159608659E+03  0.48825903583E+03  0.00000000000E+00 0. -1.
<scales pt_clust_3="35.23938" pt_clust_4="14000.00000" pt_clust_5="46.87913" pt_clust_6="82.23897"></scales>
<clustering>
<clus scale="   35.239">  1  3  2 -1</clus>
<clus scale="   46.879">  1  5  2 -1</clus>
<clus scale="   82.239">  2  6  1 -1</clus>
<clus scale="   35.239">  1  3  2 -1</clus>
</clustering>
</event>
<event>
 6    0  0.4796958E+002  0.8204388E+02  0.7546771E-02  0.1323349E+00
         21   -1    0    0  505  502  0.00000000000E+00  0.00000000000E+00  0.38009639048E+02  0.38009639048E+02  0.00000000000E+00 0.  1.
         -4   -1    0    0    0  501 -0.00000000000E+00 -0.00000000000E+00 -0.16179734514E+04  0.16179734514E+04  0.00000000000E+00 0.  1.
         21    1    1    2  503  504 -0.77602741034E+02  0.45434672020E+02 -0.33288232629E+03  0.34481464295E+03  0.00000000000E+00 0.  1.
         21    1    1    2  504  502  0.66441664177E+02 -0.76119776384E+02 -0.13709432862E+03  0.17030434532E+03  0.00000000000E+00 0.  1.
         21    1    1    2  505  501 -0.23802909335E+02  0.19911919424E+02 -0.76904742324E+00  0.31042784377E+02  0.00000000000E+00 0.  1.
         -4    1    1    2    0  503  0.34963986193E+02  0.10773184940E+02 -0.11092181100E+04  0.11098213178E+04  0.00000000000E+00 0.  1.
<scales pt_clust_3="82.04388" pt_clust_4="14000.00000" pt_clust_5="31.03326" pt_clust_6="36.36507"></scales>
<clustering>
<clus scale="   31.033">  1  5  2 -1</clus>
<clus scale="   36.365">  2  6  1 -1</clus>
<clus scale="   82.044">  2  3  1 -1</clus>
<clus scale="   31.033">  1  3  2 -1</clus>
</clustering>
</event>
<event>
 6    0  0.4796958E+002  0.9190017E+02  0.7546771E-02  0.1298314E+00
          2   -1    0    0  503    0 -0.00000000000E+00  0.00000000000E+00  0.66640814959E+03  0.66640814959E+03  0.00000000000E+00 0.  1.
         21   -1    0    0  501  502  0.00000000000E+00 -0.00000000000E+00 -0.32604751049E+03  0.32604751049E+03  0.00000000000E+00 0. -1.
         21    1    1    2  503  505 -0.13008849240E+03  0.41635604808E+02  0.25101668383E+03  0.28577248818E+03  0.00000000000E+00 0.  1.
         21    1    1    2  504  502  0.32899702104E+02  0.20503036897E+01 -0.19157104039E+03  0.19438636182E+03  0.00000000000E+00 0. -1.
         21    1    1    2  505  504  0.52653452510E+02 -0.38002324677E+02 -0.10517477379E+03  0.12360540354E+03  0.00000000000E+00 0. -1.
          2    1    1    2  501    0  0.44535337782E+02 -0.56835838208E+01  0.38608976946E+03  0.38869140654E+03  0.00000000000E+00 0.  1.
<scales pt_clust_3="14000.00000" pt_clust_4="32.96353" pt_clust_5="91.90017" pt_clust_6="45.21307"></scales>
<clustering>
<clus scale="   32.964">  2  4  1 -1</clus>
<clus scale="   45.213">  1  6  2 -1</clus>
<clus scale="   91.900">  2  5  1 -1</clus>
<clus scale="   32.964">  2  3  1 -1</clus>
</clustering>
</event>
<event>
 6    0  0.4796958E+002  0.1173825E+03  0.7546771E-02  0.1247479E+00
          1   -1    0    0  502    0 -0.00000000000E+00  0.00000000000E+00  0.30878705771E+04  0.30878705771E+04  0.00000000000E+00 0.  1.
         21   -1    0    0  504  502  0.00000000000E+00 -0.00000000000E+00 -0.34401222922E+02  0.34401222922E+02  0.00000000000E+00 0. -1.
         21    1    1    2  503  501  0.20345638346E+02 -0.70723505103E+02  0.16850274846E+03  0.18387206262E+03  0.00000000000E+00 0. -1.
         21    1    1    2  504  505  0.76346496447E+02  0.31319575707E+02  0.72166458138E+02  0.10962527547E+03  0.00000000000E+00 0. -1.
         21    1    1    2  505  503 -0.10942070649E+02 -0.29784379056E+02  0.29597849870E+02  0.43392059905E+02  0.00000000000E+00 0. -1.
          1    1    1    2  501    0 -0.85750064145E+02  0.69188308452E+02  0.27832022977E+04  0.27853824021E+04  0.00000000000E+00 0.  1.
<scales pt_clust_3="30.90291" pt_clust_4="82.52093" pt_clust_5="30.90291" pt_clust_6="107.53498"></scales>
<clustering>
<clus scale="   30.903">  3  5 -1 -1</clus>
<clus scale="   82.521">  2  4  1 -1</clus>
<clus scale="  107.535">  1  6  2 -1</clus>
<clus scale="   82.521">  2  3  1 -1</clus>
</clustering>
</event>
<event>
 6    0  0.4796958E+002  0.1062838E+03  0.7546771E-02  0.1267611E+00
          2   -1    0    0  503    0 -0.00000000000E+00  0.00000000000E+00  0.11866375480E+04  0.11866375480E+04  0.00000000000E+00 0. -1.
         21   -1    0    0  505  502  0.00000000000E+00 -0.00000000000E+00 -0.43024425808E+03  0.43024425808E+03  0.00000000000E+00 0. -1.
         21    1    1    2  503  504 -0.11560010549E+03 -0.56690905886E+02 -0.12823844848E+03  0.18172050755E+03  0.00000000000E+00 0. -1.
         21    1    1    2  504  502  0.79609728691E+01  0.43793490325E+02 -0.26471349855E+03  0.26842966154E+03  0.00000000000E+00 0. -1.
         21    1    1    2  505  501  0.82632426121E+02 -0.11196275629E+02  0.19916460048E+03  0.21591667958E+03  0.00000000000E+00 0. -1.
          2    1    1    2  501    0  0.25006706497E+02  0.24093691189E+02  0.95018063651E+03  0.95081495745E+03  0.00000000000E+00 0. -1.
<scales pt_clust_3="14000.00000" pt_clust_4="44.73320" pt_clust_5="106.28383" pt_clust_6="34.72523"></scales>
<clustering>
<clus scale="   34.725">  1  6  2 -1</clus>
<clus scale="   44.733">  2  4  1 -1</clus>
<clus scale="  106.284">  1  5  2 -1</clus>
<clus scale="   44.733">  2  3  1 -1</clus>
</clustering>
</event>
<event>
 6    0  0.4796958E+002  0.1005719E+03  0.7546771E-02  0.1279098E+00
         21   -1    0    0  504  502  0.00000000000E+00  0.00000000000E+00  0.52546762434E+03  0.52546762434E+03  0.00000000000E+00 0.  1.
         -1   -1    0    0    0  501 -0.00000000000E+00 -0.00000000000E+00 -0.35776794171E+03  0.35776794171E+03  0.00000000000E+00 0.  1.
         21    1    1    2  503  502  0.84932784915E+01 -0.32712400106E+02  0.62758409656E+02  0.71280115620E+02  0.00000000000E+00 0.  1.
         21    1    1    2  504  505 -0.10918897201E+03 -0.21662710954E+02  0.37890666211E+03  0.39491994537E+03  0.00000000000E+00 0.  1.
         21    1    1    2  505  501  0.61132474205E+02  0.50540321182E+02  0.47942944623E+02  0.92682411528E+02  0.00000000000E+00 0.  1.
         -1    1    1    2    0  503  0.39563219309E+02  0.38347898783E+01 -0.32190833376E+03  0.32435309353E+03  0.00000000000E+00 0.  1.
<scales pt_clust_3="33.79700" pt_clust_4="100.57194" pt_clust_5="14000.00000" pt_clust_6="39.76286"></scales>
<clustering>
<clus scale="   33.797">  1  3  2 -1</clus>
<clus scale="   39.763">  2  6  1 -1</clus>
<clus scale="  100.572">  1  4  2 -1</clus>
<clus scale="   33.797">  1  3  2 -1</clus>
</clustering>
</event>
<event>
 6    0  0.4796958E+002  0.8875512E+02  0.7546771E-02  0.1305895E+00
         21   -1    0    0  501  502  0.00000000000E+00  0.00000000000E+00  0.46191126367E+02  0.46191126367E+02  0.00000000000E+00 0.  1.
          2   -1    0    0  505    0 -0.00000000000E+00 -0.00000000000E+00 -0.10178121286E+04  0.10178121286E+04  0.00000000000E+00 0.  1.
         21    1    1    2  503  502  0.74808807364E+02  0.63690691086E+01 -0.10193485638E+02  0.75768264135E+02  0.00000000000E+00 0.  1.
         21    1    1    2  504  503 -0.22020209514E+02  0.93875940732E+02 -0.30479260393E+03  0.31968126827E+03  0.00000000000E+00 0.  1.
         21    1    1    2  505  504 -0.11884644930E+02 -0.27597865377E+02 -0.72213536320E+02  0.78215610887E+02  0.00000000000E+00 0.  1.
          2    1    1    2  501    0 -0.40903952920E+02 -0.72647144464E+02 -0.58442137635E+03  0.59033811168E+03  0.00000000000E+00 0.  1.
<scales pt_clust_3="74.44252" pt_clust_4="88.75512" pt_clust_5="30.04808" pt_clust_6="14000.00000"></scales>
<clustering>
<clus scale="   30.048">  2  5  1 -1</clus>
<clus scale="   74.443">  1  3  2 -1</clus>
<clus scale="   88.755">  1  4  2 -1</clus>
<clus scale="   74.443">  1  3  2 -1</clus>
</clustering>
</event>
<event>
 6    0  0.4796958E+002  0.1400608E+03  0.7546771E-02  0.1213247E+00
          2   -1    0    0  504    0 -0.00000000000E+00  0.00000000000E+00  0.25071469108E+03  0.25071469108E+03  0.00000000000E+00 0.  1.
         21   -1    0    0  503  502  0.00000000000E+00 -0.00000000000E+00 -0.60356439761E+03  0.60356439761E+03  0.00000000000E+00 0.  1.
         21    1    1    2  503  501 -0.14706587668E+03 -0.80781267435E+02 -0.22837959833E+03  0.28339235379E+03  0.00000000000E+00 0.  1.
         21    1    1    2  504  505  0.13608424801E+02 -0.35630285262E+02  0.54174638012E+02  0.66254040308E+02  0.00000000000E+00 0.  1.
         21    1    1    2  505  502  0.93416695977E+02  0.89271746181E+02 -0.32539731740E+03  0.35011360717E+03  0.00000000000E+00 0.  1.
          2    1    1    2  501    0  0.40040755905E+02  0.27139806515E+02  0.14675257119E+03  0.15451908743E+03  0.00000000000E+00 0.  1.
<scales pt_clust_3="140.06079" pt_clust_4="38.14061" pt_clust_5="14000.00000" pt_clust_6="50.81198"></scales>
<clustering>
<clus scale="   38.141">  1  4  2 -1</clus>
<clus scale="   50.812">  1  6  2 -1</clus>
<clus scale="  140.061">  1  3  2 -1</clus>
<clus scale="  140.061">  2  3  1 -1</clus>
</clustering>
</event>
<event>
 6    0  0.4796958E+002  0.1222989E+03  0.7546771E-02  0.1239352E+00
         21   -1    0    0  504  502  0.00000000000E+00  0.00000000000E+00  0.17544725920E+03  0.17544725920E+03  0.00000000000E+00 0.  1.
          2   -1    0    0  503    0 -0.00000000000E+00 -0.00000000000E+00 -0.31597380890E+03  0.31597380890E+03  0.00000000000E+00 0.  1.
         21    1    1    2  503  505  0.43785659664E+02  0.52639667599E+02 -0.38423313089E+02  0.78514136217E+02  0.00000000000E+00 0.  1.
         21    1    1    2  504  501  0.36552780559E+02 -0.44322990332E+02  0.10282513461E+03  0.11778642344E+03  0.00000000000E+00 0.  1.
         21    1    1    2  505  502  0.17072700797E+02  0.50828421876E+02  0.74149028321E+01  0.54129348480E+02  0.00000000000E+00 0. -1.
          2    1    1    2  501    0 -0.97411141020E+02 -0.59145099143E+02 -0.21234327405E+03  0.24099115997E+03  0.00000000000E+00 0.  1.
<scales pt_clust_3="41.72704" pt_clust_4="57.45114" pt_clust_5="41.72704" pt_clust_6="112.84343"></scales>
<clustering>
<clus scale="   41.727">  3  5 -1 -1</clus>
<clus scale="   57.451">  1  4  2 -1</clus>
<clus scale="  112.843">  2  6  1 -1</clus>
<clus scale="   57.451">  1  3  2 -1</clus>
</clustering>
</event>
<event>
 6    0  0.4796958E+002  0.1141136E+03  0.7546771E-02  0.1253136E+00
         21   -1    0    0  504  502  0.00000000000E+00  0.00000000000E+00  0.57320813547E+03  0.57320813547E+03  0.00000000000E+00 0. -1.
         -3   -1    0    0    0  501 -0.00000000000E+00 -0.00000000000E+00 -0.20006260741E+03  0.20006260741E+03  0.00000000000E+00 0.  1.
         21    1    1    2  503  505  0.10887730100E+03 -0.45300167185E+02  0.22501391794E+03  0.25404258518E+03  0.00000000000E+00 0. -1.
         21    1    1    2  504  501 -0.82539398814E+02  0.11555336340E+02  0.15461757920E+02  0.84766409105E+02  0.00000000000E+00 0.  1.
         21    1    1    2  505  502  0.34945920812E+02  0.27595854229E+02  0.27541728239E+03  0.27899359848E+03  0.00000000000E+00 0. -1.
         -3    1    1    2    0  503 -0.61283823002E+02  0.61489766159E+01 -0.14274743019E+03  0.15546815012E+03  0.00000000000E+00 0.  1.
<scales pt_clust_3="114.11363" pt_clust_4="14000.00000" pt_clust_5="44.52806" pt_clust_6="60.90721"></scales>
<clustering>
<clus scale="   44.528">  1  5  2 -1</clus>
<clus scale="   60.907">  2  6  1 -1</clus>
<clus scale="  114.114">  1  3  2 -1</clus>
<clus scale="   44.528">  1  3  2 -1</clus>
</clustering>
</event>
<event>
 6    0  0.4796958E+002  0.8138529E+02  0.7546771E-02  0.1325166E+00
          2   -1    0    0  503    0 -0.00000000000E+00  0.00000000000E+00  0.12912061090E+04  0.12912061090E+04  0.00000000000E+00 0.  1.
         21   -1    0    0  505  502  0.00000000000E+00 -0.00000000000E+00 -0.11507215668E+04  0.11507215668E+04  0.00000000000E+00 0. -1.
         21    1    1    2  503  502  0.78148632409E+02  0.18627485314E+02 -0.77899304666E+03  0.78312474020E+03  0.00000000000E+00 0. -1.
         21    1    1    2  504  501  0.29518048524E+02 -0.49933825491E+02  0.71838236464E+02  0.92333278590E+02  0.00000000000E+00 0. -1.
         21    1    1    2  505  504 -0.35661625438E+02 -0.15146878642E+02 -0.35684443288E+03  0.35894167874E+03  0.00000000000E+00 0.  1.
          2    1    1    2  501    0 -0.72005055495E+02  0.46453218819E+02  0.12044837852E+04  0.12075279783E+04  0.00000000000E+00 0.  1.
<scales pt_clust_3="43.17571" pt_clust_4="81.38529" pt_clust_5="38.74506" pt_clust_6="14000.00000"></scales>
<clustering>
<clus scale="   38.745">  2  5  1 -1</clus>
<clus scale="   43.176">  2  3  1 -1</clus>
<clus scale="   81.385">  2  4  1 -1</clus>
<clus scale="   38.745">  2  3  1 -1</clus>
</clustering>
</event>
<event>
 6    0  0.4796958E+002  0.1105203E+03  0.7546771E-02  0.1259609E+00
          2   -1    0    0  503    0 -0.00000000000E+00  0.00000000000E+00  0.39626257287E+04  0.39626257287E+04  0.00000000000E+00 0.  1.
         21   -1    0    0  505  502  0.00000000000E+00 -0.00000000000E+00 -0.16947706164E+03  0.16947706164E+03  0.00000000000E+00 0. -1.
         21    1    1    2  503  504 -0.90607799159E+02 -0.40979472219E+02  0.55842860691E+03  0.56721389213E+03  0.00000000000E+00 0. -1.
         21    1    1    2  504  502  0.56188521884E+02 -0.65049093696E+02 -0.14380799596E+03  0.16753887395E+03  0.00000000000E+00 0. -1.
         21    1    1    2  505  501 -0.38777237746E+02  0.17399419031E+02  0.45212340424E+02  0.62052958644E+02  0.00000000000E+00 0.  1.
          2    1    1    2  501    0  0.73196515021E+02  0.88629146884E+02  0.33333157157E+04  0.33352970656E+04  0.00000000000E+00 0.  1.
<scales pt_clust_3="14000.00000" pt_clust_4="51.73220" pt_clust_5="42.50193" pt_clust_6="110.52028"></scales>
<clustering>
<clus scale="   42.502">  2  5  1 -1</clus>
<clus scale="   51.732">  2  4  1 -1</clus>
<clus scale="  110.520">  1  6  2 -1</clus>
<clus scale="   42.502">  2  3  1 -1</clus>
</clustering>
</event>
<event>
 6    0  0.4796958E+002  0.1123687E+03  0.7546771E-02  0.1256245E+00
          2   -1    0    0  505    0 -0.00000000000E+00  0.00000000000E+00  0.10068194013E+04  0.10068194013E+04  0.00000000000E+00 0. -1.
         21   -1    0    0  504  502  0.00000000000E+00 -0.00000000000E+00 -0.10289391439E+03  0.10289391439E+03  0.00000000000E+00 0. -1.
         21    1    1    2  503  501  0.72804937189E+02 -0.35641710935E+02  0.59951624429E+02  0.10082205964E+03  0.00000000000E+00 0. -1.
         21    1    1    2  504  503  0.41884859295E+02  0.73673144378E+02 -0.36355596869E+02  0.92216067279E+02  0.00000000000E+00 0. -1.
         21    1    1    2  505  502  0.55804394238E+02  0.10618423544E+02  0.41219006269E+03  0.41608596362E+03  0.00000000000E+00 0. -1.
          2    1    1    2  501    0 -0.17049419072E+03 -0.48649856987E+02  0.46813939668E+03  0.50058922519E+03  0.00000000000E+00 0. -1.
<scales pt_clust_3="112.36873" pt_clust_4="86.50589" pt_clust_5="56.80565" pt_clust_6="14000.00000"></scales>
<clustering>
<clus scale="   56.806">  1  5  2 -1</clus>
<clus scale="   86.506">  2  4  1 -1</clus>
<clus scale="  112.369">  2  3  1 -1</clus>
<clus scale="   86.506">  2  3  1 -1</clus>
</clustering>
</event>
<event>
 6    0  0.5602061E+002  0.6903952E+02  0.7546771E-02  0.1363390E+00
         -3   -1    0    0    0  501 -0.00000000000E+00  0.00000000000E+00  0.19029771904E+04  0.19029771904E+04  0.00000000000E+00 0.  1.
         21   -1    0    0  505  502  0.00000000000E+00 -0.00000000000E+00 -0.83051631995E+03  0.83051631995E+03  0.00000000000E+00 0.  1.
         21    1    1    2  503  504  0.35765755781E+02  0.10272726094E+03  0.78056798395E+03  0.78811068829E+03  0.00000000000E+00 0.  1.
         21    1    1    2  504  502  0.14725008735E+02  0.28436595431E+02 -0.64293252639E+03  0.64372952342E+03  0.00000000000E+00 0.  1.
         21    1    1    2  505  501 -0.31966059495E+02 -0.94144683737E+02 -0.16952392502E+03  0.19652839894E+03  0.00000000000E+00 0.  1.
         -3    1    1    2    0  503 -0.18524705021E+02 -0.37019172631E+02  0.11043493379E+04  0.11051248997E+04  0.00000000000E+00 0.  1.
<scales pt_clust_3="14000.00000" pt_clust_4="32.02290" pt_clust_5="69.03952" pt_clust_6="41.32912"></scales>
<clustering>
<clus scale="   32.023">  2  4  1 -1</clus>
<clus scale="   41.329">  1  6  2 -1</clus>
<clus scale="   69.040">  2  5  1 -1</clus>
<clus scale="   32.023">  2  3  1 -1</clus>
</clustering>
</event>
<event>
 6    0  0.4796958E+002  0.4636935E+03  0.7546771E-02  0.1023715E+00
          2   -1    0    0  505    0 -0.00000000000E+00  0.00000000000E+00  0.23826355344E+04  0.23826355344E+04  0.00000000000E+00 0.  1.
         21   -1    0    0  501  502  0.00000000000E+00 -0.00000000000E+00 -0.35931140046E+03  0.35931140046E+03  0.00000000000E+00 0.  1.
         21    1    1    2  503  502  0.17028736460E+03  0.42508806463E+03 -0.10826436197E+03  0.47055161386E+03  0.00000000000E+00 0.  1.
         21    1    1    2  504  503 -0.15270856893E+03 -0.37578019458E+03  0.56912508810E+03  0.69888055315E+03  0.00000000000E+00 0.  1.
         21    1    1    2  505  504  0.13698072573E+02 -0.37035231242E+02  0.75772339072E+02  0.85444092328E+02  0.00000000000E+00 0. -1.
          2    1    1    2  501    0 -0.31276868239E+02 -0.12272638802E+02  0.14866910687E+04  0.14870706755E+04  0.00000000000E+00 0.  1.
<scales pt_clust_3="453.29869" pt_clust_4="30.46198" pt_clust_5="30.46198" pt_clust_6="33.59851"></scales>
<clustering>
<clus scale="   30.462">  4  5 -1 -1</clus>
<clus scale="   33.599">  1  6  2 -1</clus>
<clus scale="  453.299">  2  3  1 -1</clus>
<clus scale="  453.299">  2  3  1 -1</clus>
</clustering>
</event>
<event>
 6    0  0.4796958E+002  0.8802221E+02  0.7546771E-02  0.1307713E+00
         21   -1    0    0  503  502  0.00000000000E+00  0.00000000000E+00  0.27228191595E+03  0.27228191595E+03  0.00000000000E+00 0.  1.
          2   -1    0    0  504    0 -0.00000000000E+00 -0.00000000000E+00 -0.24509005569E+04  0.24509005569E+04  0.00000000000E+00 0. -1.
         21    1    1    2  503  501  0.44049295137E+02  0.38355774211E+02  0.47126540738E+02  0.75049428108E+02  0.00000000000E+00 0.  1.
         21    1    1    2  504  505 -0.12923646661E+03 -0.33743520504E+02 -0.31326114153E+02  0.13719334863E+03  0.00000000000E+00 0. -1.
         21    1    1    2  505  502  0.41905884944E+02  0.46028876907E+00  0.15528032973E+03  0.16083623926E+03  0.00000000000E+00 0.  1.
          2    1    1    2  501    0  0.43281286534E+02 -0.50725424757E+01 -0.23496993973E+04  0.23501034569E+04  0.00000000000E+00 0. -1.
<scales pt_clust_3="88.02221" pt_clust_4="14000.00000" pt_clust_5="41.90841" pt_clust_6="43.65104"></scales>
<clustering>
<clus scale="   41.908">  1  5  2 -1</clus>
<clus scale="   43.651">  2  6  1 -1</clus>
<clus scale="   88.022">  1  3  2 -1</clus>
<clus scale="   41.908">  1  3  2 -1</clus>
</clustering>
</event>
<event>
 6    0  0.4796958E+002  0.1046083E+03  0.7546771E-02  0.1270893E+00
         21   -1    0    0  503  502  0.00000000000E+00  0.00000000000E+00  0.17431637167E+03  0.17431637167E+03  0.00000000000E+00 0.  1.
          2   -1    0    0  504    0 -0.00000000000E+00 -0.00000000000E+00 -0.71598888571E+03  0.71598888571E+03  0.00000000000E+00 0.  1.
         21    1    1    2  503  501 -0.10233694370E+03  0.64296325007E+02 -0.15308858891E+03  0.19504610612E+03  0.00000000000E+00 0.  1.
         21    1    1    2  504  505  0.98020584217E+02 -0.77473664411E+02 -0.49334503153E+02  0.13432831723E+03  0.00000000000E+00 0.  1.
         21    1    1    2  505  502 -0.38494633483E+02  0.22174559290E+02  0.10527215595E+03  0.11426186899E+03  0.00000000000E+00 0.  1.
          2    1    1    2  501    0  0.42810992969E+02 -0.89972198859E+01 -0.44452157793E+03  0.44666896504E+03  0.00000000000E+00 0.  1.
<scales pt_clust_3="14000.00000" pt_clust_4="104.60825" pt_clust_5="43.73389" pt_clust_6="43.74621"></scales>
<clustering>
<clus scale="   43.746">  2  6  1 -1</clus>
<clus scale="   43.734">  1  5  2 -1</clus>
<clus scale="  104.608">  1  4  2 -1</clus>
<clus scale="   43.734">  1  3  2 -1</clus>
</clustering>
</event>
<event>
 6    0  0.4796958E+002  0.1919310E+03  0.7546771E-02  0.1156731E+00
         -3   -1    0    0    0  501 -0.00000000000E+00  0.00000000000E+00  0.10623171589E+04  0.10623171589E+04  0.00000000000E+00 0.  1.
         21   -1    0    0  505  502  0.00000000000E+00 -0.00000000000E+00 -0.66797022023E+02  0.66797022023E+02  0.00000000000E+00 0. -1.
         21    1    1    2  503  502  0.14161018209E+03  0.92802327419E+02  0.17216893659E+03  0.24147020183E+03  0.00000000000E+00 0. -1.
         21    1    1    2  504  503  0.20549324559E+02  0.30824047856E+02  0.49933729874E+01  0.37380883347E+02  0.00000000000E+00 0. -1.
         21    1    1    2  505  501 -0.83328243991E+02 -0.45600694905E+02  0.19259086784E+03  0.21474231534E+03  0.00000000000E+00 0. -1.
         -3    1    1    2    0  504 -0.78831262661E+02 -0.78025680370E+02  0.62576695949E+03  0.63552078043E+03  0.00000000000E+00 0.  1.
<scales pt_clust_3="32.38167" pt_clust_4="32.38167" pt_clust_5="94.98958" pt_clust_6="179.01187"></scales>
<clustering>
<clus scale="   32.382">  3  4 -1 -1</clus>
<clus scale="   94.990">  1  5  2 -1</clus>
<clus scale="  179.012">  1  6  2 -1</clus>
<clus scale="  191.931">  2  3  1 -1</clus>
</clustering>
</event>
<event>
 6    0  0.4796958E+002  0.1455432E+03  0.7546771E-02  0.1206059E+00
         21   -1    0    0  504  502  0.00000000000E+00  0.00000000000E+00  0.28734711561E+03  0.28734711561E+03  0.00000000000E+00 0. -1.
          2   -1    0    0  505    0 -0.00000000000E+00 -0.00000000000E+00 -0.66316273452E+03  0.66316273452E+03  0.00000000000E+00 0. -1.
         21    1    1    2  503  502  0.48002774283E+02  0.23879587465E+02  0.16002390261E+03  0.16876655606E+03  0.00000000000E+00 0. -1.
         21    1    1    2  504  501 -0.31471912144E+02  0.44172983505E+01  0.75012446971E+02  0.81466931815E+02  0.00000000000E+00 0. -1.
         21    1    1    2  505  503  0.31461712973E+02 -0.16023332549E+03 -0.16215417204E+03  0.23012721154E+03  0.00000000000E+00 0. -1.
          2    1    1    2  501    0 -0.47992575112E+02  0.13193643967E+03 -0.44869779646E+03  0.47014915072E+03  0.00000000000E+00 0. -1.
<scales pt_clust_3="35.90535" pt_clust_4="31.78040" pt_clust_5="14000.00000" pt_clust_6="145.54325"></scales>
<clustering>
<clus scale="   31.780">  1  4  2 -1</clus>
<clus scale="   35.905">  1  3  2 -1</clus>
<clus scale="  145.543">  2  6  1 -1</clus>
<clus scale="   31.780">  1  3  2 -1</clus>
</clustering>
</event>
<event>
 6    0  0.4796958E+002  0.2195683E+03  0.7546771E-02  0.1134205E+00
         21   -1    0    0  504  502  0.00000000000E+00  0.00000000000E+00  0.42322684422E+03  0.42322684422E+03  0.00000000000E+00 0. -1.
          3   -1    0    0  503    0 -0.00000000000E+00 -0.00000000000E+00 -0.50127969922E+03  0.50127969922E+03  0.00000000000E+00 0. -1.
         21    1    1    2  503  505 -0.88991286550E+02  0.14325041280E+03  0.11735587426E+03  0.20545688373E+03  0.00000000000E+00 0. -1.
         21    1    1    2  504  501 -0.10144835306E+03 -0.24181855768E+03  0.39225740010E+02  0.26515399649E+03  0.00000000000E+00 0. -1.
         21    1    1    2  505  502  0.18086905746E+01  0.43301089122E+02  0.75303301518E+02  0.86884077370E+02  0.00000000000E+00 0.  1.
          3    1    1    2  501    0  0.18863094903E+03  0.55267055754E+02 -0.30993777078E+03  0.36701158584E+03  0.00000000000E+00 0. -1.
<scales pt_clust_3="39.08172" pt_clust_4="205.58901" pt_clust_5="39.08172" pt_clust_6="196.56063"></scales>
<clustering>
<clus scale="   39.082">  3  5 -1 -1</clus>
<clus scale="  196.561">  2  6  1 -1</clus>
<clus scale="  205.589">  2  4  1 -1</clus>
<clus scale="  219.568">  1  3  2 -1</clus>
</clustering>
</event>
<event>
 6    0  0.4796958E+002  0.8562721E+02  0.7546771E-02  0.1313800E+00
         21   -1    0    0  504  502  0.00000000000E+00  0.00000000000E+00  0.15897558012E+03  0.15897558012E+03  0.00000000000E+00 0. -1.
          1   -1    0    0  505    0 -0.00000000000E+00 -0.00000000000E+00 -0.13222986493E+04  0.13222986493E+04  0.00000000000E+00 0. -1.
         21    1    1    2  503  501 -0.95004468015E+02  0.34592710330E+02 -0.93186137941E+02  0.13749967584E+03  0.00000000000E+00 0. -1.
         21    1    1    2  504  503  0.10041966657E+02  0.30414071747E+02  0.97301038274E+01  0.33474345028E+02  0.00000000000E+00 0. -1.
         21    1    1    2  505  502  0.59297538368E+02  0.18353991716E+02  0.10513532173E+03  0.12209219034E+03  0.00000000000E+00 0. -1.
          1    1    1    2  501    0  0.25664962991E+02 -0.83360773793E+02 -0.11850023568E+04  0.11882080182E+04  0.00000000000E+00 0. -1.
<scales pt_clust_3="14000.00000" pt_clust_4="32.02900" pt_clust_5="80.39308" pt_clust_6="85.62721"></scales>
<clustering>
<clus scale="   32.029">  1  4  2 -1</clus>
<clus scale="   80.393">  1  5  2 -1</clus>
<clus scale="   85.627">  2  6  1 -1</clus>
<clus scale="   32.029">  1  3  2 -1</clus>
</clustering>
</event>
<event>
 6    0  0.4796958E+002  0.9076673E+02  0.7546771E-02  0.1301005E+00
         21   -1    0    0  504  502  0.00000000000E+00  0.00000000000E+00  0.88094830075E+02  0.88094830075E+02  0.00000000000E+00 0.  1.
          2   -1    0    0  505    0 -0.00000000000E+00 -0.00000000000E+00 -0.28127668797E+04  0.28127668797E+04  0.00000000000E+00 0. -1.
         21    1    1    2  503  501 -0.40452110519E+02  0.35610337727E+02 -0.18302456736E+04  0.18310389660E+04  0.00000000000E+00 0.  1.
         21    1    1    2  504  503 -0.78782667908E+02  0.13139877969E+02  0.76919031794E+01  0.80240454449E+02  0.00000000000E+00 0.  1.
         21    1    1    2  505  502  0.10249675548E+03 -0.79001042828E+02 -0.53131346391E+02  0.13989170676E+03  0.00000000000E+00 0.  1.
          2    1    1    2  501    0  0.16738022949E+02  0.30250827132E+02 -0.84898693279E+03  0.84969058251E+03  0.00000000000E+00 0. -1.
<scales pt_clust_3="68.48154" pt_clust_4="90.76673" pt_clust_5="14000.00000" pt_clust_6="34.57273"></scales>
<clustering>
<clus scale="   34.573">  2  6  1 -1</clus>
<clus scale="   68.482">  2  3  1 -1</clus>
<clus scale="   90.767">  1  4  2 -1</clus>
<clus scale="   90.767">  1  3  2 -1</clus>
</clustering>
</event>
<event>
 6    0  0.4796958E+002  0.9260531E+02  0.7546771E-02  0.1296662E+00
         21   -1    0    0  505  502  0.00000000000E+00  0.00000000000E+00  0.48128539154E+03  0.48128539154E+03  0.00000000000E+00 0.  1.
          2   -1    0    0  504    0 -0.00000000000E+00 -0.00000000000E+00 -0.49105302022E+03  0.49105302022E+03  0.00000000000E+00 0. -1.
         21    1    1    2  503  501 -0.63712525019E+02 -0.31573610822E+02  0.36374597703E+03  0.37063096815E+03  0.00000000000E+00 0.  1.
         21    1    1    2  504  502 -0.25734974508E+02  0.44897433558E+02 -0.13963233448E+03  0.14891358999E+03  0.00000000000E+00 0. -1.
         21    1    1    2  505  503 -0.57893817031E+01 -0.31156055454E+02  0.10012372751E+03  0.10501893898E+03  0.00000000000E+00 0.  1.
          2    1    1    2  501    0  0.95236881230E+02  0.17832232718E+02 -0.33400499874E+03  0.34777491464E+03  0.00000000000E+00 0. -1.
<scales pt_clust_3="14000.00000" pt_clust_4="51.45473" pt_clust_5="31.68938" pt_clust_6="92.60531"></scales>
<clustering>
<clus scale="   31.689">  1  5  2 -1</clus>
<clus scale="   51.455">  2  4  1 -1</clus>
<clus scale="   92.605">  2  6  1 -1</clus>
<clus scale="   31.689">  1  3  2 -1</clus>
</clustering>
</event>
<event>
 6    0  0.4796958E+002  0.1157761E+03  0.7546771E-02  0.1250232E+00
          2   -1    0    0  502    0 -0.00000000000E+00  0.00000000000E+00  0.20832938892E+04  0.20832938892E+04  0.00000000000E+00 0.  1.
         21   -1    0    0  504  502  0.00000000000E+00 -0.00000000000E+00 -0.36638198994E+03  0.36638198994E+03  0.00000000000E+00 0. -1.
         21    1    1    2  503  501  0.12471297443E+03  0.30059663528E+02  0.19360267008E+03  0.23224750423E+03  0.00000000000E+00 0.  1.
         21    1    1    2  504  505 -0.68946148263E+02 -0.83445040699E+01 -0.22610874695E+03  0.23653407272E+03  0.00000000000E+00 0. -1.
         21    1    1    2  505  503 -0.39959769696E+02  0.83302031098E+02 -0.95526413633E+02  0.13289585126E+03  0.00000000000E+00 0. -1.
          2    1    1    2  501    0 -0.15807056467E+02 -0.10501719056E+03  0.18449443898E+04  0.18479984509E+04  0.00000000000E+00 0.  1.
<scales pt_clust_3="14000.00000" pt_clust_4="69.44928" pt_clust_5="115.77609" pt_clust_6="106.41217"></scales>
<clustering>
<clus scale="   69.449">  2  4  1 -1</clus>
<clus scale="  106.412">  1  6  2 -1</clus>
<clus scale="  115.776">  2  5  1 -1</clus>
<clus scale="   69.449">  2  3  1 -1</clus>
</clustering>
</event>
<event>
 6    0  0.4796958E+002  0.1166022E+03  0.7546771E-02  0.1248810E+00
         21   -1    0    0  501  502  0.00000000000E+00  0.00000000000E+00  0.14958571701E+03  0.14958571701E+03  0.00000000000E+00 0.  1.
          1   -1    0    0  504    0 -0.00000000000E+00 -0.00000000000E+00 -0.27972568871E+04  0.27972568871E+04  0.00000000000E+00 0. -1.
         21    1    1    2  503  502 -0.36268446733E+02 -0.74559031990E+01  0.99907500352E+02  0.10654810814E+03  0.00000000000E+00 0.  1.
         21    1    1    2  504  505  0.10561024973E+03  0.37350821424E+02 -0.11834263498E+04  0.11887163388E+04  0.00000000000E+00 0.  1.
         21    1    1    2  505  503 -0.36762143157E+02 -0.88455725629E+02 -0.10368937145E+02  0.96350326536E+02  0.00000000000E+00 0.  1.
          1    1    1    2  501    0 -0.32579659842E+02  0.58560807404E+02 -0.15537833835E+04  0.15552278307E+04  0.00000000000E+00 0. -1.
<scales pt_clust_3="37.02689" pt_clust_4="116.60218" pt_clust_5="14000.00000" pt_clust_6="67.18890"></scales>
<clustering>
<clus scale="   37.027">  1  3  2 -1</clus>
<clus scale="   67.189">  2  6  1 -1</clus>
<clus scale="  116.602">  2  4  1 -1</clus>
<clus scale="   37.027">  1  3  2 -1</clus>
</clustering>
</event>
<event>
 6    0  0.4796958E+002  0.8648036E+02  0.7546771E-02  0.1311606E+00
          2   -1    0    0  504    0 -0.00000000000E+00  0.00000000000E+00  0.23185706070E+04  0.23185706070E+04  0.00000000000E+00 0.  1.
         21   -1    0    0  503  502  0.00000000000E+00 -0.00000000000E+00 -0.89706403158E+01  0.89706403158E+01  0.00000000000E+00 0. -1.
         21    1    1    2  503  505  0.22926436082E+02  0.37037591748E+02  0.20490892689E+03  0.20948764401E+03  0.00000000000E+00 0. -1.
         21    1    1    2  504  502  0.76236096702E+02 -0.57839962040E+02  0.52416928864E+03  0.53283285072E+03  0.00000000000E+00 0. -1.
         21    1    1    2  505  501 -0.82324653495E+02 -0.42952626460E+01  0.82830972857E+03  0.83240182863E+03  0.00000000000E+00 0.  1.
          2    1    1    2  501    0 -0.16837879289E+02  0.25097632937E+02  0.75221202255E+03  0.75281892393E+03  0.00000000000E+00 0.  1.
<scales pt_clust_3="45.35655" pt_clust_4="86.48036" pt_clust_5="14000.00000" pt_clust_6="30.22260"></scales>
<clustering>
<clus scale="   30.223">  1  6  2 -1</clus>
<clus scale="   45.357">  2  3  1 -1</clus>
<clus scale="   86.480">  2  4  1 -1</clus>
<clus scale="   45.357">  2  3  1 -1</clus>
</clustering>
</event>
<event>
 6    0  0.4796958E+002  0.1564594E+03  0.7546771E-02  0.1192753E+00
          2   -1    0    0  503    0 -0.00000000000E+00  0.00000000000E+00  0.12789023070E+04  0.12789023070E+04  0.00000000000E+00 0.  1.
         21   -1    0    0  505  502  0.00000000000E+00 -0.00000000000E+00 -0.33347579103E+03  0.33347579103E+03  0.00000000000E+00 0. -1.
         21    1    1    2  503  502  0.44836846091E+02  0.10534889447E+03 -0.62050777608E+02  0.13022684568E+03  0.00000000000E+00 0. -1.
         21    1    1    2  504  501 -0.46944906820E+02 -0.19588200646E+03  0.21998270505E+03  0.29827164675E+03  0.00000000000E+00 0.  1.
         21    1    1    2  505  504  0.66171842531E+02  0.21770881491E+02 -0.18974658074E+03  0.20212978239E+03  0.00000000000E+00 0. -1.
          2    1    1    2  501    0 -0.64063781802E+02  0.68762230497E+02  0.97724116928E+03  0.98174982323E+03  0.00000000000E+00 0.  1.
<scales pt_clust_3="14000.00000" pt_clust_4="156.45937" pt_clust_5="69.66121" pt_clust_6="93.50841"></scales>
<clustering>
<clus scale="   69.661">  2  5  1 -1</clus>
<clus scale="   93.508">  1  6  2 -1</clus>
<clus scale="  156.459">  1  4  2 -1</clus>
<clus scale="   69.661">  2  3  1 -1</clus>
</clustering>
</event>
<event>
 6    0  0.4796958E+002  0.1140311E+03  0.7546771E-02  0.1253282E+00
          2   -1    0    0  502    0 -0.00000000000E+00  0.00000000000E+00  0.89759865863E+03  0.89759865863E+03  0.00000000000E+00 0. -1.
         21   -1    0    0  505  502  0.00000000000E+00 -0.00000000000E+00 -0.57113913999E+02  0.57113913999E+02  0.00000000000E+00 0.  1.
         21    1    1    2  503  504 -0.13750008547E+02 -0.34290146755E+02  0.62560016049E+02  0.72654198141E+02  0.00000000000E+00 0.  1.
         21    1    1    2  504  501 -0.10244779391E+03  0.42067386024E+02  0.20856422697E+03  0.23614455788E+03  0.00000000000E+00 0.  1.
         21    1    1    2  505  503  0.74478195079E+01  0.30800951015E+02 -0.25058057221E+02  0.40398945909E+02  0.00000000000E+00 0.  1.
          2    1    1    2  501    0  0.10874998295E+03 -0.38578190284E+02  0.59441855884E+03  0.60551487071E+03  0.00000000000E+00 0. -1.
<scales pt_clust_3="30.46814" pt_clust_4="114.03106" pt_clust_5="31.68862" pt_clust_6="14000.00000"></scales>
<clustering>
<clus scale="   31.689">  2  5  1 -1</clus>
<clus scale="   30.468">  2  3  1 -1</clus>
<clus scale="  114.031">  2  4  1 -1</clus>
<clus scale="   31.689">  2  3  1 -1</clus>
</clustering>
</event>
<event>
 6    0  0.4796958E+002  0.9676173E+02  0.7546771E-02  0.1287257E+00
          2   -1    0    0  504    0 -0.00000000000E+00  0.00000000000E+00  0.10495815179E+04  0.10495815179E+04  0.00000000000E+00 0. -1.
         21   -1    0    0  503  502  0.00000000000E+00 -0.00000000000E+00 -0.94646140208E+03  0.94646140208E+03  0.00000000000E+00 0.  1.
         21    1    1    2  503  501 -0.53827867971E+02  0.33809053373E+02 -0.23922037665E+03  0.24752147394E+03  0.00000000000E+00 0.  1.
         21    1    1    2  504  505  0.33528613334E+02  0.10127647056E+03  0.55502145281E+02  0.12025630766E+03  0.00000000000E+00 0. -1.
         21    1    1    2  505  502 -0.95843198635E+01 -0.10699824159E+03 -0.66596789096E+03  0.67457669296E+03  0.00000000000E+00 0.  1.
          2    1    1    2  501    0  0.29883574500E+02 -0.28087282340E+02  0.95280623818E+03  0.95368844544E+03  0.00000000000E+00 0. -1.
<scales pt_clust_3="61.83184" pt_clust_4="14000.00000" pt_clust_5="96.76173" pt_clust_6="41.01126"></scales>
<clustering>
<clus scale="   41.011">  1  6  2 -1</clus>
<clus scale="   61.832">  2  3  1 -1</clus>
<clus scale="   96.762">  2  5  1 -1</clus>
<clus scale="   61.832">  2  3  1 -1</clus>
</clustering>
</event>
<event>
 6    0  0.4796958E+002  0.1121019E+03  0.7546771E-02  0.1256726E+00
         21   -1    0    0  505  502  0.00000000000E+00  0.00000000000E+00  0.36384733980E+03  0.36384733980E+03  0.00000000000E+00 0. -1.
         -1   -1    0    0    0  501 -0.00000000000E+00 -0.00000000000E+00 -0.10980722833E+04  0.10980722833E+04  0.00000000000E+00 0.  1.
         21    1    1    2  503  502  0.78216720000E+02  0.37616607895E+02  0.76388354370E+02  0.11562026276E+03  0.00000000000E+00 0. -1.
         21    1    1    2  504  503 -0.48663627138E+02 -0.70175040202E+02 -0.30057858961E+03  0.31247427639E+03  0.00000000000E+00 0.  1.
         21    1    1    2  505  501  0.38417739673E+01  0.48309949477E+02  0.25920663290E+03  0.26369810197E+03  0.00000000000E+00 0. -1.
         -1    1    1    2    0  504 -0.33394866829E+02 -0.15751517169E+02 -0.76924134115E+03  0.77012698197E+03  0.00000000000E+00 0.  1.
<scales pt_clust_3="112.10185" pt_clust_4="14000.00000" pt_clust_5="48.33748" pt_clust_6="36.92326"></scales>
<clustering>
<clus scale="   36.923">  2  6  1 -1</clus>
<clus scale="   48.337">  1  5  2 -1</clus>
<clus scale="  112.102">  1  3  2 -1</clus>
<clus scale="   48.337">  1  3  2 -1</clus>
</clustering>
</event>
<event>
 6    0  0.4796958E+002  0.1279552E+03  0.7546771E-02  0.1230522E+00
          2   -1    0    0  505    0 -0.00000000000E+00  0.00000000000E+00  0.56919037833E+03  0.56919037833E+03  0.00000000000E+00 0.  1.
         21   -1    0    0  504  502  0.00000000000E+00 -0.00000000000E+00 -0.41053572731E+03  0.41053572731E+03  0.00000000000E+00 0.  1.
         21    1    1    2  503  501 -0.79582301152E+02  0.15744703837E+03  0.81398979242E+02  0.19429026319E+03  0.00000000000E+00 0.  1.
         21    1    1    2  504  503  0.32287246560E+02 -0.70794131131E+02 -0.27550650508E+03  0.28628326817E+03  0.00000000000E+00 0.  1.
         21    1    1    2  505  502  0.65539340901E+02 -0.16030366353E+02 -0.53678129667E+02  0.86219020267E+02  0.00000000000E+00 0.  1.
          2    1    1    2  501    0 -0.18244286309E+02 -0.70622540887E+02  0.40644030652E+03  0.41293355401E+03  0.00000000000E+00 0.  1.
<scales pt_clust_3="14000.00000" pt_clust_4="127.95520" pt_clust_5="67.47131" pt_clust_6="72.93558"></scales>
<clustering>
<clus scale="   67.471">  2  5  1 -1</clus>
<clus scale="   72.936">  1  6  2 -1</clus>
<clus scale="  127.955">  2  4  1 -1</clus>
<clus scale="   67.471">  2  3  1 -1</clus>
</clustering>
</event>
<event>
 6    0  0.4796958E+002  0.1066429E+03  0.7546771E-02  0.1266916E+00
          2   -1    0    0  505    0 -0.00000000000E+00  0.00000000000E+00  0.14357572945E+04  0.14357572945E+04  0.00000000000E+00 0. -1.
         21   -1    0    0  504  502  0.00000000000E+00 -0.00000000000E+00 -0.85948210271E+03  0.85948210271E+03  0.00000000000E+00 0. -1.
         21    1    1    2  503  502 -0.31601607272E+02 -0.99545500545E+02 -0.67673000819E+03  0.68474190192E+03  0.00000000000E+00 0. -1.
         21    1    1    2  504  501  0.87643963210E+02  0.76291904509E+01 -0.15960972593E+03  0.18224964594E+03  0.00000000000E+00 0.  1.
         21    1    1    2  505  503 -0.69186327297E+01  0.46078559370E+02  0.70831317280E+02  0.84783115182E+02  0.00000000000E+00 0.  1.
          2    1    1    2  501    0 -0.49123723208E+02  0.45837750724E+02  0.13417836086E+04  0.13434647341E+04  0.00000000000E+00 0. -1.
<scales pt_clust_3="106.64291" pt_clust_4="87.95210" pt_clust_5="46.59508" pt_clust_6="14000.00000"></scales>
<clustering>
<clus scale="   46.595">  1  5  2 -1</clus>
<clus scale="   87.952">  2  4  1 -1</clus>
<clus scale="  106.643">  2  3  1 -1</clus>
<clus scale="   87.952">  2  3  1 -1</clus>
</clustering>
</event>
<event>
 6    0  0.4796958E+002  0.6415267E+02  0.7546771E-02  0.1381187E+00
         21   -1    0    0  503  502  0.00000000000E+00  0.00000000000E+00  0.41780526491E+03  0.41780526491E+03  0.00000000000E+00 0.  1.
          2   -1    0    0  505    0 -0.00000000000E+00 -0.00000000000E+00 -0.18631839382E+04  0.18631839382E+04  0.00000000000E+00 0. -1.
         21    1    1    2  503  501 -0.62082744689E+02  0.12370841281E+02 -0.69546455392E+03  0.69833963847E+03  0.00000000000E+00 0. -1.
         21    1    1    2  504  502 -0.17047706782E+02  0.49441522359E+02  0.37336114044E+03  0.37700614005E+03  0.00000000000E+00 0.  1.
         21    1    1    2  505  504  0.65515549275E+02 -0.89414226262E+02 -0.34016029964E+02  0.11594947757E+03  0.00000000000E+00 0. -1.
          2    1    1    2  501    0  0.13614902196E+02  0.27601862621E+02 -0.10892592298E+04  0.10896939470E+04  0.00000000000E+00 0. -1.
<scales pt_clust_3="14000.00000" pt_clust_4="52.34911" pt_clust_5="64.15267" pt_clust_6="30.77708"></scales>
<clustering>
<clus scale="   30.777">  2  6  1 -1</clus>
<clus scale="   52.349">  1  4  2 -1</clus>
<clus scale="   64.153">  1  5  2 -1</clus>
<clus scale="   52.349">  1  3  2 -1</clus>
</clustering>
</event>
<event>
 6    0  0.4796958E+002  0.7905074E+02  0.7546771E-02  0.1331767E+00
         21   -1    0    0  503  502  0.00000000000E+00  0.00000000000E+00  0.21088228329E+03  0.21088228329E+03  0.00000000000E+00 0. -1.
         -3   -1    0    0    0  501 -0.00000000000E+00 -0.00000000000E+00 -0.14405182420E+04  0.14405182420E+04  0.00000000000E+00 0. -1.
         21    1    1    2  503  501 -0.13550986382E+01  0.43870715194E+02 -0.14313783470E+02  0.46166658328E+02  0.00000000000E+00 0. -1.
         21    1    1    2  504  502  0.22252527628E+02 -0.42113636263E+02  0.57160883956E+02  0.74404972951E+02  0.00000000000E+00 0. -1.
         21    1    1    2  505  504 -0.99764639514E+02 -0.22316050064E+01  0.10860598616E+03  0.14748974062E+03  0.00000000000E+00 0. -1.
         -3    1    1    2    0  505  0.78867210524E+02  0.47452607484E+00 -0.13810890453E+04  0.13833391534E+04  0.00000000000E+00 0. -1.
<scales pt_clust_3="43.89164" pt_clust_4="34.94140" pt_clust_5="79.05074" pt_clust_6="14000.00000"></scales>
<clustering>
<clus scale="   43.892">  1  3  2 -1</clus>
<clus scale="   34.941">  1  4  2 -1</clus>
<clus scale="   79.051">  1  5  2 -1</clus>
<clus scale="   43.892">  1  3  2 -1</clus>
</clustering>
</event>
<event>
 6    0  0.4796958E+002  0.1068738E+03  0.7546771E-02  0.1266471E+00
         21   -1    0    0  505  502  0.00000000000E+00  0.00000000000E+00  0.12536510380E+03  0.12536510380E+03  0.00000000000E+00 0.  1.
          2   -1    0    0  504    0 -0.00000000000E+00 -0.00000000000E+00 -0.25430781284E+04  0.25430781284E+04  0.00000000000E+00 0.  1.
         21    1    1    2  503  502 -0.26539455818E+01 -0.30890384857E+02  0.28962960906E+02  0.42427731594E+02  0.00000000000E+00 0.  1.
         21    1    1    2  504  503 -0.10029199826E+03  0.63689302200E+02  0.46347918718E+02  0.12752623926E+03  0.00000000000E+00 0. -1.
         21    1    1    2  505  501  0.87607573165E+02  0.68124555828E+01 -0.77921185428E+03  0.78415088489E+03  0.00000000000E+00 0.  1.
          2    1    1    2  501    0  0.15338370679E+02 -0.39611372926E+02 -0.17138120500E+04  0.17143383765E+04  0.00000000000E+00 0.  1.
<scales pt_clust_3="31.00418" pt_clust_4="14000.00000" pt_clust_5="106.87379" pt_clust_6="42.55911"></scales>
<clustering>
<clus scale="   31.004">  1  3  2 -1</clus>
<clus scale="   42.559">  2  6  1 -1</clus>
<clus scale="  106.874">  2  5  1 -1</clus>
<clus scale="   31.004">  1  3  2 -1</clus>
</clustering>
</event>
<event>
 6    0  0.4796958E+002  0.8453005E+02  0.7546771E-02  0.1316666E+00
         21   -1    0    0  504  502  0.00000000000E+00  0.00000000000E+00  0.99746908948E+01  0.99746908948E+01  0.00000000000E+00 0.  1.
          1   -1    0    0  505    0 -0.00000000000E+00 -0.00000000000E+00 -0.46064924832E+04  0.46064924832E+04  0.00000000000E+00 0.  1.
         21    1    1    2  503  501  0.45153254782E+02  0.19273020812E+02 -0.79046665222E+03  0.79198976888E+03  0.00000000000E+00 0.  1.
         21    1    1    2  504  503 -0.37518822561E+01 -0.94029334833E+02 -0.28927239582E+03  0.30419420016E+03  0.00000000000E+00 0.  1.
         21    1    1    2  505  502 -0.65499320943E+02  0.48212756015E+02 -0.10168217908E+04  0.10200692060E+04  0.00000000000E+00 0.  1.
          1    1    1    2  501    0  0.24097948416E+02  0.26543558006E+02 -0.24999569535E+04  0.25002139991E+04  0.00000000000E+00 0.  1.
<scales pt_clust_3="61.59045" pt_clust_4="84.53005" pt_clust_5="14000.00000" pt_clust_6="35.85068"></scales>
<clustering>
<clus scale="   35.851">  2  6  1 -1</clus>
<clus scale="   61.590">  2  3  1 -1</clus>
<clus scale="   84.530">  1  4  2 -1</clus>
<clus scale="   84.530">  1  3  2 -1</clus>
</clustering>
</event>
<event>
 6    0  0.4796958E+002  0.9974076E+02  0.7546771E-02  0.1280842E+00
          2   -1    0    0  505    0 -0.00000000000E+00  0.00000000000E+00  0.45550253608E+04  0.45550253608E+04  0.00000000000E+00 0.  1.
         21   -1    0    0  503  502  0.00000000000E+00 -0.00000000000E+00 -0.36602745645E+03  0.36602745645E+03  0.00000000000E+00 0.  1.
         21    1    1    2  503  504  0.40663181902E+02  0.36541562035E+02 -0.29566505930E+03  0.30067691533E+03  0.00000000000E+00 0.  1.
         21    1    1    2  504  501 -0.91313240396E+02  0.37701005136E+02  0.61435211841E+02  0.11633468491E+03  0.00000000000E+00 0.  1.
         21    1    1    2  505  502  0.95676716541E+02 -0.21479906921E+02  0.19762735724E+02  0.10002992659E+03  0.00000000000E+00 0.  1.
          2    1    1    2  501    0 -0.45026658047E+02 -0.52762660250E+02  0.44034650161E+04  0.44040112904E+04  0.00000000000E+00 0.  1.
<scales pt_clust_3="54.66974" pt_clust_4="14000.00000" pt_clust_5="99.74076" pt_clust_6="69.14539"></scales>
<clustering>
<clus scale="   54.670">  2  3  1 -1</clus>
<clus scale="   69.145">  1  6  2 -1</clus>
<clus scale="   99.741">  1  5  2 -1</clus>
<clus scale="   54.670">  2  3  1 -1</clus>
</clustering>
</event>
<event>
 6    0  0.4796958E+002  0.1923656E+03  0.7546771E-02  0.1156345E+00
         21   -1    0    0  505  502  0.00000000000E+00  0.00000000000E+00  0.99381982689E+02  0.99381982689E+02  0.00000000000E+00 0. -1.
          1   -1    0    0  504    0 -0.00000000000E+00 -0.00000000000E+00 -0.14785141664E+04  0.14785141664E+04  0.00000000000E+00 0.  1.
         21    1    1    2  503  501  0.16539325217E+03 -0.76887618075E+01 -0.12721574357E+03  0.20880107838E+03  0.00000000000E+00 0. -1.
         21    1    1    2  504  502 -0.12322003331E+03  0.67049666174E+02 -0.14673936642E+03  0.20300560583E+03  0.00000000000E+00 0. -1.
         21    1    1    2  505  503  0.45516718029E+02 -0.21207593801E+02  0.62084377982E+01  0.50597216869E+02  0.00000000000E+00 0. -1.
          1    1    1    2  501    0 -0.87689936884E+02 -0.38153310565E+02 -0.11113855115E+04  0.11154922480E+04  0.00000000000E+00 0.  1.
<scales pt_clust_3="47.13862" pt_clust_4="172.27256" pt_clust_5="47.13862" pt_clust_6="95.63054"></scales>
<clustering>
<clus scale="   47.139">  3  5 -1 -1</clus>
<clus scale="   95.631">  2  6  1 -1</clus>
<clus scale="  172.273">  2  4  1 -1</clus>
<clus scale="  192.366">  1  3  2 -1</clus>
</clustering>
</event>
<event>
 6    0  0.4796958E+002  0.7609076E+02  0.7546771E-02  0.1340526E+00
          2   -1    0    0  505    0 -0.00000000000E+00  0.00000000000E+00  0.50507153768E+04  0.50507153768E+04  0.00000000000E+00 0.  1.
         21   -1    0    0  503  502  0.00000000000E+00 -0.00000000000E+00 -0.76731915845E+02  0.76731915845E+02  0.00000000000E+00 0.  1.
         21    1    1    2  503  504  0.69247059742E+02 -0.46980125407E+02 -0.29715599852E+02  0.88799236150E+02  0.00000000000E+00 0.  1.
         21    1    1    2  504  501 -0.66847327755E+02  0.12323835413E+01  0.51271381453E+02  0.84254605532E+02  0.00000000000E+00 0. -1.
         21    1    1    2  505  502  0.40067250774E+02 -0.25650965900E+02  0.10445103863E+04  0.10455932783E+04  0.00000000000E+00 0.  1.
          2    1    1    2  501    0 -0.42466982760E+02  0.71398707766E+02  0.39079172931E+04  0.39088001726E+04  0.00000000000E+00 0.  1.
<scales pt_clust_3="76.09076" pt_clust_4="14000.00000" pt_clust_5="47.57475" pt_clust_6="46.49337"></scales>
<clustering>
<clus scale="   47.575">  1  5  2 -1</clus>
<clus scale="   46.493">  1  6  2 -1</clus>
<clus scale="   76.091">  2  3  1 -1</clus>
<clus scale="   76.091">  2  3  1 -1</clus>
</clustering>
</event>
<event>
 6    0  0.4796958E+002  0.1166327E+03  0.7546771E-02  0.1248758E+00
          1   -1    0    0  503    0 -0.00000000000E+00  0.00000000000E+00  0.11662939228E+04  0.11662939228E+04  0.00000000000E+00 0. -1.
         21   -1    0    0  504  502  0.00000000000E+00 -0.00000000000E+00 -0.39914993946E+02  0.39914993946E+02  0.00000000000E+00 0. -1.
         21    1    1    2  503  505 -0.55537811618E+02  0.95291746317E+02  0.43731248656E+03  0.45100684732E+03  0.00000000000E+00 0. -1.
         21    1    1    2  504  501  0.34490752621E+01 -0.94865716186E+02  0.82253630172E+02  0.12560676695E+03  0.00000000000E+00 0. -1.
         21    1    1    2  505  502  0.63150526771E+02 -0.40797239584E+02  0.12428689957E+03  0.14525714163E+03  0.00000000000E+00 0. -1.
          1    1    1    2  501    0 -0.11061790416E+02  0.40371209453E+02  0.48252591251E+03  0.48433816079E+03  0.00000000000E+00 0. -1.
<scales pt_clust_3="116.63272" pt_clust_4="14000.00000" pt_clust_5="69.24440" pt_clust_6="41.85926"></scales>
<clustering>
<clus scale="   41.859">  1  6  2 -1</clus>
<clus scale="   69.244">  2  5  1 -1</clus>
<clus scale="  116.633">  1  3  2 -1</clus>
<clus scale="   69.244">  2  3  1 -1</clus>
</clustering>
</event>
<event>
 6    0  0.4796958E+002  0.1084692E+03  0.7546771E-02  0.1263431E+00
          2   -1    0    0  504    0 -0.00000000000E+00  0.00000000000E+00  0.16863537853E+03  0.16863537853E+03  0.00000000000E+00 0.  1.
         21   -1    0    0  503  502  0.00000000000E+00 -0.00000000000E+00 -0.35339385865E+03  0.35339385865E+03  0.00000000000E+00 0. -1.
         21    1    1    2  503  505  0.58831223094E+01 -0.40970964641E+02 -0.29898402639E+02  0.51060214964E+02  0.00000000000E+00 0.  1.
         21    1    1    2  504  502 -0.94284340176E+02  0.82469377870E+02 -0.27969683975E+03  0.30646542587E+03  0.00000000000E+00 0. -1.
         21    1    1    2  505  501  0.23360822040E+02 -0.28573607284E+02  0.24733927777E+02  0.44429114586E+02  0.00000000000E+00 0.  1.
          2    1    1    2  501    0  0.65040395826E+02 -0.12924805945E+02  0.10010283449E+03  0.12007448176E+03  0.00000000000E+00 0.  1.
<scales pt_clust_3="41.39120" pt_clust_4="99.12232" pt_clust_5="32.86237" pt_clust_6="32.86237"></scales>
<clustering>
<clus scale="   32.862">  5  6 -1 -1</clus>
<clus scale="   41.391">  2  3  1 -1</clus>
<clus scale="   99.122">  2  4  1 -1</clus>
<clus scale="   41.391">  2  3  1 -1</clus>
</clustering>
</event>
<event>
 6    0  0.4796958E+002  0.7229513E+02  0.7546771E-02  0.1352458E+00
         21   -1    0    0  504  502  0.00000000000E+00  0.00000000000E+00  0.12050892879E+04  0.12050892879E+04  0.00000000000E+00 0.  1.
         -3   -1    0    0    0  501 -0.00000000000E+00 -0.00000000000E+00 -0.75859111377E+02  0.75859111377E+02  0.00000000000E+00 0.  1.
         21    1    1    2  503  501  0.37937600626E+02  0.25081426405E+02  0.11521420374E+03  0.12386546021E+03  0.00000000000E+00 0.  1.
         21    1    1    2  504  503 -0.45745343496E+01 -0.29922989630E+02  0.18028568541E+03  0.18280929964E+03  0.00000000000E+00 0. -1.
         21    1    1    2  505  502 -0.10371113962E+03 -0.86083751309E+01  0.88186186285E+03  0.88798110890E+03  0.00000000000E+00 0.  1.
         -3    1    1    2    0  505  0.70348073344E+02  0.13449938356E+02 -0.48131575479E+02  0.86292530518E+02  0.00000000000E+00 0.  1.
<scales pt_clust_3="43.18560" pt_clust_4="30.27064" pt_clust_5="72.29513" pt_clust_6="14000.00000"></scales>
<clustering>
<clus scale="   30.271">  1  4  2 -1</clus>
<clus scale="   43.186">  1  3  2 -1</clus>
<clus scale="   72.295">  1  5  2 -1</clus>
<clus scale="   30.271">  1  3  2 -1</clus>
</clustering>
</event>
<event>
 6    0  0.4796958E+002  0.1364355E+03  0.7546771E-02  0.1218207E+00
          1   -1    0    0  505    0 -0.00000000000E+00  0.00000000000E+00  0.44644958011E+03  0.44644958011E+03  0.00000000000E+00 0.  1.
         21   -1    0    0  503  502  0.00000000000E+00 -0.00000000000E+00 -0.19506631409E+03  0.19506631409E+03  0.00000000000E+00 0. -1.
         21    1    1    2  503  504 -0.44407323581E+02 -0.14640249078E+02 -0.68933230166E+02  0.83295483082E+02  0.00000000000E+00 0. -1.
         21    1    1    2  504  501  0.13686241085E+02 -0.12364949855E+03 -0.59725378332E+02  0.13799866848E+03  0.00000000000E+00 0. -1.
         21    1    1    2  505  502  0.38787283554E+02  0.48973930368E+01  0.45575707440E+02  0.60046506415E+02  0.00000000000E+00 0. -1.
          1    1    1    2  501    0 -0.80662010577E+01  0.13339235459E+03  0.33446616708E+03  0.36017523622E+03  0.00000000000E+00 0.  1.
<scales pt_clust_3="46.05861" pt_clust_4="136.43551" pt_clust_5="39.09524" pt_clust_6="14000.00000"></scales>
<clustering>
<clus scale="   39.095">  1  5  2 -1</clus>
<clus scale="   46.059">  2  3  1 -1</clus>
<clus scale="  136.436">  2  4  1 -1</clus>
<clus scale="   46.059">  2  3  1 -1</clus>
</clustering>
</event>
<event>
 6    0  0.4796958E+002  0.8710481E+02  0.7546771E-02  0.1310018E+00
         21   -1    0    0  501  502  0.00000000000E+00  0.00000000000E+00  0.36608378435E+03  0.36608378435E+03  0.00000000000E+00 0. -1.
          3   -1    0    0  504    0 -0.00000000000E+00 -0.00000000000E+00 -0.71993788884E+03  0.71993788884E+03  0.00000000000E+00 0.  1.
         21    1    1    2  503  502 -0.12706876989E+02  0.89733120526E+02  0.33690220627E+03  0.34887905387E+03  0.00000000000E+00 0. -1.
         21    1    1    2  504  505 -0.57248970880E+02 -0.56070686078E+02 -0.53170491959E+03  0.53770948292E+03  0.00000000000E+00 0.  1.
         21    1    1    2  505  503  0.19243941067E+02 -0.52593770837E+02 -0.40515805112E+02  0.69122821575E+02  0.00000000000E+00 0. -1.
          3    1    1    2  501    0  0.50711906802E+02  0.18931336388E+02 -0.11853558606E+03  0.13031031483E+03  0.00000000000E+00 0.  1.
<scales pt_clust_3="14000.00000" pt_clust_4="40.79094" pt_clust_5="87.10481" pt_clust_6="54.13033"></scales>
<clustering>
<clus scale="   54.130">  2  6  1 -1</clus>
<clus scale="   40.791">  2  4  1 -1</clus>
<clus scale="   87.105">  2  5  1 -1</clus>
<clus scale="   87.105">  1  3  2 -1</clus>
</clustering>
</event>
<event>
 6    0  0.4796958E+002  0.1573377E+03  0.7546771E-02  0.1191736E+00
         21   -1    0    0  504  502  0.00000000000E+00  0.00000000000E+00  0.93778642959E+03  0.93778642959E+03  0.00000000000E+00 0. -1.
          2   -1    0    0  503    0 -0.00000000000E+00 -0.00000000000E+00 -0.87046248774E+03  0.87046248774E+03  0.00000000000E+00 0.  1.
         21    1    1    2  503  505  0.11013758462E+03 -0.28006228282E+01  0.17269699269E+03  0.20484721701E+03  0.00000000000E+00 0. -1.
         21    1    1    2  504  501 -0.11324365423E+03 -0.68920098644E+01 -0.34451163660E+03  0.36271185916E+03  0.00000000000E+00 0.  1.
         21    1    1    2  505  502  0.55511844325E+02 -0.30547593014E+01  0.73741259395E+03  0.73950539561E+03  0.00000000000E+00 0. -1.
          2    1    1    2  501    0 -0.52405774710E+02  0.12747391994E+02 -0.49827400819E+03  0.50118444555E+03  0.00000000000E+00 0.  1.
<scales pt_clust_3="14000.00000" pt_clust_4="157.33767" pt_clust_5="55.44617" pt_clust_6="53.93386"></scales>
<clustering>
<clus scale="   53.934">  2  6  1 -1</clus>
<clus scale="   55.446">  1  5  2 -1</clus>
<clus scale="  157.338">  2  4  1 -1</clus>
<clus scale="   55.446">  1  3  2 -1</clus>
</clustering>
</event>
<event>
 6    0  0.4796958E+002  0.9888432E+02  0.7546771E-02  0.1282660E+00
          2   -1    0    0  505    0 -0.00000000000E+00  0.00000000000E+00  0.22158175089E+04  0.22158175089E+04  0.00000000000E+00 0. -1.
         21   -1    0    0  503  502  0.00000000000E+00 -0.00000000000E+00 -0.24631666456E+03  0.24631666456E+03  0.00000000000E+00 0.  1.
         21    1    1    2  503  501  0.13838892501E+03 -0.21627179308E+02 -0.12390852868E+03  0.18700949957E+03  0.00000000000E+00 0.  1.
         21    1    1    2  504  502 -0.41526252663E+02  0.26191419226E+02 -0.27619899041E+02  0.56331864201E+02  0.00000000000E+00 0.  1.
         21    1    1    2  505  504 -0.60961646575E+02 -0.91502969120E+02  0.15353548167E+02  0.11101732816E+03  0.00000000000E+00 0.  1.
          2    1    1    2  501    0 -0.35901025774E+02  0.86938729202E+02  0.21056757239E+04  0.21077754815E+04  0.00000000000E+00 0. -1.
<scales pt_clust_3="98.88432" pt_clust_4="49.09603" pt_clust_5="14000.00000" pt_clust_6="94.26562"></scales>
<clustering>
<clus scale="   49.096">  2  4  1 -1</clus>
<clus scale="   94.266">  1  6  2 -1</clus>
<clus scale="   98.884">  2  3  1 -1</clus>
<clus scale="   49.096">  2  3  1 -1</clus>
</clustering>
</event>
<event>
 6    0  0.4796958E+002  0.8737968E+02  0.7546771E-02  0.1309324E+00
         21   -1    0    0  503  502  0.00000000000E+00  0.00000000000E+00  0.59660664368E+03  0.59660664368E+03  0.00000000000E+00 0. -1.
          2   -1    0    0  504    0 -0.00000000000E+00 -0.00000000000E+00 -0.17929035670E+04  0.17929035670E+04  0.00000000000E+00 0.  1.
         21    1    1    2  503  501 -0.29364621311E+02  0.24553267633E+02  0.51197584191E+02  0.63924459819E+02  0.00000000000E+00 0.  1.
         21    1    1    2  504  505 -0.27503546793E+02 -0.10442809921E+03 -0.55260918634E+03  0.56306179574E+03  0.00000000000E+00 0.  1.
         21    1    1    2  505  502  0.33810826498E+01  0.59154709107E+02  0.53150276068E+03  0.53479519065E+03  0.00000000000E+00 0. -1.
          2    1    1    2  501    0  0.53487085454E+02  0.20720122469E+02 -0.12263880818E+04  0.12277287645E+04  0.00000000000E+00 0.  1.
<scales pt_clust_3="38.27720" pt_clust_4="14000.00000" pt_clust_5="87.37968" pt_clust_6="57.33719"></scales>
<clustering>
<clus scale="   38.277">  1  3  2 -1</clus>
<clus scale="   57.337">  2  6  1 -1</clus>
<clus scale="   87.380">  1  5  2 -1</clus>
<clus scale="   38.277">  1  3  2 -1</clus>
</clustering>
</event>
<event>
 6    0  0.4796958E+002  0.8420297E+02  0.7546771E-02  0.1317530E+00
         -4   -1    0    0    0  501 -0.00000000000E+00  0.00000000000E+00  0.58074247569E+03  0.58074247569E+03  0.00000000000E+00 0.  1.
         21   -1    0    0  503  502  0.00000000000E+00 -0.00000000000E+00 -0.63343705431E+03  0.63343705431E+03  0.00000000000E+00 0. -1.
         21    1    1    2  503  504 -0.47823812318E+02  0.35117917925E+02  0.15576432837E+01  0.59353276545E+02  0.00000000000E+00 0. -1.
         21    1    1    2  504  501  0.83428215232E+01  0.34966204015E+02  0.30701808071E+02  0.47274085004E+02  0.00000000000E+00 0.  1.
         21    1    1    2  505  502 -0.83822840207E+02 -0.54021032627E+01 -0.58371112934E+03  0.58972377752E+03  0.00000000000E+00 0. -1.
         -4    1    1    2    0  505  0.12330383100E+03 -0.64682018677E+02  0.49875709937E+03  0.51782839093E+03  0.00000000000E+00 0.  1.
<scales pt_clust_3="60.14707" pt_clust_4="35.94771" pt_clust_5="14000.00000" pt_clust_6="84.20297"></scales>
<clustering>
<clus scale="   35.948">  1  4  2 -1</clus>
<clus scale="   60.147">  1  3  2 -1</clus>
<clus scale="   84.203">  1  6  2 -1</clus>
<clus scale="   84.203">  2  3  1 -1</clus>
</clustering>
</event>
<event>
 6    0  0.4796958E+002  0.1028025E+03  0.7546771E-02  0.1274511E+00
         -1   -1    0    0    0  501 -0.00000000000E+00  0.00000000000E+00  0.13665889061E+03  0.13665889061E+03  0.00000000000E+00 0. -1.
         21   -1    0    0  504  502  0.00000000000E+00 -0.00000000000E+00 -0.12478636153E+04  0.12478636153E+04  0.00000000000E+00 0. -1.
         21    1    1    2  503  505  0.72864407284E+02  0.22287596985E+02 -0.19104723554E+03  0.20568180531E+03  0.00000000000E+00 0. -1.
         21    1    1    2  504  503 -0.11693903879E+03  0.21036331284E+02 -0.99357180105E+03  0.10006508831E+04  0.00000000000E+00 0. -1.
         21    1    1    2  505  501  0.70336317645E+02  0.96809435169E+01 -0.14268511220E+02  0.72418979968E+02  0.00000000000E+00 0. -1.
         -1    1    1    2    0  502 -0.26261686143E+02 -0.53004871786E+02  0.87682823144E+02  0.10577083751E+03  0.00000000000E+00 0. -1.
<scales pt_clust_3="102.80245" pt_clust_4="14000.00000" pt_clust_5="58.81241" pt_clust_6="59.15397"></scales>
<clustering>
<clus scale="   59.154">  1  6  2 -1</clus>
<clus scale="   58.812">  1  5  2 -1</clus>
<clus scale="  102.802">  1  3  2 -1</clus>
<clus scale="  102.802">  2  3  1 -1</clus>
</clustering>
</event>
<event>
 6    0  0.4796958E+002  0.1305754E+03  0.7546771E-02  0.1226605E+00
         21   -1    0    0  501  502  0.00000000000E+00  0.00000000000E+00  0.33392401662E+03  0.33392401662E+03  0.00000000000E+00 0.  1.
          2   -1    0    0  505    0 -0.00000000000E+00 -0.00000000000E+00 -0.23707693449E+04  0.23707693449E+04  0.00000000000E+00 0. -1.
         21    1    1    2  503  504 -0.17828339228E+02  0.90035003664E+02  0.32430521610E+02  0.97344184707E+02  0.00000000000E+00 0.  1.
         21    1    1    2  504  502 -0.66784822816E+02  0.17787986412E+02  0.25824303418E+03  0.26733142299E+03  0.00000000000E+00 0.  1.
         21    1    1    2  505  503  0.25057120917E+02 -0.12932545777E+03 -0.76811872782E+03  0.77933260766E+03  0.00000000000E+00 0. -1.
          2    1    1    2  501    0  0.59556041127E+02  0.21502467697E+02 -0.15594001562E+04  0.15606851461E+04  0.00000000000E+00 0. -1.
<scales pt_clust_3="130.57535" pt_clust_4="68.82188" pt_clust_5="14000.00000" pt_clust_6="63.31886"></scales>
<clustering>
<clus scale="   63.319">  2  6  1 -1</clus>
<clus scale="   68.822">  1  4  2 -1</clus>
<clus scale="  130.575">  1  3  2 -1</clus>
<clus scale="   68.822">  1  3  2 -1</clus>
</clustering>
</event>
<event>
 6    0  0.4796958E+002  0.8440671E+02  0.7546771E-02  0.1316991E+00
         21   -1    0    0  501  502  0.00000000000E+00  0.00000000000E+00  0.13835342985E+03  0.13835342985E+03  0.00000000000E+00 0.  1.
          2   -1    0    0  503    0 -0.00000000000E+00 -0.00000000000E+00 -0.14950424846E+04  0.14950424846E+04  0.00000000000E+00 0. -1.
         21    1    1    2  503  504  0.58562942134E+02  0.84376983716E+02 -0.35573208575E+03  0.37026262356E+03  0.00000000000E+00 0. -1.
         21    1    1    2  504  505 -0.33783672690E+02 -0.84254833589E+02  0.64740160350E+02  0.11149664518E+03  0.00000000000E+00 0.  1.
         21    1    1    2  505  502  0.40346326983E+02 -0.13897851682E+00  0.32316499427E+02  0.51693341459E+02  0.00000000000E+00 0.  1.
          2    1    1    2  501    0 -0.65125596427E+02  0.16828388995E-01 -0.10980136288E+04  0.10999433043E+04  0.00000000000E+00 0. -1.
<scales pt_clust_3="14000.00000" pt_clust_4="84.40671" pt_clust_5="40.34657" pt_clust_6="64.72157"></scales>
<clustering>
<clus scale="   40.347">  1  5  2 -1</clus>
<clus scale="   64.722">  2  6  1 -1</clus>
<clus scale="   84.407">  1  4  2 -1</clus>
<clus scale="   40.347">  1  3  2 -1</clus>
</clustering>
</event>
<event>
 6    0  0.4796958E+002  0.8370933E+02  0.7546771E-02  0.1318843E+00
         21   -1    0    0  503  502  0.00000000000E+00  0.00000000000E+00  0.45912601766E+03  0.45912601766E+03  0.00000000000E+00 0.  1.
          1   -1    0    0  504    0 -0.00000000000E+00 -0.00000000000E+00 -0.13646346485E+04  0.13646346485E+04  0.00000000000E+00 0. -1.
         21    1    1    2  503  501 -0.14889581318E+02 -0.35053176678E+02  0.15590662167E+03  0.16049080817E+03  0.00000000000E+00 0.  1.
         21    1    1    2  504  505  0.19405590510E+02  0.11472228494E+03 -0.11321239319E+03  0.16234169389E+03  0.00000000000E+00 0.  1.
         21    1    1    2  505  502  0.63399724306E+02 -0.30854413567E+02  0.27040848992E+03  0.27944994417E+03  0.00000000000E+00 0.  1.
          1    1    1    2  501    0 -0.67915733498E+02 -0.48814694699E+02 -0.12186113492E+04  0.12214782199E+04  0.00000000000E+00 0. -1.
<scales pt_clust_3="38.08444" pt_clust_4="14000.00000" pt_clust_5="80.20904" pt_clust_6="83.70933"></scales>
<clustering>
<clus scale="   38.084">  1  3  2 -1</clus>
<clus scale="   80.209">  1  5  2 -1</clus>
<clus scale="   83.709">  2  6  1 -1</clus>
<clus scale="   38.084">  1  3  2 -1</clus>
</clustering>
</event>
<event>
 6    0  0.4796958E+002  0.7620614E+02  0.7546771E-02  0.1340176E+00
          2   -1    0    0  503    0 -0.00000000000E+00  0.00000000000E+00  0.43811497259E+03  0.43811497259E+03  0.00000000000E+00 0.  1.
         21   -1    0    0  505  502  0.00000000000E+00 -0.00000000000E+00 -0.56383018706E+02  0.56383018706E+02  0.00000000000E+00 0.  1.
         21    1    1    2  503  504  0.74477268261E+02  0.45230741899E+02  0.59171763689E+02  0.10532796931E+03  0.00000000000E+00 0.  1.
         21    1    1    2  504  502  0.11250629496E+02 -0.45958976952E+02  0.34109835999E+02  0.58329110557E+02  0.00000000000E+00 0.  1.
         21    1    1    2  505  501 -0.73682961748E+02  0.61581281758E+02  0.13819170524E+03  0.16828065994E+03  0.00000000000E+00 0.  1.
          2    1    1    2  501    0 -0.12044936010E+02 -0.60853046705E+02  0.15025864896E+03  0.16256025149E+03  0.00000000000E+00 0.  1.
<scales pt_clust_3="14000.00000" pt_clust_4="47.31600" pt_clust_5="76.20614" pt_clust_6="68.05015"></scales>
<clustering>
<clus scale="   47.316">  2  4  1 -1</clus>
<clus scale="   68.050">  1  6  2 -1</clus>
<clus scale="   76.206">  1  5  2 -1</clus>
<clus scale="   47.316">  2  3  1 -1</clus>
</clustering>
</event>
<event>
 6    0  0.4796958E+002  0.9266197E+02  0.7546771E-02  0.1296530E+00
          2   -1    0    0  503    0 -0.00000000000E+00  0.00000000000E+00  0.26997665649E+04  0.26997665649E+04  0.00000000000E+00 0. -1.
         21   -1    0    0  501  502  0.00000000000E+00 -0.00000000000E+00 -0.58243478355E+03  0.58243478355E+03  0.00000000000E+00 0.  1.
         21    1    1    2  503  504  0.55791714218E+02  0.30748713376E+02  0.39336294639E+03  0.39848789987E+03  0.00000000000E+00 0. -1.
         21    1    1    2  504  505 -0.79660825538E+02  0.44191546345E+02  0.12795327255E+03  0.15706934726E+03  0.00000000000E+00 0. -1.
         21    1    1    2  505  502  0.22106052358E+02  0.32424886093E+02 -0.56329746344E+03  0.56466280479E+03  0.00000000000E+00 0.  1.
          2    1    1    2  501    0  0.17630589620E+01 -0.10736514581E+03  0.21593130259E+04  0.21619812966E+04  0.00000000000E+00 0. -1.
<scales pt_clust_3="68.60957" pt_clust_4="14000.00000" pt_clust_5="39.24348" pt_clust_6="92.66197"></scales>
<clustering>
<clus scale="   39.243">  2  5  1 -1</clus>
<clus scale="   68.610">  1  3  2 -1</clus>
<clus scale="   92.662">  1  6  2 -1</clus>
<clus scale="   39.243">  2  3  1 -1</clus>
</clustering>
</event>
<event>
 6    0  0.4796958E+002  0.7957481E+02  0.7546771E-02  0.1330262E+00
         21   -1    0    0  504  502  0.00000000000E+00  0.00000000000E+00  0.73971181142E+02  0.73971181142E+02  0.00000000000E+00 0.  1.
          2   -1    0    0  505    0 -0.00000000000E+00 -0.00000000000E+00 -0.25012832324E+04  0.25012832324E+04  0.00000000000E+00 0.  1.
         21    1    1    2  503  501  0.78507778634E+02  0.28574256350E+02 -0.11706038693E+03  0.14381617996E+03  0.00000000000E+00 0.  1.
         21    1    1    2  504  503  0.22562000595E+02  0.38896270756E+02  0.40365705511E+02  0.60426434041E+02  0.00000000000E+00 0.  1.
         21    1    1    2  505  502 -0.57074860671E+02 -0.62085367233E+02 -0.16832712962E+03  0.18827149309E+03  0.00000000000E+00 0.  1.
          2    1    1    2  501    0 -0.43994918558E+02 -0.53851598731E+01 -0.21822902402E+04  0.21827403064E+04  0.00000000000E+00 0.  1.
<scales pt_clust_3="14000.00000" pt_clust_4="44.13910" pt_clust_5="79.57481" pt_clust_6="44.32328"></scales>
<clustering>
<clus scale="   44.323">  2  6  1 -1</clus>
<clus scale="   44.139">  1  4  2 -1</clus>
<clus scale="   79.575">  1  5  2 -1</clus>
<clus scale="   44.139">  1  3  2 -1</clus>
</clustering>
</event>
<event>
 6    0  0.4796958E+002  0.7506126E+02  0.7546771E-02  0.1343681E+00
          2   -1    0    0  505    0 -0.00000000000E+00  0.00000000000E+00  0.18063903852E+03  0.18063903852E+03  0.00000000000E+00 0. -1.
         21   -1    0    0  504  502  0.00000000000E+00 -0.00000000000E+00 -0.49844636124E+03  0.49844636124E+03  0.00000000000E+00 0. -1.
         21    1    1    2  503  502 -0.25493583988E+02  0.61183883307E+02 -0.39887567135E+03  0.40434538651E+03  0.00000000000E+00 0. -1.
         21    1    1    2  504  501 -0.48039577731E+02 -0.75481943095E+02 -0.12262330462E+02  0.90308856212E+02  0.00000000000E+00 0. -1.
         21    1    1    2  505  503  0.53112606026E+02  0.38869866855E+02 -0.18304126126E+02  0.68314394540E+02  0.00000000000E+00 0.  1.
          2    1    1    2  501    0  0.20420555693E+02 -0.24571807067E+02  0.11163480521E+03  0.11611676249E+03  0.00000000000E+00 0. -1.
<scales pt_clust_3="65.03294" pt_clust_4="14000.00000" pt_clust_5="75.06126" pt_clust_6="31.94954"></scales>
<clustering>
<clus scale="   31.950">  1  6  2 -1</clus>
<clus scale="   65.033">  2  3  1 -1</clus>
<clus scale="   75.061">  1  5  2 -1</clus>
<clus scale="   65.033">  2  3  1 -1</clus>
</clustering>
</event>
<event>
 6    0  0.4796958E+002  0.2933038E+03  0.7546771E-02  0.1088637E+00
         21   -1    0    0  503  502  0.00000000000E+00  0.00000000000E+00  0.15778766525E+04  0.15778766525E+04  0.00000000000E+00 0.  1.
          1   -1    0    0  505    0 -0.00000000000E+00 -0.00000000000E+00 -0.10378400769E+04  0.10378400769E+04  0.00000000000E+00 0. -1.
         21    1    1    2  503  504 -0.10162194844E+03  0.15708432576E+02  0.55565562539E+03  0.56509021341E+03  0.00000000000E+00 0.  1.
         21    1    1    2  504  501 -0.15897860892E+03  0.16133051171E+03  0.89421579148E+03  0.92245520967E+03  0.00000000000E+00 0.  1.
         21    1    1    2  505  502  0.22769789751E+02 -0.43709167271E+02  0.84122299763E+02  0.97496235549E+02  0.00000000000E+00 0.  1.
          1    1    1    2  501    0  0.23783076761E+03 -0.13332977701E+03 -0.99395714101E+03  0.10306750708E+04  0.00000000000E+00 0. -1.
<scales pt_clust_3="73.23601" pt_clust_4="73.23601" pt_clust_5="49.28443" pt_clust_6="273.16347"></scales>
<clustering>
<clus scale="   49.284">  1  5  2 -1</clus>
<clus scale="   73.236">  3  4 -1 -1</clus>
<clus scale="  273.163">  2  6  1 -1</clus>
<clus scale="   49.284">  1  3  2 -1</clus>
</clustering>
</event>
<event>
 6    0  0.4796958E+002  0.1093042E+03  0.7546771E-02  0.1261864E+00
         21   -1    0    0  504  502  0.00000000000E+00  0.00000000000E+00  0.21786269419E+03  0.21786269419E+03  0.00000000000E+00 0.  1.
         -4   -1    0    0    0  501 -0.00000000000E+00 -0.00000000000E+00 -0.25856061911E+03  0.25856061911E+03  0.00000000000E+00 0.  1.
         21    1    1    2  503  505 -0.67035827262E+02 -0.77719971116E+02  0.58612577560E+02  0.11819319056E+03  0.00000000000E+00 0.  1.
         21    1    1    2  504  501  0.70036906277E+02  0.71591403234E+02 -0.29312909807E+02  0.10435393591E+03  0.00000000000E+00 0.  1.
         21    1    1    2  505  502 -0.17758834621E+02 -0.25854935984E+02  0.87257748063E+02  0.92724152834E+02  0.00000000000E+00 0.  1.
         -4    1    1    2    0  503  0.14757755607E+02  0.31983503867E+02 -0.15725534074E+03  0.16115203399E+03  0.00000000000E+00 0.  1.
<scales pt_clust_3="109.30422" pt_clust_4="14000.00000" pt_clust_5="31.36645" pt_clust_6="34.75311"></scales>
<clustering>
<clus scale="   31.366">  1  5  2 -1</clus>
<clus scale="   34.753">  2  6  1 -1</clus>
<clus scale="  109.304">  1  3  2 -1</clus>
<clus scale="   31.366">  1  3  2 -1</clus>
</clustering>
</event>
<event>
 6    0  0.4796958E+002  0.8508787E+02  0.7546771E-02  0.1315203E+00
         21   -1    0    0  505  502  0.00000000000E+00  0.00000000000E+00  0.13871287103E+03  0.13871287103E+03  0.00000000000E+00 0. -1.
          2   -1    0    0  504    0 -0.00000000000E+00 -0.00000000000E+00 -0.54361290277E+03  0.54361290277E+03  0.00000000000E+00 0.  1.
         21    1    1    2  503  502  0.29926074413E+02  0.33342726644E+02  0.38779636359E+01  0.44970500907E+02  0.00000000000E+00 0. -1.
         21    1    1    2  504  503  0.13658999411E+02 -0.74962110793E+02 -0.29993436543E+03  0.30946164526E+03  0.00000000000E+00 0. -1.
         21    1    1    2  505  501  0.55234866539E+02  0.33248654186E+01  0.88220874427E+02  0.10413869548E+03  0.00000000000E+00 0. -1.
          2    1    1    2  501    0 -0.98819940363E+02  0.38294518730E+02 -0.19706450437E+03  0.22375493215E+03  0.00000000000E+00 0.  1.
<scales pt_clust_3="44.80298" pt_clust_4="75.06724" pt_clust_5="14000.00000" pt_clust_6="85.08787"></scales>
<clustering>
<clus scale="   44.803">  1  3  2 -1</clus>
<clus scale="   75.067">  2  4  1 -1</clus>
<clus scale="   85.088">  2  6  1 -1</clus>
<clus scale="   44.803">  1  3  2 -1</clus>
</clustering>
</event>
<event>
 6    0  0.4796958E+002  0.7343822E+02  0.7546771E-02  0.1348777E+00
         21   -1    0    0  503  502  0.00000000000E+00  0.00000000000E+00  0.10346038674E+03  0.10346038674E+03  0.00000000000E+00 0. -1.
          2   -1    0    0  504    0 -0.00000000000E+00 -0.00000000000E+00 -0.16360056908E+04  0.16360056908E+04  0.00000000000E+00 0.  1.
         21    1    1    2  503  505 -0.48276156541E+02  0.57001761982E+02  0.50368437313E+02  0.90093105379E+02  0.00000000000E+00 0. -1.
         21    1    1    2  504  502 -0.61346405391E+02 -0.68355545961E+02 -0.75323611575E+02  0.11878345246E+03  0.00000000000E+00 0. -1.
         21    1    1    2  505  501  0.75639713500E+02 -0.18473619849E+02 -0.12504668318E+03  0.14730686971E+03  0.00000000000E+00 0.  1.
          2    1    1    2  501    0  0.33982848432E+02  0.29827403828E+02 -0.13825434466E+04  0.13832826500E+04  0.00000000000E+00 0.  1.
<scales pt_clust_3="73.43822" pt_clust_4="74.65892" pt_clust_5="14000.00000" pt_clust_6="45.21624"></scales>
<clustering>
<clus scale="   45.216">  2  6  1 -1</clus>
<clus scale="   74.659">  2  4  1 -1</clus>
<clus scale="   73.438">  1  3  2 -1</clus>
<clus scale="   73.438">  1  3  2 -1</clus>
</clustering>
</event>
<event>
 6    0  0.4796958E+002  0.1050626E+03  0.7546771E-02  0.1269996E+00
         21   -1    0    0  505  502  0.00000000000E+00  0.00000000000E+00  0.84281002631E+02  0.84281002631E+02  0.00000000000E+00 0. -1.
         -1   -1    0    0    0  501 -0.00000000000E+00 -0.00000000000E+00 -0.77239511827E+03  0.77239511827E+03  0.00000000000E+00 0.  1.
         21    1    1    2  503  502  0.86652085953E+02  0.62341788711E+02 -0.27979980417E+02  0.11035380340E+03  0.00000000000E+00 0. -1.
         21    1    1    2  504  503 -0.49199478715E+01  0.50382915455E+02 -0.85918595632E+02  0.99722861632E+02  0.00000000000E+00 0. -1.
         21    1    1    2  505  501 -0.73988420848E+02 -0.72892630138E+02 -0.40716071513E+02  0.11155904458E+03  0.00000000000E+00 0. -1.
         -1    1    1    2    0  504 -0.77437172335E+01 -0.39832074028E+02 -0.53349946807E+03  0.53504041129E+03  0.00000000000E+00 0.  1.
<scales pt_clust_3="105.06263" pt_clust_4="35.74900" pt_clust_5="14000.00000" pt_clust_6="40.57782"></scales>
<clustering>
<clus scale="   40.578">  2  6  1 -1</clus>
<clus scale="   35.749">  2  4  1 -1</clus>
<clus scale="  105.063">  1  3  2 -1</clus>
<clus scale="  105.063">  1  3  2 -1</clus>
</clustering>
</event>
<event>
 6    0  0.4796958E+002  0.1198009E+03  0.7546771E-02  0.1243426E+00
          2   -1    0    0  505    0 -0.00000000000E+00  0.00000000000E+00  0.18368466474E+04  0.18368466474E+04  0.00000000000E+00 0. -1.
         21   -1    0    0  504  502  0.00000000000E+00 -0.00000000000E+00 -0.41211563477E+02  0.41211563477E+02  0.00000000000E+00 0. -1.
         21    1    1    2  503  502 -0.72640795349E+01 -0.38166570594E+02  0.20237602037E+02  0.43806557713E+02  0.00000000000E+00 0.  1.
         21    1    1    2  504  501 -0.44595662954E+02  0.12441796127E+03  0.21956587957E+03  0.25627675999E+03  0.00000000000E+00 0. -1.
         21    1    1    2  505  503  0.77642714091E+02 -0.10158972303E+03  0.36468459639E+03  0.38645014907E+03  0.00000000000E+00 0.  1.
          2    1    1    2  501    0 -0.25782971602E+02  0.15338332350E+02  0.11911470059E+04  0.11915247441E+04  0.00000000000E+00 0. -1.
<scales pt_clust_3="38.36886" pt_clust_4="119.80087" pt_clust_5="14000.00000" pt_clust_6="30.00043"></scales>
<clustering>
<clus scale="   30.000">  1  6  2 -1</clus>
<clus scale="   38.369">  2  3  1 -1</clus>
<clus scale="  119.801">  2  4  1 -1</clus>
<clus scale="   38.369">  2  3  1 -1</clus>
</clustering>
</event>
<event>
 6    0  0.4796958E+002  0.1104932E+03  0.7546771E-02  0.1259659E+00
         -4   -1    0    0    0  501 -0.00000000000E+00  0.00000000000E+00  0.58768699188E+03  0.58768699188E+03  0.00000000000E+00 0.  1.
         21   -1    0    0  503  502  0.00000000000E+00 -0.00000000000E+00 -0.17765500406E+03  0.17765500406E+03  0.00000000000E+00 0.  1.
         21    1    1    2  503  504 -0.33500389015E+02 -0.63505080335E+00 -0.11673219776E+03  0.12144581240E+03  0.00000000000E+00 0.  1.
         21    1    1    2  504  501  0.15115739969E+03 -0.65712276064E+02  0.15565565374E+03  0.22670541513E+03  0.00000000000E+00 0.  1.
         21    1    1    2  505  502 -0.60719893397E+02  0.49860539993E+02  0.55820448632E+02  0.96378946809E+02  0.00000000000E+00 0.  1.
         -4    1    1    2    0  505 -0.56937117277E+02  0.16486786875E+02  0.31528808321E+03  0.32081182161E+03  0.00000000000E+00 0.  1.
<scales pt_clust_3="33.50641" pt_clust_4="110.49323" pt_clust_5="14000.00000" pt_clust_6="60.78700"></scales>
<clustering>
<clus scale="   33.506">  2  3  1 -1</clus>
<clus scale="   60.787">  1  6  2 -1</clus>
<clus scale="  110.493">  1  4  2 -1</clus>
<clus scale="   33.506">  2  3  1 -1</clus>
</clustering>
</event>
<event>
 6    0  0.4796958E+002  0.1228728E+03  0.7546771E-02  0.1238432E+00
         21   -1    0    0  505  502  0.00000000000E+00  0.00000000000E+00  0.20634897998E+03  0.20634897998E+03  0.00000000000E+00 0. -1.
          2   -1    0    0  504    0 -0.00000000000E+00 -0.00000000000E+00 -0.11591557897E+04  0.11591557897E+04  0.00000000000E+00 0.  1.
         21    1    1    2  503  502 -0.40994074931E+02  0.17821277084E+02  0.12687136329E+03  0.13451563076E+03  0.00000000000E+00 0. -1.
         21    1    1    2  504  503  0.24420835320E+02  0.95649838149E+02  0.38509941975E+02  0.10596359925E+03  0.00000000000E+00 0. -1.
         21    1    1    2  505  501  0.14577931784E+02 -0.39670199506E+02 -0.23607837132E+03  0.23983168729E+03  0.00000000000E+00 0. -1.
          2    1    1    2  501    0  0.19953078266E+01 -0.73800915727E+02 -0.88210974370E+03  0.88519385241E+03  0.00000000000E+00 0.  1.
<scales pt_clust_3="44.70025" pt_clust_4="113.62344" pt_clust_5="35.38691" pt_clust_6="35.38691"></scales>
<clustering>
<clus scale="   35.387">  5  6 -1 -1</clus>
<clus scale="   44.700">  1  3  2 -1</clus>
<clus scale="  113.623">  1  4  2 -1</clus>
<clus scale="   44.700">  1  3  2 -1</clus>
</clustering>
</event>
<event>
 6    0  0.4796958E+002  0.1620006E+03  0.7546771E-02  0.1186456E+00
          1   -1    0    0  504    0 -0.00000000000E+00  0.00000000000E+00  0.99870519025E+03  0.99870519025E+03  0.00000000000E+00 0.  1.
         21   -1    0    0  503  502  0.00000000000E+00 -0.00000000000E+00 -0.23290597060E+03  0.23290597060E+03  0.00000000000E+00 0. -1.
         21    1    1    2  503  505  0.46926197887E+02 -0.63862223647E+02 -0.11758768910E+03  0.14180026899E+03  0.00000000000E+00 0. -1.
         21    1    1    2  504  502 -0.11050745114E+02  0.10623877043E+03  0.84857067524E+02  0.13641670432E+03  0.00000000000E+00 0. -1.
         21    1    1    2  505  501  0.36729293734E+02 -0.82185803315E+02 -0.48549777005E+02  0.10227721218E+03  0.00000000000E+00 0. -1.
          1    1    1    2  501    0 -0.72604746507E+02  0.39809256537E+02  0.84707961823E+03  0.85111697535E+03  0.00000000000E+00 0.  1.
<scales pt_clust_3="56.63849" pt_clust_4="150.33400" pt_clust_5="56.63849" pt_clust_6="82.80233"></scales>
<clustering>
<clus scale="   56.638">  3  5 -1 -1</clus>
<clus scale="   82.802">  1  6  2 -1</clus>
<clus scale="  150.334">  1  4  2 -1</clus>
<clus scale="  162.001">  2  3  1 -1</clus>
</clustering>
</event>
<event>
 6    0  0.4796958E+002  0.1812948E+03  0.7546771E-02  0.1166556E+00
          2   -1    0    0  503    0 -0.00000000000E+00  0.00000000000E+00  0.26517421477E+04  0.26517421477E+04  0.00000000000E+00 0.  1.
         21   -1    0    0  505  502  0.00000000000E+00 -0.00000000000E+00 -0.24399437751E+03  0.24399437751E+03  0.00000000000E+00 0.  1.
         21    1    1    2  503  504 -0.29981801527E+02 -0.22001426851E+03  0.15494407718E+04  0.15652705492E+04  0.00000000000E+00 0. -1.
         21    1    1    2  504  502 -0.14737937955E+02  0.20325055210E+03 -0.61209973587E+02  0.21277841670E+03  0.00000000000E+00 0. -1.
         21    1    1    2  505  501  0.31468582591E+02 -0.25806079575E+02 -0.94395853959E+02  0.10279495454E+03  0.00000000000E+00 0.  1.
          2    1    1    2  501    0  0.13251156891E+02  0.42569795984E+02  0.10139128259E+04  0.10148926048E+04  0.00000000000E+00 0.  1.
<scales pt_clust_3="181.29484" pt_clust_4="14000.00000" pt_clust_5="40.69675" pt_clust_6="44.53321"></scales>
<clustering>
<clus scale="   40.697">  2  5  1 -1</clus>
<clus scale="   44.533">  1  6  2 -1</clus>
<clus scale="  181.295">  1  3  2 -1</clus>
<clus scale="   40.697">  2  3  1 -1</clus>
</clustering>
</event>
<event>
 6    0  0.4796958E+002  0.1046408E+03  0.7546771E-02  0.1270829E+00
         21   -1    0    0  504  502  0.00000000000E+00  0.00000000000E+00  0.92060702136E+02  0.92060702136E+02  0.00000000000E+00 0. -1.
          1   -1    0    0  505    0 -0.00000000000E+00 -0.00000000000E+00 -0.15842170347E+04  0.15842170347E+04  0.00000000000E+00 0.  1.
         21    1    1    2  503  502 -0.50572093242E+02  0.28190717485E+02 -0.92364905337E+02  0.10901159987E+03  0.00000000000E+00 0.  1.
         21    1    1    2  504  501  0.78964812904E+02  0.29461581240E+02  0.51829074579E+02  0.98942808823E+02  0.00000000000E+00 0. -1.
         21    1    1    2  505  503  0.40127266955E+02  0.65725195307E+02 -0.40797190156E+03  0.41517595224E+03  0.00000000000E+00 0.  1.
          1    1    1    2  501    0 -0.68519986618E+02 -0.12337749403E+03 -0.10436486003E+04  0.10531473759E+04  0.00000000000E+00 0.  1.
<scales pt_clust_3="57.89865" pt_clust_4="64.23008" pt_clust_5="104.64080" pt_clust_6="14000.00000"></scales>
<clustering>
<clus scale="   57.899">  1  3  2 -1</clus>
<clus scale="   64.230">  1  4  2 -1</clus>
<clus scale="  104.641">  2  5  1 -1</clus>
<clus scale="   57.899">  1  3  2 -1</clus>
</clustering>
</event>
<event>
 6    0  0.4796958E+002  0.1465653E+03  0.7546771E-02  0.1204758E+00
         21   -1    0    0  503  502  0.00000000000E+00  0.00000000000E+00  0.28281740004E+02  0.28281740004E+02  0.00000000000E+00 0.  1.
          2   -1    0    0  504    0 -0.00000000000E+00 -0.00000000000E+00 -0.21322525153E+04  0.21322525153E+04  0.00000000000E+00 0.  1.
         21    1    1    2  503  505  0.10709295477E+03  0.17873904697E+02 -0.31860564758E+03  0.33659758779E+03  0.00000000000E+00 0.  1.
         21    1    1    2  504  502 -0.11333800347E+03 -0.47338943033E+02 -0.29973763690E+03  0.32392766096E+03  0.00000000000E+00 0.  1.
         21    1    1    2  505  501  0.51336495792E+02  0.35007941813E+02 -0.13495507499E+03  0.14857275678E+03  0.00000000000E+00 0. -1.
          2    1    1    2  501    0 -0.45091447097E+02 -0.55429034771E+01 -0.13506724159E+04  0.13514362498E+04  0.00000000000E+00 0.  1.
<scales pt_clust_3="31.88602" pt_clust_4="140.37389" pt_clust_5="31.88602" pt_clust_6="45.43085"></scales>
<clustering>
<clus scale="   31.886">  3  5 -1 -1</clus>
<clus scale="   45.431">  2  6  1 -1</clus>
<clus scale="  140.374">  1  4  2 -1</clus>
<clus scale="  140.374">  1  3  2 -1</clus>
</clustering>
</event>
<event>
 6    0  0.4796958E+002  0.1369242E+03  0.7546771E-02  0.1217529E+00
         21   -1    0    0  503  502  0.00000000000E+00  0.00000000000E+00  0.14168941707E+03  0.14168941707E+03  0.00000000000E+00 0. -1.
          2   -1    0    0  505    0 -0.00000000000E+00 -0.00000000000E+00 -0.11943820158E+04  0.11943820158E+04  0.00000000000E+00 0. -1.
         21    1    1    2  503  504  0.43675747227E+02 -0.78253576912E+01  0.89094629496E+02  0.99532206465E+02  0.00000000000E+00 0. -1.
         21    1    1    2  504  501  0.10555854980E+03 -0.15343655656E+01 -0.27790124897E+02  0.10916617038E+03  0.00000000000E+00 0. -1.
         21    1    1    2  505  502 -0.11860345054E+03  0.10706832374E+02 -0.55969607390E+03  0.57222470226E+03  0.00000000000E+00 0. -1.
          2    1    1    2  501    0 -0.30630846487E+02 -0.13471091173E+01 -0.55430102938E+03  0.55514835372E+03  0.00000000000E+00 0. -1.
<scales pt_clust_3="44.12722" pt_clust_4="136.92425" pt_clust_5="14000.00000" pt_clust_6="30.66045"></scales>
<clustering>
<clus scale="   30.660">  2  6  1 -1</clus>
<clus scale="   44.127">  1  3  2 -1</clus>
<clus scale="  136.924">  1  4  2 -1</clus>
<clus scale="   44.127">  1  3  2 -1</clus>
</clustering>
</event>
<event>
 6    0  0.4796958E+002  0.1828115E+03  0.7546771E-02  0.1165109E+00
         21   -1    0    0  501  502  0.00000000000E+00  0.00000000000E+00  0.29335179793E+03  0.29335179793E+03  0.00000000000E+00 0.  1.
          2   -1    0    0  505    0 -0.00000000000E+00 -0.00000000000E+00 -0.11966854502E+04  0.11966854502E+04  0.00000000000E+00 0. -1.
         21    1    1    2  503  502 -0.85319564280E+02  0.12480874308E+03  0.19668828589E+03  0.24807847993E+03  0.00000000000E+00 0.  1.
         21    1    1    2  504  503 -0.25030049874E+02 -0.31664540386E+02  0.62871819825E+01  0.40849420704E+02  0.00000000000E+00 0. -1.
         21    1    1    2  505  504 -0.66979770644E+02 -0.12326834220E+03 -0.84891871557E+02  0.16397561929E+03  0.00000000000E+00 0. -1.
          2    1    1    2  501    0  0.17732938480E+03  0.30124139502E+02 -0.10214172486E+04  0.10371337282E+04  0.00000000000E+00 0. -1.
<scales pt_clust_3="151.18416" pt_clust_4="30.83438" pt_clust_5="30.83438" pt_clust_6="173.53808"></scales>
<clustering>
<clus scale="   30.834">  4  5 -1 -1</clus>
<clus scale="  151.184">  1  3  2 -1</clus>
<clus scale="  173.538">  2  6  1 -1</clus>
<clus scale="  151.184">  1  3  2 -1</clus>
</clustering>
</event>
<event>
 6    0  0.4796958E+002  0.9266052E+02  0.7546771E-02  0.1296534E+00
         21   -1    0    0  504  502  0.00000000000E+00  0.00000000000E+00  0.51946791417E+02  0.51946791417E+02  0.00000000000E+00 0. -1.
          2   -1    0    0  502    0 -0.00000000000E+00 -0.00000000000E+00 -0.10980814320E+04  0.10980814320E+04  0.00000000000E+00 0. -1.
         21    1    1    2  503  505  0.35137969867E+02  0.95018462621E+02 -0.50516835202E+02  0.11320395666E+03  0.00000000000E+00 0. -1.
         21    1    1    2  504  503 -0.20883559491E+02  0.23781132686E+02 -0.15961188639E+02  0.35446084010E+02  0.00000000000E+00 0.  1.
         21    1    1    2  505  501 -0.94636660126E+01 -0.73538014470E+02 -0.12374660960E+03  0.14425887818E+03  0.00000000000E+00 0.  1.
          2    1    1    2  501    0 -0.47907443633E+01 -0.45261580836E+02 -0.85591000709E+03  0.85711930452E+03  0.00000000000E+00 0. -1.
<scales pt_clust_3="14000.00000" pt_clust_4="31.64910" pt_clust_5="92.66052" pt_clust_6="45.20832"></scales>
<clustering>
<clus scale="   31.649">  1  4  2 -1</clus>
<clus scale="   45.208">  2  6  1 -1</clus>
<clus scale="   92.661">  2  5  1 -1</clus>
<clus scale="   31.649">  1  3  2 -1</clus>
</clustering>
</event>
<event>
 6    0  0.4796958E+002  0.9299766E+02  0.7546771E-02  0.1295751E+00
         21   -1    0    0  503  502  0.00000000000E+00  0.00000000000E+00  0.40667960402E+03  0.40667960402E+03  0.00000000000E+00 0.  1.
          1   -1    0    0  504    0 -0.00000000000E+00 -0.00000000000E+00 -0.23736307387E+03  0.23736307387E+03  0.00000000000E+00 0. -1.
         21    1    1    2  503  505 -0.37490929159E+02 -0.21205681931E+02  0.30779877344E+03  0.31079790162E+03  0.00000000000E+00 0.  1.
         21    1    1    2  504  502 -0.60200475234E+02 -0.38598657362E+02  0.37228432386E+02  0.80622017752E+02  0.00000000000E+00 0. -1.
         21    1    1    2  505  501 -0.19694606052E+01  0.54657160283E+02 -0.50485405283E+01  0.54925146397E+02  0.00000000000E+00 0. -1.
          1    1    1    2  501    0  0.99660864998E+02  0.51471790098E+01 -0.17066213515E+03  0.19769761212E+03  0.00000000000E+00 0. -1.
<scales pt_clust_3="43.07262" pt_clust_4="92.99766" pt_clust_5="50.56813" pt_clust_6="14000.00000"></scales>
<clustering>
<clus scale="   43.073">  1  3  2 -1</clus>
<clus scale="   50.568">  1  5  2 -1</clus>
<clus scale="   92.998">  1  4  2 -1</clus>
<clus scale="   43.073">  1  3  2 -1</clus>
</clustering>
</event>
<event>
 6    0  0.4796958E+002  0.1115146E+03  0.7546771E-02  0.1257791E+00
          1   -1    0    0  505    0 -0.00000000000E+00  0.00000000000E+00  0.14674646753E+04  0.14674646753E+04  0.00000000000E+00 0. -1.
         21   -1    0    0  503  502  0.00000000000E+00 -0.00000000000E+00 -0.43059085523E+03  0.43059085523E+03  0.00000000000E+00 0. -1.
         21    1    1    2  503  504  0.12716916254E+02  0.30634970882E+02 -0.30419550672E+02  0.45006338032E+02  0.00000000000E+00 0. -1.
         21    1    1    2  504  501  0.10900504502E+03 -0.35554479990E+02 -0.49518693300E+01  0.11476385275E+03  0.00000000000E+00 0. -1.
         21    1    1    2  505  502 -0.13592103103E+02  0.34402494334E+02 -0.32974959962E+03  0.33181783456E+03  0.00000000000E+00 0. -1.
          1    1    1    2  501    0 -0.10812985817E+03 -0.29482985226E+02  0.14019948397E+04  0.14064675052E+04  0.00000000000E+00 0. -1.
<scales pt_clust_3="33.16959" pt_clust_4="14000.00000" pt_clust_5="60.26472" pt_clust_6="111.51457"></scales>
<clustering>
<clus scale="   33.170">  2  3  1 -1</clus>
<clus scale="   60.265">  2  5  1 -1</clus>
<clus scale="  111.515">  1  6  2 -1</clus>
<clus scale="   33.170">  2  3  1 -1</clus>
</clustering>
</event>
<event>
 6    0  0.4796958E+002  0.9261370E+02  0.7546771E-02  0.1296643E+00
         21   -1    0    0  504  502  0.00000000000E+00  0.00000000000E+00  0.67855059328E+02  0.67855059328E+02  0.00000000000E+00 0.  1.
          2   -1    0    0  505    0 -0.00000000000E+00 -0.00000000000E+00 -0.19010450522E+04  0.19010450522E+04  0.00000000000E+00 0.  1.
         21    1    1    2  503  502  0.95317654048E+01 -0.13602245959E+03 -0.93907460232E+02  0.16556441391E+03  0.00000000000E+00 0.  1.
         21    1    1    2  504  501 -0.46665136265E+02  0.49155716764E+02 -0.10139314437E+02  0.68532657401E+02  0.00000000000E+00 0.  1.
         21    1    1    2  505  503 -0.58405856985E+01  0.52288430986E+02 -0.29880933245E+03  0.30340601447E+03  0.00000000000E+00 0. -1.
          2    1    1    2  501    0  0.42973956559E+02  0.34578311844E+02 -0.14303338858E+04  0.14313970258E+04  0.00000000000E+00 0.  1.
<scales pt_clust_3="14000.00000" pt_clust_4="68.81410" pt_clust_5="52.61361" pt_clust_6="92.61370"></scales>
<clustering>
<clus scale="   52.614">  2  5  1 -1</clus>
<clus scale="   68.814">  1  4  2 -1</clus>
<clus scale="   92.614">  2  6  1 -1</clus>
<clus scale="   68.814">  1  3  2 -1</clus>
</clustering>
</event>
<event>
 6    0  0.4796958E+002  0.7470530E+02  0.7546771E-02  0.1344786E+00
         21   -1    0    0  504  502  0.00000000000E+00  0.00000000000E+00  0.24894563330E+02  0.24894563330E+02  0.00000000000E+00 0. -1.
          2   -1    0    0  505    0 -0.00000000000E+00 -0.00000000000E+00 -0.23397247639E+04  0.23397247639E+04  0.00000000000E+00 0. -1.
         21    1    1    2  503  501 -0.51663881794E+02  0.62068957549E+02 -0.25378095806E+03  0.26632027120E+03  0.00000000000E+00 0. -1.
         21    1    1    2  504  503  0.12525015466E+02  0.36155291395E+02 -0.16944918815E+03  0.17371559651E+03  0.00000000000E+00 0. -1.
         21    1    1    2  505  502 -0.21556468622E+02 -0.55408185687E+02 -0.40371089947E+02  0.71864965623E+02  0.00000000000E+00 0. -1.
          2    1    1    2  501    0  0.60695334950E+02 -0.42816063258E+02 -0.18512289644E+04  0.18527184939E+04  0.00000000000E+00 0. -1.
<scales pt_clust_3="74.70530" pt_clust_4="38.26331" pt_clust_5="33.01574" pt_clust_6="14000.00000"></scales>
<clustering>
<clus scale="   38.263">  1  4  2 -1</clus>
<clus scale="   33.016">  1  5  2 -1</clus>
<clus scale="   74.705">  1  3  2 -1</clus>
<clus scale="   38.263">  1  3  2 -1</clus>
</clustering>
</event>
<event>
 6    0  0.4796958E+002  0.1389842E+03  0.7546771E-02  0.1214702E+00
         21   -1    0    0  505  502  0.00000000000E+00  0.00000000000E+00  0.58754889192E+03  0.58754889192E+03  0.00000000000E+00 0. -1.
          2   -1    0    0  503    0 -0.00000000000E+00 -0.00000000000E+00 -0.55820667465E+03  0.55820667465E+03  0.00000000000E+00 0. -1.
         21    1    1    2  503  502  0.48127103161E+02 -0.69785776834E+02  0.29574771062E+03  0.30765724604E+03  0.00000000000E+00 0. -1.
         21    1    1    2  504  501 -0.12955176130E+03 -0.66421443064E+00 -0.27558965549E+03  0.30452218023E+03  0.00000000000E+00 0. -1.
         21    1    1    2  505  504  0.91811521507E+02  0.35466359310E+02  0.26109791404E+03  0.27903286337E+03  0.00000000000E+00 0. -1.
          2    1    1    2  501    0 -0.10386863365E+02  0.34983631955E+02 -0.25191375190E+03  0.25454327693E+03  0.00000000000E+00 0. -1.
<scales pt_clust_3="84.09473" pt_clust_4="138.98419" pt_clust_5="14000.00000" pt_clust_6="36.49303"></scales>
<clustering>
<clus scale="   36.493">  2  6  1 -1</clus>
<clus scale="   84.095">  1  3  2 -1</clus>
<clus scale="  138.984">  2  4  1 -1</clus>
<clus scale="   84.095">  1  3  2 -1</clus>
</clustering>
</event>
<event>
 6    0  0.4796958E+002  0.8612032E+02  0.7546771E-02  0.1312529E+00
         21   -1    0    0  505  502  0.00000000000E+00  0.00000000000E+00  0.82518549872E+03  0.82518549872E+03  0.00000000000E+00 0.  1.
          4   -1    0    0  503    0 -0.00000000000E+00 -0.00000000000E+00 -0.11645726156E+04  0.11645726156E+04  0.00000000000E+00 0.  1.
         21    1    1    2  503  504 -0.51003553684E+02  0.24442429742E+01  0.19553715185E+03  0.20209432096E+03  0.00000000000E+00 0.  1.
         21    1    1    2  504  502 -0.42187966603E+02  0.27485232882E+02  0.24240292302E+02  0.55882504629E+02  0.00000000000E+00 0.  1.
         21    1    1    2  505  501  0.16806071523E+03  0.12254442100E+02  0.57253825541E+03  0.59682043302E+03  0.00000000000E+00 0.  1.
          4    1    1    2  501    0 -0.74869194946E+02 -0.42183917956E+02 -0.11317028164E+04  0.11349608557E+04  0.00000000000E+00 0.  1.
<scales pt_clust_3="62.39948" pt_clust_4="50.35139" pt_clust_5="14000.00000" pt_clust_6="86.12032"></scales>
<clustering>
<clus scale="   50.351">  1  4  2 -1</clus>
<clus scale="   62.399">  1  3  2 -1</clus>
<clus scale="   86.120">  2  6  1 -1</clus>
<clus scale="   50.351">  1  3  2 -1</clus>
</clustering>
</event>
<event>
 6    0  0.4796958E+002  0.1143441E+03  0.7546771E-02  0.1252730E+00
          2   -1    0    0  503    0 -0.00000000000E+00  0.00000000000E+00  0.10108271774E+04  0.10108271774E+04  0.00000000000E+00 0. -1.
         21   -1    0    0  504  502  0.00000000000E+00 -0.00000000000E+00 -0.82840132794E+02  0.82840132794E+02  0.00000000000E+00 0. -1.
         21    1    1    2  503  505  0.98272769782E+02 -0.23960497233E+02  0.11272923823E+03  0.15145799371E+03  0.00000000000E+00 0. -1.
         21    1    1    2  504  501 -0.11667660372E+03 -0.23831419130E+02  0.30745403729E+03  0.32971101200E+03  0.00000000000E+00 0. -1.
         21    1    1    2  505  502  0.61147624077E+02  0.45691987740E+02 -0.23193539386E+02  0.79779257600E+02  0.00000000000E+00 0. -1.
          2    1    1    2  501    0 -0.42743790141E+02  0.20999286228E+01  0.53099730850E+03  0.53271904690E+03  0.00000000000E+00 0. -1.
<scales pt_clust_3="14000.00000" pt_clust_4="114.34412" pt_clust_5="74.40251" pt_clust_6="42.79534"></scales>
<clustering>
<clus scale="   42.795">  1  6  2 -1</clus>
<clus scale="   74.403">  2  5  1 -1</clus>
<clus scale="  114.344">  2  4  1 -1</clus>
<clus scale="   74.403">  2  3  1 -1</clus>
</clustering>
</event>
<event>
 6    0  0.4796958E+002  0.8981310E+02  0.7546771E-02  0.1303305E+00
         21   -1    0    0  504  502  0.00000000000E+00  0.00000000000E+00  0.17317916380E+03  0.17317916380E+03  0.00000000000E+00 0. -1.
          4   -1    0    0  505    0 -0.00000000000E+00 -0.00000000000E+00 -0.77499721884E+03  0.77499721884E+03  0.00000000000E+00 0. -1.
         21    1    1    2  503  502  0.38599065862E+02 -0.91217632578E+02 -0.65558281612E+02  0.11877892349E+03  0.00000000000E+00 0. -1.
         21    1    1    2  504  501 -0.56975264666E+02  0.68206450864E+02  0.11218273974E+03  0.14311976739E+03  0.00000000000E+00 0. -1.
         21    1    1    2  505  503  0.56704860377E+02  0.28044880965E+02 -0.36340320631E+02  0.72955982909E+02  0.00000000000E+00 0. -1.
          4    1    1    2  501    0 -0.38328661573E+02 -0.50336992515E+01 -0.61210219254E+03  0.61332170884E+03  0.00000000000E+00 0. -1.
<scales pt_clust_3="89.81310" pt_clust_4="14000.00000" pt_clust_5="51.11340" pt_clust_6="38.65779"></scales>
<clustering>
<clus scale="   38.658">  2  6  1 -1</clus>
<clus scale="   51.113">  2  5  1 -1</clus>
<clus scale="   89.813">  2  3  1 -1</clus>
<clus scale="   89.813">  1  3  2 -1</clus>
</clustering>
</event>
<event>
 6    0  0.4796958E+002  0.1336991E+03  0.7546771E-02  0.1222068E+00
          2   -1    0    0  505    0 -0.00000000000E+00  0.00000000000E+00  0.38319790471E+04  0.38319790471E+04  0.00000000000E+00 0.  1.
         21   -1    0    0  504  502  0.00000000000E+00 -0.00000000000E+00 -0.97560198597E+02  0.97560198597E+02  0.00000000000E+00 0.  1.
         21    1    1    2  503  502 -0.69372563435E+02  0.43964410988E+02 -0.36704693267E+02  0.89959193521E+02  0.00000000000E+00 0.  1.
         21    1    1    2  504  501 -0.24022601052E+01  0.82506310603E+02  0.34991111421E+02  0.89651770877E+02  0.00000000000E+00 0.  1.
         21    1    1    2  505  503  0.26903736221E+02 -0.16034278747E+03  0.99316704951E+03  0.10063868087E+04  0.00000000000E+00 0. -1.
          2    1    1    2  501    0  0.44871087320E+02  0.33872065878E+02  0.27429653808E+04  0.27435414726E+04  0.00000000000E+00 0.  1.
<scales pt_clust_3="81.65716" pt_clust_4="133.69908" pt_clust_5="14000.00000" pt_clust_6="56.22038"></scales>
<clustering>
<clus scale="   56.220">  1  6  2 -1</clus>
<clus scale="   81.657">  2  3  1 -1</clus>
<clus scale="  133.699">  2  4  1 -1</clus>
<clus scale="   81.657">  2  3  1 -1</clus>
</clustering>
</event>
<event>
 6    0  0.4796958E+002  0.1253980E+03  0.7546771E-02  0.1234449E+00
         21   -1    0    0  505  502  0.00000000000E+00  0.00000000000E+00  0.51828217640E+02  0.51828217640E+02  0.00000000000E+00 0.  1.
          2   -1    0    0  504    0 -0.00000000000E+00 -0.00000000000E+00 -0.18194363390E+04  0.18194363390E+04  0.00000000000E+00 0.  1.
         21    1    1    2  503  502 -0.37935000844E+02  0.19688500051E+01 -0.41172351319E+02  0.56018775179E+02  0.00000000000E+00 0. -1.
         21    1    1    2  504  503 -0.75858463349E+02  0.18330393168E+02 -0.51620645054E+03  0.52207241773E+03  0.00000000000E+00 0.  1.
         21    1    1    2  505  501  0.15913193384E+03 -0.63714591446E+02 -0.14058992681E+03  0.22169359271E+03  0.00000000000E+00 0.  1.
          2    1    1    2  501    0 -0.45338469648E+02  0.43415348273E+02 -0.10696393926E+04  0.10714797710E+04  0.00000000000E+00 0.  1.
<scales pt_clust_3="37.98606" pt_clust_4="14000.00000" pt_clust_5="125.39801" pt_clust_6="63.37124"></scales>
<clustering>
<clus scale="   37.986">  1  3  2 -1</clus>
<clus scale="   63.371">  2  6  1 -1</clus>
<clus scale="  125.398">  1  5  2 -1</clus>
<clus scale="   37.986">  1  3  2 -1</clus>
</clustering>
</event>
<event>
 6    0  0.4796958E+002  0.1145573E+03  0.7546771E-02  0.1252356E+00
         21   -1    0    0  504  502  0.00000000000E+00  0.00000000000E+00  0.12646762613E+03  0.12646762613E+03  0.00000000000E+00 0. -1.
          2   -1    0    0  503    0 -0.00000000000E+00 -0.00000000000E+00 -0.80355070019E+03  0.80355070019E+03  0.00000000000E+00 0. -1.
         21    1    1    2  503  505  0.51716021943E+02  0.73473286893E+02 -0.35634965415E+02  0.96657754850E+02  0.00000000000E+00 0. -1.
         21    1    1    2  504  501  0.10415868414E+03 -0.10160868910E+03  0.97720250604E+01  0.14583843683E+03  0.00000000000E+00 0. -1.
         21    1    1    2  505  502 -0.51117220702E+02 -0.14618389635E+02 -0.41644537597E+02  0.67534695376E+02  0.00000000000E+00 0.  1.
          2    1    1    2  501    0 -0.10475748538E+03  0.42753791846E+02 -0.60957559611E+03  0.61998743926E+03  0.00000000000E+00 0. -1.
<scales pt_clust_3="79.23815" pt_clust_4="114.55733" pt_clust_5="53.16641" pt_clust_6="14000.00000"></scales>
<clustering>
<clus scale="   53.166">  1  5  2 -1</clus>
<clus scale="   79.238">  1  3  2 -1</clus>
<clus scale="  114.557">  1  4  2 -1</clus>
<clus scale="   53.166">  1  3  2 -1</clus>
</clustering>
</event>
<event>
 6    0  0.4796958E+002  0.7835016E+02  0.7546771E-02  0.1333800E+00
         21   -1    0    0  504  502  0.00000000000E+00  0.00000000000E+00  0.33451445534E+03  0.33451445534E+03  0.00000000000E+00 0.  1.
          1   -1    0    0  505    0 -0.00000000000E+00 -0.00000000000E+00 -0.20728828367E+04  0.20728828367E+04  0.00000000000E+00 0. -1.
         21    1    1    2  503  502  0.39399703693E+02  0.57082862804E+02  0.78182526507E+02  0.10451457950E+03  0.00000000000E+00 0.  1.
         21    1    1    2  504  501  0.46629050814E+02 -0.95648508884E+02  0.39121708552E+02  0.11337289672E+03  0.00000000000E+00 0.  1.
         21    1    1    2  505  503 -0.82064089166E+02  0.12649032314E+01  0.15664431091E+03  0.17684330593E+03  0.00000000000E+00 0.  1.
          1    1    1    2  501    0 -0.39646653413E+01  0.37300742849E+02 -0.20123169273E+04  0.20126665099E+04  0.00000000000E+00 0. -1.
<scales pt_clust_3="75.74930" pt_clust_4="78.35016" pt_clust_5="14000.00000" pt_clust_6="37.51085"></scales>
<clustering>
<clus scale="   37.511">  2  6  1 -1</clus>
<clus scale="   75.749">  1  3  2 -1</clus>
<clus scale="   78.350">  2  4  1 -1</clus>
<clus scale="   75.749">  1  3  2 -1</clus>
</clustering>
</event>
<event>
 6    0  0.4796958E+002  0.8458894E+02  0.7546771E-02  0.1316511E+00
          2   -1    0    0  503    0 -0.00000000000E+00  0.00000000000E+00  0.52350760054E+03  0.52350760054E+03  0.00000000000E+00 0.  1.
         21   -1    0    0  504  502  0.00000000000E+00 -0.00000000000E+00 -0.56502587762E+02  0.56502587762E+02  0.00000000000E+00 0.  1.
         21    1    1    2  503  505 -0.21073408522E+02  0.88519575176E+02  0.99467239884E+02  0.13480925616E+03  0.00000000000E+00 0.  1.
         21    1    1    2  504  501  0.81164105149E+02 -0.58639670947E+02  0.15211439919E+03  0.18211263936E+03  0.00000000000E+00 0.  1.
         21    1    1    2  505  502 -0.17753961278E+02 -0.36114686807E+02 -0.31494195060E+01  0.40365735314E+02  0.00000000000E+00 0.  1.
          2    1    1    2  501    0 -0.42336735350E+02  0.62347825776E+01  0.21857279321E+03  0.22272255746E+03  0.00000000000E+00 0.  1.
<scales pt_clust_3="84.58894" pt_clust_4="14000.00000" pt_clust_5="40.24269" pt_clust_6="43.58815"></scales>
<clustering>
<clus scale="   40.243">  2  5  1 -1</clus>
<clus scale="   43.588">  1  6  2 -1</clus>
<clus scale="   84.589">  2  3  1 -1</clus>
<clus scale="   40.243">  2  3  1 -1</clus>
</clustering>
</event>
<event>
 6    0  0.4796958E+002  0.1364905E+03  0.7546771E-02  0.1218131E+00
         21   -1    0    0  501  502  0.00000000000E+00  0.00000000000E+00  0.40419249393E+02  0.40419249393E+02  0.00000000000E+00 0. -1.
          1   -1    0    0  505    0 -0.00000000000E+00 -0.00000000000E+00 -0.19359208504E+04  0.19359208504E+04  0.00000000000E+00 0. -1.
         21    1    1    2  503  502  0.71071616235E+02  0.74432100752E+02 -0.90354144982E+02  0.13694956653E+03  0.00000000000E+00 0. -1.
         21    1    1    2  504  503 -0.94028322054E+01  0.35094836734E+02 -0.41541617416E+02  0.55188466154E+02  0.00000000000E+00 0. -1.
         21    1    1    2  505  504 -0.11205874666E+03  0.20362680824E+02 -0.49321333680E+03  0.50619284574E+03  0.00000000000E+00 0. -1.
          1    1    1    2  501    0  0.50389962633E+02 -0.12988961831E+03 -0.12703925018E+04  0.12780092214E+04  0.00000000000E+00 0. -1.
<scales pt_clust_3="36.24606" pt_clust_4="36.24606" pt_clust_5="113.89382" pt_clust_6="122.09963"></scales>
<clustering>
<clus scale="   36.246">  3  4 -1 -1</clus>
<clus scale="  113.894">  2  5  1 -1</clus>
<clus scale="  122.100">  2  6  1 -1</clus>
<clus scale="  136.491">  1  3  2 -1</clus>
</clustering>
</event>
<event>
 6    0  0.4796958E+002  0.1080974E+03  0.7546771E-02  0.1264134E+00
          2   -1    0    0  504    0 -0.00000000000E+00  0.00000000000E+00  0.24770655134E+04  0.24770655134E+04  0.00000000000E+00 0. -1.
         21   -1    0    0  505  502  0.00000000000E+00 -0.00000000000E+00 -0.10348383884E+03  0.10348383884E+03  0.00000000000E+00 0.  1.
         21    1    1    2  503  501  0.36273881868E+02 -0.64003877381E+02  0.71206937990E+02  0.10238514953E+03  0.00000000000E+00 0.  1.
         21    1    1    2  504  502  0.48054435718E+02  0.12267649668E+03  0.77564770039E+02  0.15288899627E+03  0.00000000000E+00 0.  1.
         21    1    1    2  505  503 -0.20915129918E+02  0.28057472046E+02 -0.42707338732E+02  0.55213958187E+02  0.00000000000E+00 0.  1.
          2    1    1    2  501    0 -0.63413187667E+02 -0.86730091346E+02  0.22675173053E+04  0.22700612483E+04  0.00000000000E+00 0. -1.
<scales pt_clust_3="63.65280" pt_clust_4="108.09736" pt_clust_5="34.99521" pt_clust_6="14000.00000"></scales>
<clustering>
<clus scale="   34.995">  2  5  1 -1</clus>
<clus scale="   63.653">  2  3  1 -1</clus>
<clus scale="  108.097">  2  4  1 -1</clus>
<clus scale="   34.995">  2  3  1 -1</clus>
</clustering>
</event>
<event>
 6    0  0.4796958E+002  0.2651657E+03  0.7546771E-02  0.1104079E+00
          1   -1    0    0  503    0 -0.00000000000E+00  0.00000000000E+00  0.99917834248E+03  0.99917834248E+03  0.00000000000E+00 0.  1.
         21   -1    0    0  504  502  0.00000000000E+00 -0.00000000000E+00 -0.12361490632E+03  0.12361490632E+03  0.00000000000E+00 0. -1.
         21    1    1    2  503  502  0.90360905969E+02  0.99817008671E+02  0.10797030434E+03  0.17258654399E+03  0.00000000000E+00 0. -1.
         21    1    1    2  504  505 -0.54532064364E+02  0.17154720300E+03  0.72434982062E+02  0.19403354227E+03  0.00000000000E+00 0. -1.
         21    1    1    2  505  501 -0.51530106672E+02 -0.14341123379E+03  0.25055004834E+03  0.29325323628E+03  0.00000000000E+00 0.  1.
          1    1    1    2  501    0  0.15701265067E+02 -0.12795297788E+03  0.44460810141E+03  0.46291992625E+03  0.00000000000E+00 0.  1.
<scales pt_clust_3="134.64222" pt_clust_4="238.08001" pt_clust_5="107.38222" pt_clust_6="107.38222"></scales>
<clustering>
<clus scale="  107.382">  5  6 -1 -1</clus>
<clus scale="  134.642">  2  3  1 -1</clus>
<clus scale="  238.080">  2  4  1 -1</clus>
<clus scale="  134.642">  2  3  1 -1</clus>
</clustering>
</event>
<event>
 6    0  0.4796958E+002  0.9091011E+02  0.7546771E-02  0.1300663E+00
         -3   -1    0    0    0  501 -0.00000000000E+00  0.00000000000E+00  0.14615576982E+04  0.14615576982E+04  0.00000000000E+00 0. -1.
         21   -1    0    0  505  502  0.00000000000E+00 -0.00000000000E+00 -0.17782479757E+02  0.17782479757E+02  0.00000000000E+00 0. -1.
         21    1    1    2  503  504  0.43063564310E+02  0.95437356156E+01  0.78706206341E+02  0.90223169846E+02  0.00000000000E+00 0. -1.
         21    1    1    2  504  502  0.24766196781E+02  0.34294695570E+02  0.67450678507E+02  0.79618368975E+02  0.00000000000E+00 0. -1.
         21    1    1    2  505  501 -0.64046350007E+02 -0.10031810468E+03  0.83892518909E+03  0.84732586999E+03  0.00000000000E+00 0. -1.
         -3    1    1    2    0  503 -0.37834110833E+01  0.56479673495E+02  0.45869314450E+03  0.46217276914E+03  0.00000000000E+00 0. -1.
<scales pt_clust_3="30.36864" pt_clust_4="30.36864" pt_clust_5="85.45771" pt_clust_6="56.60625"></scales>
<clustering>
<clus scale="   30.369">  3  4 -1 -1</clus>
<clus scale="   56.606">  1  6  2 -1</clus>
<clus scale="   85.458">  1  5  2 -1</clus>
<clus scale="   90.910">  2  3  1 -1</clus>
</clustering>
</event>
<event>
 6    0  0.4796958E+002  0.1488486E+03  0.7546771E-02  0.1201895E+00
         21   -1    0    0  504  502  0.00000000000E+00  0.00000000000E+00  0.15571969661E+03  0.15571969661E+03  0.00000000000E+00 0. -1.
         -1   -1    0    0    0  501 -0.00000000000E+00 -0.00000000000E+00 -0.11140922339E+04  0.11140922339E+04  0.00000000000E+00 0.  1.
         21    1    1    2  503  505 -0.13373615716E+03 -0.12618271841E+02 -0.16645247061E+03  0.21389484680E+03  0.00000000000E+00 0.  1.
         21    1    1    2  504  501  0.13628152866E+03 -0.69238611813E+02 -0.38933788525E+02  0.15774181535E+03  0.00000000000E+00 0. -1.
         21    1    1    2  505  502  0.46054740952E+02  0.75296220262E+01  0.62426402899E+02  0.77940940146E+02  0.00000000000E+00 0. -1.
         -1    1    1    2    0  503 -0.48600112450E+02  0.74327261627E+02 -0.81541268103E+03  0.82023432819E+03  0.00000000000E+00 0.  1.
<scales pt_clust_3="148.84860" pt_clust_4="14000.00000" pt_clust_5="46.66620" pt_clust_6="88.28148"></scales>
<clustering>
<clus scale="   46.666">  1  5  2 -1</clus>
<clus scale="   88.281">  2  6  1 -1</clus>
<clus scale="  148.849">  2  3  1 -1</clus>
<clus scale="   46.666">  1  3  2 -1</clus>
</clustering>
</event>
<event>
 6    0  0.4796958E+002  0.1069338E+03  0.7546771E-02  0.1266356E+00
         21   -1    0    0  501  502  0.00000000000E+00  0.00000000000E+00  0.11539573324E+03  0.11539573324E+03  0.00000000000E+00 0.  1.
          2   -1    0    0  505    0 -0.00000000000E+00 -0.00000000000E+00 -0.15949245506E+04  0.15949245506E+04  0.00000000000E+00 0. -1.
         21    1    1    2  503  504 -0.37057562212E+02 -0.38955762926E+02  0.29492552157E+02  0.61323935090E+02  0.00000000000E+00 0.  1.
         21    1    1    2  504  502 -0.72857923857E+01 -0.54600272115E+02  0.41043072834E+02  0.68693568209E+02  0.00000000000E+00 0.  1.
         21    1    1    2  505  503 -0.22016545039E+02  0.10217703433E+03 -0.17662900055E+03  0.20523810181E+03  0.00000000000E+00 0. -1.
          2    1    1    2  501    0  0.66359899637E+02 -0.86209992888E+01 -0.13734354418E+04  0.13750646787E+04  0.00000000000E+00 0. -1.
<scales pt_clust_3="34.36941" pt_clust_4="34.36941" pt_clust_5="101.11692" pt_clust_6="66.91755"></scales>
<clustering>
<clus scale="   34.369">  3  4 -1 -1</clus>
<clus scale="   66.918">  2  6  1 -1</clus>
<clus scale="  101.117">  2  5  1 -1</clus>
<clus scale="  106.934">  1  3  2 -1</clus>
</clustering>
</event>
<event>
 6    0  0.4796958E+002  0.2632279E+03  0.7546771E-02  0.1105219E+00
         21   -1    0    0  503  502  0.00000000000E+00  0.00000000000E+00  0.11421481210E+03  0.11421481210E+03  0.00000000000E+00 0. -1.
          2   -1    0    0  505    0 -0.00000000000E+00 -0.00000000000E+00 -0.44543581506E+04  0.44543581506E+04  0.00000000000E+00 0. -1.
         21    1    1    2  503  501 -0.94046479998E+01  0.30451362747E+02 -0.43722593908E+02  0.54105435172E+02  0.00000000000E+00 0.  1.
         21    1    1    2  504  502  0.52898954772E+02  0.81230714625E+02  0.66558630118E+02  0.11758732779E+03  0.00000000000E+00 0. -1.
         21    1    1    2  505  504 -0.25239821748E+03 -0.16928020316E+03 -0.31563116292E+04  0.31709089782E+04  0.00000000000E+00 0. -1.
          2    1    1    2  501    0  0.20890391071E+03  0.57598125787E+02 -0.12066677456E+04  0.12259712216E+04  0.00000000000E+00 0. -1.
<scales pt_clust_3="31.87056" pt_clust_4="116.01244" pt_clust_5="14000.00000" pt_clust_6="263.22793"></scales>
<clustering>
<clus scale="   31.871">  1  3  2 -1</clus>
<clus scale="  116.012">  1  4  2 -1</clus>
<clus scale="  263.228">  1  6  2 -1</clus>
<clus scale="   31.871">  1  3  2 -1</clus>
</clustering>
</event>
<event>
 6    0  0.4796958E+002  0.8652187E+02  0.7546771E-02  0.1311500E+00
          2   -1    0    0  505    0 -0.00000000000E+00  0.00000000000E+00  0.14155839052E+04  0.14155839052E+04  0.00000000000E+00 0. -1.
         21   -1    0    0  501  502  0.00000000000E+00 -0.00000000000E+00 -0.34838823885E+02  0.34838823885E+02  0.00000000000E+00 0.  1.
         21    1    1    2  503  502  0.17553892684E+02  0.72047588811E+02  0.59935545339E+02  0.95348119001E+02  0.00000000000E+00 0.  1.
         21    1    1    2  504  503 -0.51142635278E+02 -0.13355620966E+03  0.33500202135E+03  0.36425154027E+03  0.00000000000E+00 0.  1.
         21    1    1    2  505  504  0.80104762225E+01  0.29840428636E+02  0.11541211256E+03  0.11947625135E+03  0.00000000000E+00 0.  1.
          2    1    1    2  501    0  0.25578266372E+02  0.31668192216E+02  0.87039540208E+03  0.87134681848E+03  0.00000000000E+00 0. -1.
<scales pt_clust_3="86.52187" pt_clust_4="14000.00000" pt_clust_5="30.89691" pt_clust_6="60.24600"></scales>
<clustering>
<clus scale="   30.897">  1  5  2 -1</clus>
<clus scale="   60.246">  1  6  2 -1</clus>
<clus scale="   86.522">  2  3  1 -1</clus>
<clus scale="   86.522">  2  3  1 -1</clus>
</clustering>
</event>
<event>
 6    0  0.4796958E+002  0.7800137E+02  0.7546771E-02  0.1334821E+00
         21   -1    0    0  503  502  0.00000000000E+00  0.00000000000E+00  0.10075386833E+04  0.10075386833E+04  0.00000000000E+00 0.  1.
         -2   -1    0    0    0  501 -0.00000000000E+00 -0.00000000000E+00 -0.23824493273E+03  0.23824493273E+03  0.00000000000E+00 0. -1.
         21    1    1    2  503  504 -0.11890947471E+02  0.49718803261E+02  0.33874034420E+03  0.34257608618E+03  0.00000000000E+00 0.  1.
         21    1    1    2  504  501  0.10100500559E+03 -0.22594626153E+02  0.44648725219E+03  0.45832673352E+03  0.00000000000E+00 0.  1.
         21    1    1    2  505  502 -0.55865670359E+02  0.21805461262E+02  0.20633544215E+03  0.21487383730E+03  0.00000000000E+00 0.  1.
         -2    1    1    2    0  505 -0.33248387762E+02 -0.48929638370E+02 -0.22226928801E+03  0.23000695901E+03  0.00000000000E+00 0. -1.
<scales pt_clust_3="51.12097" pt_clust_4="14000.00000" pt_clust_5="78.00137" pt_clust_6="58.95773"></scales>
<clustering>
<clus scale="   51.121">  1  3  2 -1</clus>
<clus scale="   58.958">  2  6  1 -1</clus>
<clus scale="   78.001">  2  5  1 -1</clus>
<clus scale="   51.121">  1  3  2 -1</clus>
</clustering>
</event>
<event>
 6    0  0.4796958E+002  0.6479599E+02  0.7546771E-02  0.1378741E+00
         -2   -1    0    0    0  501 -0.00000000000E+00  0.00000000000E+00  0.38997945972E+03  0.38997945972E+03  0.00000000000E+00 0. -1.
         21   -1    0    0  503  502  0.00000000000E+00 -0.00000000000E+00 -0.12611874328E+04  0.12611874328E+04  0.00000000000E+00 0. -1.
         21    1    1    2  503  501 -0.65114426182E+02  0.41245473483E+02 -0.11270707747E+02  0.77898051535E+02  0.00000000000E+00 0.  1.
         21    1    1    2  504  502 -0.63049064773E+02 -0.15262213207E+02 -0.11552790737E+04  0.11570988972E+04  0.00000000000E+00 0. -1.
         21    1    1    2  505  504  0.68958977327E+02 -0.18636118962E+02 -0.35656974105E+02  0.79837743495E+02  0.00000000000E+00 0.  1.
         -2    1    1    2    0  505  0.59204513627E+02 -0.73471413134E+01  0.33099878251E+03  0.33633220027E+03  0.00000000000E+00 0. -1.
<scales pt_clust_3="47.61304" pt_clust_4="14000.00000" pt_clust_5="64.79599" pt_clust_6="59.65865"></scales>
<clustering>
<clus scale="   59.659">  1  6  2 -1</clus>
<clus scale="   47.613">  1  3  2 -1</clus>
<clus scale="   64.796">  1  5  2 -1</clus>
<clus scale="   64.796">  2  3  1 -1</clus>
</clustering>
</event>
<event>
 6    0  0.4796958E+002  0.9479193E+02  0.7546771E-02  0.1291645E+00
         21   -1    0    0  505  502  0.00000000000E+00  0.00000000000E+00  0.34816067131E+03  0.34816067131E+03  0.00000000000E+00 0.  1.
         -2   -1    0    0    0  501 -0.00000000000E+00 -0.00000000000E+00 -0.19790674040E+03  0.19790674040E+03  0.00000000000E+00 0.  1.
         21    1    1    2  503  504 -0.22726683080E+02  0.15262488719E+03 -0.16222930203E+02  0.15515811863E+03  0.00000000000E+00 0.  1.
         21    1    1    2  504  502  0.39760345268E+02 -0.18659811501E+02  0.10936062228E+03  0.11785083507E+03  0.00000000000E+00 0.  1.
         21    1    1    2  505  501 -0.37160040322E+01 -0.53015651916E+02  0.14404183651E+03  0.15353344489E+03  0.00000000000E+00 0.  1.
         -2    1    1    2    0  503 -0.13317658157E+02 -0.80949423771E+02 -0.86925597683E+02  0.11952501311E+03  0.00000000000E+00 0.  1.
<scales pt_clust_3="14000.00000" pt_clust_4="43.92122" pt_clust_5="68.32506" pt_clust_6="94.79193"></scales>
<clustering>
<clus scale="   43.921">  1  4  2 -1</clus>
<clus scale="   68.325">  1  5  2 -1</clus>
<clus scale="   94.792">  2  6  1 -1</clus>
<clus scale="   43.921">  1  3  2 -1</clus>
</clustering>
</event>
<event>
 6    0  0.4796958E+002  0.1373869E+03  0.7546771E-02  0.1216889E+00
          1   -1    0    0  504    0 -0.00000000000E+00  0.00000000000E+00  0.66698668472E+03  0.66698668472E+03  0.00000000000E+00 0.  1.
         21   -1    0    0  505  502  0.00000000000E+00 -0.00000000000E+00 -0.17831470309E+03  0.17831470309E+03  0.00000000000E+00 0.  1.
         21    1    1    2  503  501 -0.95286972487E+02  0.32641666198E+02  0.39033178558E+03  0.40311783430E+03  0.00000000000E+00 0.  1.
         21    1    1    2  504  502 -0.23614315769E+02 -0.27974775731E+02 -0.22380893159E+02  0.42908371736E+02  0.00000000000E+00 0. -1.
         21    1    1    2  505  503  0.13201504024E+03 -0.34067828197E+02 -0.10448970240E+03  0.17177510202E+03  0.00000000000E+00 0.  1.
          1    1    1    2  501    0 -0.13113751986E+02  0.29400937730E+02  0.22521079160E+03  0.22750007975E+03  0.00000000000E+00 0.  1.
<scales pt_clust_3="31.91236" pt_clust_4="36.60907" pt_clust_5="125.25528" pt_clust_6="31.91236"></scales>
<clustering>
<clus scale="   31.912">  3  6 -1 -1</clus>
<clus scale="   36.609">  2  4  1 -1</clus>
<clus scale="  125.255">  2  5  1 -1</clus>
<clus scale="   36.609">  2  3  1 -1</clus>
</clustering>
</event>
<event>
 6    0  0.4796958E+002  0.1224792E+03  0.7546771E-02  0.1239062E+00
          2   -1    0    0  502    0 -0.00000000000E+00  0.00000000000E+00  0.24493774145E+04  0.24493774145E+04  0.00000000000E+00 0. -1.
         21   -1    0    0  505  502  0.00000000000E+00 -0.00000000000E+00 -0.30033421243E+02  0.30033421243E+02  0.00000000000E+00 0. -1.
         21    1    1    2  503  501  0.35881821145E+02 -0.53941913390E+02  0.18699664983E+03  0.19790144557E+03  0.00000000000E+00 0.  1.
         21    1    1    2  504  503  0.10304049512E+02 -0.48057139983E+02  0.70783479302E+02  0.86174027884E+02  0.00000000000E+00 0. -1.
         21    1    1    2  505  504 -0.79668480146E+02 -0.12070964844E+02  0.91748861677E+02  0.12210908459E+03  0.00000000000E+00 0. -1.
          2    1    1    2  501    0  0.33482609488E+02  0.11407001822E+03  0.20698150024E+04  0.20732262777E+04  0.00000000000E+00 0. -1.
<scales pt_clust_3="36.03181" pt_clust_4="36.03181" pt_clust_5="80.57776" pt_clust_6="115.28142"></scales>
<clustering>
<clus scale="   36.032">  3  4 -1 -1</clus>
<clus scale="   80.578">  2  5  1 -1</clus>
<clus scale="  115.281">  1  6  2 -1</clus>
<clus scale="   80.578">  2  3  1 -1</clus>
</clustering>
</event>
<event>
 6    0  0.4796958E+002  0.1402711E+03  0.7546771E-02  0.1212965E+00
         21   -1    0    0  505  502  0.00000000000E+00  0.00000000000E+00  0.10926414892E+03  0.10926414892E+03  0.00000000000E+00 0. -1.
          1   -1    0    0  503    0 -0.00000000000E+00 -0.00000000000E+00 -0.75972606709E+03  0.75972606709E+03  0.00000000000E+00 0. -1.
         21    1    1    2  503  502  0.10713867378E+02 -0.93229001244E+02 -0.19197482791E+03  0.21368380420E+03  0.00000000000E+00 0. -1.
         21    1    1    2  504  501 -0.37147741647E+02  0.77947915067E+02  0.19865332600E+01  0.86370009188E+02  0.00000000000E+00 0.  1.
         21    1    1    2  505  504 -0.40216539239E+01  0.58951713536E+02  0.36280025308E+02  0.69337713154E+02  0.00000000000E+00 0. -1.
          1    1    1    2  501    0  0.30455528193E+02 -0.43670627359E+02 -0.49675364883E+03  0.49959868946E+03  0.00000000000E+00 0. -1.
<scales pt_clust_3="131.65047" pt_clust_4="40.05160" pt_clust_5="40.05160" pt_clust_6="53.24155"></scales>
<clustering>
<clus scale="   40.052">  4  5 -1 -1</clus>
<clus scale="   53.242">  2  6  1 -1</clus>
<clus scale="  131.650">  2  3  1 -1</clus>
<clus scale="  140.271">  1  3  2 -1</clus>
</clustering>
</event>
<event>
 6    0  0.4796958E+002  0.6951042E+02  0.7546771E-02  0.1361766E+00
         21   -1    0    0  505  502  0.00000000000E+00  0.00000000000E+00  0.34758604545E+02  0.34758604545E+02  0.00000000000E+00 0.  1.
          2   -1    0    0  503    0 -0.00000000000E+00 -0.00000000000E+00 -0.85501650110E+03  0.85501650110E+03  0.00000000000E+00 0.  1.
         21    1    1    2  503  504  0.58711474595E+02  0.56244642836E+02 -0.22520313559E+03  0.23943046877E+03  0.00000000000E+00 0.  1.
         21    1    1    2  504  502  0.48116798612E+02 -0.43021093474E+02 -0.81831912613E+02  0.10422333095E+03  0.00000000000E+00 0.  1.
         21    1    1    2  505  501 -0.92227566277E+02  0.13795647437E+02 -0.12132975408E+03  0.15302664178E+03  0.00000000000E+00 0.  1.
          2    1    1    2  501    0 -0.14600706931E+02 -0.27019196799E+02 -0.39189309428E+03  0.39309466415E+03  0.00000000000E+00 0.  1.
<scales pt_clust_3="14000.00000" pt_clust_4="66.25089" pt_clust_5="69.51042" pt_clust_6="30.71185"></scales>
<clustering>
<clus scale="   30.712">  2  6  1 -1</clus>
<clus scale="   66.251">  1  4  2 -1</clus>
<clus scale="   69.510">  1  5  2 -1</clus>
<clus scale="   66.251">  1  3  2 -1</clus>
</clustering>
</event>
<event>
 6    0  0.4796958E+002  0.2065980E+03  0.7546771E-02  0.1144289E+00
         21   -1    0    0  501  502  0.00000000000E+00  0.00000000000E+00  0.19083506510E+03  0.19083506510E+03  0.00000000000E+00 0. -1.
          1   -1    0    0  505    0 -0.00000000000E+00 -0.00000000000E+00 -0.33755548623E+04  0.33755548623E+04  0.00000000000E+00 0.  1.
         21    1    1    2  503  502 -0.10237222352E+03 -0.94615960932E+02  0.79098463142E+02  0.16027731930E+03  0.00000000000E+00 0. -1.
         21    1    1    2  504  503 -0.99600673705E+01 -0.64941772845E+02  0.43991211055E+02  0.79068726133E+02  0.00000000000E+00 0. -1.
         21    1    1    2  505  504  0.98220532328E+02  0.21644724670E+03 -0.15375064073E+04  0.15557707530E+04  0.00000000000E+00 0.  1.
          1    1    1    2  501    0  0.14111758565E+02 -0.56889512919E+02 -0.17703030641E+04  0.17712731289E+04  0.00000000000E+00 0.  1.
<scales pt_clust_3="43.73457" pt_clust_4="43.73457" pt_clust_5="196.53110" pt_clust_6="58.61364"></scales>
<clustering>
<clus scale="   43.735">  3  4 -1 -1</clus>
<clus scale="   58.614">  2  6  1 -1</clus>
<clus scale="  196.531">  2  5  1 -1</clus>
<clus scale="  206.598">  1  3  2 -1</clus>
</clustering>
</event>
<event>
 6    0  0.4796958E+002  0.1259382E+03  0.7546771E-02  0.1233610E+00
          2   -1    0    0  505    0 -0.00000000000E+00  0.00000000000E+00  0.15090542993E+04  0.15090542993E+04  0.00000000000E+00 0. -1.
         21   -1    0    0  503  502  0.00000000000E+00 -0.00000000000E+00 -0.19491913134E+03  0.19491913134E+03  0.00000000000E+00 0. -1.
         21    1    1    2  503  504 -0.66345267825E+02  0.24349459212E+02 -0.11863938847E+03  0.13809379140E+03  0.00000000000E+00 0. -1.
         21    1    1    2  504  501  0.18633768323E+02  0.15837783776E+03  0.65724746639E+02  0.17248333002E+03  0.00000000000E+00 0. -1.
         21    1    1    2  505  502 -0.24023762308E+02 -0.78940069050E+02  0.16242658442E+03  0.18218416776E+03  0.00000000000E+00 0. -1.
          2    1    1    2  501    0  0.71735261810E+02 -0.10378722792E+03  0.12046232254E+04  0.12112121415E+04  0.00000000000E+00 0. -1.
<scales pt_clust_3="70.67242" pt_clust_4="14000.00000" pt_clust_5="82.59094" pt_clust_6="125.93823"></scales>
<clustering>
<clus scale="   70.672">  2  3  1 -1</clus>
<clus scale="   82.591">  2  5  1 -1</clus>
<clus scale="  125.938">  1  6  2 -1</clus>
<clus scale="   70.672">  2  3  1 -1</clus>
</clustering>
</event>
<event>
 6    0  0.4796958E+002  0.5546099E+02  0.7546771E-02  0.1417931E+00
         21   -1    0    0  505  502  0.00000000000E+00  0.00000000000E+00  0.51474299999E+03  0.51474299999E+03  0.00000000000E+00 0. -1.
          2   -1    0    0  504    0 -0.00000000000E+00 -0.00000000000E+00 -0.18138241065E+04  0.18138241065E+04  0.00000000000E+00 0.  1.
         21    1    1    2  503  502  0.89477621790E+02 -0.45419365444E+02  0.67233931371E+02  0.12078727204E+03  0.00000000000E+00 0. -1.
         21    1    1    2  504  503 -0.54297321918E+02 -0.74149198921E-01 -0.98140176776E+01  0.55177165644E+02  0.00000000000E+00 0. -1.
         21    1    1    2  505  501 -0.52876430644E+02  0.33664052963E+01  0.39598859225E+03  0.39951747746E+03  0.00000000000E+00 0. -1.
          2    1    1    2  501    0  0.17696130772E+02  0.42127109347E+02 -0.17524896125E+04  0.17530851914E+04  0.00000000000E+00 0.  1.
<scales pt_clust_3="55.46099" pt_clust_4="50.13542" pt_clust_5="14000.00000" pt_clust_6="45.69296"></scales>
<clustering>
<clus scale="   45.693">  2  6  1 -1</clus>
<clus scale="   50.135">  2  4  1 -1</clus>
<clus scale="   55.461">  2  3  1 -1</clus>
<clus scale="   55.461">  1  3  2 -1</clus>
</clustering>
</event>
<event>
 6    0  0.4796958E+002  0.8852887E+02  0.7546771E-02  0.1306454E+00
         21   -1    0    0  504  502  0.00000000000E+00  0.00000000000E+00  0.93820287567E+02  0.93820287567E+02  0.00000000000E+00 0. -1.
          2   -1    0    0  503    0 -0.00000000000E+00 -0.00000000000E+00 -0.61252072660E+03  0.61252072660E+03  0.00000000000E+00 0. -1.
         21    1    1    2  503  502  0.66636919741E+02  0.59176482823E+02 -0.30529606174E+02  0.94203991662E+02  0.00000000000E+00 0. -1.
         21    1    1    2  504  505 -0.52579548772E+02  0.45096419357E+02  0.31774716925E+02  0.76209767245E+02  0.00000000000E+00 0. -1.
         21    1    1    2  505  501 -0.30567297977E+02 -0.69016675173E+02 -0.20263352532E+03  0.21623599779E+03  0.00000000000E+00 0. -1.
          2    1    1    2  501    0  0.16509927008E+02 -0.35256227007E+02 -0.31731202446E+03  0.31969125747E+03  0.00000000000E+00 0. -1.
<scales pt_clust_3="14000.00000" pt_clust_4="66.59933" pt_clust_5="88.52887" pt_clust_6="38.93044"></scales>
<clustering>
<clus scale="   38.930">  2  6  1 -1</clus>
<clus scale="   66.599">  1  4  2 -1</clus>
<clus scale="   88.529">  2  5  1 -1</clus>
<clus scale="   66.599">  1  3  2 -1</clus>
</clustering>
</event>
<event>
 6    0  0.4796958E+002  0.8215994E+02  0.7546771E-02  0.1323031E+00
          2   -1    0    0  505    0 -0.00000000000E+00  0.00000000000E+00  0.48487060136E+04  0.48487060136E+04  0.00000000000E+00 0.  1.
         21   -1    0    0  503  502  0.00000000000E+00 -0.00000000000E+00 -0.19403048967E+03  0.19403048967E+03  0.00000000000E+00 0. -1.
         21    1    1    2  503  504 -0.10034712313E+02 -0.64583908947E+02 -0.14719052981E+03  0.16104915030E+03  0.00000000000E+00 0. -1.
         21    1    1    2  504  501  0.58682801875E+02  0.67720753601E+02  0.33430085360E+02  0.95641739378E+02  0.00000000000E+00 0.  1.
         21    1    1    2  505  502  0.13811673450E+02 -0.29146381198E+02  0.21804860970E+02  0.38932323619E+02  0.00000000000E+00 0. -1.
          2    1    1    2  501    0 -0.62459763012E+02  0.26009536543E+02  0.47466311074E+04  0.47471132900E+04  0.00000000000E+00 0.  1.
<scales pt_clust_3="82.15994" pt_clust_4="14000.00000" pt_clust_5="32.25328" pt_clust_6="67.62770"></scales>
<clustering>
<clus scale="   32.253">  2  5  1 -1</clus>
<clus scale="   67.628">  1  6  2 -1</clus>
<clus scale="   82.160">  2  3  1 -1</clus>
<clus scale="   32.253">  2  3  1 -1</clus>
</clustering>
</event>
<event>
 6    0  0.4796958E+002  0.1171461E+03  0.7546771E-02  0.1247881E+00
         21   -1    0    0  504  502  0.00000000000E+00  0.00000000000E+00  0.26283721834E+03  0.26283721834E+03  0.00000000000E+00 0.  1.
          1   -1    0    0  503    0 -0.00000000000E+00 -0.00000000000E+00 -0.22614758541E+04  0.22614758541E+04  0.00000000000E+00 0. -1.
         21    1    1    2  503  502 -0.29121182349E+02  0.12001511326E+02 -0.37173047015E+02  0.48722838176E+02  0.00000000000E+00 0.  1.
         21    1    1    2  504  505  0.14189082178E+03 -0.49868497168E+02  0.23194783000E+03  0.27644107538E+03  0.00000000000E+00 0.  1.
         21    1    1    2  505  501 -0.77825876347E+02  0.44188016787E+02 -0.75324406085E+03  0.75854206413E+03  0.00000000000E+00 0. -1.
          1    1    1    2  501    0 -0.34943763080E+02 -0.63210309453E+01 -0.14401693579E+04  0.14406070947E+04  0.00000000000E+00 0. -1.
<scales pt_clust_3="31.49729" pt_clust_4="117.14606" pt_clust_5="14000.00000" pt_clust_6="35.53345"></scales>
<clustering>
<clus scale="   31.497">  1  3  2 -1</clus>
<clus scale="   35.533">  2  6  1 -1</clus>
<clus scale="  117.146">  1  4  2 -1</clus>
<clus scale="   31.497">  1  3  2 -1</clus>
</clustering>
</event>
<event>
 6    0  0.4796958E+002  0.1007698E+03  0.7546771E-02  0.1278685E+00
         21   -1    0    0  501  502  0.00000000000E+00  0.00000000000E+00  0.20663302449E+03  0.20663302449E+03  0.00000000000E+00 0.  1.
          2   -1    0    0  503    0 -0.00000000000E+00 -0.00000000000E+00 -0.15506170868E+04  0.15506170868E+04  0.00000000000E+00 0.  1.
         21    1    1    2  503  505 -0.20881657153E+02 -0.36379918294E+02 -0.69604300462E+02  0.81266848735E+02  0.00000000000E+00 0.  1.
         21    1    1    2  504  502  0.67274803623E+02  0.88719460027E+02  0.15021866299E+03  0.18698312357E+03  0.00000000000E+00 0.  1.
         21    1    1    2  505  504  0.25688377142E+02 -0.88893167116E+02 -0.37969439792E+02  0.10001782960E+03  0.00000000000E+00 0.  1.
          2    1    1    2  501    0 -0.72081523612E+02  0.36553625383E+02 -0.13866289850E+04  0.13889823093E+04  0.00000000000E+00 0.  1.
<scales pt_clust_3="41.94690" pt_clust_4="14000.00000" pt_clust_5="100.76979" pt_clust_6="91.75590"></scales>
<clustering>
<clus scale="   41.947">  2  3  1 -1</clus>
<clus scale="   91.756">  2  6  1 -1</clus>
<clus scale="  100.770">  2  5  1 -1</clus>
<clus scale="  100.770">  1  3  2 -1</clus>
</clustering>
</event>
<event>
 6    0  0.4796958E+002  0.1410165E+03  0.7546771E-02  0.1211968E+00
          2   -1    0    0  505    0 -0.00000000000E+00  0.00000000000E+00  0.78926231019E+03  0.78926231019E+03  0.00000000000E+00 0. -1.
         21   -1    0    0  503  502  0.00000000000E+00 -0.00000000000E+00 -0.30264151577E+03  0.30264151577E+03  0.00000000000E+00 0. -1.
         21    1    1    2  503  504  0.36332945043E+02 -0.13098107151E+02 -0.12216682778E+03  0.12812641069E+03  0.00000000000E+00 0. -1.
         21    1    1    2  504  501  0.33441482319E+02 -0.12878170543E+03 -0.13435225282E+03  0.18908619260E+03  0.00000000000E+00 0. -1.
         21    1    1    2  505  502 -0.26981587341E+02  0.87641357854E+02  0.13843143169E+03  0.16604901367E+03  0.00000000000E+00 0. -1.
          2    1    1    2  501    0 -0.42792840021E+02  0.54238454724E+02  0.60470844334E+03  0.60864220900E+03  0.00000000000E+00 0. -1.
<scales pt_clust_3="38.62180" pt_clust_4="141.01646" pt_clust_5="14000.00000" pt_clust_6="68.72421"></scales>
<clustering>
<clus scale="   38.622">  2  3  1 -1</clus>
<clus scale="   68.724">  1  6  2 -1</clus>
<clus scale="  141.016">  2  4  1 -1</clus>
<clus scale="   38.622">  2  3  1 -1</clus>
</clustering>
</event>
<event>
 6    0  0.4796958E+002  0.7248830E+02  0.7546771E-02  0.1351830E+00
         21   -1    0    0  505  502  0.00000000000E+00  0.00000000000E+00  0.17728487873E+03  0.17728487873E+03  0.00000000000E+00 0.  1.
          2   -1    0    0  504    0 -0.00000000000E+00 -0.00000000000E+00 -0.85856658634E+03  0.85856658634E+03  0.00000000000E+00 0. -1.
         21    1    1    2  503  502 -0.60556491215E+02 -0.31167089637E+02  0.23721878677E+02  0.72119370718E+02  0.00000000000E+00 0.  1.
         21    1    1    2  504  503  0.45106239162E+02 -0.74112946136E+02  0.87767600802E+02  0.12341172289E+03  0.00000000000E+00 0.  1.
         21    1    1    2  505  501  0.41462982921E+02  0.48291108069E+02 -0.22504514040E+02  0.67510467509E+02  0.00000000000E+00 0.  1.
          2    1    1    2  501    0 -0.26012730868E+02  0.56988927704E+02 -0.77026667304E+03  0.77280990395E+03  0.00000000000E+00 0. -1.
<scales pt_clust_3="69.49926" pt_clust_4="14000.00000" pt_clust_5="72.48830" pt_clust_6="62.64503"></scales>
<clustering>
<clus scale="   62.645">  2  6  1 -1</clus>
<clus scale="   69.499">  1  3  2 -1</clus>
<clus scale="   72.488">  2  5  1 -1</clus>
<clus scale="   69.499">  1  3  2 -1</clus>
</clustering>
</event>
<event>
 6    0  0.4796958E+002  0.1385894E+03  0.7546771E-02  0.1215240E+00
         -3   -1    0    0    0  501 -0.00000000000E+00  0.00000000000E+00  0.31174414823E+03  0.31174414823E+03  0.00000000000E+00 0.  1.
         21   -1    0    0  505  502  0.00000000000E+00 -0.00000000000E+00 -0.90772906395E+03  0.90772906395E+03  0.00000000000E+00 0. -1.
         21    1    1    2  503  502 -0.42933322804E+02  0.52597360340E+01 -0.52296667885E+02  0.67866608152E+02  0.00000000000E+00 0.  1.
         21    1    1    2  504  503 -0.41827593783E+02 -0.44066780659E+02 -0.52800202269E+02  0.80494037785E+02  0.00000000000E+00 0. -1.
         21    1    1    2  505  501  0.18729099463E+03 -0.53206288772E+02 -0.75150881529E+03  0.77632101948E+03  0.00000000000E+00 0. -1.
         -3    1    1    2    0  504 -0.10253007804E+03  0.92013333397E+02  0.26062076973E+03  0.29479154676E+03  0.00000000000E+00 0.  1.
<scales pt_clust_3="40.24567" pt_clust_4="104.71642" pt_clust_5="138.58944" pt_clust_6="14000.00000"></scales>
<clustering>
<clus scale="   40.246">  3  4 -1 -1</clus>
<clus scale="  104.716">  2  3  1 -1</clus>
<clus scale="  138.589">  2  5  1 -1</clus>
<clus scale="  104.716">  2  3  1 -1</clus>
</clustering>
</event>
<event>
 6    0  0.4796958E+002  0.8071248E+02  0.7546771E-02  0.1327042E+00
          2   -1    0    0  504    0 -0.00000000000E+00  0.00000000000E+00  0.31765964119E+04  0.31765964119E+04  0.00000000000E+00 0.  1.
         21   -1    0    0  505  502  0.00000000000E+00 -0.00000000000E+00 -0.97508499069E+02  0.97508499069E+02  0.00000000000E+00 0. -1.
         21    1    1    2  503  502 -0.12714765695E+00 -0.38865694775E+02 -0.60279466465E+02  0.71722886683E+02  0.00000000000E+00 0. -1.
         21    1    1    2  504  503 -0.13358711440E+02 -0.41882899305E+02  0.34853568185E+03  0.35129724444E+03  0.00000000000E+00 0.  1.
         21    1    1    2  505  501 -0.24525917788E+02  0.11473757421E+03  0.85268718055E+02  0.14504132465E+03  0.00000000000E+00 0. -1.
          2    1    1    2  501    0  0.38011776885E+02 -0.33988980130E+02  0.27055629794E+04  0.27060434552E+04  0.00000000000E+00 0.  1.
<scales pt_clust_3="38.86590" pt_clust_4="45.58900" pt_clust_5="14000.00000" pt_clust_6="80.71248"></scales>
<clustering>
<clus scale="   38.866">  2  3  1 -1</clus>
<clus scale="   45.589">  1  4  2 -1</clus>
<clus scale="   80.712">  1  6  2 -1</clus>
<clus scale="   38.866">  2  3  1 -1</clus>
</clustering>
</event>
<event>
 6    0  0.4796958E+002  0.1388184E+03  0.7546771E-02  0.1214928E+00
          1   -1    0    0  503    0 -0.00000000000E+00  0.00000000000E+00  0.15408378401E+04  0.15408378401E+04  0.00000000000E+00 0.  1.
         21   -1    0    0  504  502  0.00000000000E+00 -0.00000000000E+00 -0.37015667802E+03  0.37015667802E+03  0.00000000000E+00 0.  1.
         21    1    1    2  503  505  0.71695957601E+02 -0.17342229245E+03  0.63119924321E+03  0.65850443163E+03  0.00000000000E+00 0.  1.
         21    1    1    2  504  501 -0.10145829314E+03  0.22732853880E+02 -0.84757747175E+02  0.13414336956E+03  0.00000000000E+00 0.  1.
         21    1    1    2  505  502  0.22630293826E+02  0.95628903181E+02 -0.23635128330E+03  0.25596669010E+03  0.00000000000E+00 0.  1.
          1    1    1    2  501    0  0.71320417084E+01  0.55060535385E+02  0.86059094932E+03  0.86238002680E+03  0.00000000000E+00 0.  1.
<scales pt_clust_3="138.81842" pt_clust_4="14000.00000" pt_clust_5="99.06741" pt_clust_6="55.52052"></scales>
<clustering>
<clus scale="   55.521">  1  6  2 -1</clus>
<clus scale="   99.067">  2  5  1 -1</clus>
<clus scale="  138.818">  1  3  2 -1</clus>
<clus scale="   99.067">  2  3  1 -1</clus>
</clustering>
</event>
<event>
 6    0  0.4796958E+002  0.1011158E+03  0.7546771E-02  0.1277967E+00
         21   -1    0    0  504  502  0.00000000000E+00  0.00000000000E+00  0.13657783719E+03  0.13657783719E+03  0.00000000000E+00 0. -1.
          1   -1    0    0  505    0 -0.00000000000E+00 -0.00000000000E+00 -0.48529720275E+03  0.48529720275E+03  0.00000000000E+00 0. -1.
         21    1    1    2  503  502 -0.69264103150E+02 -0.48853994766E+02  0.55433304155E+02  0.10127724325E+03  0.00000000000E+00 0. -1.
         21    1    1    2  504  501  0.19299035681E+02  0.40256418375E+02 -0.34613139022E+01  0.44777368084E+02  0.00000000000E+00 0.  1.
         21    1    1    2  505  503  0.14086298145E+03  0.25088084414E+01 -0.13571333617E+03  0.19561897474E+03  0.00000000000E+00 0. -1.
          1    1    1    2  501    0 -0.90897913983E+02  0.60887679490E+01 -0.26497801964E+03  0.28020145387E+03  0.00000000000E+00 0. -1.
<scales pt_clust_3="60.24115" pt_clust_4="44.64339" pt_clust_5="14000.00000" pt_clust_6="101.11582"></scales>
<clustering>
<clus scale="   44.643">  1  4  2 -1</clus>
<clus scale="   60.241">  1  3  2 -1</clus>
<clus scale="  101.116">  2  6  1 -1</clus>
<clus scale="   44.643">  1  3  2 -1</clus>
</clustering>
</event>
<event>
 6    0  0.4796958E+002  0.9007738E+02  0.7546771E-02  0.1302664E+00
          1   -1    0    0  503    0 -0.00000000000E+00  0.00000000000E+00  0.83692803324E+03  0.83692803324E+03  0.00000000000E+00 0.  1.
         21   -1    0    0  504  502  0.00000000000E+00 -0.00000000000E+00 -0.15451477939E+04  0.15451477939E+04  0.00000000000E+00 0.  1.
         21    1    1    2  503  505  0.17437414861E+02  0.27546606849E+02  0.41591956659E+02  0.52846663515E+02  0.00000000000E+00 0. -1.
         21    1    1    2  504  501  0.13573348208E+02  0.54099289733E+02 -0.14909042646E+04  0.14919472159E+04  0.00000000000E+00 0.  1.
         21    1    1    2  505  502 -0.63332578093E+02 -0.12479748386E+03  0.57068592703E+02  0.15113653330E+03  0.00000000000E+00 0. -1.
          1    1    1    2  501    0  0.32321815024E+02  0.43151587279E+02  0.68402395459E+03  0.68614541437E+03  0.00000000000E+00 0.  1.
<scales pt_clust_3="32.60182" pt_clust_4="55.79651" pt_clust_5="14000.00000" pt_clust_6="90.07738"></scales>
<clustering>
<clus scale="   32.602">  1  3  2 -1</clus>
<clus scale="   55.797">  2  4  1 -1</clus>
<clus scale="   90.077">  1  6  2 -1</clus>
<clus scale="   55.797">  2  3  1 -1</clus>
</clustering>
</event>
<event>
 6    0  0.4796958E+002  0.1271691E+03  0.7546771E-02  0.1231718E+00
         21   -1    0    0  505  502  0.00000000000E+00  0.00000000000E+00  0.27704298108E+03  0.27704298108E+03  0.00000000000E+00 0. -1.
          2   -1    0    0  504    0 -0.00000000000E+00 -0.00000000000E+00 -0.12392936532E+04  0.12392936532E+04  0.00000000000E+00 0. -1.
         21    1    1    2  503  501 -0.30800869134E+01  0.60839273093E+02 -0.37892282710E+03  0.38378823977E+03  0.00000000000E+00 0.  1.
         21    1    1    2  504  502  0.94766307292E+02 -0.12750998919E+03  0.43602097980E+02  0.16474402353E+03  0.00000000000E+00 0. -1.
         21    1    1    2  505  503 -0.10850773960E+03  0.12028377723E+02  0.15179867029E+03  0.18697980566E+03  0.00000000000E+00 0. -1.
          2    1    1    2  501    0  0.16821519225E+02  0.54642338372E+02 -0.77872861329E+03  0.78082456532E+03  0.00000000000E+00 0. -1.
<scales pt_clust_3="49.78909" pt_clust_4="116.32151" pt_clust_5="109.17239" pt_clust_6="49.78909"></scales>
<clustering>
<clus scale="   49.789">  3  6 -1 -1</clus>
<clus scale="  109.172">  1  5  2 -1</clus>
<clus scale="  116.322">  1  4  2 -1</clus>
<clus scale="  109.172">  1  3  2 -1</clus>
</clustering>
</event>
<event>
 6    0  0.4796958E+002  0.1162541E+03  0.7546771E-02  0.1249408E+00
         21   -1    0    0  505  502  0.00000000000E+00  0.00000000000E+00  0.13273762665E+03  0.13273762665E+03  0.00000000000E+00 0.  1.
          2   -1    0    0  503    0 -0.00000000000E+00 -0.00000000000E+00 -0.28812726383E+04  0.28812726383E+04  0.00000000000E+00 0.  1.
         21    1    1    2  503  502  0.10703782891E+03  0.69884096433E+02  0.48971167397E+02  0.13689068262E+03  0.00000000000E+00 0.  1.
         21    1    1    2  504  501 -0.14331943993E+03  0.36405643453E+02 -0.84906302956E+03  0.86184329255E+03  0.00000000000E+00 0.  1.
         21    1    1    2  505  504  0.67828234032E+01 -0.57241179540E+02  0.78255937736E+01  0.58170432750E+02  0.00000000000E+00 0.  1.
          2    1    1    2  501    0  0.29498787618E+02 -0.49048560345E+02 -0.19562687433E+04  0.19571058571E+04  0.00000000000E+00 0.  1.
<scales pt_clust_3="116.25408" pt_clust_4="14000.00000" pt_clust_5="59.06572" pt_clust_6="57.23583"></scales>
<clustering>
<clus scale="   57.236">  2  6  1 -1</clus>
<clus scale="   59.066">  1  5  2 -1</clus>
<clus scale="  116.254">  1  3  2 -1</clus>
<clus scale="   59.066">  1  3  2 -1</clus>
</clustering>
</event>
<event>
 6    0  0.4796958E+002  0.8891018E+02  0.7546771E-02  0.1305513E+00
         21   -1    0    0  503  502  0.00000000000E+00  0.00000000000E+00  0.30172992023E+03  0.30172992023E+03  0.00000000000E+00 0.  1.
          2   -1    0    0  504    0 -0.00000000000E+00 -0.00000000000E+00 -0.56921580077E+03  0.56921580077E+03  0.00000000000E+00 0.  1.
         21    1    1    2  503  501 -0.63618725828E+02  0.17697851417E+02  0.25896081714E+03  0.26724756507E+03  0.00000000000E+00 0.  1.
         21    1    1    2  504  505  0.89391134890E+02 -0.85490403254E+02 -0.38848732661E+03  0.40770306226E+03  0.00000000000E+00 0.  1.
         21    1    1    2  505  502 -0.75294273889E+01  0.34770225056E+02  0.14884287850E+02  0.38564269111E+02  0.00000000000E+00 0.  1.
          2    1    1    2  501    0 -0.18242981673E+02  0.33022326781E+02 -0.15284365892E+03  0.15743082455E+03  0.00000000000E+00 0.  1.
<scales pt_clust_3="88.91018" pt_clust_4="14000.00000" pt_clust_5="35.57613" pt_clust_6="38.01068"></scales>
<clustering>
<clus scale="   35.576">  1  5  2 -1</clus>
<clus scale="   38.011">  2  6  1 -1</clus>
<clus scale="   88.910">  1  3  2 -1</clus>
<clus scale="   35.576">  1  3  2 -1</clus>
</clustering>
</event>
<event>
 6    0  0.4796958E+002  0.1491195E+03  0.7546771E-02  0.1201559E+00
         21   -1    0    0  505  502  0.00000000000E+00  0.00000000000E+00  0.77262829164E+02  0.77262829164E+02  0.00000000000E+00 0.  1.
          2   -1    0    0  504    0 -0.00000000000E+00 -0.00000000000E+00 -0.33228086365E+04  0.33228086365E+04  0.00000000000E+00 0. -1.
         21    1    1    2  503  502  0.27935849052E+02  0.26636630765E+02  0.20214792963E+02  0.43572463957E+02  0.00000000000E+00 0. -1.
         21    1    1    2  504  503 -0.19827249823E+02  0.55864924334E+02 -0.24922680837E+02  0.64305129084E+02  0.00000000000E+00 0.  1.
         21    1    1    2  505  501  0.14088409826E+03 -0.61857138757E+02 -0.22484050947E+03  0.27244795734E+03  0.00000000000E+00 0.  1.
          2    1    1    2  501    0 -0.14899269748E+03 -0.20644416342E+02 -0.30159974100E+04  0.30197459153E+04  0.00000000000E+00 0. -1.
<scales pt_clust_3="38.59950" pt_clust_4="67.86433" pt_clust_5="14000.00000" pt_clust_6="149.11952"></scales>
<clustering>
<clus scale="   38.600">  1  3  2 -1</clus>
<clus scale="   67.864">  1  4  2 -1</clus>
<clus scale="  149.120">  2  6  1 -1</clus>
<clus scale="   38.600">  1  3  2 -1</clus>
</clustering>
</event>
<event>
 6    0  0.4796958E+002  0.5951330E+02  0.7546771E-02  0.1399886E+00
          1   -1    0    0  503    0 -0.00000000000E+00  0.00000000000E+00  0.65687085799E+03  0.65687085799E+03  0.00000000000E+00 0.  1.
         21   -1    0    0  505  502  0.00000000000E+00 -0.00000000000E+00 -0.33710947577E+03  0.33710947577E+03  0.00000000000E+00 0. -1.
         21    1    1    2  503  504  0.85707252726E+02 -0.17926038666E+01  0.30862643528E+03  0.32031113492E+03  0.00000000000E+00 0.  1.
         21    1    1    2  504  502  0.22068688798E+02  0.41411052234E+02 -0.22067506993E+03  0.22560892882E+03  0.00000000000E+00 0. -1.
         21    1    1    2  505  501 -0.58626028672E+02 -0.53656242823E+02 -0.91235640158E+02  0.12099564317E+03  0.00000000000E+00 0. -1.
          1    1    1    2  501    0 -0.49149912852E+02  0.14037794456E+02  0.32304565703E+03  0.32706462684E+03  0.00000000000E+00 0.  1.
<scales pt_clust_3="14000.00000" pt_clust_4="46.92443" pt_clust_5="40.96185" pt_clust_6="59.51330"></scales>
<clustering>
<clus scale="   46.924">  2  4  1 -1</clus>
<clus scale="   40.962">  2  5  1 -1</clus>
<clus scale="   59.513">  1  6  2 -1</clus>
<clus scale="   46.924">  2  3  1 -1</clus>
</clustering>
</event>
<event>
 6    0  0.4796958E+002  0.1859833E+03  0.7546771E-02  0.1162135E+00
          2   -1    0    0  504    0 -0.00000000000E+00  0.00000000000E+00  0.18921867147E+04  0.18921867147E+04  0.00000000000E+00 0. -1.
         21   -1    0    0  503  502  0.00000000000E+00 -0.00000000000E+00 -0.10167786394E+03  0.10167786394E+03  0.00000000000E+00 0.  1.
         21    1    1    2  503  501 -0.33048726404E+02  0.17072013431E+02  0.52183836596E+02  0.64084512648E+02  0.00000000000E+00 0. -1.
         21    1    1    2  504  505 -0.23694630500E+02  0.15782638616E+03  0.42107419513E+03  0.45030443201E+03  0.00000000000E+00 0.  1.
         21    1    1    2  505  502 -0.25816328610E+02 -0.20591668294E+03  0.55737668789E+02  0.21488334244E+03  0.00000000000E+00 0.  1.
          2    1    1    2  501    0  0.82559685513E+02  0.31018283354E+02  0.12615131503E+04  0.12645922916E+04  0.00000000000E+00 0. -1.
<scales pt_clust_3="37.19774" pt_clust_4="14000.00000" pt_clust_5="185.98331" pt_clust_6="87.79443"></scales>
<clustering>
<clus scale="   37.198">  2  3  1 -1</clus>
<clus scale="   87.794">  1  6  2 -1</clus>
<clus scale="  185.983">  2  5  1 -1</clus>
<clus scale="   37.198">  2  3  1 -1</clus>
</clustering>
</event>
<event>
 6    0  0.4796958E+002  0.9205119E+02  0.7546771E-02  0.1297959E+00
          1   -1    0    0  505    0 -0.00000000000E+00  0.00000000000E+00  0.18053841917E+04  0.18053841917E+04  0.00000000000E+00 0. -1.
         21   -1    0    0  503  502  0.00000000000E+00 -0.00000000000E+00 -0.50466533239E+02  0.50466533239E+02  0.00000000000E+00 0. -1.
         21    1    1    2  503  504  0.29944130896E+02  0.21517394989E+01 -0.89345393826E+01  0.31322626837E+02  0.00000000000E+00 0. -1.
         21    1    1    2  504  501 -0.83967900327E+02 -0.42476868779E+02  0.29046967948E+03  0.30533183156E+03  0.00000000000E+00 0. -1.
         21    1    1    2  505  502  0.52142913160E+02 -0.54475590491E+02  0.45299424133E+02  0.87968807989E+02  0.00000000000E+00 0. -1.
          1    1    1    2  501    0  0.18808562710E+01  0.94800719772E+02  0.14280830942E+04  0.14312274586E+04  0.00000000000E+00 0. -1.
<scales pt_clust_3="30.02134" pt_clust_4="87.36388" pt_clust_5="92.05119" pt_clust_6="14000.00000"></scales>
<clustering>
<clus scale="   30.021">  2  3  1 -1</clus>
<clus scale="   87.364">  2  4  1 -1</clus>
<clus scale="   92.051">  2  5  1 -1</clus>
<clus scale="   30.021">  2  3  1 -1</clus>
</clustering>
</event>
<event>
 6    0  0.4796958E+002  0.1170172E+03  0.7546771E-02  0.1248100E+00
         21   -1    0    0  505  502  0.00000000000E+00  0.00000000000E+00  0.81438510243E+03  0.81438510243E+03  0.00000000000E+00 0.  1.
          2   -1    0    0  504    0 -0.00000000000E+00 -0.00000000000E+00 -0.21204151765E+04  0.21204151765E+04  0.00000000000E+00 0.  1.
         21    1    1    2  503  501  0.68646678122E+02 -0.40807474805E+02 -0.32699321724E+02  0.86295202986E+02  0.00000000000E+00 0. -1.
         21    1    1    2  504  502 -0.11987827307E+03 -0.26348668887E+02  0.28471352269E+03  0.31004329167E+03  0.00000000000E+00 0.  1.
         21    1    1    2  505  503 -0.59445537156E+01  0.73008098229E+02  0.48706642276E+03  0.49254362275E+03  0.00000000000E+00 0.  1.
          2    1    1    2  501    0  0.57176148666E+02 -0.58519545370E+01 -0.20451106978E+04  0.20459181615E+04  0.00000000000E+00 0.  1.
<scales pt_clust_3="117.01718" pt_clust_4="14000.00000" pt_clust_5="72.89609" pt_clust_6="57.47484"></scales>
<clustering>
<clus scale="   57.475">  2  6  1 -1</clus>
<clus scale="   72.896">  1  5  2 -1</clus>
<clus scale="  117.017">  2  3  1 -1</clus>
<clus scale="   72.896">  1  3  2 -1</clus>
</clustering>
</event>
<event>
 6    0  0.4796958E+002  0.1242855E+03  0.7546771E-02  0.1236190E+00
          2   -1    0    0  504    0 -0.00000000000E+00  0.00000000000E+00  0.22134467703E+04  0.22134467703E+04  0.00000000000E+00 0.  1.
         21   -1    0    0  505  502  0.00000000000E+00 -0.00000000000E+00 -0.21572410774E+02  0.21572410774E+02  0.00000000000E+00 0.  1.
         21    1    1    2  503  502  0.23870370822E+01  0.29961069572E+02  0.25414539103E+02  0.39360671155E+02  0.00000000000E+00 0.  1.
         21    1    1    2  504  503  0.12362818641E+03  0.28312524748E+02  0.46695424248E+03  0.48387166904E+03  0.00000000000E+00 0.  1.
         21    1    1    2  505  501 -0.75086472856E+02 -0.10717230076E+03  0.95142507285E+03  0.96038198114E+03  0.00000000000E+00 0.  1.
          2    1    1    2  501    0 -0.50928750634E+02  0.48898706441E+02  0.74808050505E+03  0.75140485969E+03  0.00000000000E+00 0.  1.
<scales pt_clust_3="30.05601" pt_clust_4="14000.00000" pt_clust_5="124.28552" pt_clust_6="72.81793"></scales>
<clustering>
<clus scale="   30.056">  2  3  1 -1</clus>
<clus scale="   72.818">  1  6  2 -1</clus>
<clus scale="  124.286">  1  5  2 -1</clus>
<clus scale="   30.056">  2  3  1 -1</clus>
</clustering>
</event>
<event>
 6    0  0.4796958E+002  0.2540568E+03  0.7546771E-02  0.1110768E+00
         21   -1    0    0  504  502  0.00000000000E+00  0.00000000000E+00  0.48057715113E+02  0.48057715113E+02  0.00000000000E+00 0. -1.
          2   -1    0    0  503    0 -0.00000000000E+00 -0.00000000000E+00 -0.34136204567E+04  0.34136204567E+04  0.00000000000E+00 0. -1.
         21    1    1    2  503  502 -0.42132491944E+02  0.29814343974E+02 -0.18784986177E+03  0.19481173617E+03  0.00000000000E+00 0. -1.
         21    1    1    2  504  505  0.16192161305E+03  0.21483143995E+03 -0.51651312566E+03  0.58237184456E+03  0.00000000000E+00 0. -1.
         21    1    1    2  505  501 -0.89935466264E+02 -0.20895759223E+03 -0.11343621138E+04  0.11569481703E+04  0.00000000000E+00 0. -1.
          2    1    1    2  501    0 -0.29853654841E+02 -0.35688191692E+02 -0.15268376403E+04  0.15275464208E+04  0.00000000000E+00 0. -1.
<scales pt_clust_3="52.20749" pt_clust_4="254.05677" pt_clust_5="14000.00000" pt_clust_6="46.52835"></scales>
<clustering>
<clus scale="   46.528">  2  6  1 -1</clus>
<clus scale="   52.207">  2  3  1 -1</clus>
<clus scale="  254.057">  1  4  2 -1</clus>
<clus scale="  254.057">  1  3  2 -1</clus>
</clustering>
</event>
<event>
 6    0  0.4796958E+002  0.1101085E+03  0.7546771E-02  0.1260369E+00
         21   -1    0    0  504  502  0.00000000000E+00  0.00000000000E+00  0.21935571775E+03  0.21935571775E+03  0.00000000000E+00 0.  1.
          3   -1    0    0  505    0 -0.00000000000E+00 -0.00000000000E+00 -0.17388766667E+03  0.17388766667E+03  0.00000000000E+00 0.  1.
         21    1    1    2  503  501  0.12875053554E+03 -0.48571278683E+02  0.54312205693E+02  0.14793811275E+03  0.00000000000E+00 0.  1.
         21    1    1    2  504  503 -0.16821027774E+02 -0.36411637115E+02  0.24681550010E+02  0.47094938196E+02  0.00000000000E+00 0.  1.
         21    1    1    2  505  502 -0.27087266302E+02  0.24403430071E+02  0.51903029067E+02  0.63428477999E+02  0.00000000000E+00 0. -1.
          3    1    1    2  501    0 -0.84842241469E+02  0.60579485728E+02 -0.85428733690E+02  0.13478185549E+03  0.00000000000E+00 0.  1.
<scales pt_clust_3="110.10850" pt_clust_4="38.49746" pt_clust_5="36.45885" pt_clust_6="14000.00000"></scales>
<clustering>
<clus scale="   36.459">  1  5  2 -1</clus>
<clus scale="   38.497">  1  4  2 -1</clus>
<clus scale="  110.109">  1  3  2 -1</clus>
<clus scale="   36.459">  1  3  2 -1</clus>
</clustering>
</event>
<event>
 6    0  0.4796958E+002  0.4784513E+03  0.7546771E-02  0.1019562E+00
         21   -1    0    0  505  502  0.00000000000E+00  0.00000000000E+00  0.64407041486E+03  0.64407041486E+03  0.00000000000E+00 0.  1.
         -2   -1    0    0    0  501 -0.00000000000E+00 -0.00000000000E+00 -0.16924363267E+04  0.16924363267E+04  0.00000000000E+00 0.  1.
         21    1    1    2  503  504 -0.27549439668E+03  0.43454701878E+03  0.54253698205E+02  0.51737002029E+03  0.00000000000E+00 0.  1.
         21    1    1    2  504  502  0.43200790083E+02 -0.47372472999E+02  0.22273255766E+03  0.23177629668E+03  0.00000000000E+00 0.  1.
         21    1    1    2  505  501 -0.44578470997E+02 -0.28386984477E+01  0.86942951113E+02  0.97746483484E+02  0.00000000000E+00 0. -1.
         -2    1    1    2    0  503  0.27687207759E+03 -0.38433584733E+03 -0.14122951188E+04  0.14896139411E+04  0.00000000000E+00 0.  1.
<scales pt_clust_3="478.45131" pt_clust_4="54.52776" pt_clust_5="44.66876" pt_clust_6="14000.00000"></scales>
<clustering>
<clus scale="   44.669">  1  5  2 -1</clus>
<clus scale="   54.528">  1  4  2 -1</clus>
<clus scale="  478.451">  1  3  2 -1</clus>
<clus scale="   44.669">  1  3  2 -1</clus>
</clustering>
</event>
<event>
 6    0  0.4796958E+002  0.5772539E+02  0.7546771E-02  0.1407633E+00
          1   -1    0    0  504    0 -0.00000000000E+00  0.00000000000E+00  0.14909270898E+04  0.14909270898E+04  0.00000000000E+00 0.  1.
         21   -1    0    0  503  502  0.00000000000E+00 -0.00000000000E+00 -0.40601146132E+03  0.40601146132E+03  0.00000000000E+00 0. -1.
         21    1    1    2  503  505 -0.28365767464E+02  0.50030822750E+02 -0.39597472930E+03  0.40012958680E+03  0.00000000000E+00 0. -1.
         21    1    1    2  504  502  0.53062827986E+02 -0.98396556071E+02  0.52168981847E+03  0.53353332853E+03  0.00000000000E+00 0.  1.
         21    1    1    2  505  501  0.42442637296E+01  0.57392430031E+02  0.57082065064E+03  0.57371431915E+03  0.00000000000E+00 0. -1.
          1    1    1    2  501    0 -0.28941324252E+02 -0.90266967112E+01  0.38837988869E+03  0.38956131666E+03  0.00000000000E+00 0.  1.
<scales pt_clust_3="57.72539" pt_clust_4="14000.00000" pt_clust_5="53.79695" pt_clust_6="30.31636"></scales>
<clustering>
<clus scale="   30.316">  1  6  2 -1</clus>
<clus scale="   53.797">  1  5  2 -1</clus>
<clus scale="   57.725">  2  3  1 -1</clus>
<clus scale="   57.725">  2  3  1 -1</clus>
</clustering>
</event>
<event>
 6    0  0.4796958E+002  0.1497343E+03  0.7546771E-02  0.1200800E+00
         21   -1    0    0  505  502  0.00000000000E+00  0.00000000000E+00  0.91216901548E+02  0.91216901548E+02  0.00000000000E+00 0.  1.
          1   -1    0    0  502    0 -0.00000000000E+00 -0.00000000000E+00 -0.84891720151E+03  0.84891720151E+03  0.00000000000E+00 0.  1.
         21    1    1    2  503  501  0.44129026227E+02 -0.71588310287E+02 -0.56127511542E+02  0.10110665002E+03  0.00000000000E+00 0.  1.
         21    1    1    2  504  503  0.42557742763E+02 -0.50541052003E+02  0.82172061255E+01  0.66581392919E+02  0.00000000000E+00 0.  1.
         21    1    1    2  505  504 -0.30595284826E+02 -0.28004193386E+01  0.15450563371E+02  0.34389441847E+02  0.00000000000E+00 0.  1.
          1    1    1    2  501    0 -0.56091484164E+02  0.12492978163E+03 -0.72524055791E+03  0.73805661827E+03  0.00000000000E+00 0.  1.
<scales pt_clust_3="49.57372" pt_clust_4="49.57372" pt_clust_5="30.72318" pt_clust_6="137.93710"></scales>
<clustering>
<clus scale="   30.723">  1  5  2 -1</clus>
<clus scale="   49.574">  3  4 -1 -1</clus>
<clus scale="  137.937">  2  6  1 -1</clus>
<clus scale="   30.723">  1  3  2 -1</clus>
</clustering>
</event>
<event>
 6    0  0.4796958E+002  0.1298667E+03  0.7546771E-02  0.1227654E+00
          2   -1    0    0  504    0 -0.00000000000E+00  0.00000000000E+00  0.10595577303E+04  0.10595577303E+04  0.00000000000E+00 0. -1.
         21   -1    0    0  505  502  0.00000000000E+00 -0.00000000000E+00 -0.69157120073E+03  0.69157120073E+03  0.00000000000E+00 0. -1.
         21    1    1    2  503  502  0.74228875734E+02  0.14276773608E+02 -0.19797872494E+03  0.21191821013E+03  0.00000000000E+00 0. -1.
         21    1    1    2  504  503  0.25446380593E+02  0.12275138016E+03  0.70398821747E+03  0.71506281539E+03  0.00000000000E+00 0. -1.
         21    1    1    2  505  501 -0.11851352857E+03  0.10971387552E+02 -0.45687183109E+03  0.47212042726E+03  0.00000000000E+00 0. -1.
          2    1    1    2  501    0  0.18838272238E+02 -0.14799954132E+03  0.31884886809E+03  0.35202747820E+03  0.00000000000E+00 0. -1.
<scales pt_clust_3="75.58937" pt_clust_4="129.86667" pt_clust_5="53.63366" pt_clust_6="14000.00000"></scales>
<clustering>
<clus scale="   75.589">  2  3  1 -1</clus>
<clus scale="   53.634">  2  5  1 -1</clus>
<clus scale="  129.867">  1  4  2 -1</clus>
<clus scale="   75.589">  2  3  1 -1</clus>
</clustering>
</event>
<event>
 6    0  0.4796958E+002  0.1088113E+03  0.7546771E-02  0.1262787E+00
          2   -1    0    0  502    0 -0.00000000000E+00  0.00000000000E+00  0.53977844890E+03  0.53977844890E+03  0.00000000000E+00 0. -1.
         21   -1    0    0  503  502  0.00000000000E+00 -0.00000000000E+00 -0.13509535089E+03  0.13509535089E+03  0.00000000000E+00 0. -1.
         21    1    1    2  503  505 -0.14032153126E+02 -0.35642936213E+02 -0.26029697170E+01  0.38393953620E+02  0.00000000000E+00 0.  1.
         21    1    1    2  504  501 -0.85808209105E+02  0.98844762653E+02  0.32188022995E+03  0.34747693202E+03  0.00000000000E+00 0. -1.
         21    1    1    2  505  504  0.62518656553E+02 -0.62735755797E+02 -0.80053706851E+02  0.11938573388E+03  0.00000000000E+00 0. -1.
          2    1    1    2  501    0  0.37321705677E+02 -0.46607064257E+00  0.16545954463E+03  0.16961718028E+03  0.00000000000E+00 0. -1.
<scales pt_clust_3="37.70654" pt_clust_4="14000.00000" pt_clust_5="108.81130" pt_clust_6="37.32462"></scales>
<clustering>
<clus scale="   37.325">  1  6  2 -1</clus>
<clus scale="   37.707">  2  3  1 -1</clus>
<clus scale="  108.811">  2  5  1 -1</clus>
<clus scale="   37.707">  2  3  1 -1</clus>
</clustering>
</event>
<event>
 6    0  0.4796958E+002  0.4360323E+03  0.7546771E-02  0.1031971E+00
         21   -1    0    0  504  502  0.00000000000E+00  0.00000000000E+00  0.77345520087E+03  0.77345520087E+03  0.00000000000E+00 0.  1.
          1   -1    0    0  502    0 -0.00000000000E+00 -0.00000000000E+00 -0.76039038163E+03  0.76039038163E+03  0.00000000000E+00 0.  1.
         21    1    1    2  503  501 -0.43742642192E+03 -0.71781131359E+02  0.22988412014E+03  0.49934067940E+03  0.00000000000E+00 0.  1.
         21    1    1    2  504  505  0.33145238477E+02  0.22424895388E+02  0.18912932817E+03  0.19331680098E+03  0.00000000000E+00 0.  1.
         21    1    1    2  505  503 -0.30863688467E+02  0.39369617304E+02  0.13668827486E+03  0.14555486428E+03  0.00000000000E+00 0.  1.
          1    1    1    2  501    0  0.43514487191E+03  0.99866186674E+01 -0.54263690392E+03  0.69563323785E+03  0.00000000000E+00 0.  1.
<scales pt_clust_3="14000.00000" pt_clust_4="40.01853" pt_clust_5="50.28609" pt_clust_6="436.03232"></scales>
<clustering>
<clus scale="   40.019">  1  4  2 -1</clus>
<clus scale="   50.286">  1  5  2 -1</clus>
<clus scale="  436.032">  2  6  1 -1</clus>
<clus scale="   40.019">  1  3  2 -1</clus>
</clustering>
</event>
<event>
 6    0  0.4796958E+002  0.1284802E+03  0.7546771E-02  0.1229728E+00
         21   -1    0    0  504  502  0.00000000000E+00  0.00000000000E+00  0.78991938232E+02  0.78991938232E+02  0.00000000000E+00 0. -1.
          2   -1    0    0  505    0 -0.00000000000E+00 -0.00000000000E+00 -0.17567224655E+04  0.17567224655E+04  0.00000000000E+00 0. -1.
         21    1    1    2  503  502 -0.26646583422E+02 -0.31061153464E+02  0.13998028781E+02  0.43252519838E+02  0.00000000000E+00 0.  1.
         21    1    1    2  504  501 -0.97226534943E+02  0.36810288339E+02 -0.11486796315E+03  0.15492787155E+03  0.00000000000E+00 0. -1.
         21    1    1    2  505  503  0.14637372423E+03 -0.69533070173E+02 -0.19295110673E+03  0.25197270602E+03  0.00000000000E+00 0. -1.
          2    1    1    2  501    0 -0.22500605861E+02  0.63783935299E+02 -0.13839094862E+04  0.13855613064E+04  0.00000000000E+00 0. -1.
<scales pt_clust_3="40.92476" pt_clust_4="14000.00000" pt_clust_5="128.48020" pt_clust_6="67.30383"></scales>
<clustering>
<clus scale="   40.925">  1  3  2 -1</clus>
<clus scale="   67.304">  2  6  1 -1</clus>
<clus scale="  128.480">  2  5  1 -1</clus>
<clus scale="   40.925">  1  3  2 -1</clus>
</clustering>
</event>
<event>
 6    0  0.4796958E+002  0.6885515E+02  0.7546771E-02  0.1364030E+00
         21   -1    0    0  504  502  0.00000000000E+00  0.00000000000E+00  0.63849580316E+02  0.63849580316E+02  0.00000000000E+00 0. -1.
          1   -1    0    0  503    0 -0.00000000000E+00 -0.00000000000E+00 -0.10515742449E+04  0.10515742449E+04  0.00000000000E+00 0.  1.
         21    1    1    2  503  505 -0.83407713904E+02  0.33937636785E+01 -0.34075972730E+03  0.35083551149E+03  0.00000000000E+00 0. -1.
         21    1    1    2  504  501 -0.18545075081E+02  0.48640068221E+02  0.13455205901E+02  0.53766333445E+02  0.00000000000E+00 0. -1.
         21    1    1    2  505  502  0.72425786868E+02 -0.72478231800E+02 -0.81857858965E+02  0.13114609320E+03  0.00000000000E+00 0. -1.
          1    1    1    2  501    0  0.29527002117E+02  0.20444399901E+02 -0.57856228426E+03  0.57967588712E+03  0.00000000000E+00 0.  1.
<scales pt_clust_3="68.85515" pt_clust_4="52.44281" pt_clust_5="14000.00000" pt_clust_6="35.91403"></scales>
<clustering>
<clus scale="   35.914">  2  6  1 -1</clus>
<clus scale="   52.443">  1  4  2 -1</clus>
<clus scale="   68.855">  2  3  1 -1</clus>
<clus scale="   52.443">  1  3  2 -1</clus>
</clustering>
</event>
<event>
 6    0  0.4796958E+002  0.1045031E+03  0.7546771E-02  0.1271102E+00
          1   -1    0    0  505    0 -0.00000000000E+00  0.00000000000E+00  0.18692988492E+04  0.18692988492E+04  0.00000000000E+00 0.  1.
         21   -1    0    0  504  502  0.00000000000E+00 -0.00000000000E+00 -0.22259949435E+02  0.22259949435E+02  0.00000000000E+00 0.  1.
         21    1    1    2  503  502 -0.91408212723E+02 -0.92496538800E+02  0.29732358598E+03  0.32451869873E+03  0.00000000000E+00 0.  1.
         21    1    1    2  504  501 -0.22695519415E+02  0.25809047906E+02  0.11554887845E+03  0.12055180159E+03  0.00000000000E+00 0.  1.
         21    1    1    2  505  503  0.53630267119E+02  0.59831199786E+02  0.29647035198E+03  0.30716550526E+03  0.00000000000E+00 0.  1.
          1    1    1    2  501    0  0.60473465019E+02  0.68562911084E+01  0.11376960834E+04  0.11393227931E+04  0.00000000000E+00 0.  1.
<scales pt_clust_3="14000.00000" pt_clust_4="34.36850" pt_clust_5="104.50308" pt_clust_6="60.06349"></scales>
<clustering>
<clus scale="   34.368">  2  4  1 -1</clus>
<clus scale="   60.063">  1  6  2 -1</clus>
<clus scale="  104.503">  1  5  2 -1</clus>
<clus scale="   34.368">  2  3  1 -1</clus>
</clustering>
</event>
<event>
 6    0  0.4796958E+002  0.1147900E+03  0.7546771E-02  0.1251948E+00
          2   -1    0    0  504    0 -0.00000000000E+00  0.00000000000E+00  0.85036059660E+03  0.85036059660E+03  0.00000000000E+00 0. -1.
         21   -1    0    0  503  502  0.00000000000E+00 -0.00000000000E+00 -0.67115855091E+03  0.67115855091E+03  0.00000000000E+00 0.  1.
         21    1    1    2  503  501 -0.39297127587E+02  0.34487144492E+02 -0.21407464993E+03  0.22036692836E+03  0.00000000000E+00 0.  1.
         21    1    1    2  504  505  0.13254134393E+03 -0.75320987646E+02 -0.12302923743E+02  0.15294384906E+03  0.00000000000E+00 0.  1.
         21    1    1    2  505  502 -0.79731981253E+02 -0.58924289551E+02 -0.36134792215E+03  0.37470199036E+03  0.00000000000E+00 0.  1.
          2    1    1    2  501    0 -0.13512235095E+02  0.99758132706E+02  0.76692754152E+03  0.77350637973E+03  0.00000000000E+00 0. -1.
<scales pt_clust_3="52.28410" pt_clust_4="114.78997" pt_clust_5="14000.00000" pt_clust_6="100.95526"></scales>
<clustering>
<clus scale="   52.284">  2  3  1 -1</clus>
<clus scale="  100.955">  1  6  2 -1</clus>
<clus scale="  114.790">  1  4  2 -1</clus>
<clus scale="   52.284">  2  3  1 -1</clus>
</clustering>
</event>
<event>
 6    0  0.4796958E+002  0.8822935E+02  0.7546771E-02  0.1307197E+00
          2   -1    0    0  504    0 -0.00000000000E+00  0.00000000000E+00  0.54814874932E+03  0.54814874932E+03  0.00000000000E+00 0. -1.
         21   -1    0    0  503  502  0.00000000000E+00 -0.00000000000E+00 -0.10000238331E+03  0.10000238331E+03  0.00000000000E+00 0. -1.
         21    1    1    2  503  505 -0.72790274415E+02 -0.20032029755E+00 -0.50740564338E+01  0.72967185956E+02  0.00000000000E+00 0. -1.
         21    1    1    2  504  502  0.17429113934E+01  0.40938552946E+02 -0.11252355093E+02  0.42492568204E+02  0.00000000000E+00 0. -1.
         21    1    1    2  505  501  0.11767849561E+03 -0.31210271201E+02  0.80895224731E+02  0.14617231866E+03  0.00000000000E+00 0. -1.
          2    1    1    2  501    0 -0.46631132589E+02 -0.95279614472E+01  0.38357755281E+03  0.38651905981E+03  0.00000000000E+00 0. -1.
<scales pt_clust_3="88.22935" pt_clust_4="40.97564" pt_clust_5="14000.00000" pt_clust_6="47.40216"></scales>
<clustering>
<clus scale="   40.976">  2  4  1 -1</clus>
<clus scale="   47.402">  1  6  2 -1</clus>
<clus scale="   88.229">  2  3  1 -1</clus>
<clus scale="   40.976">  2  3  1 -1</clus>
</clustering>
</event>
<event>
 6    0  0.4796958E+002  0.1062655E+03  0.7546771E-02  0.1267646E+00
         -4   -1    0    0    0  501 -0.00000000000E+00  0.00000000000E+00  0.37126216951E+02  0.37126216951E+02  0.00000000000E+00 0.  1.
         21   -1    0    0  505  502  0.00000000000E+00 -0.00000000000E+00 -0.19598369190E+04  0.19598369190E+04  0.00000000000E+00 0. -1.
         21    1    1    2  503  502 -0.90386818491E+02  0.35968875021E+02 -0.77812474990E+03  0.78418216209E+03  0.00000000000E+00 0. -1.
         21    1    1    2  504  501  0.40125120224E+02 -0.12602241887E+02 -0.73752002476E+02  0.84901116853E+02  0.00000000000E+00 0. -1.
         21    1    1    2  505  504  0.11737800614E+01  0.36143732049E+02 -0.10463062707E+04  0.10469310194E+04  0.00000000000E+00 0. -1.
         -4    1    1    2    0  503  0.49087918205E+02 -0.59510365182E+02 -0.24527678894E+02  0.80948837606E+02  0.00000000000E+00 0.  1.
<scales pt_clust_3="14000.00000" pt_clust_4="41.32504" pt_clust_5="36.16279" pt_clust_6="106.26553"></scales>
<clustering>
<clus scale="   36.163">  2  5  1 -1</clus>
<clus scale="   41.325">  1  4  2 -1</clus>
<clus scale="  106.266">  1  6  2 -1</clus>
<clus scale="   36.163">  2  3  1 -1</clus>
</clustering>
</event>
<event>
 6    0  0.4796958E+002  0.7632890E+02  0.7546771E-02  0.1339805E+00
         21   -1    0    0  503  502  0.00000000000E+00  0.00000000000E+00  0.92175156641E+03  0.92175156641E+03  0.00000000000E+00 0.  1.
          1   -1    0    0  504    0 -0.00000000000E+00 -0.00000000000E+00 -0.26820992128E+03  0.26820992128E+03  0.00000000000E+00 0. -1.
         21    1    1    2  503  501  0.53679544712E+02  0.69735144929E+02 -0.42932543400E+02  0.97916736269E+02  0.00000000000E+00 0.  1.
         21    1    1    2  504  505 -0.98643232305E+02  0.32534660027E+02  0.38620870796E+03  0.39993269120E+03  0.00000000000E+00 0.  1.
         21    1    1    2  505  502  0.29193836124E+02 -0.23929687293E+02  0.49207230260E+03  0.49351804525E+03  0.00000000000E+00 0.  1.
          1    1    1    2  501    0  0.15769851468E+02 -0.78340117663E+02 -0.18180682203E+03  0.19859401498E+03  0.00000000000E+00 0. -1.
<scales pt_clust_3="14000.00000" pt_clust_4="72.66995" pt_clust_5="37.74798" pt_clust_6="76.32890"></scales>
<clustering>
<clus scale="   37.748">  1  5  2 -1</clus>
<clus scale="   72.670">  1  4  2 -1</clus>
<clus scale="   76.329">  2  6  1 -1</clus>
<clus scale="   37.748">  1  3  2 -1</clus>
</clustering>
</event>
<event>
 6    0  0.4796958E+002  0.7866991E+02  0.7546771E-02  0.1332869E+00
         21   -1    0    0  504  502  0.00000000000E+00  0.00000000000E+00  0.13302524151E+02  0.13302524151E+02  0.00000000000E+00 0. -1.
          2   -1    0    0  503    0 -0.00000000000E+00 -0.00000000000E+00 -0.29220287848E+04  0.29220287848E+04  0.00000000000E+00 0. -1.
         21    1    1    2  503  505  0.93483465070E+02 -0.14514948846E+02 -0.12875178945E+04  0.12909888345E+04  0.00000000000E+00 0. -1.
         21    1    1    2  504  501 -0.11976039630E+03  0.60007201458E+01 -0.42983526969E+03  0.44624759970E+03  0.00000000000E+00 0. -1.
         21    1    1    2  505  502  0.62495099140E+02 -0.85075389281E+01 -0.34120311109E+03  0.34698354233E+03  0.00000000000E+00 0. -1.
          2    1    1    2  501    0 -0.36218167911E+02  0.17021767629E+02 -0.85016998537E+03  0.85111133248E+03  0.00000000000E+00 0. -1.
<scales pt_clust_3="14000.00000" pt_clust_4="78.66991" pt_clust_5="56.76353" pt_clust_6="40.01870"></scales>
<clustering>
<clus scale="   40.019">  2  6  1 -1</clus>
<clus scale="   56.764">  1  5  2 -1</clus>
<clus scale="   78.670">  1  4  2 -1</clus>
<clus scale="   56.764">  1  3  2 -1</clus>
</clustering>
</event>
<event>
 6    0  0.4796958E+002  0.1022989E+03  0.7546771E-02  0.1275535E+00
         21   -1    0    0  504  502  0.00000000000E+00  0.00000000000E+00  0.12459499752E+04  0.12459499752E+04  0.00000000000E+00 0.  1.
          1   -1    0    0  503    0 -0.00000000000E+00 -0.00000000000E+00 -0.33578997380E+03  0.33578997380E+03  0.00000000000E+00 0. -1.
         21    1    1    2  503  505  0.13095614057E+02 -0.90899094813E+02  0.66520694086E+03  0.67151650368E+03  0.00000000000E+00 0.  1.
         21    1    1    2  504  501 -0.69445428422E+02  0.68628262125E+02 -0.14969591608E+02  0.98775475518E+02  0.00000000000E+00 0.  1.
         21    1    1    2  505  502  0.35861571590E+02 -0.11817885570E+01  0.53420236388E+03  0.53540602772E+03  0.00000000000E+00 0.  1.
          1    1    1    2  501    0  0.20488242774E+02  0.23452621245E+02 -0.27427971172E+03  0.27604194209E+03  0.00000000000E+00 0. -1.
<scales pt_clust_3="14000.00000" pt_clust_4="102.29888" pt_clust_5="36.07743" pt_clust_6="31.14151"></scales>
<clustering>
<clus scale="   31.142">  2  6  1 -1</clus>
<clus scale="   36.077">  1  5  2 -1</clus>
<clus scale="  102.299">  2  4  1 -1</clus>
<clus scale="   36.077">  1  3  2 -1</clus>
</clustering>
</event>
<event>
 6    0  0.4796958E+002  0.7287535E+02  0.7546771E-02  0.1350580E+00
          4   -1    0    0  502    0 -0.00000000000E+00  0.00000000000E+00  0.60869687165E+03  0.60869687165E+03  0.00000000000E+00 0. -1.
         21   -1    0    0  505  502  0.00000000000E+00 -0.00000000000E+00 -0.15877227291E+03  0.15877227291E+03  0.00000000000E+00 0. -1.
         21    1    1    2  503  504 -0.52703279114E+02 -0.20927805286E+01 -0.57877357367E+02  0.78305835386E+02  0.00000000000E+00 0.  1.
         21    1    1    2  504  501  0.68005198442E+02  0.98214387796E+02  0.43457380377E+02  0.12711930182E+03  0.00000000000E+00 0. -1.
         21    1    1    2  505  503 -0.60269304682E+00 -0.48182158964E+02 -0.35399066909E+02  0.59791116559E+02  0.00000000000E+00 0. -1.
          4    1    1    2  501    0 -0.14699226281E+02 -0.47939448303E+02  0.49974364264E+03  0.50225289080E+03  0.00000000000E+00 0. -1.
<scales pt_clust_3="14000.00000" pt_clust_4="72.87535" pt_clust_5="48.18593" pt_clust_6="50.66444"></scales>
<clustering>
<clus scale="   48.186">  2  5  1 -1</clus>
<clus scale="   50.664">  1  6  2 -1</clus>
<clus scale="   72.875">  1  4  2 -1</clus>
<clus scale="   48.186">  2  3  1 -1</clus>
</clustering>
</event>
<event>
 6    0  0.4796958E+002  0.9187805E+02  0.7546771E-02  0.1298366E+00
          2   -1    0    0  504    0 -0.00000000000E+00  0.00000000000E+00  0.20741137212E+04  0.20741137212E+04  0.00000000000E+00 0.  1.
         21   -1    0    0  505  502  0.00000000000E+00 -0.00000000000E+00 -0.19030163427E+03  0.19030163427E+03  0.00000000000E+00 0. -1.
         21    1    1    2  503  502 -0.32554440343E+02 -0.29438288908E+02  0.35417258742E+00  0.43892253054E+02  0.00000000000E+00 0. -1.
         21    1    1    2  504  503 -0.19433430569E+01 -0.45922775942E+02  0.49679246631E+02  0.67680909260E+02  0.00000000000E+00 0. -1.
         21    1    1    2  505  501 -0.36898890425E+02  0.13296787600E+03 -0.12841783405E+03  0.18850231899E+03  0.00000000000E+00 0. -1.
          2    1    1    2  501    0  0.71396673825E+02 -0.57606811151E+02  0.19621965017E+04  0.19643398741E+04  0.00000000000E+00 0.  1.
<scales pt_clust_3="43.89082" pt_clust_4="47.63749" pt_clust_5="91.87805" pt_clust_6="14000.00000"></scales>
<clustering>
<clus scale="   43.891">  2  3  1 -1</clus>
<clus scale="   47.637">  2  4  1 -1</clus>
<clus scale="   91.878">  2  5  1 -1</clus>
<clus scale="   43.891">  2  3  1 -1</clus>
</clustering>
</event>
<event>
 6    0  0.4796958E+002  0.1111407E+03  0.7546771E-02  0.1258472E+00
          2   -1    0    0  503    0 -0.00000000000E+00  0.00000000000E+00  0.19532675524E+04  0.19532675524E+04  0.00000000000E+00 0.  1.
         21   -1    0    0  501  502  0.00000000000E+00 -0.00000000000E+00 -0.18504021782E+03  0.18504021782E+03  0.00000000000E+00 0. -1.
         21    1    1    2  503  504  0.13474138393E+02 -0.72033359764E+02  0.17391755150E+03  0.18872644766E+03  0.00000000000E+00 0.  1.
         21    1    1    2  504  505 -0.69250159448E+02  0.11403454807E+02  0.71312473811E+02  0.10005544606E+03  0.00000000000E+00 0. -1.
         21    1    1    2  505  502  0.11708557226E+03  0.43259055917E+02 -0.13870642207E+03  0.18660077351E+03  0.00000000000E+00 0. -1.
          2    1    1    2  501    0 -0.61309551204E+02  0.17370849039E+02  0.16617037313E+04  0.16629251030E+04  0.00000000000E+00 0.  1.
<scales pt_clust_3="66.01644" pt_clust_4="14000.00000" pt_clust_5="111.14071" pt_clust_6="63.72290"></scales>
<clustering>
<clus scale="   63.723">  1  6  2 -1</clus>
<clus scale="   66.016">  1  3  2 -1</clus>
<clus scale="  111.141">  2  5  1 -1</clus>
<clus scale="  111.141">  2  3  1 -1</clus>
</clustering>
</event>
<event>
 6    0  0.4796958E+002  0.8947190E+02  0.7546771E-02  0.1304136E+00
         21   -1    0    0  504  502  0.00000000000E+00  0.00000000000E+00  0.33493377068E+02  0.33493377068E+02  0.00000000000E+00 0.  1.
          1   -1    0    0  505    0 -0.00000000000E+00 -0.00000000000E+00 -0.16283181590E+04  0.16283181590E+04  0.00000000000E+00 0. -1.
         21    1    1    2  503  501  0.68348724153E+02  0.11339209089E+02 -0.19671259486E+03  0.20855687649E+03  0.00000000000E+00 0.  1.
         21    1    1    2  504  503  0.26240562293E+02 -0.16087782088E+02 -0.31248394917E+02  0.43861669221E+02  0.00000000000E+00 0.  1.
         21    1    1    2  505  502 -0.10924846335E+03 -0.34992618864E+02 -0.13651172811E+03  0.17831197950E+03  0.00000000000E+00 0.  1.
          1    1    1    2  501    0  0.14659176909E+02  0.39741191863E+02 -0.12303520640E+04  0.12310810108E+04  0.00000000000E+00 0. -1.
<scales pt_clust_3="14000.00000" pt_clust_4="30.77960" pt_clust_5="89.47190" pt_clust_6="42.27996"></scales>
<clustering>
<clus scale="   30.780">  1  4  2 -1</clus>
<clus scale="   42.280">  2  6  1 -1</clus>
<clus scale="   89.472">  1  5  2 -1</clus>
<clus scale="   30.780">  1  3  2 -1</clus>
</clustering>
</event>
<event>
 6    0  0.4796958E+002  0.8146635E+02  0.7546771E-02  0.1324941E+00
         21   -1    0    0  505  502  0.00000000000E+00  0.00000000000E+00  0.38363457671E+03  0.38363457671E+03  0.00000000000E+00 0.  1.
          2   -1    0    0  504    0 -0.00000000000E+00 -0.00000000000E+00 -0.16586277038E+04  0.16586277038E+04  0.00000000000E+00 0. -1.
         21    1    1    2  503  501  0.32076316561E+02 -0.10473633611E+03 -0.21472660106E+03  0.24105207610E+03  0.00000000000E+00 0.  1.
         21    1    1    2  504  502 -0.78141702631E+02 -0.20034505449E+01 -0.80379655300E+02  0.11212059798E+03  0.00000000000E+00 0.  1.
         21    1    1    2  505  503 -0.37780503669E+01  0.43936127617E+02  0.35202009967E+03  0.35477148637E+03  0.00000000000E+00 0.  1.
          2    1    1    2  501    0  0.49843436437E+02  0.62803659038E+02 -0.13319069704E+04  0.13343181201E+04  0.00000000000E+00 0. -1.
<scales pt_clust_3="14000.00000" pt_clust_4="76.35635" pt_clust_5="44.09826" pt_clust_6="81.46635"></scales>
<clustering>
<clus scale="   44.098">  1  5  2 -1</clus>
<clus scale="   81.466">  2  6  1 -1</clus>
<clus scale="   76.356">  1  4  2 -1</clus>
<clus scale="   44.098">  1  3  2 -1</clus>
</clustering>
</event>
<event>
 6    0  0.7065926E+002  0.1028957E+03  0.7546771E-02  0.1274322E+00
          2   -1    0    0  504    0 -0.00000000000E+00  0.00000000000E+00  0.11467964026E+04  0.11467964026E+04  0.00000000000E+00 0.  1.
         21   -1    0    0  503  502  0.00000000000E+00 -0.00000000000E+00 -0.51670869440E+03  0.51670869440E+03  0.00000000000E+00 0.  1.
         21    1    1    2  503  501 -0.96501377538E+02  0.46477335440E+01 -0.46729945576E+03  0.47718224888E+03  0.00000000000E+00 0.  1.
         21    1    1    2  504  505  0.70156334377E+02  0.24041945020E+02  0.35598265319E+03  0.36362559831E+03  0.00000000000E+00 0. -1.
         21    1    1    2  505  502  0.34615599716E+01 -0.53641483144E+02 -0.22334328252E+02  0.58208361339E+02  0.00000000000E+00 0.  1.
          2    1    1    2  501    0  0.22883483189E+02  0.24951804580E+02  0.76373883898E+03  0.76448888842E+03  0.00000000000E+00 0.  1.
<scales pt_clust_3="14000.00000" pt_clust_4="102.89570" pt_clust_5="52.66748" pt_clust_6="33.85626"></scales>
<clustering>
<clus scale="   33.856">  1  6  2 -1</clus>
<clus scale="   52.667">  2  5  1 -1</clus>
<clus scale="  102.896">  1  4  2 -1</clus>
<clus scale="   52.667">  2  3  1 -1</clus>
</clustering>
</event>
<event>
 6    0  0.4796958E+002  0.1467556E+03  0.7546771E-02  0.1204517E+00
         21   -1    0    0  503  502  0.00000000000E+00  0.00000000000E+00  0.91176847960E+03  0.91176847960E+03  0.00000000000E+00 0. -1.
          2   -1    0    0  505    0 -0.00000000000E+00 -0.00000000000E+00 -0.31365404069E+03  0.31365404069E+03  0.00000000000E+00 0. -1.
         21    1    1    2  503  504 -0.43540766997E+02  0.20883951225E+03  0.64607222225E+03  0.68038155224E+03  0.00000000000E+00 0. -1.
         21    1    1    2  504  501  0.14154719769E+02 -0.11481668768E+03  0.24337261206E+02  0.11821814643E+03  0.00000000000E+00 0.  1.
         21    1    1    2  505  502  0.40711667837E+02 -0.60153362375E+02  0.16845025524E+03  0.18344305763E+03  0.00000000000E+00 0.  1.
          2    1    1    2  501    0 -0.11325620609E+02 -0.33869462195E+02 -0.24074529979E+03  0.24337976399E+03  0.00000000000E+00 0. -1.
<scales pt_clust_3="146.75556" pt_clust_4="14000.00000" pt_clust_5="74.96637" pt_clust_6="35.71288"></scales>
<clustering>
<clus scale="   35.713">  2  6  1 -1</clus>
<clus scale="   74.966">  1  5  2 -1</clus>
<clus scale="  146.756">  1  3  2 -1</clus>
<clus scale="   74.966">  1  3  2 -1</clus>
</clustering>
</event>
<event>
 6    0  0.4796958E+002  0.7738465E+02  0.7546771E-02  0.1336642E+00
          2   -1    0    0  504    0 -0.00000000000E+00  0.00000000000E+00  0.92002089843E+03  0.92002089843E+03  0.00000000000E+00 0. -1.
         21   -1    0    0  505  502  0.00000000000E+00 -0.00000000000E+00 -0.39761104395E+03  0.39761104395E+03  0.00000000000E+00 0. -1.
         21    1    1    2  503  502 -0.32675105157E+02  0.12156105592E+02  0.20433017259E+01  0.34922893382E+02  0.00000000000E+00 0. -1.
         21    1    1    2  504  503  0.10323903296E+02 -0.59597231547E+02  0.43971847192E+02  0.74779250684E+02  0.00000000000E+00 0.  1.
         21    1    1    2  505  501  0.95498954003E+02  0.32657596796E+02 -0.35710613331E+03  0.37109481173E+03  0.00000000000E+00 0. -1.
          2    1    1    2  501    0 -0.73147752142E+02  0.14783529158E+02  0.83350083887E+03  0.83683498659E+03  0.00000000000E+00 0. -1.
<scales pt_clust_3="34.86307" pt_clust_4="59.78779" pt_clust_5="14000.00000" pt_clust_6="77.38465"></scales>
<clustering>
<clus scale="   34.863">  2  3  1 -1</clus>
<clus scale="   59.788">  1  4  2 -1</clus>
<clus scale="   77.385">  1  6  2 -1</clus>
<clus scale="   34.863">  2  3  1 -1</clus>
</clustering>
</event>
<event>
 6    0  0.4796958E+002  0.4089131E+03  0.7546771E-02  0.1040736E+00
         21   -1    0    0  504  502  0.00000000000E+00  0.00000000000E+00  0.25160624120E+03  0.25160624120E+03  0.00000000000E+00 0.  1.
          2   -1    0    0  505    0 -0.00000000000E+00 -0.00000000000E+00 -0.99479114362E+03  0.99479114362E+03  0.00000000000E+00 0.  1.
         21    1    1    2  503  502  0.35988433461E+02  0.38449606060E+02  0.66316532691E+01  0.53080301188E+02  0.00000000000E+00 0.  1.
         21    1    1    2  504  501  0.42587038587E+02 -0.72802430600E+00  0.33059359610E+02  0.53917595763E+02  0.00000000000E+00 0.  1.
         21    1    1    2  505  503 -0.26746748971E+03  0.32129093711E+03 -0.34045410159E+03  0.53914350558E+03  0.00000000000E+00 0.  1.
          2    1    1    2  501    0  0.18889201767E+03 -0.35901251886E+03 -0.44242181371E+03  0.60025598230E+03  0.00000000000E+00 0.  1.
<scales pt_clust_3="56.94366" pt_clust_4="42.59326" pt_clust_5="14000.00000" pt_clust_6="408.91308"></scales>
<clustering>
<clus scale="   42.593">  1  4  2 -1</clus>
<clus scale="   56.944">  1  3  2 -1</clus>
<clus scale="  408.913">  2  6  1 -1</clus>
<clus scale="   42.593">  1  3  2 -1</clus>
</clustering>
</event>
<event>
 6    0  0.4796958E+002  0.2587179E+03  0.7546771E-02  0.1107916E+00
          2   -1    0    0  505    0 -0.00000000000E+00  0.00000000000E+00  0.14610993202E+04  0.14610993202E+04  0.00000000000E+00 0. -1.
         21   -1    0    0  503  502  0.00000000000E+00 -0.00000000000E+00 -0.13754418491E+03  0.13754418491E+03  0.00000000000E+00 0. -1.
         21    1    1    2  503  504 -0.13580306244E+03  0.10780188273E+03  0.96273465868E+02  0.19832372001E+03  0.00000000000E+00 0. -1.
         21    1    1    2  504  501 -0.45704391225E+00  0.61358045442E+02  0.13538620996E+02  0.62835602074E+02  0.00000000000E+00 0. -1.
         21    1    1    2  505  502 -0.11727540997E+03 -0.26572637899E+03  0.61453327417E+03  0.67971698179E+03  0.00000000000E+00 0. -1.
          2    1    1    2  501    0  0.25353551631E+03  0.96566450820E+02  0.59920977429E+03  0.65776720126E+03  0.00000000000E+00 0. -1.
<scales pt_clust_3="236.95041" pt_clust_4="56.32126" pt_clust_5="258.71794" pt_clust_6="14000.00000"></scales>
<clustering>
<clus scale="   56.321">  3  4 -1 -1</clus>
<clus scale="  236.950">  2  3  1 -1</clus>
<clus scale="  258.718">  2  5  1 -1</clus>
<clus scale="  236.950">  2  3  1 -1</clus>
</clustering>
</event>
<event>
 6    0  0.4796958E+002  0.1196573E+03  0.7546771E-02  0.1243663E+00
          3   -1    0    0  505    0 -0.00000000000E+00  0.00000000000E+00  0.19053288991E+03  0.19053288991E+03  0.00000000000E+00 0. -1.
         21   -1    0    0  503  502  0.00000000000E+00 -0.00000000000E+00 -0.76290122603E+03  0.76290122603E+03  0.00000000000E+00 0. -1.
         21    1    1    2  503  501  0.16259650558E+02 -0.27144591026E+02 -0.11562109153E+03  0.11987260681E+03  0.00000000000E+00 0. -1.
         21    1    1    2  504  502  0.49047787463E+02  0.12820279352E+03 -0.60329485710E+03  0.61871344443E+03  0.00000000000E+00 0. -1.
         21    1    1    2  505  504 -0.15436257122E+02 -0.25786323878E+02 -0.12025003002E+02  0.32369943316E+02  0.00000000000E+00 0. -1.
          3    1    1    2  501    0 -0.49871180899E+02 -0.75271878611E+02  0.15857261550E+03  0.18247812137E+03  0.00000000000E+00 0. -1.
<scales pt_clust_3="31.81059" pt_clust_4="14000.00000" pt_clust_5="30.05349" pt_clust_6="119.65735"></scales>
<clustering>
<clus scale="   30.053">  1  5  2 -1</clus>
<clus scale="   31.811">  2  3  1 -1</clus>
<clus scale="  119.657">  1  6  2 -1</clus>
<clus scale="   31.811">  2  3  1 -1</clus>
</clustering>
</event>
<event>
 6    0  0.4796958E+002  0.1611163E+03  0.7546771E-02  0.1187442E+00
         21   -1    0    0  504  502  0.00000000000E+00  0.00000000000E+00  0.29504031767E+03  0.29504031767E+03  0.00000000000E+00 0. -1.
          1   -1    0    0  503    0 -0.00000000000E+00 -0.00000000000E+00 -0.18183973915E+04  0.18183973915E+04  0.00000000000E+00 0. -1.
         21    1    1    2  503  505  0.70831597159E+02 -0.25556140850E+02 -0.12117879250E+04  0.12141252846E+04  0.00000000000E+00 0. -1.
         21    1    1    2  504  501  0.10543481034E+03 -0.43173092727E+02 -0.17425717770E+03  0.20819697200E+03  0.00000000000E+00 0.  1.
         21    1    1    2  505  502 -0.14118137669E+03  0.90370665258E+02  0.25033925896E+03  0.30127858012E+03  0.00000000000E+00 0. -1.
          1    1    1    2  501    0 -0.35085030818E+02 -0.21641431681E+02 -0.38765123012E+03  0.38983687251E+03  0.00000000000E+00 0. -1.
<scales pt_clust_3="60.12507" pt_clust_4="161.11632" pt_clust_5="14000.00000" pt_clust_6="41.22270"></scales>
<clustering>
<clus scale="   41.223">  2  6  1 -1</clus>
<clus scale="   60.125">  2  3  1 -1</clus>
<clus scale="  161.116">  2  4  1 -1</clus>
<clus scale="  161.116">  1  3  2 -1</clus>
</clustering>
</event>
<event>
 6    0  0.4796958E+002  0.1116064E+03  0.7546771E-02  0.1257624E+00
          3   -1    0    0  504    0 -0.00000000000E+00  0.00000000000E+00  0.67932430752E+02  0.67932430752E+02  0.00000000000E+00 0. -1.
         21   -1    0    0  501  502  0.00000000000E+00 -0.00000000000E+00 -0.41557313088E+03  0.41557313088E+03  0.00000000000E+00 0. -1.
         21    1    1    2  503  502  0.35910900583E+02 -0.13816460645E+02 -0.14638230536E+03  0.15135477094E+03  0.00000000000E+00 0.  1.
         21    1    1    2  504  505 -0.78510712326E+02 -0.18288599346E+02 -0.16091778803E+03  0.17998038593E+03  0.00000000000E+00 0. -1.
         21    1    1    2  505  503 -0.43147792116E+02 -0.11680387590E+02 -0.33094116427E+02  0.55618198108E+02  0.00000000000E+00 0. -1.
          3    1    1    2  501    0  0.85747603859E+02  0.43785447582E+02 -0.72464903177E+01  0.96552206652E+02  0.00000000000E+00 0. -1.
<scales pt_clust_3="38.47710" pt_clust_4="34.66568" pt_clust_5="34.66568" pt_clust_6="101.43400"></scales>
<clustering>
<clus scale="   34.666">  4  5 -1 -1</clus>
<clus scale="   38.477">  2  3  1 -1</clus>
<clus scale="  101.434">  1  6  2 -1</clus>
<clus scale="   38.477">  2  3  1 -1</clus>
</clustering>
</event>
<event>
 6    0  0.4796958E+002  0.2252237E+03  0.7546771E-02  0.1130047E+00
          2   -1    0    0  504    0 -0.00000000000E+00  0.00000000000E+00  0.61987213527E+03  0.61987213527E+03  0.00000000000E+00 0. -1.
         21   -1    0    0  503  502  0.00000000000E+00 -0.00000000000E+00 -0.51270189516E+03  0.51270189516E+03  0.00000000000E+00 0.  1.
         21    1    1    2  503  501 -0.54229762551E+01 -0.30379970888E+02 -0.18166480904E+03  0.18426734422E+03  0.00000000000E+00 0.  1.
         21    1    1    2  504  505 -0.18197082945E+03  0.13593842411E+03 -0.18969703890E+03  0.29593513561E+03  0.00000000000E+00 0.  1.
         21    1    1    2  505  502 -0.28565017392E+02 -0.38372297977E+02 -0.54993137771E+02  0.72887849965E+02  0.00000000000E+00 0.  1.
          2    1    1    2  501    0  0.21595882310E+03 -0.67186155246E+02  0.53352522581E+03  0.57948370064E+03  0.00000000000E+00 0. -1.
<scales pt_clust_3="30.86019" pt_clust_4="225.22368" pt_clust_5="53.25780" pt_clust_6="14000.00000"></scales>
<clustering>
<clus scale="   30.860">  2  3  1 -1</clus>
<clus scale="   53.258">  2  5  1 -1</clus>
<clus scale="  225.224">  2  4  1 -1</clus>
<clus scale="   30.860">  2  3  1 -1</clus>
</clustering>
</event>
<event>
 6    0  0.4796958E+002  0.1248494E+03  0.7546771E-02  0.1235305E+00
         21   -1    0    0  503  502  0.00000000000E+00  0.00000000000E+00  0.77412419751E+03  0.77412419751E+03  0.00000000000E+00 0.  1.
          1   -1    0    0  504    0 -0.00000000000E+00 -0.00000000000E+00 -0.27835871921E+02  0.27835871921E+02  0.00000000000E+00 0.  1.
         21    1    1    2  503  505  0.83151377949E+02 -0.83645501281E+02  0.47237873989E+03  0.48688026808E+03  0.00000000000E+00 0.  1.
         21    1    1    2  504  502  0.11234938977E+02  0.32873799704E+02  0.85604586246E+02  0.92385365438E+02  0.00000000000E+00 0.  1.
         21    1    1    2  505  501 -0.54057818384E+02  0.47017561035E+02  0.15308372817E+03  0.16901930838E+03  0.00000000000E+00 0. -1.
          1    1    1    2  501    0 -0.40328498542E+02  0.37541405421E+01  0.35221271283E+02  0.53675127542E+02  0.00000000000E+00 0.  1.
<scales pt_clust_3="113.75362" pt_clust_4="34.74062" pt_clust_5="36.96026" pt_clust_6="36.96026"></scales>
<clustering>
<clus scale="   34.741">  2  4  1 -1</clus>
<clus scale="   36.960">  5  6 -1 -1</clus>
<clus scale="  113.754">  1  3  2 -1</clus>
<clus scale="  113.754">  1  3  2 -1</clus>
</clustering>
</event>
<event>
 6    0  0.4796958E+002  0.1747554E+03  0.7546771E-02  0.1172978E+00
          2   -1    0    0  504    0 -0.00000000000E+00  0.00000000000E+00  0.12023624957E+04  0.12023624957E+04  0.00000000000E+00 0. -1.
         21   -1    0    0  505  502  0.00000000000E+00 -0.00000000000E+00 -0.58187892410E+03  0.58187892410E+03  0.00000000000E+00 0.  1.
         21    1    1    2  503  502 -0.52786670088E+02  0.63643857408E+01 -0.16825036932E+03  0.17645147979E+03  0.00000000000E+00 0.  1.
         21    1    1    2  504  503 -0.39926590772E+02  0.80902353322E+02 -0.35467498916E+03  0.36596949512E+03  0.00000000000E+00 0.  1.
         21    1    1    2  505  501 -0.35125736913E+01  0.42508383405E+02 -0.33275004009E+02  0.54097381873E+02  0.00000000000E+00 0. -1.
          2    1    1    2  501    0  0.96225834551E+02 -0.12977512247E+03  0.11766839341E+04  0.11877230631E+04  0.00000000000E+00 0. -1.
<scales pt_clust_3="47.27798" pt_clust_4="47.27798" pt_clust_5="42.65326" pt_clust_6="161.18654"></scales>
<clustering>
<clus scale="   42.653">  2  5  1 -1</clus>
<clus scale="   47.278">  3  4 -1 -1</clus>
<clus scale="  161.187">  1  6  2 -1</clus>
<clus scale="   42.653">  2  3  1 -1</clus>
</clustering>
</event>
<event>
 6    0  0.4796958E+002  0.9356033E+02  0.7546771E-02  0.1294452E+00
          2   -1    0    0  505    0 -0.00000000000E+00  0.00000000000E+00  0.61828570337E+03  0.61828570337E+03  0.00000000000E+00 0.  1.
         21   -1    0    0  504  502  0.00000000000E+00 -0.00000000000E+00 -0.45969956914E+03  0.45969956914E+03  0.00000000000E+00 0. -1.
         21    1    1    2  503  501  0.42400739393E+02  0.41982431704E+02 -0.25087545410E+03  0.25787369146E+03  0.00000000000E+00 0. -1.
         21    1    1    2  504  503  0.52774967512E+02 -0.19835026772E+02 -0.18320432343E+03  0.19168320116E+03  0.00000000000E+00 0. -1.
         21    1    1    2  505  502 -0.73017306845E+02 -0.61496781502E+02  0.11874441515E+03  0.15236015675E+03  0.00000000000E+00 0.  1.
          2    1    1    2  501    0 -0.22158400060E+02  0.39349376570E+02  0.47392149662E+03  0.47606822314E+03  0.00000000000E+00 0.  1.
<scales pt_clust_3="14000.00000" pt_clust_4="55.36271" pt_clust_5="93.56033" pt_clust_6="45.15936"></scales>
<clustering>
<clus scale="   45.159">  1  6  2 -1</clus>
<clus scale="   55.363">  2  4  1 -1</clus>
<clus scale="   93.560">  1  5  2 -1</clus>
<clus scale="   55.363">  2  3  1 -1</clus>
</clustering>
</event>
<event>
 6    0  0.4796958E+002  0.8401911E+02  0.7546771E-02  0.1318018E+00
         21   -1    0    0  501  502  0.00000000000E+00  0.00000000000E+00  0.75869292088E+02  0.75869292088E+02  0.00000000000E+00 0. -1.
          1   -1    0    0  505    0 -0.00000000000E+00 -0.00000000000E+00 -0.24296961258E+04  0.24296961258E+04  0.00000000000E+00 0. -1.
         21    1    1    2  503  502  0.28288320082E+02 -0.75043746416E+02  0.30701613907E+02  0.85874222126E+02  0.00000000000E+00 0. -1.
         21    1    1    2  504  503 -0.10151865711E+03  0.95227104796E+02 -0.29289192964E+03  0.32428370554E+03  0.00000000000E+00 0. -1.
         21    1    1    2  505  504  0.35552411881E+02 -0.25269671962E+02 -0.28042318920E+03  0.28379516443E+03  0.00000000000E+00 0. -1.
          1    1    1    2  501    0  0.37677925150E+02  0.50863135823E+01 -0.18112133288E+04  0.18116123258E+04  0.00000000000E+00 0. -1.
<scales pt_clust_3="14000.00000" pt_clust_4="84.01911" pt_clust_5="57.52029" pt_clust_6="38.01969"></scales>
<clustering>
<clus scale="   38.020">  2  6  1 -1</clus>
<clus scale="   57.520">  2  5  1 -1</clus>
<clus scale="   84.019">  2  4  1 -1</clus>
<clus scale="   84.019">  1  3  2 -1</clus>
</clustering>
</event>
<event>
 6    0  0.4796958E+002  0.1104574E+03  0.7546771E-02  0.1259725E+00
          2   -1    0    0  504    0 -0.00000000000E+00  0.00000000000E+00  0.24459225584E+04  0.24459225584E+04  0.00000000000E+00 0. -1.
         21   -1    0    0  503  502  0.00000000000E+00 -0.00000000000E+00 -0.27317739223E+02  0.27317739223E+02  0.00000000000E+00 0. -1.
         21    1    1    2  503  505  0.30528699738E+02 -0.13850604753E+03  0.31778012755E+03  0.34799444849E+03  0.00000000000E+00 0. -1.
         21    1    1    2  504  502  0.28155819785E+02  0.31360186758E+02  0.72572459421E+02  0.83922424701E+02  0.00000000000E+00 0. -1.
         21    1    1    2  505  501 -0.23795487737E+02  0.82113932757E+02  0.28509760319E+03  0.29763999485E+03  0.00000000000E+00 0. -1.
          2    1    1    2  501    0 -0.34889031786E+02  0.25031928020E+02  0.17431546290E+04  0.17436834296E+04  0.00000000000E+00 0. -1.
<scales pt_clust_3="14000.00000" pt_clust_4="42.14512" pt_clust_5="110.45744" pt_clust_6="42.88690"></scales>
<clustering>
<clus scale="   42.145">  2  4  1 -1</clus>
<clus scale="   42.887">  1  6  2 -1</clus>
<clus scale="  110.457">  1  5  2 -1</clus>
<clus scale="   42.145">  2  3  1 -1</clus>
</clustering>
</event>
<event>
 6    0  0.4796958E+002  0.1964784E+03  0.7546771E-02  0.1152745E+00
         -3   -1    0    0    0  501 -0.00000000000E+00  0.00000000000E+00  0.14452302759E+04  0.14452302759E+04  0.00000000000E+00 0.  1.
         21   -1    0    0  504  502  0.00000000000E+00 -0.00000000000E+00 -0.20303319767E+03  0.20303319767E+03  0.00000000000E+00 0.  1.
         21    1    1    2  503  501  0.61718679348E+01 -0.17096312682E+03  0.66505860558E+03  0.68670913169E+03  0.00000000000E+00 0.  1.
         21    1    1    2  504  503 -0.74178648911E+02  0.42963655919E+02  0.21633722798E+02  0.88410212341E+02  0.00000000000E+00 0.  1.
         21    1    1    2  505  502  0.82302949886E+02  0.16135070624E+03 -0.10651757864E+03  0.21012810502E+03  0.00000000000E+00 0.  1.
         -3    1    1    2    0  505 -0.14296168910E+02 -0.33351235338E+02  0.66202232846E+03  0.66301602449E+03  0.00000000000E+00 0.  1.
<scales pt_clust_3="14000.00000" pt_clust_4="85.45463" pt_clust_5="196.47841" pt_clust_6="36.28616"></scales>
<clustering>
<clus scale="   36.286">  1  6  2 -1</clus>
<clus scale="   85.455">  2  4  1 -1</clus>
<clus scale="  196.478">  2  5  1 -1</clus>
<clus scale="   85.455">  2  3  1 -1</clus>
</clustering>
</event>
<event>
 6    0  0.4796958E+002  0.9591668E+02  0.7546771E-02  0.1289125E+00
          2   -1    0    0  504    0 -0.00000000000E+00  0.00000000000E+00  0.23770728061E+04  0.23770728061E+04  0.00000000000E+00 0. -1.
         21   -1    0    0  505  502  0.00000000000E+00 -0.00000000000E+00 -0.31297265090E+03  0.31297265090E+03  0.00000000000E+00 0. -1.
         21    1    1    2  503  502 -0.56934495113E+02  0.17301693286E+02 -0.27307919630E+03  0.27948726764E+03  0.00000000000E+00 0. -1.
         21    1    1    2  504  503  0.22276302523E+02 -0.11982114097E+03  0.78835049110E+02  0.14514924886E+03  0.00000000000E+00 0. -1.
         21    1    1    2  505  501  0.31801310397E+02  0.54662461579E+02  0.30553014772E+03  0.31200637688E+03  0.00000000000E+00 0.  1.
          2    1    1    2  501    0  0.28568821924E+01  0.47856986101E+02  0.19528141546E+04  0.19534025636E+04  0.00000000000E+00 0. -1.
<scales pt_clust_3="59.59088" pt_clust_4="14000.00000" pt_clust_5="95.91668" pt_clust_6="47.94218"></scales>
<clustering>
<clus scale="   47.942">  1  6  2 -1</clus>
<clus scale="   59.591">  2  3  1 -1</clus>
<clus scale="   95.917">  1  5  2 -1</clus>
<clus scale="   59.591">  2  3  1 -1</clus>
</clustering>
</event>
<event>
 6    0  0.4796958E+002  0.8290327E+02  0.7546771E-02  0.1321009E+00
         21   -1    0    0  503  502  0.00000000000E+00  0.00000000000E+00  0.45487988443E+02  0.45487988443E+02  0.00000000000E+00 0. -1.
          2   -1    0    0  505    0 -0.00000000000E+00 -0.00000000000E+00 -0.17404640027E+04  0.17404640027E+04  0.00000000000E+00 0.  1.
         21    1    1    2  503  501 -0.12584466951E+03 -0.31558814684E+02 -0.15411861372E+03  0.20145815130E+03  0.00000000000E+00 0. -1.
         21    1    1    2  504  502  0.40823176520E+02  0.22156970119E+01 -0.37092596158E+01  0.41051183434E+02  0.00000000000E+00 0. -1.
         21    1    1    2  505  504  0.49207081715E+02  0.15956590221E+02 -0.23042120427E+03  0.23615647576E+03  0.00000000000E+00 0.  1.
          2    1    1    2  501    0  0.35814411279E+02  0.13386527451E+02 -0.13067269367E+04  0.13072861807E+04  0.00000000000E+00 0.  1.
<scales pt_clust_3="82.90327" pt_clust_4="42.77124" pt_clust_5="14000.00000" pt_clust_6="38.23442"></scales>
<clustering>
<clus scale="   38.234">  2  6  1 -1</clus>
<clus scale="   42.771">  1  4  2 -1</clus>
<clus scale="   82.903">  1  3  2 -1</clus>
<clus scale="   42.771">  1  3  2 -1</clus>
</clustering>
</event>
<event>
 6    0  0.4796958E+002  0.1028510E+03  0.7546771E-02  0.1274412E+00
          2   -1    0    0  504    0 -0.00000000000E+00  0.00000000000E+00  0.51861791922E+03  0.51861791922E+03  0.00000000000E+00 0. -1.
         21   -1    0    0  503  502  0.00000000000E+00 -0.00000000000E+00 -0.77677323955E+03  0.77677323955E+03  0.00000000000E+00 0. -1.
         21    1    1    2  503  501 -0.33530623297E+02 -0.71711350169E+00 -0.51912995079E+02  0.61804336487E+02  0.00000000000E+00 0. -1.
         21    1    1    2  504  505  0.98390374210E+02 -0.25694259951E+02 -0.11549899698E+03  0.15388592865E+03  0.00000000000E+00 0. -1.
         21    1    1    2  505  502  0.97261804184E-01 -0.54397618176E+02 -0.57849730681E+03  0.58104926151E+03  0.00000000000E+00 0. -1.
          2    1    1    2  501    0 -0.64957012718E+02  0.80808991629E+02  0.48775397854E+03  0.49865163211E+03  0.00000000000E+00 0. -1.
<scales pt_clust_3="33.53829" pt_clust_4="102.85102" pt_clust_5="61.20627" pt_clust_6="14000.00000"></scales>
<clustering>
<clus scale="   33.538">  2  3  1 -1</clus>
<clus scale="   61.206">  2  5  1 -1</clus>
<clus scale="  102.851">  2  4  1 -1</clus>
<clus scale="   33.538">  2  3  1 -1</clus>
</clustering>
</event>
<event>
 6    0  0.4796958E+002  0.7370789E+02  0.7546771E-02  0.1347920E+00
          1   -1    0    0  504    0 -0.00000000000E+00  0.00000000000E+00  0.12144052106E+04  0.12144052106E+04  0.00000000000E+00 0.  1.
         21   -1    0    0  505  502  0.00000000000E+00 -0.00000000000E+00 -0.27954108499E+03  0.27954108499E+03  0.00000000000E+00 0.  1.
         21    1    1    2  503  501  0.62030862432E+01 -0.11514785512E+03  0.41439578412E+03  0.43014110791E+03  0.00000000000E+00 0.  1.
         21    1    1    2  504  502 -0.53782110268E+02  0.37574282537E+02  0.80251306762E+02  0.10365623151E+03  0.00000000000E+00 0.  1.
         21    1    1    2  505  503  0.11070366132E+02  0.72386355293E+02 -0.25431035002E+03  0.26464332896E+03  0.00000000000E+00 0.  1.
          1    1    1    2  501    0  0.36508657892E+02  0.51872172898E+01  0.69452738473E+03  0.69550562720E+03  0.00000000000E+00 0.  1.
<scales pt_clust_3="14000.00000" pt_clust_4="60.99776" pt_clust_5="73.70789" pt_clust_6="36.87532"></scales>
<clustering>
<clus scale="   36.875">  1  6  2 -1</clus>
<clus scale="   60.998">  1  4  2 -1</clus>
<clus scale="   73.708">  2  5  1 -1</clus>
<clus scale="   73.708">  2  3  1 -1</clus>
</clustering>
</event>
<event>
 6    0  0.4796958E+002  0.7278156E+02  0.7546771E-02  0.1350882E+00
          2   -1    0    0  504    0 -0.00000000000E+00  0.00000000000E+00  0.32761535778E+04  0.32761535778E+04  0.00000000000E+00 0.  1.
         21   -1    0    0  505  502  0.00000000000E+00 -0.00000000000E+00 -0.30945738224E+02  0.30945738224E+02  0.00000000000E+00 0.  1.
         21    1    1    2  503  502 -0.48472520553E+02 -0.86607555342E+01  0.21134137671E+02  0.53584006105E+02  0.00000000000E+00 0.  1.
         21    1    1    2  504  503 -0.78859982454E+02 -0.24829975536E+02  0.71364137798E+03  0.71841453276E+03  0.00000000000E+00 0.  1.
         21    1    1    2  505  501  0.98139951823E+02  0.46472549819E+02  0.22895703783E+03  0.25340180190E+03  0.00000000000E+00 0.  1.
          2    1    1    2  501    0  0.29192551184E+02 -0.12981818749E+02  0.22814752861E+04  0.22816989753E+04  0.00000000000E+00 0.  1.
<scales pt_clust_3="48.25116" pt_clust_4="14000.00000" pt_clust_5="72.78156" pt_clust_6="31.94891"></scales>
<clustering>
<clus scale="   31.949">  1  6  2 -1</clus>
<clus scale="   48.251">  2  3  1 -1</clus>
<clus scale="   72.782">  2  5  1 -1</clus>
<clus scale="   48.251">  2  3  1 -1</clus>
</clustering>
</event>
<event>
 6    0  0.4796958E+002  0.1138567E+03  0.7546771E-02  0.1253590E+00
          2   -1    0    0  502    0 -0.00000000000E+00  0.00000000000E+00  0.20056285685E+04  0.20056285685E+04  0.00000000000E+00 0. -1.
         21   -1    0    0  503  502  0.00000000000E+00 -0.00000000000E+00 -0.34779913334E+03  0.34779913334E+03  0.00000000000E+00 0.  1.
         21    1    1    2  503  504 -0.46034247490E+02 -0.26592384701E+02 -0.24414650535E+03  0.24986761083E+03  0.00000000000E+00 0.  1.
         21    1    1    2  504  505 -0.25830464893E+02  0.75732119390E+02 -0.70622946845E+02  0.10672472743E+03  0.00000000000E+00 0.  1.
         21    1    1    2  505  501  0.55591260332E+02  0.73407012763E+02  0.20281999293E+03  0.22274408473E+03  0.00000000000E+00 0. -1.
          2    1    1    2  501    0  0.16273452051E+02 -0.12254674745E+03  0.17697788944E+04  0.17740912789E+04  0.00000000000E+00 0. -1.
<scales pt_clust_3="53.16302" pt_clust_4="84.49157" pt_clust_5="113.85674" pt_clust_6="14000.00000"></scales>
<clustering>
<clus scale="   53.163">  2  3  1 -1</clus>
<clus scale="   84.492">  2  4  1 -1</clus>
<clus scale="  113.857">  2  5  1 -1</clus>
<clus scale="   53.163">  2  3  1 -1</clus>
</clustering>
</event>
<event>
 6    0  0.4796958E+002  0.5951511E+02  0.7546771E-02  0.1399878E+00
          1   -1    0    0  502    0 -0.00000000000E+00  0.00000000000E+00  0.38118011379E+04  0.38118011379E+04  0.00000000000E+00 0. -1.
         21   -1    0    0  505  502  0.00000000000E+00 -0.00000000000E+00 -0.21269288780E+03  0.21269288780E+03  0.00000000000E+00 0.  1.
         21    1    1    2  503  504 -0.73488722403E+02 -0.25569263545E+02 -0.12206949772E+03  0.14475960014E+03  0.00000000000E+00 0.  1.
         21    1    1    2  504  501  0.40192500290E+02 -0.71937872253E+02  0.39856728467E+03  0.40699677511E+03  0.00000000000E+00 0. -1.
         21    1    1    2  505  503  0.17054713868E+02  0.40275698943E+02 -0.68409216699E+02  0.81196158283E+02  0.00000000000E+00 0.  1.
          1    1    1    2  501    0  0.16241508246E+02  0.57231436855E+02  0.33910196799E+04  0.33915414922E+04  0.00000000000E+00 0. -1.
<scales pt_clust_3="58.54162" pt_clust_4="14000.00000" pt_clust_5="43.73780" pt_clust_6="59.51511"></scales>
<clustering>
<clus scale="   43.738">  2  5  1 -1</clus>
<clus scale="   58.542">  2  3  1 -1</clus>
<clus scale="   59.515">  1  6  2 -1</clus>
<clus scale="   43.738">  2  3  1 -1</clus>
</clustering>
</event>
<event>
 6    0  0.4796958E+002  0.8359113E+02  0.7546771E-02  0.1319159E+00
         21   -1    0    0  501  502  0.00000000000E+00  0.00000000000E+00  0.67841232599E+02  0.67841232599E+02  0.00000000000E+00 0. -1.
          4   -1    0    0  505    0 -0.00000000000E+00 -0.00000000000E+00 -0.11330662866E+04  0.11330662866E+04  0.00000000000E+00 0. -1.
         21    1    1    2  503  502 -0.53295188686E+02  0.42193726104E+02 -0.23094021284E+02  0.71791513974E+02  0.00000000000E+00 0. -1.
         21    1    1    2  504  503 -0.41093827205E+02 -0.59335890973E+02 -0.11867481046E+01  0.72186279604E+02  0.00000000000E+00 0. -1.
         21    1    1    2  505  504  0.32975011906E+02  0.54092786384E+02 -0.14640466227E+03  0.15952337159E+03  0.00000000000E+00 0.  1.
          4    1    1    2  501    0  0.61414003986E+02 -0.36950621515E+02 -0.89453962230E+03  0.89740635399E+03  0.00000000000E+00 0. -1.
<scales pt_clust_3="68.41721" pt_clust_4="83.59113" pt_clust_5="63.35125" pt_clust_6="14000.00000"></scales>
<clustering>
<clus scale="   63.351">  2  5  1 -1</clus>
<clus scale="   68.417">  1  3  2 -1</clus>
<clus scale="   83.591">  1  4  2 -1</clus>
<clus scale="   68.417">  1  3  2 -1</clus>
</clustering>
</event>
<event>
 6    0  0.4796958E+002  0.1083786E+03  0.7546771E-02  0.1263602E+00
         21   -1    0    0  503  502  0.00000000000E+00  0.00000000000E+00  0.18173297778E+03  0.18173297778E+03  0.00000000000E+00 0. -1.
          1   -1    0    0  505    0 -0.00000000000E+00 -0.00000000000E+00 -0.10958666801E+04  0.10958666801E+04  0.00000000000E+00 0. -1.
         21    1    1    2  503  504 -0.30583983255E+02  0.17365209013E+02  0.93455276431E+02  0.99853989448E+02  0.00000000000E+00 0. -1.
         21    1    1    2  504  501  0.79412886554E+02 -0.10996187832E+03 -0.37524376863E+02  0.14073414687E+03  0.00000000000E+00 0. -1.
         21    1    1    2  505  502 -0.67484802869E+02  0.57502908766E+02 -0.26396830538E+02  0.92507166194E+02  0.00000000000E+00 0. -1.
          1    1    1    2  501    0  0.18655899571E+02  0.35093760544E+02 -0.94366777133E+03  0.94450435534E+03  0.00000000000E+00 0. -1.
<scales pt_clust_3="35.17002" pt_clust_4="108.37863" pt_clust_5="14000.00000" pt_clust_6="39.74955"></scales>
<clustering>
<clus scale="   35.170">  1  3  2 -1</clus>
<clus scale="   39.750">  2  6  1 -1</clus>
<clus scale="  108.379">  1  4  2 -1</clus>
<clus scale="   35.170">  1  3  2 -1</clus>
</clustering>
</event>
<event>
 6    0  0.4796958E+002  0.6934797E+02  0.7546771E-02  0.1362324E+00
         21   -1    0    0  504  502  0.00000000000E+00  0.00000000000E+00  0.48711658581E+02  0.48711658581E+02  0.00000000000E+00 0.  1.
          2   -1    0    0  505    0 -0.00000000000E+00 -0.00000000000E+00 -0.25516650237E+04  0.25516650237E+04  0.00000000000E+00 0.  1.
         21    1    1    2  503  501 -0.64309740590E+01  0.94649501428E+02 -0.23492829531E+03  0.25335980242E+03  0.00000000000E+00 0.  1.
         21    1    1    2  504  503 -0.32160014599E+02 -0.59516237574E+02  0.39979874663E+01  0.67767492043E+02  0.00000000000E+00 0.  1.
         21    1    1    2  505  502  0.10194346778E+03 -0.53479427865E+02 -0.13827677665E+04  0.13875515182E+04  0.00000000000E+00 0.  1.
          2    1    1    2  501    0 -0.63352479121E+02  0.18346164011E+02 -0.88925529086E+03  0.89169786961E+03  0.00000000000E+00 0.  1.
<scales pt_clust_3="14000.00000" pt_clust_4="69.34797" pt_clust_5="62.21260" pt_clust_6="65.95543"></scales>
<clustering>
<clus scale="   65.955">  2  6  1 -1</clus>
<clus scale="   62.213">  2  5  1 -1</clus>
<clus scale="   69.348">  1  4  2 -1</clus>
<clus scale="   69.348">  1  3  2 -1</clus>
</clustering>
</event>
<event>
 6    0  0.4796958E+002  0.1648425E+03  0.7546771E-02  0.1183336E+00
         21   -1    0    0  504  502  0.00000000000E+00  0.00000000000E+00  0.97491951707E+02  0.97491951707E+02  0.00000000000E+00 0. -1.
          2   -1    0    0  503    0 -0.00000000000E+00 -0.00000000000E+00 -0.19441625688E+04  0.19441625688E+04  0.00000000000E+00 0.  1.
         21    1    1    2  503  502  0.32838195873E+02  0.25358095499E+02 -0.80056414127E+02  0.90168783725E+02  0.00000000000E+00 0. -1.
         21    1    1    2  504  505  0.96818519082E+02  0.57264751154E+02  0.52951796341E+02  0.12432606363E+03  0.00000000000E+00 0. -1.
         21    1    1    2  505  501 -0.87373225345E+02 -0.45425796359E+02 -0.79977718336E+03  0.80581705523E+03  0.00000000000E+00 0.  1.
          2    1    1    2  501    0 -0.42283489610E+02 -0.37197050294E+02 -0.10197888159E+04  0.10213426179E+04  0.00000000000E+00 0.  1.
<scales pt_clust_3="41.48952" pt_clust_4="152.04740" pt_clust_5="48.33285" pt_clust_6="48.33285"></scales>
<clustering>
<clus scale="   41.490">  1  3  2 -1</clus>
<clus scale="   48.333">  5  6 -1 -1</clus>
<clus scale="  152.047">  1  4  2 -1</clus>
<clus scale="   41.490">  1  3  2 -1</clus>
</clustering>
</event>
<event>
 6    0  0.4796958E+002  0.8294368E+02  0.7546771E-02  0.1320899E+00
          2   -1    0    0  505    0 -0.00000000000E+00  0.00000000000E+00  0.18817708335E+04  0.18817708335E+04  0.00000000000E+00 0.  1.
         21   -1    0    0  503  502  0.00000000000E+00 -0.00000000000E+00 -0.10479336477E+03  0.10479336477E+03  0.00000000000E+00 0. -1.
         21    1    1    2  503  501  0.12835553025E+02 -0.83368463100E+02 -0.55557650109E+02  0.10100348780E+03  0.00000000000E+00 0. -1.
         21    1    1    2  504  502 -0.30721566340E+02  0.73130171033E+02  0.71847466299E+02  0.10702287123E+03  0.00000000000E+00 0. -1.
         21    1    1    2  505  504  0.56798738923E+02  0.18042753094E+02  0.93499596450E+02  0.11087746488E+03  0.00000000000E+00 0. -1.
          2    1    1    2  501    0 -0.38912725607E+02 -0.78044610259E+01  0.16671880561E+04  0.16676603744E+04  0.00000000000E+00 0.  1.
<scales pt_clust_3="82.94368" pt_clust_4="14000.00000" pt_clust_5="40.84088" pt_clust_6="39.68765"></scales>
<clustering>
<clus scale="   39.688">  1  6  2 -1</clus>
<clus scale="   40.841">  1  5  2 -1</clus>
<clus scale="   82.944">  2  3  1 -1</clus>
<clus scale="   82.944">  2  3  1 -1</clus>
</clustering>
</event>
<event>
 6    0  0.4796958E+002  0.1597642E+03  0.7546771E-02  0.1188963E+00
          1   -1    0    0  503    0 -0.00000000000E+00  0.00000000000E+00  0.24179155064E+04  0.24179155064E+04  0.00000000000E+00 0.  1.
         21   -1    0    0  504  502  0.00000000000E+00 -0.00000000000E+00 -0.73677714087E+02  0.73677714087E+02  0.00000000000E+00 0.  1.
         21    1    1    2  503  505 -0.92427203303E+02 -0.10979595545E+03  0.78975777018E+03  0.80269251603E+03  0.00000000000E+00 0.  1.
         21    1    1    2  504  501 -0.26661116593E+02 -0.15272184087E+02  0.27439844869E+00  0.30726699128E+02  0.00000000000E+00 0.  1.
         21    1    1    2  505  502  0.37544122854E+02 -0.27459671398E+02 -0.35857953762E+02  0.58731486974E+02  0.00000000000E+00 0.  1.
          1    1    1    2  501    0  0.81544197042E+02  0.15252781093E+03  0.15900635775E+04  0.15994425184E+04  0.00000000000E+00 0.  1.
<scales pt_clust_3="14000.00000" pt_clust_4="30.72547" pt_clust_5="42.90081" pt_clust_6="159.76418"></scales>
<clustering>
<clus scale="   30.725">  2  4  1 -1</clus>
<clus scale="   42.901">  2  5  1 -1</clus>
<clus scale="  159.764">  1  6  2 -1</clus>
<clus scale="   30.725">  2  3  1 -1</clus>
</clustering>
</event>
<event>
 6    0  0.4796958E+002  0.1552268E+03  0.7546771E-02  0.1194194E+00
          1   -1    0    0  505    0 -0.00000000000E+00  0.00000000000E+00  0.18595358413E+03  0.18595358413E+03  0.00000000000E+00 0. -1.
         21   -1    0    0  504  502  0.00000000000E+00 -0.00000000000E+00 -0.74270849542E+03  0.74270849542E+03  0.00000000000E+00 0. -1.
         21    1    1    2  503  502  0.29860861238E+02 -0.43505413567E+02 -0.36524545377E+03  0.36903744193E+03  0.00000000000E+00 0. -1.
         21    1    1    2  504  501  0.10157563932E+03  0.13622608258E+03 -0.29173847444E+03  0.33761885840E+03  0.00000000000E+00 0. -1.
         21    1    1    2  505  503 -0.13311319175E+03 -0.40867339584E+02  0.45250515953E+02  0.14641335477E+03  0.00000000000E+00 0. -1.
          1    1    1    2  501    0  0.16766911906E+01 -0.51853329427E+02  0.54978500968E+02  0.75592424453E+02  0.00000000000E+00 0. -1.
<scales pt_clust_3="53.45579" pt_clust_4="14000.00000" pt_clust_5="155.22679" pt_clust_6="51.88043"></scales>
<clustering>
<clus scale="   51.880">  1  6  2 -1</clus>
<clus scale="   53.456">  2  3  1 -1</clus>
<clus scale="  155.227">  1  5  2 -1</clus>
<clus scale="   53.456">  2  3  1 -1</clus>
</clustering>
</event>
<event>
 6    0  0.4796958E+002  0.1043537E+03  0.7546771E-02  0.1271398E+00
          3   -1    0    0  505    0 -0.00000000000E+00  0.00000000000E+00  0.25815376140E+04  0.25815376140E+04  0.00000000000E+00 0. -1.
         21   -1    0    0  503  502  0.00000000000E+00 -0.00000000000E+00 -0.44013191641E+02  0.44013191641E+02  0.00000000000E+00 0.  1.
         21    1    1    2  503  504 -0.29936399171E+02  0.83818581992E+01 -0.24804820330E+02  0.39770876955E+02  0.00000000000E+00 0.  1.
         21    1    1    2  504  501  0.16768120465E+03  0.97262384163E+01  0.94441134937E+03  0.95923114155E+03  0.00000000000E+00 0. -1.
         21    1    1    2  505  502 -0.53378809802E+02  0.19193890636E+02  0.29406932265E+03  0.29949034926E+03  0.00000000000E+00 0.  1.
          3    1    1    2  501    0 -0.84365995679E+02 -0.37301987251E+02  0.13238485707E+04  0.13270584379E+04  0.00000000000E+00 0. -1.
<scales pt_clust_3="31.08768" pt_clust_4="104.35366" pt_clust_5="63.89463" pt_clust_6="14000.00000"></scales>
<clustering>
<clus scale="   31.088">  2  3  1 -1</clus>
<clus scale="   63.895">  2  5  1 -1</clus>
<clus scale="  104.354">  2  4  1 -1</clus>
<clus scale="   31.088">  2  3  1 -1</clus>
</clustering>
</event>
<event>
 6    0  0.4796958E+002  0.1310411E+03  0.7546771E-02  0.1225919E+00
          1   -1    0    0  505    0 -0.00000000000E+00  0.00000000000E+00  0.69274082066E+03  0.69274082066E+03  0.00000000000E+00 0. -1.
         21   -1    0    0  501  502  0.00000000000E+00 -0.00000000000E+00 -0.11663860259E+04  0.11663860259E+04  0.00000000000E+00 0.  1.
         21    1    1    2  503  502  0.12499416625E+03  0.25032265824E+01 -0.11292043852E+04  0.11361040231E+04  0.00000000000E+00 0.  1.
         21    1    1    2  504  503 -0.28662650903E+02 -0.29546771578E+02  0.23352702620E+02  0.47327666191E+02  0.00000000000E+00 0.  1.
         21    1    1    2  505  504 -0.62460827809E+02  0.42261308288E+01  0.25471167705E+02  0.67586948272E+02  0.00000000000E+00 0. -1.
          1    1    1    2  501    0 -0.33870687543E+02  0.22817414167E+02  0.60673530964E+03  0.60810820898E+03  0.00000000000E+00 0. -1.
<scales pt_clust_3="123.67209" pt_clust_4="35.13126" pt_clust_5="35.13126" pt_clust_6="40.83942"></scales>
<clustering>
<clus scale="   35.131">  4  5 -1 -1</clus>
<clus scale="   40.839">  1  6  2 -1</clus>
<clus scale="  123.672">  2  3  1 -1</clus>
<clus scale="  123.672">  2  3  1 -1</clus>
</clustering>
</event>
<event>
 6    0  0.4796958E+002  0.1168156E+03  0.7546771E-02  0.1248445E+00
         21   -1    0    0  503  502  0.00000000000E+00  0.00000000000E+00  0.25712227811E+03  0.25712227811E+03  0.00000000000E+00 0. -1.
          1   -1    0    0  504    0 -0.00000000000E+00 -0.00000000000E+00 -0.21007594379E+03  0.21007594379E+03  0.00000000000E+00 0. -1.
         21    1    1    2  503  505 -0.72704301311E+02 -0.63445389713E+02  0.14296089485E+03  0.17247913022E+03  0.00000000000E+00 0. -1.
         21    1    1    2  504  502  0.45600263472E+01 -0.43599099674E+02  0.30096954041E+02  0.53174260457E+02  0.00000000000E+00 0.  1.
         21    1    1    2  505  501  0.96154801597E+02  0.79230210068E+02 -0.17174215974E+02  0.12577013060E+03  0.00000000000E+00 0. -1.
          1    1    1    2  501    0 -0.28010526633E+02  0.27814279319E+02 -0.10883729861E+03  0.11577470062E+03  0.00000000000E+00 0. -1.
<scales pt_clust_3="116.81564" pt_clust_4="40.33601" pt_clust_5="14000.00000" pt_clust_6="39.47434"></scales>
<clustering>
<clus scale="   39.474">  2  6  1 -1</clus>
<clus scale="   40.336">  1  4  2 -1</clus>
<clus scale="  116.816">  1  3  2 -1</clus>
<clus scale="   40.336">  1  3  2 -1</clus>
</clustering>
</event>
<event>
 6    0  0.4796958E+002  0.1184080E+03  0.7546771E-02  0.1245747E+00
          1   -1    0    0  504    0 -0.00000000000E+00  0.00000000000E+00  0.14211853026E+04  0.14211853026E+04  0.00000000000E+00 0.  1.
         21   -1    0    0  505  502  0.00000000000E+00 -0.00000000000E+00 -0.63231560224E+02  0.63231560224E+02  0.00000000000E+00 0.  1.
         21    1    1    2  503  501 -0.51789514874E+02  0.20026030840E+02  0.37305495296E+02  0.66894661531E+02  0.00000000000E+00 0. -1.
         21    1    1    2  504  502 -0.25813172443E+02 -0.74865072513E+02  0.48770872458E+02  0.93003746990E+02  0.00000000000E+00 0.  1.
         21    1    1    2  505  503 -0.32355698762E+02 -0.76989876728E+01 -0.11295921054E+02  0.35124969552E+02  0.00000000000E+00 0.  1.
          1    1    1    2  501    0  0.10995838608E+03  0.62538029345E+02  0.12831732957E+04  0.12893934847E+04  0.00000000000E+00 0.  1.
<scales pt_clust_3="66.02475" pt_clust_4="14000.00000" pt_clust_5="33.25907" pt_clust_6="118.40800"></scales>
<clustering>
<clus scale="   33.259">  2  5  1 -1</clus>
<clus scale="   66.025">  2  3  1 -1</clus>
<clus scale="  118.408">  1  6  2 -1</clus>
<clus scale="   33.259">  2  3  1 -1</clus>
</clustering>
</event>
<event>
 6    0  0.4796958E+002  0.1229036E+03  0.7546771E-02  0.1238382E+00
         -2   -1    0    0    0  501 -0.00000000000E+00  0.00000000000E+00  0.66222824411E+03  0.66222824411E+03  0.00000000000E+00 0.  1.
         21   -1    0    0  503  502  0.00000000000E+00 -0.00000000000E+00 -0.70101779611E+03  0.70101779611E+03  0.00000000000E+00 0.  1.
         21    1    1    2  503  504  0.32212266058E+02  0.21801130246E+02 -0.16637710002E+03  0.17086327509E+03  0.00000000000E+00 0.  1.
         21    1    1    2  504  501  0.72017395461E+02  0.25010168762E+02 -0.52055671094E+02  0.92313632165E+02  0.00000000000E+00 0.  1.
         21    1    1    2  505  502 -0.29882366942E+02  0.57725554993E+02 -0.45143223673E+03  0.45608799580E+03  0.00000000000E+00 0.  1.
         -2    1    1    2    0  505 -0.74347294577E+02 -0.10453685400E+03  0.63107545584E+03  0.64398113716E+03  0.00000000000E+00 0.  1.
<scales pt_clust_3="38.89626" pt_clust_4="14000.00000" pt_clust_5="76.34518" pt_clust_6="122.90360"></scales>
<clustering>
<clus scale="   38.896">  2  3  1 -1</clus>
<clus scale="   76.345">  2  5  1 -1</clus>
<clus scale="  122.904">  1  6  2 -1</clus>
<clus scale="   38.896">  2  3  1 -1</clus>
</clustering>
</event>
<event>
 6    0  0.4796958E+002  0.7130724E+02  0.7546771E-02  0.1355703E+00
         21   -1    0    0  503  502  0.00000000000E+00  0.00000000000E+00  0.21073134448E+03  0.21073134448E+03  0.00000000000E+00 0. -1.
         -1   -1    0    0    0  501 -0.00000000000E+00 -0.00000000000E+00 -0.31131729174E+03  0.31131729174E+03  0.00000000000E+00 0.  1.
         21    1    1    2  503  501 -0.54088432540E+02  0.45428497849E+02 -0.27589828596E+02  0.75832088152E+02  0.00000000000E+00 0. -1.
         21    1    1    2  504  502  0.39279308517E+02 -0.48407417928E+01  0.12395418137E+03  0.13011892997E+03  0.00000000000E+00 0. -1.
         21    1    1    2  505  504  0.11503566423E+02 -0.10802249744E+03 -0.78224135110E+00  0.10863610769E+03  0.00000000000E+00 0. -1.
         -1    1    1    2    0  505  0.33055576011E+01  0.67434741381E+02 -0.19616805868E+03  0.20746151041E+03  0.00000000000E+00 0.  1.
<scales pt_clust_3="61.38436" pt_clust_4="39.57647" pt_clust_5="14000.00000" pt_clust_6="71.30724"></scales>
<clustering>
<clus scale="   39.576">  1  4  2 -1</clus>
<clus scale="   61.384">  1  3  2 -1</clus>
<clus scale="   71.307">  2  6  1 -1</clus>
<clus scale="   39.576">  1  3  2 -1</clus>
</clustering>
</event>
<event>
 6    0  0.4796958E+002  0.1001779E+03  0.7546771E-02  0.1279922E+00
          1   -1    0    0  504    0 -0.00000000000E+00  0.00000000000E+00  0.43387461673E+03  0.43387461673E+03  0.00000000000E+00 0.  1.
         21   -1    0    0  501  502  0.00000000000E+00 -0.00000000000E+00 -0.83631164103E+03  0.83631164103E+03  0.00000000000E+00 0. -1.
         21    1    1    2  503  505 -0.21585873316E+01  0.77779500362E+02 -0.64695933986E+02  0.10119226280E+03  0.00000000000E+00 0. -1.
         21    1    1    2  504  503 -0.62675426353E+01  0.47656992013E+02 -0.12501719163E+03  0.13393942356E+03  0.00000000000E+00 0. -1.
         21    1    1    2  505  502  0.36740836608E+02 -0.10010004430E+03 -0.61843904915E+03  0.62756415246E+03  0.00000000000E+00 0. -1.
          1    1    1    2  501    0 -0.28314706641E+02 -0.25336448080E+02  0.40571515047E+03  0.40749041894E+03  0.00000000000E+00 0.  1.
<scales pt_clust_3="100.17791" pt_clust_4="44.85675" pt_clust_5="14000.00000" pt_clust_6="37.99550"></scales>
<clustering>
<clus scale="   37.996">  1  6  2 -1</clus>
<clus scale="   44.857">  1  4  2 -1</clus>
<clus scale="  100.178">  1  3  2 -1</clus>
<clus scale="  100.178">  2  3  1 -1</clus>
</clustering>
</event>
<event>
 6    0  0.5248002E+002  0.1175734E+03  0.7546771E-02  0.1247155E+00
         21   -1    0    0  501  502  0.00000000000E+00  0.00000000000E+00  0.39569058538E+03  0.39569058538E+03  0.00000000000E+00 0.  1.
          1   -1    0    0  503    0 -0.00000000000E+00 -0.00000000000E+00 -0.14153683268E+04  0.14153683268E+04  0.00000000000E+00 0.  1.
         21    1    1    2  503  504 -0.47056984888E+02  0.66537231256E+02 -0.31348959081E+03  0.32390938010E+03  0.00000000000E+00 0. -1.
         21    1    1    2  504  505  0.41592585378E+02 -0.74433552913E+02  0.94106162933E+02  0.12698923915E+03  0.00000000000E+00 0.  1.
         21    1    1    2  505  502  0.11144874294E+02 -0.38195644694E+02  0.27801683159E+03  0.28084955785E+03  0.00000000000E+00 0.  1.
          1    1    1    2  501    0 -0.56804747838E+01  0.46091966352E+02 -0.10783111451E+04  0.10793107351E+04  0.00000000000E+00 0.  1.
<scales pt_clust_3="117.57340" pt_clust_4="14000.00000" pt_clust_5="39.78838" pt_clust_6="46.27186"></scales>
<clustering>
<clus scale="   39.788">  1  5  2 -1</clus>
<clus scale="   46.272">  2  6  1 -1</clus>
<clus scale="  117.573">  2  3  1 -1</clus>
<clus scale="   39.788">  1  3  2 -1</clus>
</clustering>
</event>
<event>
 6    0  0.4796958E+002  0.1499531E+03  0.7546771E-02  0.1200531E+00
          2   -1    0    0  505    0 -0.00000000000E+00  0.00000000000E+00  0.18203108997E+04  0.18203108997E+04  0.00000000000E+00 0.  1.
         21   -1    0    0  501  502  0.00000000000E+00 -0.00000000000E+00 -0.28147073639E+03  0.28147073639E+03  0.00000000000E+00 0.  1.
         21    1    1    2  503  502 -0.30744834918E+02 -0.64038168145E-01 -0.16414043251E+03  0.16699500160E+03  0.00000000000E+00 0.  1.
         21    1    1    2  504  503 -0.19133154531E+02 -0.33725107006E+02 -0.95850749253E+02  0.10339645341E+03  0.00000000000E+00 0.  1.
         21    1    1    2  505  504  0.41322230340E+02  0.15638862695E+03  0.14937894614E+04  0.15025218415E+04  0.00000000000E+00 0.  1.
          2    1    1    2  501    0  0.85557591084E+01 -0.12259948177E+03  0.30504188371E+03  0.32886833955E+03  0.00000000000E+00 0.  1.
<scales pt_clust_3="30.74490" pt_clust_4="56.71667" pt_clust_5="149.95314" pt_clust_6="14000.00000"></scales>
<clustering>
<clus scale="   30.745">  2  3  1 -1</clus>
<clus scale="   56.717">  2  4  1 -1</clus>
<clus scale="  149.953">  1  5  2 -1</clus>
<clus scale="   30.745">  2  3  1 -1</clus>
</clustering>
</event>
<event>
 6    0  0.4796958E+002  0.1178818E+03  0.7546771E-02  0.1246633E+00
          2   -1    0    0  502    0 -0.00000000000E+00  0.00000000000E+00  0.27216606534E+04  0.27216606534E+04  0.00000000000E+00 0.  1.
         21   -1    0    0  503  502  0.00000000000E+00 -0.00000000000E+00 -0.16802365789E+03  0.16802365789E+03  0.00000000000E+00 0. -1.
         21    1    1    2  503  504 -0.17350553933E+02  0.10586054366E+03 -0.12199118381E+03  0.16244797738E+03  0.00000000000E+00 0. -1.
         21    1    1    2  504  505  0.28056490786E+02 -0.60176929368E+02  0.56787700838E+02  0.87368601167E+02  0.00000000000E+00 0. -1.
         21    1    1    2  505  501  0.52323377223E+02 -0.11775797892E+02  0.61804523976E+02  0.81830339141E+02  0.00000000000E+00 0. -1.
          2    1    1    2  501    0 -0.63029314077E+02 -0.33907816399E+02  0.25570359545E+04  0.25580373936E+04  0.00000000000E+00 0.  1.
<scales pt_clust_3="104.73808" pt_clust_4="48.61634" pt_clust_5="48.61634" pt_clust_6="71.57118"></scales>
<clustering>
<clus scale="   48.616">  4  5 -1 -1</clus>
<clus scale="   71.571">  1  6  2 -1</clus>
<clus scale="  104.738">  2  3  1 -1</clus>
<clus scale="  104.738">  2  3  1 -1</clus>
</clustering>
</event>
<event>
 6    0  0.4796958E+002  0.1943896E+03  0.7546771E-02  0.1154561E+00
         21   -1    0    0  501  502  0.00000000000E+00  0.00000000000E+00  0.62703826037E+02  0.62703826037E+02  0.00000000000E+00 0. -1.
          2   -1    0    0  505    0 -0.00000000000E+00 -0.00000000000E+00 -0.42377273196E+04  0.42377273196E+04  0.00000000000E+00 0. -1.
         21    1    1    2  503  502 -0.13249699298E+02 -0.31392680636E+02  0.81192773749E+01  0.35028239951E+02  0.00000000000E+00 0. -1.
         21    1    1    2  504  503  0.21731599881E+03  0.42734728487E+02 -0.32570344212E+03  0.39387210179E+03  0.00000000000E+00 0. -1.
         21    1    1    2  505  504 -0.15709101818E+03  0.13591486369E+02 -0.90642392509E+03  0.92003622128E+03  0.00000000000E+00 0. -1.
          2    1    1    2  501    0 -0.46975281332E+02 -0.24933534220E+02 -0.29510154038E+04  0.29514945826E+04  0.00000000000E+00 0. -1.
<scales pt_clust_3="34.07426" pt_clust_4="14000.00000" pt_clust_5="194.38955" pt_clust_6="53.33637"></scales>
<clustering>
<clus scale="   34.074">  1  3  2 -1</clus>
<clus scale="   53.336">  2  6  1 -1</clus>
<clus scale="  194.390">  2  5  1 -1</clus>
<clus scale="   34.074">  1  3  2 -1</clus>
</clustering>
</event>
<event>
 6    0  0.4796958E+002  0.1384970E+03  0.7546771E-02  0.1215366E+00
         21   -1    0    0  504  502  0.00000000000E+00  0.00000000000E+00  0.25439710284E+03  0.25439710284E+03  0.00000000000E+00 0. -1.
          2   -1    0    0  503    0 -0.00000000000E+00 -0.00000000000E+00 -0.13148505988E+04  0.13148505988E+04  0.00000000000E+00 0. -1.
         21    1    1    2  503  502 -0.27014678452E+00  0.12647262677E+03 -0.88620240630E+03  0.89518160349E+03  0.00000000000E+00 0. -1.
         21    1    1    2  504  505  0.69760823423E+02 -0.45237868680E+02  0.16418463303E+03  0.18403703695E+03  0.00000000000E+00 0. -1.
         21    1    1    2  505  501  0.26432727911E+01 -0.84854273556E+02  0.47576738555E+02  0.97317936082E+02  0.00000000000E+00 0. -1.
          2    1    1    2  501    0 -0.72133949429E+02  0.36195154631E+01 -0.38601246124E+03  0.39271112511E+03  0.00000000000E+00 0. -1.
<scales pt_clust_3="14000.00000" pt_clust_4="82.47534" pt_clust_5="138.49703" pt_clust_6="72.22470"></scales>
<clustering>
<clus scale="   72.225">  2  6  1 -1</clus>
<clus scale="   82.475">  1  4  2 -1</clus>
<clus scale="  138.497">  1  5  2 -1</clus>
<clus scale="   82.475">  1  3  2 -1</clus>
</clustering>
</event>
<event>
 6    0  0.4796958E+002  0.8991558E+02  0.7546771E-02  0.1303056E+00
          1   -1    0    0  503    0 -0.00000000000E+00  0.00000000000E+00  0.20615614963E+03  0.20615614963E+03  0.00000000000E+00 0. -1.
         21   -1    0    0  505  502  0.00000000000E+00 -0.00000000000E+00 -0.92142718046E+03  0.92142718046E+03  0.00000000000E+00 0. -1.
         21    1    1    2  503  504  0.23533933478E+02  0.76303596382E+02 -0.11876881051E+03  0.14311574056E+03  0.00000000000E+00 0.  1.
         21    1    1    2  504  502 -0.12123535911E+02 -0.41888350341E+02 -0.52815204197E+02  0.68491311943E+02  0.00000000000E+00 0.  1.
         21    1    1    2  505  501 -0.41214815182E+02  0.52675990928E+02 -0.71679899892E+03  0.71991265155E+03  0.00000000000E+00 0. -1.
          1    1    1    2  501    0  0.29804417615E+02 -0.87091236968E+02  0.17311198279E+03  0.19606362603E+03  0.00000000000E+00 0. -1.
<scales pt_clust_3="89.91558" pt_clust_4="43.60750" pt_clust_5="54.30431" pt_clust_6="14000.00000"></scales>
<clustering>
<clus scale="   43.607">  2  4  1 -1</clus>
<clus scale="   54.304">  2  5  1 -1</clus>
<clus scale="   89.916">  2  3  1 -1</clus>
<clus scale="   43.607">  2  3  1 -1</clus>
</clustering>
</event>
<event>
 6    0  0.4796958E+002  0.8785322E+02  0.7546771E-02  0.1308135E+00
          2   -1    0    0  503    0 -0.00000000000E+00  0.00000000000E+00  0.14462668770E+03  0.14462668770E+03  0.00000000000E+00 0.  1.
         21   -1    0    0  504  502  0.00000000000E+00 -0.00000000000E+00 -0.40356924144E+03  0.40356924144E+03  0.00000000000E+00 0.  1.
         21    1    1    2  503  502  0.10467933206E+03  0.48069456477E+02 -0.23035555402E+03  0.25755022127E+03  0.00000000000E+00 0.  1.
         21    1    1    2  504  505 -0.91345751535E+01 -0.42601463709E+02 -0.13240665201E+03  0.13939098489E+03  0.00000000000E+00 0.  1.
         21    1    1    2  505  501 -0.56107896410E+02 -0.11690487605E+02  0.24253072834E+02  0.62233231331E+02  0.00000000000E+00 0.  1.
          2    1    1    2  501    0 -0.39436860499E+02  0.62224948371E+01  0.79566579463E+02  0.89021491649E+02  0.00000000000E+00 0.  1.
<scales pt_clust_3="87.85322" pt_clust_4="43.75706" pt_clust_5="14000.00000" pt_clust_6="39.92475"></scales>
<clustering>
<clus scale="   39.925">  1  6  2 -1</clus>
<clus scale="   43.757">  2  4  1 -1</clus>
<clus scale="   87.853">  2  3  1 -1</clus>
<clus scale="   43.757">  2  3  1 -1</clus>
</clustering>
</event>
<event>
 6    0  0.4796958E+002  0.1074802E+03  0.7546771E-02  0.1265309E+00
          2   -1    0    0  503    0 -0.00000000000E+00  0.00000000000E+00  0.67575736647E+03  0.67575736647E+03  0.00000000000E+00 0.  1.
         21   -1    0    0  505  502  0.00000000000E+00 -0.00000000000E+00 -0.10847568713E+03  0.10847568713E+03  0.00000000000E+00 0. -1.
         21    1    1    2  503  502 -0.46797643235E+02 -0.17288820984E+02 -0.71893819253E+02  0.87507965295E+02  0.00000000000E+00 0. -1.
         21    1    1    2  504  501  0.43648858332E+01 -0.34918305120E+02  0.21241999287E+02  0.41104291680E+02  0.00000000000E+00 0. -1.
         21    1    1    2  505  504  0.60298086929E+02 -0.44706974796E+02  0.83929780675E+02  0.11260009310E+03  0.00000000000E+00 0. -1.
          2    1    1    2  501    0 -0.17865329527E+02  0.96914100901E+02  0.53400371863E+03  0.54302070353E+03  0.00000000000E+00 0.  1.
<scales pt_clust_3="49.88910" pt_clust_4="30.94357" pt_clust_5="30.94357" pt_clust_6="97.51694"></scales>
<clustering>
<clus scale="   30.944">  4  5 -1 -1</clus>
<clus scale="   49.889">  2  3  1 -1</clus>
<clus scale="   97.517">  1  6  2 -1</clus>
<clus scale="   49.889">  2  3  1 -1</clus>
</clustering>
</event>
<event>
 6    0  0.4796958E+002  0.1195912E+03  0.7546771E-02  0.1243773E+00
         21   -1    0    0  505  502  0.00000000000E+00  0.00000000000E+00  0.59076519893E+02  0.59076519893E+02  0.00000000000E+00 0. -1.
          2   -1    0    0  503    0 -0.00000000000E+00 -0.00000000000E+00 -0.26482929230E+04  0.26482929230E+04  0.00000000000E+00 0. -1.
         21    1    1    2  503  502  0.97794198415E+02 -0.55531121954E+02 -0.17779099947E+03  0.21037359682E+03  0.00000000000E+00 0. -1.
         21    1    1    2  504  501 -0.45237396783E+02  0.70486418815E+02 -0.89531964417E+03  0.89922857080E+03  0.00000000000E+00 0. -1.
         21    1    1    2  505  504  0.36182239810E+01 -0.38639343607E+02  0.30871210484E+02  0.49589535750E+02  0.00000000000E+00 0. -1.
          2    1    1    2  501    0 -0.56175025613E+02  0.23684046746E+02 -0.15469769699E+04  0.15481777395E+04  0.00000000000E+00 0. -1.
<scales pt_clust_3="119.59119" pt_clust_4="14000.00000" pt_clust_5="38.80838" pt_clust_6="60.38906"></scales>
<clustering>
<clus scale="   38.808">  1  5  2 -1</clus>
<clus scale="   60.389">  2  6  1 -1</clus>
<clus scale="  119.591">  1  3  2 -1</clus>
<clus scale="   38.808">  1  3  2 -1</clus>
</clustering>
</event>
<event>
 6    0  0.4796958E+002  0.2451857E+03  0.7546771E-02  0.1116386E+00
         -4   -1    0    0    0  501 -0.00000000000E+00  0.00000000000E+00  0.59227462263E+03  0.59227462263E+03  0.00000000000E+00 0.  1.
         21   -1    0    0  504  502  0.00000000000E+00 -0.00000000000E+00 -0.65775823800E+03  0.65775823800E+03  0.00000000000E+00 0.  1.
         21    1    1    2  503  505 -0.27294843477E+03 -0.28395172322E+02 -0.25432743464E+03  0.37415181125E+03  0.00000000000E+00 0.  1.
         21    1    1    2  504  503  0.22287566131E+03 -0.49365223883E+02 -0.23525336865E+03  0.32780273518E+03  0.00000000000E+00 0.  1.
         21    1    1    2  505  501  0.14906897859E+02  0.56565034921E+02 -0.47096376608E+02  0.75099184210E+02  0.00000000000E+00 0.  1.
         -4    1    1    2    0  502  0.35165875593E+02  0.21195361284E+02  0.47119356453E+03  0.47297912999E+03  0.00000000000E+00 0.  1.
<scales pt_clust_3="14000.00000" pt_clust_4="245.18570" pt_clust_5="62.01752" pt_clust_6="41.05950"></scales>
<clustering>
<clus scale="   41.059">  1  6  2 -1</clus>
<clus scale="   62.018">  1  5  2 -1</clus>
<clus scale="  245.186">  2  4  1 -1</clus>
<clus scale="  245.186">  2  3  1 -1</clus>
</clustering>
</event>
<event>
 6    0  0.4796958E+002  0.9313361E+02  0.7546771E-02  0.1295436E+00
         21   -1    0    0  504  502  0.00000000000E+00  0.00000000000E+00  0.11893461707E+02  0.11893461707E+02  0.00000000000E+00 0. -1.
          2   -1    0    0  503    0 -0.00000000000E+00 -0.00000000000E+00 -0.18231196110E+04  0.18231196110E+04  0.00000000000E+00 0. -1.
         21    1    1    2  503  505  0.54238109394E+02  0.84648298125E+02 -0.58883837308E+03  0.59735896787E+03  0.00000000000E+00 0. -1.
         21    1    1    2  504  501 -0.25204834426E+02  0.18672942248E+02 -0.10139552894E+03  0.10613677845E+03  0.00000000000E+00 0. -1.
         21    1    1    2  505  502  0.19846168881E+02 -0.98936874590E+02 -0.62379252370E+03  0.63190148615E+03  0.00000000000E+00 0. -1.
          2    1    1    2  501    0 -0.48879443849E+02 -0.43843657833E+01 -0.49719972355E+03  0.49961584022E+03  0.00000000000E+00 0. -1.
<scales pt_clust_3="14000.00000" pt_clust_4="31.36818" pt_clust_5="93.13361" pt_clust_6="52.11589"></scales>
<clustering>
<clus scale="   31.368">  1  4  2 -1</clus>
<clus scale="   52.116">  2  6  1 -1</clus>
<clus scale="   93.134">  1  5  2 -1</clus>
<clus scale="   31.368">  1  3  2 -1</clus>
</clustering>
</event>
<event>
 6    0  0.4796958E+002  0.1759338E+03  0.7546771E-02  0.1171797E+00
         21   -1    0    0  503  502  0.00000000000E+00  0.00000000000E+00  0.61483243693E+03  0.61483243693E+03  0.00000000000E+00 0. -1.
          1   -1    0    0  504    0 -0.00000000000E+00 -0.00000000000E+00 -0.11984507500E+04  0.11984507500E+04  0.00000000000E+00 0. -1.
         21    1    1    2  503  501 -0.65621389218E+02 -0.11732523729E+03  0.52011294804E+03  0.53720466933E+03  0.00000000000E+00 0. -1.
         21    1    1    2  504  505 -0.69507799517E+02 -0.18104927916E+02 -0.17676003328E+03  0.19079631017E+03  0.00000000000E+00 0. -1.
         21    1    1    2  505  502  0.23897949676E+02 -0.54249906421E+02  0.53866738021E+02  0.80098625522E+02  0.00000000000E+00 0. -1.
          1    1    1    2  501    0  0.11123123906E+03  0.18968007163E+03 -0.98083796587E+03  0.10051835819E+04  0.00000000000E+00 0. -1.
<scales pt_clust_3="14000.00000" pt_clust_4="71.70987" pt_clust_5="59.28039" pt_clust_6="175.93377"></scales>
<clustering>
<clus scale="   59.280">  1  5  2 -1</clus>
<clus scale="   71.710">  2  4  1 -1</clus>
<clus scale="  175.934">  2  6  1 -1</clus>
<clus scale="   59.280">  1  3  2 -1</clus>
</clustering>
</event>
<event>
 6    0  0.4796958E+002  0.8240523E+02  0.7546771E-02  0.1322361E+00
         21   -1    0    0  503  502  0.00000000000E+00  0.00000000000E+00  0.46596895361E+02  0.46596895361E+02  0.00000000000E+00 0. -1.
          1   -1    0    0  504    0 -0.00000000000E+00 -0.00000000000E+00 -0.53113869877E+03  0.53113869877E+03  0.00000000000E+00 0. -1.
         21    1    1    2  503  505 -0.33385572216E+02  0.73887900059E+02 -0.42976598421E+02  0.91766040664E+02  0.00000000000E+00 0. -1.
         21    1    1    2  504  502  0.93051015449E+02 -0.43854935978E+02 -0.16077337582E+03  0.19086598769E+03  0.00000000000E+00 0. -1.
         21    1    1    2  505  501 -0.44406860278E+02  0.61960455549E+01 -0.93037160507E+02  0.10327765226E+03  0.00000000000E+00 0. -1.
          1    1    1    2  501    0 -0.15258582955E+02 -0.36229009636E+02 -0.18775466866E+03  0.19182591352E+03  0.00000000000E+00 0. -1.
<scales pt_clust_3="82.40523" pt_clust_4="14000.00000" pt_clust_5="48.97689" pt_clust_6="39.31114"></scales>
<clustering>
<clus scale="   39.311">  2  6  1 -1</clus>
<clus scale="   48.977">  2  5  1 -1</clus>
<clus scale="   82.405">  1  3  2 -1</clus>
<clus scale="   82.405">  1  3  2 -1</clus>
</clustering>
</event>
<event>
 6    0  0.4796958E+002  0.1470428E+03  0.7546771E-02  0.1204155E+00
         -2   -1    0    0    0  501 -0.00000000000E+00  0.00000000000E+00  0.85082511787E+03  0.85082511787E+03  0.00000000000E+00 0.  1.
         21   -1    0    0  504  502  0.00000000000E+00 -0.00000000000E+00 -0.32094547341E+03  0.32094547341E+03  0.00000000000E+00 0. -1.
         21    1    1    2  503  502 -0.10672543179E+03  0.43604063511E+01  0.74865570715E+02  0.13043843227E+03  0.00000000000E+00 0.  1.
         21    1    1    2  504  505 -0.42564707731E+02  0.18006365351E+02 -0.24092799258E+03  0.24532077195E+03  0.00000000000E+00 0. -1.
         21    1    1    2  505  501  0.20377596529E+03  0.69640359040E+01  0.16726325763E+03  0.26372360376E+03  0.00000000000E+00 0. -1.
         -2    1    1    2    0  503 -0.54485825767E+02 -0.29330807606E+02  0.52867880871E+03  0.53228778331E+03  0.00000000000E+00 0.  1.
<scales pt_clust_3="147.04280" pt_clust_4="46.21670" pt_clust_5="14000.00000" pt_clust_6="62.55565"></scales>
<clustering>
<clus scale="   46.217">  2  4  1 -1</clus>
<clus scale="   62.556">  1  6  2 -1</clus>
<clus scale="  147.043">  2  3  1 -1</clus>
<clus scale="   46.217">  2  3  1 -1</clus>
</clustering>
</event>
<event>
 6    0  0.5427011E+002  0.9707250E+02  0.7546771E-02  0.1286575E+00
         21   -1    0    0  505  502  0.00000000000E+00  0.00000000000E+00  0.48709839086E+03  0.48709839086E+03  0.00000000000E+00 0. -1.
          2   -1    0    0  504    0 -0.00000000000E+00 -0.00000000000E+00 -0.37067090306E+04  0.37067090306E+04  0.00000000000E+00 0. -1.
         21    1    1    2  503  501  0.66645456990E+02  0.10861273884E+03 -0.22572877010E+03  0.25921385307E+03  0.00000000000E+00 0.  1.
         21    1    1    2  504  502  0.15723662368E+02 -0.40084034688E+02  0.27423827976E+02  0.51049287321E+02  0.00000000000E+00 0.  1.
         21    1    1    2  505  503  0.13538762894E+02 -0.55086198430E+02  0.42857086664E+03  0.43230865720E+03  0.00000000000E+00 0. -1.
          2    1    1    2  501    0 -0.95907882252E+02 -0.13442505723E+02 -0.34498765643E+04  0.34512356239E+04  0.00000000000E+00 0. -1.
<scales pt_clust_3="14000.00000" pt_clust_4="43.05768" pt_clust_5="97.07250" pt_clust_6="96.83019"></scales>
<clustering>
<clus scale="   43.058">  1  4  2 -1</clus>
<clus scale="   96.830">  2  6  1 -1</clus>
<clus scale="   97.072">  1  5  2 -1</clus>
<clus scale="   43.058">  1  3  2 -1</clus>
</clustering>
</event>
<event>
 6    0  0.4796958E+002  0.9453557E+02  0.7546771E-02  0.1292226E+00
         -1   -1    0    0    0  501 -0.00000000000E+00  0.00000000000E+00  0.17298417773E+03  0.17298417773E+03  0.00000000000E+00 0.  1.
         21   -1    0    0  503  502  0.00000000000E+00 -0.00000000000E+00 -0.87185241090E+03  0.87185241090E+03  0.00000000000E+00 0.  1.
         21    1    1    2  503  501  0.11535812683E+02 -0.44170993789E+02  0.30336627621E+02  0.54812978773E+02  0.00000000000E+00 0.  1.
         21    1    1    2  504  502  0.37165405091E+02  0.36578636739E+02 -0.72783653660E+03  0.72970219131E+03  0.00000000000E+00 0.  1.
         21    1    1    2  505  504 -0.11101653018E+03  0.32047355849E+02 -0.91962438503E+02  0.14767800474E+03  0.00000000000E+00 0.  1.
         -1    1    1    2    0  505  0.62315312405E+02 -0.24454998798E+02  0.90594114307E+02  0.11264341380E+03  0.00000000000E+00 0.  1.
<scales pt_clust_3="45.65251" pt_clust_4="51.98451" pt_clust_5="94.53557" pt_clust_6="14000.00000"></scales>
<clustering>
<clus scale="   45.653">  1  3  2 -1</clus>
<clus scale="   51.985">  2  4  1 -1</clus>
<clus scale="   94.536">  2  5  1 -1</clus>
<clus scale="   51.985">  2  3  1 -1</clus>
</clustering>
</event>
<event>
 6    0  0.4796958E+002  0.1005404E+03  0.7546771E-02  0.1279164E+00
          2   -1    0    0  504    0 -0.00000000000E+00  0.00000000000E+00  0.16583443538E+02  0.16583443538E+02  0.00000000000E+00 0.  1.
         21   -1    0    0  505  502  0.00000000000E+00 -0.00000000000E+00 -0.38212387955E+04  0.38212387955E+04  0.00000000000E+00 0.  1.
         21    1    1    2  503  501  0.40754044043E+00  0.78627896418E+02 -0.32258064090E+03  0.33202527323E+03  0.00000000000E+00 0.  1.
         21    1    1    2  504  502  0.39957008653E+02 -0.12727685055E+02 -0.44768300959E+03  0.44964278442E+03  0.00000000000E+00 0. -1.
         21    1    1    2  505  503  0.97335813479E+00 -0.94331350404E+02 -0.29824393053E+04  0.29839308907E+04  0.00000000000E+00 0.  1.
          2    1    1    2  501    0 -0.41337907228E+02  0.28431139041E+02 -0.51952396238E+02  0.72223290676E+02  0.00000000000E+00 0.  1.
<scales pt_clust_3="14000.00000" pt_clust_4="41.93515" pt_clust_5="100.54038" pt_clust_6="49.43287"></scales>
<clustering>
<clus scale="   41.935">  2  4  1 -1</clus>
<clus scale="   49.433">  1  6  2 -1</clus>
<clus scale="  100.540">  2  5  1 -1</clus>
<clus scale="   41.935">  2  3  1 -1</clus>
</clustering>
</event>
<event>
 6    0  0.2541963E+003  0.1474056E+03  0.7546771E-02  0.1203698E+00
          1   -1    0    0  503    0 -0.00000000000E+00  0.00000000000E+00  0.31100106600E+04  0.31100106600E+04  0.00000000000E+00 0.  1.
         21   -1    0    0  505  502  0.00000000000E+00 -0.00000000000E+00 -0.11997818790E+04  0.11997818790E+04  0.00000000000E+00 0. -1.
         21    1    1    2  503  502  0.58869097267E+02 -0.14963552489E+03 -0.11397669713E+04  0.11510539127E+04  0.00000000000E+00 0. -1.
         21    1    1    2  504  501 -0.16578492716E+03  0.54828261895E+02  0.15864678944E+03  0.23592283522E+03  0.00000000000E+00 0. -1.
         21    1    1    2  505  504  0.19825582665E+02  0.24227990968E+02  0.20818643873E+01  0.31374885397E+02  0.00000000000E+00 0.  1.
          1    1    1    2  501    0  0.87090247228E+02  0.70579272029E+02  0.28892670985E+04  0.28914409058E+04  0.00000000000E+00 0.  1.
<scales pt_clust_3="14000.00000" pt_clust_4="147.40558" pt_clust_5="31.30574" pt_clust_6="112.12693"></scales>
<clustering>
<clus scale="   31.306">  2  5  1 -1</clus>
<clus scale="  112.127">  1  6  2 -1</clus>
<clus scale="  147.406">  1  4  2 -1</clus>
<clus scale="   31.306">  2  3  1 -1</clus>
</clustering>
</event>
<event>
 6    0  0.4796958E+002  0.1455389E+03  0.7546771E-02  0.1206064E+00
         21   -1    0    0  503  502  0.00000000000E+00  0.00000000000E+00  0.21863911631E+04  0.21863911631E+04  0.00000000000E+00 0.  1.
          2   -1    0    0  502    0 -0.00000000000E+00 -0.00000000000E+00 -0.82199881940E+02  0.82199881940E+02  0.00000000000E+00 0.  1.
         21    1    1    2  503  505  0.22131556652E+02 -0.26174353225E+02  0.81192482087E+03  0.81264802794E+03  0.00000000000E+00 0.  1.
         21    1    1    2  504  501 -0.10895409834E+03  0.11678871297E+03  0.25926887252E+03  0.30451756481E+03  0.00000000000E+00 0.  1.
         21    1    1    2  505  504  0.43986719183E+02 -0.11100318588E+03  0.10788562683E+04  0.10854434055E+04  0.00000000000E+00 0.  1.
          2    1    1    2  501    0  0.42835822500E+02  0.20388826132E+02 -0.45858680563E+02  0.65982046826E+02  0.00000000000E+00 0.  1.
<scales pt_clust_3="34.27685" pt_clust_4="145.53891" pt_clust_5="14000.00000" pt_clust_6="47.50519"></scales>
<clustering>
<clus scale="   34.277">  1  3  2 -1</clus>
<clus scale="   47.505">  2  6  1 -1</clus>
<clus scale="  145.539">  2  4  1 -1</clus>
<clus scale="   34.277">  1  3  2 -1</clus>
</clustering>
</event>
<event>
 6    0  0.4796958E+002  0.7706456E+02  0.7546771E-02  0.1337594E+00
          3   -1    0    0  502    0 -0.00000000000E+00  0.00000000000E+00  0.46810862326E+03  0.46810862326E+03  0.00000000000E+00 0. -1.
         21   -1    0    0  505  502  0.00000000000E+00 -0.00000000000E+00 -0.65266170114E+03  0.65266170114E+03  0.00000000000E+00 0. -1.
         21    1    1    2  503  504  0.53290742186E+02 -0.33666881761E+01 -0.54756973717E+02  0.76482442186E+02  0.00000000000E+00 0. -1.
         21    1    1    2  504  501 -0.11793968113E+03 -0.62110748800E+02 -0.15904052035E+03  0.20751241075E+03  0.00000000000E+00 0. -1.
         21    1    1    2  505  503 -0.38993602031E+01  0.32564395666E+02 -0.39975043255E+03  0.40109357162E+03  0.00000000000E+00 0. -1.
          3    1    1    2  501    0  0.68548299143E+02  0.32913041311E+02  0.42899484874E+03  0.43568189984E+03  0.00000000000E+00 0. -1.
<scales pt_clust_3="52.52499" pt_clust_4="14000.00000" pt_clust_5="32.79703" pt_clust_6="77.06456"></scales>
<clustering>
<clus scale="   32.797">  2  5  1 -1</clus>
<clus scale="   52.525">  2  3  1 -1</clus>
<clus scale="   77.065">  1  6  2 -1</clus>
<clus scale="   32.797">  2  3  1 -1</clus>
</clustering>
</event>
<event>
 6    0  0.4796958E+002  0.1062347E+03  0.7546771E-02  0.1267706E+00
          1   -1    0    0  504    0 -0.00000000000E+00  0.00000000000E+00  0.18138487679E+04  0.18138487679E+04  0.00000000000E+00 0.  1.
         21   -1    0    0  505  502  0.00000000000E+00 -0.00000000000E+00 -0.31525481678E+03  0.31525481678E+03  0.00000000000E+00 0.  1.
         21    1    1    2  503  502 -0.44475248462E+02  0.30399552349E+02 -0.20360712864E+03  0.21061349278E+03  0.00000000000E+00 0.  1.
         21    1    1    2  504  503  0.36994353221E+02 -0.35613058915E+02  0.51062854864E+02  0.72417451504E+02  0.00000000000E+00 0. -1.
         21    1    1    2  505  501 -0.64667778280E+02 -0.50093968716E+02 -0.78898009341E+02  0.11364956281E+03  0.00000000000E+00 0.  1.
          1    1    1    2  501    0  0.72148673521E+02  0.55307475282E+02  0.17300362343E+04  0.17324230776E+04  0.00000000000E+00 0.  1.
<scales pt_clust_3="53.77065" pt_clust_4="51.35048" pt_clust_5="14000.00000" pt_clust_6="106.23465"></scales>
<clustering>
<clus scale="   51.350">  1  4  2 -1</clus>
<clus scale="   53.771">  2  3  1 -1</clus>
<clus scale="  106.235">  1  6  2 -1</clus>
<clus scale="   53.771">  2  3  1 -1</clus>
</clustering>
</event>
<event>
 6    0  0.4796958E+002  0.9259734E+02  0.7546771E-02  0.1296681E+00
          1   -1    0    0  504    0 -0.00000000000E+00  0.00000000000E+00  0.59882017403E+03  0.59882017403E+03  0.00000000000E+00 0.  1.
         21   -1    0    0  503  502  0.00000000000E+00 -0.00000000000E+00 -0.47508084611E+03  0.47508084611E+03  0.00000000000E+00 0. -1.
         21    1    1    2  503  501  0.32632996170E+02 -0.37038725557E+02 -0.85282828644E+01  0.50095022093E+02  0.00000000000E+00 0.  1.
         21    1    1    2  504  505 -0.71944541257E+02  0.52910484006E+00 -0.20693321549E+03  0.21908366585E+03  0.00000000000E+00 0. -1.
         21    1    1    2  505  502 -0.38155226642E+02  0.34919047294E+02 -0.22721698345E+03  0.23302943752E+03  0.00000000000E+00 0. -1.
          1    1    1    2  501    0  0.77466771729E+02  0.15905734228E+01  0.56641780972E+03  0.57169289467E+03  0.00000000000E+00 0.  1.
<scales pt_clust_3="49.36375" pt_clust_4="42.74285" pt_clust_5="42.74285" pt_clust_6="77.67196"></scales>
<clustering>
<clus scale="   42.743">  4  5 -1 -1</clus>
<clus scale="   49.364">  2  3  1 -1</clus>
<clus scale="   77.672">  1  6  2 -1</clus>
<clus scale="   49.364">  2  3  1 -1</clus>
</clustering>
</event>
<event>
 6    0  0.4796958E+002  0.1208663E+03  0.7546771E-02  0.1241675E+00
          1   -1    0    0  503    0 -0.00000000000E+00  0.00000000000E+00  0.22045057094E+04  0.22045057094E+04  0.00000000000E+00 0.  1.
         21   -1    0    0  505  502  0.00000000000E+00 -0.00000000000E+00 -0.72920680033E+02  0.72920680033E+02  0.00000000000E+00 0.  1.
         21    1    1    2  503  502  0.14051586183E+03 -0.14854076741E+02  0.33029982174E+03  0.35925384238E+03  0.00000000000E+00 0.  1.
         21    1    1    2  504  501 -0.34882968073E+02 -0.28827919145E+02  0.82022352232E+02  0.93677834355E+02  0.00000000000E+00 0.  1.
         21    1    1    2  505  504  0.12516054510E+02  0.42890018515E+02 -0.40779476084E+02  0.60491081809E+02  0.00000000000E+00 0.  1.
          1    1    1    2  501    0 -0.11814894826E+03  0.79197737101E+00  0.17600423315E+04  0.17640036309E+04  0.00000000000E+00 0.  1.
<scales pt_clust_3="14000.00000" pt_clust_4="36.18523" pt_clust_5="44.67891" pt_clust_6="120.86630"></scales>
<clustering>
<clus scale="   44.679">  2  5  1 -1</clus>
<clus scale="   36.185">  2  4  1 -1</clus>
<clus scale="  120.866">  1  6  2 -1</clus>
<clus scale="   44.679">  2  3  1 -1</clus>
</clustering>
</event>
<event>
 6    0  0.4796958E+002  0.6212283E+02  0.7546771E-02  0.1389133E+00
          2   -1    0    0  505    0 -0.00000000000E+00  0.00000000000E+00  0.17389710902E+04  0.17389710902E+04  0.00000000000E+00 0.  1.
         21   -1    0    0  503  502  0.00000000000E+00 -0.00000000000E+00 -0.30733533228E+03  0.30733533228E+03  0.00000000000E+00 0.  1.
         21    1    1    2  503  501  0.88029122392E+02  0.19393770367E+02  0.19316583228E+03  0.21316257523E+03  0.00000000000E+00 0.  1.
         21    1    1    2  504  502 -0.49053311226E+02 -0.37589330927E+02 -0.28357165975E+03  0.29022761991E+03  0.00000000000E+00 0.  1.
         21    1    1    2  505  504 -0.73058635918E+02 -0.17108369534E+02  0.13068443697E+03  0.15069400338E+03  0.00000000000E+00 0.  1.
          2    1    1    2  501    0  0.34082824752E+02  0.35303930095E+02  0.13913571484E+04  0.13922222239E+04  0.00000000000E+00 0.  1.
<scales pt_clust_3="62.12283" pt_clust_4="14000.00000" pt_clust_5="59.31339" pt_clust_6="49.07144"></scales>
<clustering>
<clus scale="   49.071">  1  6  2 -1</clus>
<clus scale="   59.313">  1  5  2 -1</clus>
<clus scale="   62.123">  1  3  2 -1</clus>
<clus scale="   62.123">  2  3  1 -1</clus>
</clustering>
</event>
<event>
 6    0  0.5898575E+002  0.2404782E+03  0.7546771E-02  0.1119475E+00
          2   -1    0    0  503    0 -0.00000000000E+00  0.00000000000E+00  0.91876720785E+03  0.91876720785E+03  0.00000000000E+00 0. -1.
         21   -1    0    0  505  502  0.00000000000E+00 -0.00000000000E+00 -0.47779851944E+03  0.47779851944E+03  0.00000000000E+00 0.  1.
         21    1    1    2  503  504 -0.61300346384E+02  0.22071756779E+02  0.77742988356E+02  0.10143405322E+03  0.00000000000E+00 0. -1.
         21    1    1    2  504  502 -0.22789507355E+03 -0.67883372357E+02 -0.38956498123E+03  0.45640463560E+03  0.00000000000E+00 0.  1.
         21    1    1    2  505  501  0.28810606608E+03  0.12204340933E+02  0.45258696151E+03  0.53664607423E+03  0.00000000000E+00 0. -1.
          2    1    1    2  501    0  0.10893538563E+01  0.33607274645E+02  0.30020371977E+03  0.30208096425E+03  0.00000000000E+00 0. -1.
<scales pt_clust_3="66.81695" pt_clust_4="240.47816" pt_clust_5="14000.00000" pt_clust_6="33.62493"></scales>
<clustering>
<clus scale="   33.625">  1  6  2 -1</clus>
<clus scale="   66.817">  1  3  2 -1</clus>
<clus scale="  240.478">  2  4  1 -1</clus>
<clus scale="  240.478">  2  3  1 -1</clus>
</clustering>
</event>
<event>
 6    0  0.4796958E+002  0.1062253E+03  0.7546771E-02  0.1267724E+00
         21   -1    0    0  504  502  0.00000000000E+00  0.00000000000E+00  0.63120988989E+03  0.63120988989E+03  0.00000000000E+00 0. -1.
         -2   -1    0    0    0  501 -0.00000000000E+00 -0.00000000000E+00 -0.42267676204E+02  0.42267676204E+02  0.00000000000E+00 0. -1.
         21    1    1    2  503  501  0.34693220173E+02  0.17029174312E+02  0.13762799902E+03  0.14295131485E+03  0.00000000000E+00 0. -1.
         21    1    1    2  504  505 -0.96934369192E+02  0.17084439957E+02  0.20366529273E+03  0.22620278840E+03  0.00000000000E+00 0. -1.
         21    1    1    2  505  503  0.39595335835E+02  0.64206872121E+02  0.11781682754E+03  0.13989681161E+03  0.00000000000E+00 0. -1.
         -2    1    1    2    0  502  0.22645813184E+02 -0.98320486390E+02  0.12983209441E+03  0.16442665124E+03  0.00000000000E+00 0. -1.
<scales pt_clust_3="36.72773" pt_clust_4="98.42840" pt_clust_5="36.72773" pt_clust_6="93.01019"></scales>
<clustering>
<clus scale="   36.728">  3  5 -1 -1</clus>
<clus scale="   98.428">  1  4  2 -1</clus>
<clus scale="   93.010">  2  6  1 -1</clus>
<clus scale="   98.428">  1  3  2 -1</clus>
</clustering>
</event>
<event>
 6    0  0.4796958E+002  0.1214541E+03  0.7546771E-02  0.1240717E+00
         21   -1    0    0  505  502  0.00000000000E+00  0.00000000000E+00  0.17857807059E+04  0.17857807059E+04  0.00000000000E+00 0.  1.
          2   -1    0    0  503    0 -0.00000000000E+00 -0.00000000000E+00 -0.10886255150E+04  0.10886255150E+04  0.00000000000E+00 0. -1.
         21    1    1    2  503  502  0.48630176329E+02  0.26662911431E+02  0.22680500895E+03  0.23348729511E+03  0.00000000000E+00 0. -1.
         21    1    1    2  504  501  0.79688437472E+02 -0.36538622727E+02 -0.61005463056E+01  0.87877953337E+02  0.00000000000E+00 0. -1.
         21    1    1    2  505  504 -0.17126592300E+03 -0.58067123132E+02  0.15077789586E+04  0.15185852611E+04  0.00000000000E+00 0.  1.
          2    1    1    2  501    0  0.42947309202E+02  0.67942834429E+02 -0.10313282303E+04  0.10344557113E+04  0.00000000000E+00 0. -1.
<scales pt_clust_3="55.45994" pt_clust_4="14000.00000" pt_clust_5="121.45405" pt_clust_6="80.42726"></scales>
<clustering>
<clus scale="   55.460">  1  3  2 -1</clus>
<clus scale="   80.427">  2  6  1 -1</clus>
<clus scale="  121.454">  1  5  2 -1</clus>
<clus scale="   55.460">  1  3  2 -1</clus>
</clustering>
</event>
<event>
 6    0  0.4796958E+002  0.1145525E+03  0.7546771E-02  0.1252364E+00
         21   -1    0    0  504  502  0.00000000000E+00  0.00000000000E+00  0.41277961002E+02  0.41277961002E+02  0.00000000000E+00 0. -1.
         -1   -1    0    0    0  501 -0.00000000000E+00 -0.00000000000E+00 -0.20469266218E+04  0.20469266218E+04  0.00000000000E+00 0. -1.
         21    1    1    2  503  501 -0.15671371468E+02 -0.26378675327E+02 -0.14867809349E+03  0.15181107298E+03  0.00000000000E+00 0.  1.
         21    1    1    2  504  503  0.43202775588E+02  0.45756071592E+02 -0.14108284053E+03  0.15448127977E+03  0.00000000000E+00 0. -1.
         21    1    1    2  505  502  0.70502180483E+02 -0.20367977054E+00 -0.78298532545E+01  0.70935925596E+02  0.00000000000E+00 0. -1.
         -1    1    1    2    0  505 -0.98033584603E+02 -0.19173716494E+02 -0.17080578735E+04  0.17109763045E+04  0.00000000000E+00 0. -1.
<scales pt_clust_3="30.68267" pt_clust_4="60.59885" pt_clust_5="14000.00000" pt_clust_6="114.55255"></scales>
<clustering>
<clus scale="   30.683">  2  3  1 -1</clus>
<clus scale="   60.599">  1  4  2 -1</clus>
<clus scale="  114.553">  2  6  1 -1</clus>
<clus scale="   60.599">  1  3  2 -1</clus>
</clustering>
</event>
<event>
 6    0  0.4796958E+002  0.7498390E+02  0.7546771E-02  0.1343921E+00
          1   -1    0    0  504    0 -0.00000000000E+00  0.00000000000E+00  0.10296824093E+04  0.10296824093E+04  0.00000000000E+00 0.  1.
         21   -1    0    0  503  502  0.00000000000E+00 -0.00000000000E+00 -0.23789482771E+04  0.23789482771E+04  0.00000000000E+00 0. -1.
         21    1    1    2  503  505 -0.69364926553E+02  0.28374617222E+02 -0.23388470609E+04  0.23400474752E+04  0.00000000000E+00 0. -1.
         21    1    1    2  504  502  0.11246526480E+03  0.37624931208E+02  0.20994438993E+03  0.24112386463E+03  0.00000000000E+00 0.  1.
         21    1    1    2  505  501 -0.83119514741E+01 -0.55546635576E+02  0.10100366095E+02  0.57066055202E+02  0.00000000000E+00 0. -1.
          1    1    1    2  501    0 -0.34788386770E+02 -0.10452912854E+02  0.76953643712E+03  0.77039329131E+03  0.00000000000E+00 0.  1.
<scales pt_clust_3="14000.00000" pt_clust_4="74.98390" pt_clust_5="58.32253" pt_clust_6="36.32486"></scales>
<clustering>
<clus scale="   36.325">  1  6  2 -1</clus>
<clus scale="   58.323">  1  5  2 -1</clus>
<clus scale="   74.984">  1  4  2 -1</clus>
<clus scale="   74.984">  2  3  1 -1</clus>
</clustering>
</event>
<event>
 6    0  0.4796958E+002  0.1153576E+03  0.7546771E-02  0.1250958E+00
         -2   -1    0    0    0  501 -0.00000000000E+00  0.00000000000E+00  0.38110248428E+03  0.38110248428E+03  0.00000000000E+00 0.  1.
         21   -1    0    0  505  502  0.00000000000E+00 -0.00000000000E+00 -0.78712435743E+03  0.78712435743E+03  0.00000000000E+00 0. -1.
         21    1    1    2  503  504  0.61112904617E+02  0.10632720900E+03  0.97035934404E+02  0.15638489393E+03  0.00000000000E+00 0.  1.
         21    1    1    2  504  502 -0.37445136264E+02 -0.10105106090E+03 -0.29390992795E+02  0.11170177079E+03  0.00000000000E+00 0.  1.
         21    1    1    2  505  501 -0.60503530526E+02  0.24691109120E+02 -0.68268009521E+03  0.68580058361E+03  0.00000000000E+00 0. -1.
         -2    1    1    2    0  503  0.36835762173E+02 -0.29967257219E+02  0.20901328046E+03  0.21433959338E+03  0.00000000000E+00 0.  1.
<scales pt_clust_3="115.35762" pt_clust_4="14000.00000" pt_clust_5="64.92953" pt_clust_6="47.48589"></scales>
<clustering>
<clus scale="   47.486">  1  6  2 -1</clus>
<clus scale="   64.930">  2  5  1 -1</clus>
<clus scale="  115.358">  1  3  2 -1</clus>
<clus scale="   64.930">  2  3  1 -1</clus>
</clustering>
</event>
<event>
 6    0  0.4796958E+002  0.9780918E+02  0.7546771E-02  0.1284972E+00
         21   -1    0    0  503  502  0.00000000000E+00  0.00000000000E+00  0.26193637481E+04  0.26193637481E+04  0.00000000000E+00 0.  1.
         -2   -1    0    0    0  501 -0.00000000000E+00 -0.00000000000E+00 -0.76690817469E+03  0.76690817469E+03  0.00000000000E+00 0. -1.
         21    1    1    2  503  501 -0.31943967172E+02 -0.14410639199E+02  0.60867607444E+02  0.70234957085E+02  0.00000000000E+00 0.  1.
         21    1    1    2  504  502 -0.56886003784E+02  0.13421435317E+02  0.16009341776E+04  0.16020007470E+04  0.00000000000E+00 0.  1.
         21    1    1    2  505  504  0.13510549151E+03  0.22927323623E+02  0.94654437095E+03  0.95641277813E+03  0.00000000000E+00 0.  1.
         -2    1    1    2    0  505 -0.46275520550E+02 -0.21938119741E+02 -0.75589058258E+03  0.75762344059E+03  0.00000000000E+00 0. -1.
<scales pt_clust_3="35.04402" pt_clust_4="97.80918" pt_clust_5="14000.00000" pt_clust_6="51.22424"></scales>
<clustering>
<clus scale="   35.044">  1  3  2 -1</clus>
<clus scale="   51.224">  2  6  1 -1</clus>
<clus scale="   97.809">  1  4  2 -1</clus>
<clus scale="   35.044">  1  3  2 -1</clus>
</clustering>
</event>
<event>
 6    0  0.4796958E+002  0.8501090E+02  0.7546771E-02  0.1315404E+00
         21   -1    0    0  504  502  0.00000000000E+00  0.00000000000E+00  0.22994038125E+03  0.22994038125E+03  0.00000000000E+00 0. -1.
          2   -1    0    0  505    0 -0.00000000000E+00 -0.00000000000E+00 -0.22417479250E+04  0.22417479250E+04  0.00000000000E+00 0.  1.
         21    1    1    2  503  502  0.31853347118E+02 -0.15225417291E+02  0.11424079181E+03  0.11957176744E+03  0.00000000000E+00 0. -1.
         21    1    1    2  504  501  0.61301416718E+02 -0.30454883729E+02  0.39992580052E+02  0.79276541888E+02  0.00000000000E+00 0. -1.
         21    1    1    2  505  503 -0.51381864341E+02  0.95644527666E+02 -0.27892750311E+01  0.10860824882E+03  0.00000000000E+00 0. -1.
          2    1    1    2  501    0 -0.41772899495E+02 -0.49964226646E+02 -0.21632516406E+04  0.21642317481E+04  0.00000000000E+00 0.  1.
<scales pt_clust_3="35.30509" pt_clust_4="14000.00000" pt_clust_5="85.01090" pt_clust_6="65.08826"></scales>
<clustering>
<clus scale="   35.305">  1  3  2 -1</clus>
<clus scale="   65.088">  2  6  1 -1</clus>
<clus scale="   85.011">  2  5  1 -1</clus>
<clus scale="   35.305">  1  3  2 -1</clus>
</clustering>
</event>
<event>
 6    0  0.4796958E+002  0.1506704E+03  0.7546771E-02  0.1199652E+00
         -1   -1    0    0    0  501 -0.00000000000E+00  0.00000000000E+00  0.22394312726E+04  0.22394312726E+04  0.00000000000E+00 0. -1.
         21   -1    0    0  505  502  0.00000000000E+00 -0.00000000000E+00 -0.74847943185E+02  0.74847943185E+02  0.00000000000E+00 0.  1.
         21    1    1    2  503  502 -0.29842617021E+02 -0.26500191312E+02 -0.29460087654E+02  0.49605833274E+02  0.00000000000E+00 0.  1.
         21    1    1    2  504  503 -0.21569375063E+02 -0.72708450116E+02  0.85325416448E+02  0.11415858860E+03  0.00000000000E+00 0.  1.
         21    1    1    2  505  501 -0.35773669717E+02  0.21138471084E+03  0.64027673902E+03  0.67521667186E+03  0.00000000000E+00 0. -1.
         -1    1    1    2    0  504  0.87185661800E+02 -0.11217606941E+03  0.14684412616E+04  0.14752981221E+04  0.00000000000E+00 0. -1.
<scales pt_clust_3="39.91042" pt_clust_4="90.08822" pt_clust_5="150.67039" pt_clust_6="14000.00000"></scales>
<clustering>
<clus scale="   39.910">  2  3  1 -1</clus>
<clus scale="   90.088">  2  4  1 -1</clus>
<clus scale="  150.670">  2  5  1 -1</clus>
<clus scale="   39.910">  2  3  1 -1</clus>
</clustering>
</event>
<event>
 6    0  0.4796958E+002  0.1017132E+03  0.7546771E-02  0.1276734E+00
         21   -1    0    0  504  502  0.00000000000E+00  0.00000000000E+00  0.94448597676E+03  0.94448597676E+03  0.00000000000E+00 0.  1.
          2   -1    0    0  503    0 -0.00000000000E+00 -0.00000000000E+00 -0.52507730565E+03  0.52507730565E+03  0.00000000000E+00 0.  1.
         21    1    1    2  503  502 -0.61247151539E+02  0.54845959337E+02  0.52502252731E+02  0.97548856319E+02  0.00000000000E+00 0. -1.
         21    1    1    2  504  505 -0.64432707618E+01 -0.10898843812E+03  0.84399349095E+03  0.85102585634E+03  0.00000000000E+00 0.  1.
         21    1    1    2  505  501  0.80191681302E+02 -0.33361708874E+01 -0.61121401428E+02  0.10088439671E+03  0.00000000000E+00 0.  1.
          2    1    1    2  501    0 -0.12501259001E+02  0.57478649669E+02 -0.41596567115E+03  0.42010417305E+03  0.00000000000E+00 0.  1.
<scales pt_clust_3="14000.00000" pt_clust_4="101.71320" pt_clust_5="81.33742" pt_clust_6="58.82242"></scales>
<clustering>
<clus scale="   58.822">  2  6  1 -1</clus>
<clus scale="   81.337">  2  5  1 -1</clus>
<clus scale="  101.713">  1  4  2 -1</clus>
<clus scale="  101.713">  1  3  2 -1</clus>
</clustering>
</event>
<event>
 6    0  0.4796958E+002  0.1535420E+03  0.7546771E-02  0.1196187E+00
         21   -1    0    0  505  502  0.00000000000E+00  0.00000000000E+00  0.43381683675E+03  0.43381683675E+03  0.00000000000E+00 0. -1.
          4   -1    0    0  504    0 -0.00000000000E+00 -0.00000000000E+00 -0.17872471483E+03  0.17872471483E+03  0.00000000000E+00 0.  1.
         21    1    1    2  503  501 -0.65704623297E+02 -0.75550379006E+02 -0.44290665226E+02  0.10948342485E+03  0.00000000000E+00 0.  1.
         21    1    1    2  504  502  0.10807434867E+03  0.77339838329E+02  0.16392291441E+03  0.21102662700E+03  0.00000000000E+00 0.  1.
         21    1    1    2  505  503 -0.10009791838E+02  0.31856748265E+02  0.20531559424E+03  0.20801332068E+03  0.00000000000E+00 0. -1.
          4    1    1    2  501    0 -0.32359933539E+02 -0.33646207588E+02 -0.69855721501E+02  0.84018179046E+02  0.00000000000E+00 0.  1.
<scales pt_clust_3="36.85444" pt_clust_4="143.88272" pt_clust_5="33.39234" pt_clust_6="36.85444"></scales>
<clustering>
<clus scale="   33.392">  1  5  2 -1</clus>
<clus scale="   36.854">  3  6 -1 -1</clus>
<clus scale="  143.883">  1  4  2 -1</clus>
<clus scale="   33.392">  1  3  2 -1</clus>
</clustering>
</event>
<event>
 6    0  0.4796958E+002  0.7609502E+02  0.7546771E-02  0.1340513E+00
         21   -1    0    0  504  502  0.00000000000E+00  0.00000000000E+00  0.32338532526E+02  0.32338532526E+02  0.00000000000E+00 0.  1.
          2   -1    0    0  505    0 -0.00000000000E+00 -0.00000000000E+00 -0.86962588946E+03  0.86962588946E+03  0.00000000000E+00 0.  1.
         21    1    1    2  503  501  0.82169991838E+02  0.53588375785E+02 -0.16662981748E+03  0.19336265837E+03  0.00000000000E+00 0.  1.
         21    1    1    2  504  503  0.11208941764E+02 -0.60647397955E+02 -0.10584312963E+03  0.12250108303E+03  0.00000000000E+00 0.  1.
         21    1    1    2  505  502 -0.70171071424E+02  0.34993625156E+02 -0.14608390918E+03  0.16579819537E+03  0.00000000000E+00 0.  1.
          2    1    1    2  501    0 -0.23207862177E+02 -0.27934602986E+02 -0.41873050064E+03  0.42030248521E+03  0.00000000000E+00 0.  1.
<scales pt_clust_3="76.09502" pt_clust_4="67.94190" pt_clust_5="14000.00000" pt_clust_6="36.31731"></scales>
<clustering>
<clus scale="   36.317">  2  6  1 -1</clus>
<clus scale="   67.942">  1  4  2 -1</clus>
<clus scale="   76.095">  2  3  1 -1</clus>
<clus scale="   67.942">  1  3  2 -1</clus>
</clustering>
</event>
<event>
 6    0  0.4796958E+002  0.7290608E+02  0.7546771E-02  0.1350481E+00
         21   -1    0    0  505  502  0.00000000000E+00  0.00000000000E+00  0.85672968742E+03  0.85672968742E+03  0.00000000000E+00 0.  1.
          2   -1    0    0  504    0 -0.00000000000E+00 -0.00000000000E+00 -0.99567595995E+03  0.99567595995E+03  0.00000000000E+00 0.  1.
         21    1    1    2  503  502 -0.46779878971E+02 -0.33646545660E+02  0.82601454186E+03  0.82802202294E+03  0.00000000000E+00 0.  1.
         21    1    1    2  504  503 -0.14118684407E+01  0.84459905464E+02 -0.95430023111E+02  0.12744551116E+03  0.00000000000E+00 0.  1.
         21    1    1    2  505  501 -0.19861048927E+01 -0.67685664883E+02 -0.76588274119E+02  0.10223041414E+03  0.00000000000E+00 0.  1.
          2    1    1    2  501    0  0.50177852305E+02  0.16872305079E+02 -0.79294251716E+03  0.79470769913E+03  0.00000000000E+00 0.  1.
<scales pt_clust_3="57.37182" pt_clust_4="14000.00000" pt_clust_5="72.90608" pt_clust_6="52.93856"></scales>
<clustering>
<clus scale="   52.939">  2  6  1 -1</clus>
<clus scale="   57.372">  1  3  2 -1</clus>
<clus scale="   72.906">  2  5  1 -1</clus>
<clus scale="   57.372">  1  3  2 -1</clus>
</clustering>
</event>
<event>
 6    0  0.4796958E+002  0.8700487E+02  0.7546771E-02  0.1310271E+00
         21   -1    0    0  501  502  0.00000000000E+00  0.00000000000E+00  0.27083147990E+03  0.27083147990E+03  0.00000000000E+00 0. -1.
          2   -1    0    0  504    0 -0.00000000000E+00 -0.00000000000E+00 -0.25323176006E+04  0.25323176006E+04  0.00000000000E+00 0. -1.
         21    1    1    2  503  505  0.61779954975E+02  0.23406004068E+02  0.45626458216E+02  0.80289336480E+02  0.00000000000E+00 0.  1.
         21    1    1    2  504  503  0.57099307547E+02 -0.45301444062E+02 -0.73724031843E+03  0.74083455567E+03  0.00000000000E+00 0. -1.
         21    1    1    2  505  502  0.74931950789E+01  0.31110565833E+02  0.20255875559E+03  0.20507087737E+03  0.00000000000E+00 0. -1.
          2    1    1    2  501    0 -0.12637245760E+03 -0.92151258391E+01 -0.17724310161E+04  0.17769543110E+04  0.00000000000E+00 0. -1.
<scales pt_clust_3="14000.00000" pt_clust_4="72.53033" pt_clust_5="32.00024" pt_clust_6="87.00487"></scales>
<clustering>
<clus scale="   32.000">  1  5  2 -1</clus>
<clus scale="   72.530">  2  4  1 -1</clus>
<clus scale="   87.005">  2  6  1 -1</clus>
<clus scale="   32.000">  1  3  2 -1</clus>
</clustering>
</event>
<event>
 6    0  0.4796958E+002  0.8257155E+02  0.7546771E-02  0.1321908E+00
         -1   -1    0    0    0  501 -0.00000000000E+00  0.00000000000E+00  0.11901683087E+04  0.11901683087E+04  0.00000000000E+00 0. -1.
         21   -1    0    0  504  502  0.00000000000E+00 -0.00000000000E+00 -0.51927957837E+02  0.51927957837E+02  0.00000000000E+00 0. -1.
         21    1    1    2  503  505 -0.92798778743E+02  0.46870440922E+02  0.16054158037E+03  0.19126434743E+03  0.00000000000E+00 0. -1.
         21    1    1    2  504  503  0.34075237121E+02  0.78698394882E+01 -0.23748560510E+02  0.42273517534E+02  0.00000000000E+00 0. -1.
         21    1    1    2  505  501 -0.16396831785E+02 -0.36439483360E+02  0.25416252785E+03  0.25728443910E+03  0.00000000000E+00 0. -1.
         -1    1    1    2    0  502  0.75120373408E+02 -0.18300797050E+02  0.74728480311E+03  0.75127396243E+03  0.00000000000E+00 0. -1.
<scales pt_clust_3="14000.00000" pt_clust_4="34.97222" pt_clust_5="38.28165" pt_clust_6="82.57155"></scales>
<clustering>
<clus scale="   34.972">  2  4  1 -1</clus>
<clus scale="   38.282">  1  5  2 -1</clus>
<clus scale="   82.572">  1  6  2 -1</clus>
<clus scale="   34.972">  2  3  1 -1</clus>
</clustering>
</event>
<event>
 6    0  0.4796958E+002  0.1107015E+03  0.7546771E-02  0.1259276E+00
          2   -1    0    0  505    0 -0.00000000000E+00  0.00000000000E+00  0.21130952469E+04  0.21130952469E+04  0.00000000000E+00 0. -1.
         21   -1    0    0  503  502  0.00000000000E+00 -0.00000000000E+00 -0.49484610406E+03  0.49484610406E+03  0.00000000000E+00 0.  1.
         21    1    1    2  503  501 -0.75898950754E+02  0.62628584452E+01  0.11197128838E+03  0.13541581718E+03  0.00000000000E+00 0. -1.
         21    1    1    2  504  502 -0.60961982833E+02 -0.97691089539E+01 -0.47527216057E+03  0.47926550622E+03  0.00000000000E+00 0.  1.
         21    1    1    2  505  504  0.11952643008E+03 -0.26890726093E+02  0.66169726781E+03  0.67294349901E+03  0.00000000000E+00 0. -1.
          2    1    1    2  501    0  0.17334503510E+02  0.30396976602E+02  0.13198527472E+04  0.13203165285E+04  0.00000000000E+00 0. -1.
<scales pt_clust_3="14000.00000" pt_clust_4="61.68460" pt_clust_5="110.70153" pt_clust_6="34.99230"></scales>
<clustering>
<clus scale="   34.992">  1  6  2 -1</clus>
<clus scale="   61.685">  2  4  1 -1</clus>
<clus scale="  110.702">  1  5  2 -1</clus>
<clus scale="   61.685">  2  3  1 -1</clus>
</clustering>
</event>
<event>
 6    0  0.4796958E+002  0.7929518E+02  0.7546771E-02  0.1331064E+00
         -1   -1    0    0    0  501 -0.00000000000E+00  0.00000000000E+00  0.42200414338E+03  0.42200414338E+03  0.00000000000E+00 0.  1.
         21   -1    0    0  504  502  0.00000000000E+00 -0.00000000000E+00 -0.26602681808E+03  0.26602681808E+03  0.00000000000E+00 0.  1.
         21    1    1    2  503  505 -0.38837529326E+02 -0.79285454575E+02  0.35504820369E+02  0.95158442929E+02  0.00000000000E+00 0.  1.
         21    1    1    2  504  501 -0.35019730696E+02 -0.37266468530E+02 -0.18923768991E+03  0.19602569857E+03  0.00000000000E+00 0.  1.
         21    1    1    2  505  502  0.44478770064E+02  0.44374606071E+02 -0.13594814504E+02  0.64282856438E+02  0.00000000000E+00 0.  1.
         -1    1    1    2    0  503  0.29378489957E+02  0.72177317033E+02  0.32330500934E+03  0.33256396352E+03  0.00000000000E+00 0.  1.
<scales pt_clust_3="14000.00000" pt_clust_4="51.13874" pt_clust_5="35.72268" pt_clust_6="79.29518"></scales>
<clustering>
<clus scale="   51.139">  2  4  1 -1</clus>
<clus scale="   35.723">  2  5  1 -1</clus>
<clus scale="   79.295">  1  6  2 -1</clus>
<clus scale="   51.139">  2  3  1 -1</clus>
</clustering>
</event>
<event>
 6    0  0.4796958E+002  0.2358327E+03  0.7546771E-02  0.1122601E+00
          1   -1    0    0  504    0 -0.00000000000E+00  0.00000000000E+00  0.40502734217E+03  0.40502734217E+03  0.00000000000E+00 0. -1.
         21   -1    0    0  503  502  0.00000000000E+00 -0.00000000000E+00 -0.55255340798E+03  0.55255340798E+03  0.00000000000E+00 0. -1.
         21    1    1    2  503  505 -0.30052179769E+01 -0.76835458130E+02 -0.20370397446E+03  0.21773384709E+03  0.00000000000E+00 0.  1.
         21    1    1    2  504  502  0.15626522879E+03  0.14031910642E+03  0.70445289259E+02  0.22151932677E+03  0.00000000000E+00 0. -1.
         21    1    1    2  505  501 -0.21246736716E+03 -0.79859168847E+02 -0.21241882768E+03  0.31087236498E+03  0.00000000000E+00 0. -1.
          1    1    1    2  501    0  0.59207356341E+02  0.16375520558E+02  0.19815144707E+03  0.20745521130E+03  0.00000000000E+00 0. -1.
<scales pt_clust_3="76.27334" pt_clust_4="235.83268" pt_clust_5="14000.00000" pt_clust_6="61.43019"></scales>
<clustering>
<clus scale="   61.430">  1  6  2 -1</clus>
<clus scale="   76.273">  2  3  1 -1</clus>
<clus scale="  235.833">  1  4  2 -1</clus>
<clus scale="   76.273">  2  3  1 -1</clus>
</clustering>
</event>
<event>
 6    0  0.4796958E+002  0.1416359E+03  0.7546771E-02  0.1211145E+00
          2   -1    0    0  502    0 -0.00000000000E+00  0.00000000000E+00  0.18876410948E+04  0.18876410948E+04  0.00000000000E+00 0. -1.
         21   -1    0    0  503  502  0.00000000000E+00 -0.00000000000E+00 -0.42190749622E+02  0.42190749622E+02  0.00000000000E+00 0.  1.
         21    1    1    2  503  505  0.10078677203E+03  0.73411919829E+02  0.39007291487E+03  0.40951698659E+03  0.00000000000E+00 0.  1.
         21    1    1    2  504  501 -0.92747073535E+01 -0.47379033070E+02  0.30820022839E+02  0.57277105190E+02  0.00000000000E+00 0.  1.
         21    1    1    2  505  504 -0.42840777187E+01 -0.12140053884E+03  0.21785492081E+03  0.24943378014E+03  0.00000000000E+00 0.  1.
          2    1    1    2  501    0 -0.87227986960E+02  0.95367652082E+02  0.12067024866E+04  0.12136039725E+04  0.00000000000E+00 0. -1.
<scales pt_clust_3="124.68875" pt_clust_4="37.62484" pt_clust_5="37.62484" pt_clust_6="128.44757"></scales>
<clustering>
<clus scale="   37.625">  4  5 -1 -1</clus>
<clus scale="  124.689">  2  3  1 -1</clus>
<clus scale="  128.448">  1  6  2 -1</clus>
<clus scale="  124.689">  2  3  1 -1</clus>
</clustering>
</event>
<event>
 6    0  0.4796958E+002  0.1002125E+03  0.7546771E-02  0.1279850E+00
          4   -1    0    0  504    0 -0.00000000000E+00  0.00000000000E+00  0.42101711923E+03  0.42101711923E+03  0.00000000000E+00 0. -1.
         21   -1    0    0  503  502  0.00000000000E+00 -0.00000000000E+00 -0.26782521789E+03  0.26782521789E+03  0.00000000000E+00 0. -1.
         21    1    1    2  503  501  0.58976989283E+02  0.60748913441E+02 -0.16005731987E+02  0.86167854828E+02  0.00000000000E+00 0. -1.
         21    1    1    2  504  505  0.70788286484E+01 -0.15288957612E+03  0.53937925449E+02  0.16227948763E+03  0.00000000000E+00 0. -1.
         21    1    1    2  505  502 -0.25826792540E+02  0.28690509046E+02 -0.15507888312E+03  0.15981122774E+03  0.00000000000E+00 0. -1.
          4    1    1    2  501    0 -0.40229025392E+02  0.63450153637E+02  0.27033859100E+03  0.28058376693E+03  0.00000000000E+00 0. -1.
<scales pt_clust_3="14000.00000" pt_clust_4="100.21246" pt_clust_5="38.60270" pt_clust_6="76.89543"></scales>
<clustering>
<clus scale="   38.603">  2  5  1 -1</clus>
<clus scale="   76.895">  1  6  2 -1</clus>
<clus scale="  100.212">  1  4  2 -1</clus>
<clus scale="   38.603">  2  3  1 -1</clus>
</clustering>
</event>
<event>
 6    0  0.4796958E+002  0.2441236E+03  0.7546771E-02  0.1117076E+00
          1   -1    0    0  505    0 -0.00000000000E+00  0.00000000000E+00  0.30468175713E+04  0.30468175713E+04  0.00000000000E+00 0.  1.
         21   -1    0    0  504  502  0.00000000000E+00 -0.00000000000E+00 -0.29658962914E+03  0.29658962914E+03  0.00000000000E+00 0.  1.
         21    1    1    2  503  502 -0.21448789229E+02  0.21366860156E+02 -0.97400522004E+02  0.10199732819E+03  0.00000000000E+00 0.  1.
         21    1    1    2  504  501  0.13690340470E+03  0.20582775297E+03  0.13865265729E+02  0.24758806858E+03  0.00000000000E+00 0.  1.
         21    1    1    2  505  503 -0.15672777793E+03 -0.18101938460E+03  0.10020551768E+03  0.25956263165E+03  0.00000000000E+00 0.  1.
          1    1    1    2  501    0  0.41273162453E+02 -0.46175228521E+02  0.27335576807E+04  0.27342591720E+04  0.00000000000E+00 0.  1.
<scales pt_clust_3="30.27529" pt_clust_4="14000.00000" pt_clust_5="244.12358" pt_clust_6="61.87859"></scales>
<clustering>
<clus scale="   30.275">  2  3  1 -1</clus>
<clus scale="   61.879">  1  6  2 -1</clus>
<clus scale="  244.124">  1  5  2 -1</clus>
<clus scale="   30.275">  2  3  1 -1</clus>
</clustering>
</event>
<event>
 6    0  0.4796958E+002  0.6916854E+02  0.7546771E-02  0.1362944E+00
         21   -1    0    0  501  502  0.00000000000E+00  0.00000000000E+00  0.16709592233E+03  0.16709592233E+03  0.00000000000E+00 0. -1.
         -4   -1    0    0    0  501 -0.00000000000E+00 -0.00000000000E+00 -0.91347536493E+03  0.91347536493E+03  0.00000000000E+00 0.  1.
         21    1    1    2  503  504 -0.29715865076E+02 -0.10984509364E+03 -0.16602739411E+03  0.20128107916E+03  0.00000000000E+00 0.  1.
         21    1    1    2  504  505  0.34380297729E+01  0.57257269289E+02  0.37620922829E+02  0.68597002629E+02  0.00000000000E+00 0. -1.
         21    1    1    2  505  502  0.37101683922E+02 -0.22714719636E+01  0.91634158062E+02  0.98886366393E+02  0.00000000000E+00 0. -1.
         -4    1    1    2    0  503 -0.10823848619E+02  0.54859296317E+02 -0.70960712938E+03  0.71180683908E+03  0.00000000000E+00 0.  1.
<scales pt_clust_3="69.16854" pt_clust_4="14000.00000" pt_clust_5="37.17115" pt_clust_6="55.77552"></scales>
<clustering>
<clus scale="   37.171">  1  5  2 -1</clus>
<clus scale="   55.776">  2  6  1 -1</clus>
<clus scale="   69.169">  2  3  1 -1</clus>
<clus scale="   37.171">  1  3  2 -1</clus>
</clustering>
</event>
<event>
 6    0  0.4796958E+002  0.1065652E+03  0.7546771E-02  0.1267066E+00
         21   -1    0    0  503  502  0.00000000000E+00  0.00000000000E+00  0.76249063429E+03  0.76249063429E+03  0.00000000000E+00 0. -1.
          2   -1    0    0  504    0 -0.00000000000E+00 -0.00000000000E+00 -0.15789518780E+04  0.15789518780E+04  0.00000000000E+00 0.  1.
         21    1    1    2  503  505 -0.23123800177E+02 -0.22973142444E+02  0.63378915321E+02  0.71269645120E+02  0.00000000000E+00 0.  1.
         21    1    1    2  504  502  0.12018297448E+03 -0.19869315740E+01  0.59311343652E+03  0.60517059069E+03  0.00000000000E+00 0. -1.
         21    1    1    2  505  501 -0.13468048599E+03 -0.21215886110E+02  0.46748701513E+02  0.14413323081E+03  0.00000000000E+00 0.  1.
          2    1    1    2  501    0  0.37621311690E+02  0.46175960128E+02 -0.15197022970E+04  0.15208690456E+04  0.00000000000E+00 0.  1.
<scales pt_clust_3="32.59563" pt_clust_4="14000.00000" pt_clust_5="106.56524" pt_clust_6="59.53438"></scales>
<clustering>
<clus scale="   32.596">  1  3  2 -1</clus>
<clus scale="   59.534">  2  6  1 -1</clus>
<clus scale="  106.565">  2  5  1 -1</clus>
<clus scale="   32.596">  1  3  2 -1</clus>
</clustering>
</event>
<event>
 6    0  0.4796958E+002  0.1226423E+03  0.7546771E-02  0.1238801E+00
         21   -1    0    0  501  502  0.00000000000E+00  0.00000000000E+00  0.62163060214E+03  0.62163060214E+03  0.00000000000E+00 0.  1.
          1   -1    0    0  503    0 -0.00000000000E+00 -0.00000000000E+00 -0.10664206724E+04  0.10664206724E+04  0.00000000000E+00 0.  1.
         21    1    1    2  503  504  0.32123974958E+01  0.93015828719E+02 -0.43560086804E+02  0.10276062014E+03  0.00000000000E+00 0. -1.
         21    1    1    2  504  505  0.18636393437E+02 -0.30468943331E+02  0.26513119109E+03  0.26752611116E+03  0.00000000000E+00 0.  1.
         21    1    1    2  505  502  0.76822092687E+02 -0.28832353204E+02  0.31773521030E+03  0.32815941611E+03  0.00000000000E+00 0.  1.
          1    1    1    2  501    0 -0.98670883620E+02 -0.33714532185E+02 -0.98409638484E+03  0.98960512711E+03  0.00000000000E+00 0.  1.
<scales pt_clust_3="93.07128" pt_clust_4="32.84924" pt_clust_5="32.84924" pt_clust_6="112.08075"></scales>
<clustering>
<clus scale="   32.849">  4  5 -1 -1</clus>
<clus scale="   93.071">  2  3  1 -1</clus>
<clus scale="  112.081">  2  6  1 -1</clus>
<clus scale="  122.642">  1  3  2 -1</clus>
</clustering>
</event>
<event>
 6    0  0.4796958E+002  0.1386084E+03  0.7546771E-02  0.1215214E+00
         -2   -1    0    0    0  501 -0.00000000000E+00  0.00000000000E+00  0.12449785338E+04  0.12449785338E+04  0.00000000000E+00 0. -1.
         21   -1    0    0  505  502  0.00000000000E+00 -0.00000000000E+00 -0.39886659647E+03  0.39886659647E+03  0.00000000000E+00 0. -1.
         21    1    1    2  503  502  0.13040367381E+03  0.98596297790E+01 -0.12848204935E+03  0.18333021422E+03  0.00000000000E+00 0. -1.
         21    1    1    2  504  501 -0.15976324226E+03  0.41032752657E+01  0.27366300396E+03  0.31691098148E+03  0.00000000000E+00 0. -1.
         21    1    1    2  505  504 -0.96051665395E+01  0.64035934479E+02 -0.21448445323E+03  0.22404562216E+03  0.00000000000E+00 0. -1.
         -2    1    1    2    0  503  0.38964734994E+02 -0.77998839523E+02  0.91541543595E+03  0.91955831240E+03  0.00000000000E+00 0. -1.
<scales pt_clust_3="138.60836" pt_clust_4="14000.00000" pt_clust_5="64.75230" pt_clust_6="86.47994"></scales>
<clustering>
<clus scale="   64.752">  2  5  1 -1</clus>
<clus scale="   86.480">  1  6  2 -1</clus>
<clus scale="  138.608">  2  3  1 -1</clus>
<clus scale="   64.752">  2  3  1 -1</clus>
</clustering>
</event>
<event>
 6    0  0.4796958E+002  0.8135248E+02  0.7546771E-02  0.1325257E+00
         21   -1    0    0  504  502  0.00000000000E+00  0.00000000000E+00  0.63664803344E+02  0.63664803344E+02  0.00000000000E+00 0. -1.
          2   -1    0    0  503    0 -0.00000000000E+00 -0.00000000000E+00 -0.44187074003E+04  0.44187074003E+04  0.00000000000E+00 0.  1.
         21    1    1    2  503  502 -0.58438179429E+01  0.56722917563E+02 -0.41694932455E+03  0.42083058210E+03  0.00000000000E+00 0. -1.
         21    1    1    2  504  505 -0.20586725151E+02  0.35806431852E+02  0.22196936068E+02  0.46889420825E+02  0.00000000000E+00 0. -1.
         21    1    1    2  505  501 -0.27325323156E+02 -0.10817997063E+03 -0.88386665258E+02  0.14234388615E+03  0.00000000000E+00 0. -1.
          2    1    1    2  501    0  0.53755866250E+02  0.15650621209E+02 -0.38719035432E+04  0.38723083145E+04  0.00000000000E+00 0.  1.
<scales pt_clust_3="81.35248" pt_clust_4="41.30271" pt_clust_5="14000.00000" pt_clust_6="55.92070"></scales>
<clustering>
<clus scale="   41.303">  1  4  2 -1</clus>
<clus scale="   55.921">  2  6  1 -1</clus>
<clus scale="   81.352">  2  3  1 -1</clus>
<clus scale="   41.303">  1  3  2 -1</clus>
</clustering>
</event>
<event>
 6    0  0.4796958E+002  0.1129747E+03  0.7546771E-02  0.1255158E+00
          2   -1    0    0  503    0 -0.00000000000E+00  0.00000000000E+00  0.27398158354E+04  0.27398158354E+04  0.00000000000E+00 0. -1.
         21   -1    0    0  505  502  0.00000000000E+00 -0.00000000000E+00 -0.89934482312E+02  0.89934482312E+02  0.00000000000E+00 0. -1.
         21    1    1    2  503  504  0.80242710243E+02  0.11172508656E+03  0.19268964846E+03  0.23675026534E+03  0.00000000000E+00 0. -1.
         21    1    1    2  504  502 -0.33526305496E+02 -0.60360230974E+01  0.32145220315E+00  0.34066847030E+02  0.00000000000E+00 0.  1.
         21    1    1    2  505  501  0.37023530215E+02 -0.31673809621E+02 -0.37858178851E+02  0.61702623213E+02  0.00000000000E+00 0. -1.
          2    1    1    2  501    0 -0.83739934962E+02 -0.74015253844E+02  0.24947284313E+04  0.24972305821E+04  0.00000000000E+00 0. -1.
<scales pt_clust_3="14000.00000" pt_clust_4="34.06533" pt_clust_5="38.49357" pt_clust_6="112.97466"></scales>
<clustering>
<clus scale="   34.065">  2  4  1 -1</clus>
<clus scale="   38.494">  2  5  1 -1</clus>
<clus scale="  112.975">  1  6  2 -1</clus>
<clus scale="   34.065">  2  3  1 -1</clus>
</clustering>
</event>
<event>
 6    0  0.4796958E+002  0.1926089E+03  0.7546771E-02  0.1156129E+00
         21   -1    0    0  501  502  0.00000000000E+00  0.00000000000E+00  0.13714238702E+02  0.13714238702E+02  0.00000000000E+00 0. -1.
          1   -1    0    0  505    0 -0.00000000000E+00 -0.00000000000E+00 -0.45586850355E+04  0.45586850355E+04  0.00000000000E+00 0. -1.
         21    1    1    2  503  504 -0.47554098003E+02  0.89506151970E+02 -0.58223532383E+03  0.59099129925E+03  0.00000000000E+00 0. -1.
         21    1    1    2  504  502 -0.81381149002E+02  0.35884127408E+02 -0.30194547231E+03  0.31477234672E+03  0.00000000000E+00 0. -1.
         21    1    1    2  505  503  0.93023895082E+02 -0.13662570745E+03 -0.26533976545E+04  0.26585407918E+04  0.00000000000E+00 0. -1.
          1    1    1    2  501    0  0.35911351923E+02  0.11235428072E+02 -0.10073923461E+04  0.10080948364E+04  0.00000000000E+00 0. -1.
<scales pt_clust_3="73.59115" pt_clust_4="73.59115" pt_clust_5="175.53665" pt_clust_6="37.62792"></scales>
<clustering>
<clus scale="   37.628">  2  6  1 -1</clus>
<clus scale="   73.591">  3  4 -1 -1</clus>
<clus scale="  175.537">  2  5  1 -1</clus>
<clus scale="  192.609">  1  3  2 -1</clus>
</clustering>
</event>
<event>
 6    0  0.4796958E+002  0.1251684E+03  0.7546771E-02  0.1234806E+00
          1   -1    0    0  504    0 -0.00000000000E+00  0.00000000000E+00  0.82162026535E+03  0.82162026535E+03  0.00000000000E+00 0. -1.
         21   -1    0    0  503  502  0.00000000000E+00 -0.00000000000E+00 -0.31739333291E+03  0.31739333291E+03  0.00000000000E+00 0.  1.
         21    1    1    2  503  501 -0.73695007597E+02  0.85610111176E+01 -0.22541949864E+03  0.23731454954E+03  0.00000000000E+00 0.  1.
         21    1    1    2  504  505  0.14723319590E+03 -0.10382216472E+02  0.36971606077E+03  0.39808965069E+03  0.00000000000E+00 0. -1.
         21    1    1    2  505  502 -0.45304749473E+02  0.37115235894E+02 -0.58480243651E+02  0.82764726531E+02  0.00000000000E+00 0. -1.
          1    1    1    2  501    0 -0.28233438829E+02 -0.35294030539E+02  0.41841061396E+03  0.42084467150E+03  0.00000000000E+00 0. -1.
<scales pt_clust_3="14000.00000" pt_clust_4="125.16837" pt_clust_5="58.56673" pt_clust_6="45.19730"></scales>
<clustering>
<clus scale="   45.197">  1  6  2 -1</clus>
<clus scale="   58.567">  2  5  1 -1</clus>
<clus scale="  125.168">  1  4  2 -1</clus>
<clus scale="   58.567">  2  3  1 -1</clus>
</clustering>
</event>
<event>
 6    0  0.4796958E+002  0.1202695E+03  0.7546771E-02  0.1242653E+00
         21   -1    0    0  505  502  0.00000000000E+00  0.00000000000E+00  0.14040292449E+03  0.14040292449E+03  0.00000000000E+00 0. -1.
          2   -1    0    0  503    0 -0.00000000000E+00 -0.00000000000E+00 -0.55268593628E+04  0.55268593628E+04  0.00000000000E+00 0.  1.
         21    1    1    2  503  502  0.48305071556E+02 -0.13969217529E+02 -0.49714540593E+03  0.49968197247E+03  0.00000000000E+00 0. -1.
         21    1    1    2  504  501 -0.63417977145E+02  0.65581186249E+02 -0.36162349176E+02  0.98134842502E+02  0.00000000000E+00 0. -1.
         21    1    1    2  505  504 -0.52067423821E+02 -0.21459932932E+02  0.10052469339E+03  0.11522482079E+03  0.00000000000E+00 0. -1.
          2    1    1    2  501    0  0.67180329410E+02 -0.30152035788E+02 -0.49536733766E+04  0.49542206515E+04  0.00000000000E+00 0.  1.
<scales pt_clust_3="50.28438" pt_clust_4="14000.00000" pt_clust_5="56.25899" pt_clust_6="120.26946"></scales>
<clustering>
<clus scale="   50.284">  2  3  1 -1</clus>
<clus scale="   56.259">  1  5  2 -1</clus>
<clus scale="  120.269">  2  6  1 -1</clus>
<clus scale="   56.259">  1  3  2 -1</clus>
</clustering>
</event>
<event>
 6    0  0.4796958E+002  0.1105861E+03  0.7546771E-02  0.1259488E+00
         21   -1    0    0  504  502  0.00000000000E+00  0.00000000000E+00  0.99698703060E+03  0.99698703060E+03  0.00000000000E+00 0. -1.
         -2   -1    0    0    0  501 -0.00000000000E+00 -0.00000000000E+00 -0.34900170138E+03  0.34900170138E+03  0.00000000000E+00 0.  1.
         21    1    1    2  503  505  0.47816710905E+02 -0.49583455880E+02  0.58567789469E+03  0.58971480672E+03  0.00000000000E+00 0. -1.
         21    1    1    2  504  501 -0.28961007435E+02  0.14266769998E+03 -0.13433645360E+03  0.19808860476E+03  0.00000000000E+00 0. -1.
         21    1    1    2  505  502 -0.26729820547E+02 -0.59971131247E+02  0.37291863892E+03  0.37865463307E+03  0.00000000000E+00 0. -1.
         -2    1    1    2    0  503  0.78741170772E+01 -0.33113112855E+02 -0.17627475079E+03  0.17953068743E+03  0.00000000000E+00 0.  1.
<scales pt_clust_3="110.58614" pt_clust_4="14000.00000" pt_clust_5="66.11250" pt_clust_6="34.03645"></scales>
<clustering>
<clus scale="   34.036">  2  6  1 -1</clus>
<clus scale="   66.113">  1  5  2 -1</clus>
<clus scale="  110.586">  1  3  2 -1</clus>
<clus scale="   66.113">  1  3  2 -1</clus>
</clustering>
</event>
<event>
 6    0  0.4796958E+002  0.1180512E+03  0.7546771E-02  0.1246347E+00
         21   -1    0    0  504  502  0.00000000000E+00  0.00000000000E+00  0.74150386999E+03  0.74150386999E+03  0.00000000000E+00 0. -1.
          2   -1    0    0  503    0 -0.00000000000E+00 -0.00000000000E+00 -0.74937969430E+03  0.74937969430E+03  0.00000000000E+00 0. -1.
         21    1    1    2  503  505  0.51469783515E+02 -0.72208178663E+02  0.20994503809E+03  0.22790366101E+03  0.00000000000E+00 0. -1.
         21    1    1    2  504  501 -0.45028625903E+02  0.17451538250E+01  0.73950491032E+02  0.86598486340E+02  0.00000000000E+00 0.  1.
         21    1    1    2  505  502  0.99825724458E+01 -0.47314079132E+02  0.43614405389E+03  0.43881648737E+03  0.00000000000E+00 0. -1.
          2    1    1    2  501    0 -0.16423730058E+02  0.11777710397E+03 -0.72791540733E+03  0.73756492958E+03  0.00000000000E+00 0. -1.
<scales pt_clust_3="118.05120" pt_clust_4="45.06243" pt_clust_5="50.23043" pt_clust_6="14000.00000"></scales>
<clustering>
<clus scale="   45.062">  1  4  2 -1</clus>
<clus scale="   50.230">  1  5  2 -1</clus>
<clus scale="  118.051">  1  3  2 -1</clus>
<clus scale="   45.062">  1  3  2 -1</clus>
</clustering>
</event>
<event>
 6    0  0.4796958E+002  0.9168023E+02  0.7546771E-02  0.1298833E+00
          2   -1    0    0  503    0 -0.00000000000E+00  0.00000000000E+00  0.20325794191E+04  0.20325794191E+04  0.00000000000E+00 0. -1.
         21   -1    0    0  505  502  0.00000000000E+00 -0.00000000000E+00 -0.43131514241E+03  0.43131514241E+03  0.00000000000E+00 0.  1.
         21    1    1    2  503  502  0.18956733263E+02 -0.28401104977E+02 -0.47579446555E+02  0.58564359763E+02  0.00000000000E+00 0. -1.
         21    1    1    2  504  501 -0.81130303862E+02  0.93879529915E+02  0.59236336085E+03  0.60521883945E+03  0.00000000000E+00 0.  1.
         21    1    1    2  505  504  0.30901887435E+02 -0.48526427314E+02 -0.36936696567E+03  0.37382040624E+03  0.00000000000E+00 0.  1.
          2    1    1    2  501    0  0.31271683164E+02 -0.16951997623E+02  0.14258473281E+04  0.14262909561E+04  0.00000000000E+00 0. -1.
<scales pt_clust_3="34.14646" pt_clust_4="14000.00000" pt_clust_5="91.68023" pt_clust_6="35.58860"></scales>
<clustering>
<clus scale="   34.146">  2  3  1 -1</clus>
<clus scale="   35.589">  1  6  2 -1</clus>
<clus scale="   91.680">  2  5  1 -1</clus>
<clus scale="   34.146">  2  3  1 -1</clus>
</clustering>
</event>
<event>
 6    0  0.4796958E+002  0.1244920E+03  0.7546771E-02  0.1235865E+00
          1   -1    0    0  502    0 -0.00000000000E+00  0.00000000000E+00  0.37788033245E+03  0.37788033245E+03  0.00000000000E+00 0.  1.
         21   -1    0    0  505  502  0.00000000000E+00 -0.00000000000E+00 -0.24952447829E+03  0.24952447829E+03  0.00000000000E+00 0.  1.
         21    1    1    2  503  504  0.85001258034E+02  0.15071109205E+02 -0.95779693443E+02  0.12894224240E+03  0.00000000000E+00 0.  1.
         21    1    1    2  504  501  0.68867996652E+02 -0.78664394078E+02 -0.54660995712E+02  0.11797759241E+03  0.00000000000E+00 0.  1.
         21    1    1    2  505  503 -0.49107367965E+02 -0.98073976765E+01 -0.21181233554E+02  0.54372449756E+02  0.00000000000E+00 0.  1.
          1    1    1    2  501    0 -0.10476188672E+03  0.73400682549E+02  0.29997777687E+03  0.32611252617E+03  0.00000000000E+00 0.  1.
<scales pt_clust_3="59.76326" pt_clust_4="124.49196" pt_clust_5="50.07713" pt_clust_6="14000.00000"></scales>
<clustering>
<clus scale="   50.077">  2  5  1 -1</clus>
<clus scale="   59.763">  2  3  1 -1</clus>
<clus scale="  124.492">  2  4  1 -1</clus>
<clus scale="   50.077">  2  3  1 -1</clus>
</clustering>
</event>
<event>
 6    0  0.4796958E+002  0.6075284E+02  0.7546771E-02  0.1394699E+00
          2   -1    0    0  503    0 -0.00000000000E+00  0.00000000000E+00  0.36983556040E+04  0.36983556040E+04  0.00000000000E+00 0.  1.
         21   -1    0    0  501  502  0.00000000000E+00 -0.00000000000E+00 -0.52216939708E+02  0.52216939708E+02  0.00000000000E+00 0.  1.
         21    1    1    2  503  505 -0.52517151277E+01 -0.96067205121E+02  0.98915796164E+03  0.99382592111E+03  0.00000000000E+00 0.  1.
         21    1    1    2  504  502 -0.28095439983E+02  0.33016929820E+02 -0.17237210961E+02  0.46653969224E+02  0.00000000000E+00 0.  1.
         21    1    1    2  505  504  0.52851158540E+02  0.95503090174E+01  0.23267302718E+02  0.58530511164E+02  0.00000000000E+00 0.  1.
          2    1    1    2  501    0 -0.19504003429E+02  0.53499966283E+02  0.26509506109E+04  0.26515621422E+04  0.00000000000E+00 0.  1.
<scales pt_clust_3="60.75284" pt_clust_4="43.35287" pt_clust_5="47.66335" pt_clust_6="14000.00000"></scales>
<clustering>
<clus scale="   43.353">  2  4  1 -1</clus>
<clus scale="   47.663">  2  5  1 -1</clus>
<clus scale="   60.753">  2  3  1 -1</clus>
<clus scale="   43.353">  2  3  1 -1</clus>
</clustering>
</event>
<event>
 6    0  0.4796958E+002  0.1032308E+03  0.7546771E-02  0.1273645E+00
         21   -1    0    0  501  502  0.00000000000E+00  0.00000000000E+00  0.23202234405E+03  0.23202234405E+03  0.00000000000E+00 0.  1.
          2   -1    0    0  505    0 -0.00000000000E+00 -0.00000000000E+00 -0.50834058359E+03  0.50834058359E+03  0.00000000000E+00 0. -1.
         21    1    1    2  503  504  0.11144489508E+03  0.80523569086E+02 -0.77917938058E+02  0.15803548617E+03  0.00000000000E+00 0. -1.
         21    1    1    2  504  502 -0.45572569904E+02  0.29035831283E+02  0.17218085627E+03  0.18046103705E+03  0.00000000000E+00 0.  1.
         21    1    1    2  505  503 -0.17309720186E+02 -0.53787703483E+02 -0.27642478496E+03  0.28214075424E+03  0.00000000000E+00 0. -1.
          2    1    1    2  501    0 -0.48562604992E+02 -0.55771696886E+02 -0.94156372788E+02  0.11972565019E+03  0.00000000000E+00 0. -1.
<scales pt_clust_3="103.23081" pt_clust_4="54.03646" pt_clust_5="55.86694" pt_clust_6="14000.00000"></scales>
<clustering>
<clus scale="   54.036">  1  4  2 -1</clus>
<clus scale="   55.867">  2  5  1 -1</clus>
<clus scale="  103.231">  1  3  2 -1</clus>
<clus scale="   54.036">  1  3  2 -1</clus>
</clustering>
</event>
<event>
 6    0  0.4796958E+002  0.1673796E+03  0.7546771E-02  0.1180608E+00
         21   -1    0    0  505  502  0.00000000000E+00  0.00000000000E+00  0.79590006465E+03  0.79590006465E+03  0.00000000000E+00 0. -1.
          2   -1    0    0  504    0 -0.00000000000E+00 -0.00000000000E+00 -0.11927294985E+04  0.11927294985E+04  0.00000000000E+00 0. -1.
         21    1    1    2  503  502 -0.35366705221E+01 -0.79649904639E+02  0.62223696866E+03  0.62732404745E+03  0.00000000000E+00 0. -1.
         21    1    1    2  504  503 -0.10456212006E+03  0.12983624011E+03 -0.10349749720E+04  0.10483147805E+04  0.00000000000E+00 0. -1.
         21    1    1    2  505  501  0.84275768557E+02 -0.71231975795E+02  0.14377109649E+03  0.18123611044E+03  0.00000000000E+00 0. -1.
          2    1    1    2  501    0  0.23823022029E+02  0.21045640322E+02 -0.12786252696E+03  0.13175462479E+03  0.00000000000E+00 0. -1.
<scales pt_clust_3="79.67556" pt_clust_4="167.37956" pt_clust_5="14000.00000" pt_clust_6="31.78766"></scales>
<clustering>
<clus scale="   31.788">  2  6  1 -1</clus>
<clus scale="   79.676">  1  3  2 -1</clus>
<clus scale="  167.380">  2  4  1 -1</clus>
<clus scale="   79.676">  1  3  2 -1</clus>
</clustering>
</event>
<event>
 6    0  0.4796958E+002  0.9077868E+02  0.7546771E-02  0.1300977E+00
         21   -1    0    0  504  502  0.00000000000E+00  0.00000000000E+00  0.12452785955E+04  0.12452785955E+04  0.00000000000E+00 0.  1.
          2   -1    0    0  502    0 -0.00000000000E+00 -0.00000000000E+00 -0.24080712964E+04  0.24080712964E+04  0.00000000000E+00 0. -1.
         21    1    1    2  503  501  0.80964242570E+02 -0.19189786801E+02 -0.10469291939E+04  0.10502305430E+04  0.00000000000E+00 0. -1.
         21    1    1    2  504  505  0.78410348287E+01  0.31313705103E+02  0.12327140463E+04  0.12331366307E+04  0.00000000000E+00 0.  1.
         21    1    1    2  505  503 -0.97898955434E+02 -0.46931989371E+02 -0.27288439169E+03  0.29368811404E+03  0.00000000000E+00 0. -1.
          2    1    1    2  501    0  0.90936780357E+01  0.34808071069E+02 -0.10756931616E+04  0.10762946041E+04  0.00000000000E+00 0. -1.
<scales pt_clust_3="90.77868" pt_clust_4="32.28049" pt_clust_5="14000.00000" pt_clust_6="36.76212"></scales>
<clustering>
<clus scale="   32.280">  1  4  2 -1</clus>
<clus scale="   36.762">  2  6  1 -1</clus>
<clus scale="   90.779">  2  3  1 -1</clus>
<clus scale="   32.280">  1  3  2 -1</clus>
</clustering>
</event>
<event>
 6    0  0.4796958E+002  0.8151453E+02  0.7546771E-02  0.1324808E+00
          1   -1    0    0  505    0 -0.00000000000E+00  0.00000000000E+00  0.15286774308E+04  0.15286774308E+04  0.00000000000E+00 0. -1.
         21   -1    0    0  504  502  0.00000000000E+00 -0.00000000000E+00 -0.33044301495E+02  0.33044301495E+02  0.00000000000E+00 0.  1.
         21    1    1    2  503  502 -0.13550746667E+02  0.42055126559E+02  0.72588000834E+02  0.84978081117E+02  0.00000000000E+00 0. -1.
         21    1    1    2  504  501  0.64973729690E+02 -0.35746138575E+02  0.42208485999E+02  0.85328355564E+02  0.00000000000E+00 0.  1.
         21    1    1    2  505  503  0.11761215404E+02 -0.58730026037E+02  0.23057664844E+03  0.23822916058E+03  0.00000000000E+00 0. -1.
          1    1    1    2  501    0 -0.63184198428E+02  0.52421038054E+02  0.11502599941E+04  0.11531861351E+04  0.00000000000E+00 0. -1.
<scales pt_clust_3="44.18435" pt_clust_4="81.51453" pt_clust_5="53.64514" pt_clust_6="14000.00000"></scales>
<clustering>
<clus scale="   44.184">  2  3  1 -1</clus>
<clus scale="   53.645">  2  5  1 -1</clus>
<clus scale="   81.515">  2  4  1 -1</clus>
<clus scale="   44.184">  2  3  1 -1</clus>
</clustering>
</event>
<event>
 6    0  0.4796958E+002  0.1181827E+03  0.7546771E-02  0.1246126E+00
         21   -1    0    0  501  502  0.00000000000E+00  0.00000000000E+00  0.13205939650E+03  0.13205939650E+03  0.00000000000E+00 0.  1.
          1   -1    0    0  504    0 -0.00000000000E+00 -0.00000000000E+00 -0.61298070938E+03  0.61298070938E+03  0.00000000000E+00 0.  1.
         21    1    1    2  503  505  0.61356731680E+02  0.31769909615E+02  0.34548542009E+02  0.77250096662E+02  0.00000000000E+00 0.  1.
         21    1    1    2  504  503 -0.88119686587E+02 -0.19267050246E+02 -0.32686227429E+03  0.33907999756E+03  0.00000000000E+00 0.  1.
         21    1    1    2  505  502  0.24631161302E+02  0.39758957278E+02  0.59197970392E+02  0.75444472889E+02  0.00000000000E+00 0.  1.
          1    1    1    2  501    0  0.21317936050E+01 -0.52261816648E+02 -0.24780555099E+03  0.25326553876E+03  0.00000000000E+00 0.  1.
<scales pt_clust_3="36.94966" pt_clust_4="109.31705" pt_clust_5="36.94966" pt_clust_6="52.30528"></scales>
<clustering>
<clus scale="   36.950">  3  5 -1 -1</clus>
<clus scale="   52.305">  2  6  1 -1</clus>
<clus scale="  109.317">  2  4  1 -1</clus>
<clus scale="  118.183">  1  3  2 -1</clus>
</clustering>
</event>
<event>
 6    0  0.4796958E+002  0.1623645E+03  0.7546771E-02  0.1186053E+00
         21   -1    0    0  503  502  0.00000000000E+00  0.00000000000E+00  0.16409198388E+03  0.16409198388E+03  0.00000000000E+00 0. -1.
          2   -1    0    0  504    0 -0.00000000000E+00 -0.00000000000E+00 -0.15298804197E+04  0.15298804197E+04  0.00000000000E+00 0.  1.
         21    1    1    2  503  501 -0.49961283896E+02 -0.14420207606E+03 -0.13245897865E+03  0.20207857297E+03  0.00000000000E+00 0.  1.
         21    1    1    2  504  505  0.45781299135E+02  0.16316099952E+03 -0.69446003979E+02  0.18313980065E+03  0.00000000000E+00 0. -1.
         21    1    1    2  505  502  0.33445493678E+02 -0.87600854016E+01  0.68103739356E+02  0.76377087257E+02  0.00000000000E+00 0. -1.
          2    1    1    2  501    0 -0.29265508917E+02 -0.10198838056E+02 -0.12319871926E+04  0.12323769427E+04  0.00000000000E+00 0.  1.
<scales pt_clust_3="162.36445" pt_clust_4="14000.00000" pt_clust_5="34.21705" pt_clust_6="30.99171"></scales>
<clustering>
<clus scale="   30.992">  2  6  1 -1</clus>
<clus scale="   34.217">  1  5  2 -1</clus>
<clus scale="  162.364">  2  3  1 -1</clus>
<clus scale="   34.217">  1  3  2 -1</clus>
</clustering>
</event>
<event>
 6    0  0.4796958E+002  0.9287745E+02  0.7546771E-02  0.1296029E+00
         21   -1    0    0  505  502  0.00000000000E+00  0.00000000000E+00  0.72582304150E+03  0.72582304150E+03  0.00000000000E+00 0.  1.
         -4   -1    0    0    0  501 -0.00000000000E+00 -0.00000000000E+00 -0.14807989432E+03  0.14807989432E+03  0.00000000000E+00 0.  1.
         21    1    1    2  503  502 -0.29824311945E+02  0.99890414876E+01  0.17955797203E+03  0.18229189739E+03  0.00000000000E+00 0.  1.
         21    1    1    2  504  501  0.38094744123E+02  0.83947991683E+02 -0.11643625930E+03  0.14851221269E+03  0.00000000000E+00 0.  1.
         21    1    1    2  505  504  0.32787980102E+00 -0.12471017362E+03  0.48021528177E+03  0.49614458755E+03  0.00000000000E+00 0.  1.
         -4    1    1    2    0  503 -0.85983119783E+01  0.30773140449E+02  0.34406152687E+02  0.46954238198E+02  0.00000000000E+00 0.  1.
<scales pt_clust_3="31.45267" pt_clust_4="14000.00000" pt_clust_5="92.87745" pt_clust_6="33.32594"></scales>
<clustering>
<clus scale="   31.453">  1  3  2 -1</clus>
<clus scale="   33.326">  1  6  2 -1</clus>
<clus scale="   92.877">  1  5  2 -1</clus>
<clus scale="   31.453">  1  3  2 -1</clus>
</clustering>
</event>
<event>
 6    0  0.4796958E+002  0.9966102E+02  0.7546771E-02  0.1281010E+00
          2   -1    0    0  503    0 -0.00000000000E+00  0.00000000000E+00  0.15708830843E+04  0.15708830843E+04  0.00000000000E+00 0. -1.
         21   -1    0    0  504  502  0.00000000000E+00 -0.00000000000E+00 -0.19945473933E+03  0.19945473933E+03  0.00000000000E+00 0.  1.
         21    1    1    2  503  502 -0.11285795070E+02 -0.10150681544E+03 -0.12696333671E+03  0.16294382965E+03  0.00000000000E+00 0.  1.
         21    1    1    2  504  505  0.53000097330E+02  0.42024692413E+01 -0.17057426406E+02  0.55835713126E+02  0.00000000000E+00 0.  1.
         21    1    1    2  505  501 -0.98460179495E+02  0.46577636591E+02  0.15759513362E+03  0.19157272592E+03  0.00000000000E+00 0.  1.
          2    1    1    2  501    0  0.56745877236E+02  0.50726709608E+02  0.13578539745E+04  0.13599855550E+04  0.00000000000E+00 0. -1.
<scales pt_clust_3="14000.00000" pt_clust_4="53.16645" pt_clust_5="99.66102" pt_clust_6="76.39064"></scales>
<clustering>
<clus scale="   53.166">  2  4  1 -1</clus>
<clus scale="   76.391">  1  6  2 -1</clus>
<clus scale="   99.661">  1  5  2 -1</clus>
<clus scale="   53.166">  2  3  1 -1</clus>
</clustering>
</event>
<event>
 6    0  0.4796958E+002  0.1096553E+03  0.7546771E-02  0.1261210E+00
          1   -1    0    0  504    0 -0.00000000000E+00  0.00000000000E+00  0.13104900497E+04  0.13104900497E+04  0.00000000000E+00 0. -1.
         21   -1    0    0  505  502  0.00000000000E+00 -0.00000000000E+00 -0.15484358446E+03  0.15484358446E+03  0.00000000000E+00 0.  1.
         21    1    1    2  503  501 -0.90773400984E+02  0.97994182871E+02 -0.71555658933E+02  0.15153508679E+03  0.00000000000E+00 0.  1.
         21    1    1    2  504  502  0.62536245654E+02 -0.10006584523E+03  0.31019042798E+03  0.33187656894E+03  0.00000000000E+00 0.  1.
         21    1    1    2  505  503  0.97168871040E+01 -0.28716455496E+02 -0.24957746435E+02  0.39267567003E+02  0.00000000000E+00 0.  1.
          1    1    1    2  501    0  0.18520268226E+02  0.30788117850E+02  0.94196944265E+03  0.94265441145E+03  0.00000000000E+00 0. -1.
<scales pt_clust_3="109.65526" pt_clust_4="14000.00000" pt_clust_5="30.31588" pt_clust_6="35.87458"></scales>
<clustering>
<clus scale="   30.316">  2  5  1 -1</clus>
<clus scale="   35.875">  1  6  2 -1</clus>
<clus scale="  109.655">  2  3  1 -1</clus>
<clus scale="   30.316">  2  3  1 -1</clus>
</clustering>
</event>
<event>
 6    0  0.4796958E+002  0.1086213E+03  0.7546771E-02  0.1263145E+00
          1   -1    0    0  503    0 -0.00000000000E+00  0.00000000000E+00  0.78571858577E+03  0.78571858577E+03  0.00000000000E+00 0.  1.
         21   -1    0    0  504  502  0.00000000000E+00 -0.00000000000E+00 -0.21982878645E+03  0.21982878645E+03  0.00000000000E+00 0. -1.
         21    1    1    2  503  502  0.29566385083E+02  0.67010392142E+02 -0.16942066060E+03  0.18457498211E+03  0.00000000000E+00 0. -1.
         21    1    1    2  504  505  0.19466758805E+02  0.39628104624E+02  0.93264075839E+01  0.45125638532E+02  0.00000000000E+00 0.  1.
         21    1    1    2  505  501 -0.90245834927E+02 -0.69342164824E+02  0.11310951871E+03  0.16045687821E+03  0.00000000000E+00 0.  1.
          1    1    1    2  501    0  0.41212691038E+02 -0.37296331941E+02  0.61287453362E+03  0.61538987337E+03  0.00000000000E+00 0.  1.
<scales pt_clust_3="108.62128" pt_clust_4="44.15135" pt_clust_5="14000.00000" pt_clust_6="55.50821"></scales>
<clustering>
<clus scale="   44.151">  2  4  1 -1</clus>
<clus scale="   55.508">  1  6  2 -1</clus>
<clus scale="  108.621">  2  3  1 -1</clus>
<clus scale="   44.151">  2  3  1 -1</clus>
</clustering>
</event>
<event>
 6    0  0.4796958E+002  0.1091884E+03  0.7546771E-02  0.1262080E+00
         21   -1    0    0  504  502  0.00000000000E+00  0.00000000000E+00  0.17980748413E+03  0.17980748413E+03  0.00000000000E+00 0. -1.
          1   -1    0    0  505    0 -0.00000000000E+00 -0.00000000000E+00 -0.14433295179E+04  0.14433295179E+04  0.00000000000E+00 0. -1.
         21    1    1    2  503  502  0.32105560252E+02 -0.20610261334E+02  0.55439106063E+02  0.67298174956E+02  0.00000000000E+00 0. -1.
         21    1    1    2  504  501 -0.59331871985E+02 -0.85370846567E+02  0.90209859180E+02  0.13764545459E+03  0.00000000000E+00 0. -1.
         21    1    1    2  505  503  0.28415893501E+02 -0.15465396048E+02 -0.16742751920E+03  0.17052453098E+03  0.00000000000E+00 0. -1.
          1    1    1    2  501    0 -0.11895817685E+01  0.12144650395E+03 -0.12417434798E+04  0.12476688415E+04  0.00000000000E+00 0. -1.
<scales pt_clust_3="38.30181" pt_clust_4="14000.00000" pt_clust_5="32.35184" pt_clust_6="109.18837"></scales>
<clustering>
<clus scale="   32.352">  2  5  1 -1</clus>
<clus scale="   38.302">  1  3  2 -1</clus>
<clus scale="  109.188">  2  6  1 -1</clus>
<clus scale="   38.302">  1  3  2 -1</clus>
</clustering>
</event>
<event>
 6    0  0.4796958E+002  0.1885174E+03  0.7546771E-02  0.1159805E+00
          2   -1    0    0  505    0 -0.00000000000E+00  0.00000000000E+00  0.11289132700E+04  0.11289132700E+04  0.00000000000E+00 0. -1.
         21   -1    0    0  504  502  0.00000000000E+00 -0.00000000000E+00 -0.47871368027E+03  0.47871368027E+03  0.00000000000E+00 0. -1.
         21    1    1    2  503  502  0.51574831168E+02  0.29032092354E+02 -0.25723767904E+03  0.26395842308E+03  0.00000000000E+00 0. -1.
         21    1    1    2  504  501 -0.43065431194E+02  0.16626221571E+03 -0.15415755809E+03  0.23078628307E+03  0.00000000000E+00 0. -1.
         21    1    1    2  505  503 -0.71784581910E+02 -0.16869719368E+03  0.32538555928E+03  0.37348029606E+03  0.00000000000E+00 0. -1.
          2    1    1    2  501    0  0.63275181935E+02 -0.26597114383E+02  0.73620926759E+03  0.73940194808E+03  0.00000000000E+00 0. -1.
<scales pt_clust_3="59.18467" pt_clust_4="188.51737" pt_clust_5="14000.00000" pt_clust_6="68.90434"></scales>
<clustering>
<clus scale="   59.185">  2  3  1 -1</clus>
<clus scale="   68.904">  1  6  2 -1</clus>
<clus scale="  188.517">  2  4  1 -1</clus>
<clus scale="   59.185">  2  3  1 -1</clus>
</clustering>
</event>
<event>
 6    0  0.4796958E+002  0.1400081E+03  0.7546771E-02  0.1213318E+00
         21   -1    0    0  503  502  0.00000000000E+00  0.00000000000E+00  0.10265664532E+03  0.10265664532E+03  0.00000000000E+00 0. -1.
          2   -1    0    0  504    0 -0.00000000000E+00 -0.00000000000E+00 -0.83754485057E+03  0.83754485057E+03  0.00000000000E+00 0.  1.
         21    1    1    2  503  505 -0.45176593619E+02 -0.79921359684E+02  0.11890125029E+02  0.92572800638E+02  0.00000000000E+00 0. -1.
         21    1    1    2  504  502 -0.28510778237E+02  0.10954338517E+02  0.16000036354E+02  0.34479895176E+02  0.00000000000E+00 0. -1.
         21    1    1    2  505  501  0.66750751983E+01 -0.45339043704E+02 -0.76234306259E+01  0.46457531224E+02  0.00000000000E+00 0. -1.
          2    1    1    2  501    0  0.67012296658E+02  0.11430606487E+03 -0.75515493600E+03  0.76669126886E+03  0.00000000000E+00 0.  1.
<scales pt_clust_3="30.64477" pt_clust_4="30.54279" pt_clust_5="30.64477" pt_clust_6="132.14987"></scales>
<clustering>
<clus scale="   30.543">  1  4  2 -1</clus>
<clus scale="   30.645">  3  5 -1 -1</clus>
<clus scale="  132.150">  2  6  1 -1</clus>
<clus scale="   30.543">  1  3  2 -1</clus>
</clustering>
</event>
<event>
 6    0  0.4796958E+002  0.9393766E+02  0.7546771E-02  0.1293587E+00
         21   -1    0    0  503  502  0.00000000000E+00  0.00000000000E+00  0.14013519827E+04  0.14013519827E+04  0.00000000000E+00 0. -1.
         -1   -1    0    0    0  501 -0.00000000000E+00 -0.00000000000E+00 -0.36033929254E+03  0.36033929254E+03  0.00000000000E+00 0.  1.
         21    1    1    2  503  505 -0.58676268561E+00 -0.62923880370E+02  0.11060051021E+04  0.11077937736E+04  0.00000000000E+00 0. -1.
         21    1    1    2  504  502  0.25741449917E+02 -0.30270631749E+02  0.17808639636E+03  0.18246560760E+03  0.00000000000E+00 0. -1.
         21    1    1    2  505  501  0.12582013530E+02  0.10663105911E+03  0.87454435829E+02  0.13848020862E+03  0.00000000000E+00 0. -1.
         -1    1    1    2    0  504 -0.37736700762E+02 -0.13436546994E+02 -0.33053324410E+03  0.33295168543E+03  0.00000000000E+00 0.  1.
<scales pt_clust_3="93.93766" pt_clust_4="39.73579" pt_clust_5="14000.00000" pt_clust_6="40.04351"></scales>
<clustering>
<clus scale="   39.736">  1  4  2 -1</clus>
<clus scale="   40.044">  2  6  1 -1</clus>
<clus scale="   93.938">  1  3  2 -1</clus>
<clus scale="   39.736">  1  3  2 -1</clus>
</clustering>
</event>
<event>
 6    0  0.1488207E+003  0.2078221E+03  0.7546771E-02  0.1143302E+00
          2   -1    0    0  502    0 -0.00000000000E+00  0.00000000000E+00  0.38782375739E+04  0.38782375739E+04  0.00000000000E+00 0.  1.
         21   -1    0    0  504  502  0.00000000000E+00 -0.00000000000E+00 -0.18478503472E+04  0.18478503472E+04  0.00000000000E+00 0.  1.
         21    1    1    2  503  501 -0.12911407989E+03  0.58176171416E+02  0.18655897275E+03  0.23422032973E+03  0.00000000000E+00 0.  1.
         21    1    1    2  504  505  0.71294644583E+02 -0.80712579991E+01 -0.68197862445E+03  0.68574260168E+03  0.00000000000E+00 0.  1.
         21    1    1    2  505  503  0.11675005683E+03 -0.72308991088E+02 -0.11357521131E+04  0.11440244877E+04  0.00000000000E+00 0.  1.
          2    1    1    2  501    0 -0.58930621519E+02  0.22204077670E+02  0.36615589915E+04  0.36621005021E+04  0.00000000000E+00 0.  1.
<scales pt_clust_3="202.75416" pt_clust_4="32.97182" pt_clust_5="32.97182" pt_clust_6="62.97491"></scales>
<clustering>
<clus scale="   32.972">  4  5 -1 -1</clus>
<clus scale="   62.975">  1  6  2 -1</clus>
<clus scale="  202.754">  1  3  2 -1</clus>
<clus scale="  207.822">  2  3  1 -1</clus>
</clustering>
</event>
<event>
 6    0  0.4796958E+002  0.9350089E+02  0.7546771E-02  0.1294589E+00
          2   -1    0    0  505    0 -0.00000000000E+00  0.00000000000E+00  0.19990611794E+04  0.19990611794E+04  0.00000000000E+00 0. -1.
         21   -1    0    0  503  502  0.00000000000E+00 -0.00000000000E+00 -0.16753620734E+03  0.16753620734E+03  0.00000000000E+00 0.  1.
         21    1    1    2  503  501 -0.40772995035E+02  0.61285917697E+02 -0.14383154545E+03  0.16157324747E+03  0.00000000000E+00 0.  1.
         21    1    1    2  504  502 -0.49838543827E+02 -0.27670062233E+02  0.57087260704E+02  0.80675077499E+02  0.00000000000E+00 0.  1.
         21    1    1    2  505  504  0.14165930054E+02 -0.66486209248E+02  0.72402547122E+03  0.72720971704E+03  0.00000000000E+00 0.  1.
          2    1    1    2  501    0  0.76445608808E+02  0.32870353784E+02  0.11942437856E+04  0.11971393447E+04  0.00000000000E+00 0. -1.
<scales pt_clust_3="14000.00000" pt_clust_4="57.00450" pt_clust_5="68.15136" pt_clust_6="93.50089"></scales>
<clustering>
<clus scale="   57.004">  2  4  1 -1</clus>
<clus scale="   68.151">  1  5  2 -1</clus>
<clus scale="   93.501">  1  6  2 -1</clus>
<clus scale="   57.004">  2  3  1 -1</clus>
</clustering>
</event>
<event>
 6    0  0.4796958E+002  0.1309066E+03  0.7546771E-02  0.1226117E+00
          2   -1    0    0  503    0 -0.00000000000E+00  0.00000000000E+00  0.15372431922E+04  0.15372431922E+04  0.00000000000E+00 0.  1.
         21   -1    0    0  505  502  0.00000000000E+00 -0.00000000000E+00 -0.51763650267E+03  0.51763650267E+03  0.00000000000E+00 0. -1.
         21    1    1    2  503  504  0.28850463789E+02 -0.15942833940E+03 -0.23077657153E+03  0.28197086841E+03  0.00000000000E+00 0. -1.
         21    1    1    2  504  502 -0.37563942229E+02  0.21140562867E+02 -0.17028049498E+03  0.17565141652E+03  0.00000000000E+00 0.  1.
         21    1    1    2  505  501  0.36338994474E+02  0.10360757654E+03 -0.53702061854E+02  0.12222505424E+03  0.00000000000E+00 0. -1.
          2    1    1    2  501    0 -0.27625516034E+02  0.34680199989E+02  0.14743658179E+04  0.14750323557E+04  0.00000000000E+00 0.  1.
<scales pt_clust_3="130.90660" pt_clust_4="43.10421" pt_clust_5="14000.00000" pt_clust_6="44.37693"></scales>
<clustering>
<clus scale="   43.104">  2  4  1 -1</clus>
<clus scale="   44.377">  1  6  2 -1</clus>
<clus scale="  130.907">  2  3  1 -1</clus>
<clus scale="   43.104">  2  3  1 -1</clus>
</clustering>
</event>
<event>
 6    0  0.4796958E+002  0.7541685E+02  0.7546771E-02  0.1342585E+00
          2   -1    0    0  505    0 -0.00000000000E+00  0.00000000000E+00  0.88400902850E+03  0.88400902850E+03  0.00000000000E+00 0.  1.
         21   -1    0    0  504  502  0.00000000000E+00 -0.00000000000E+00 -0.79947838764E+02  0.79947838764E+02  0.00000000000E+00 0. -1.
         21    1    1    2  503  501  0.22484679304E+02 -0.12242487959E+03  0.10707701797E+02  0.12493224893E+03  0.00000000000E+00 0. -1.
         21    1    1    2  504  503  0.31205172798E+02  0.25035549589E+02  0.38659238253E+02  0.55633427496E+02  0.00000000000E+00 0. -1.
         21    1    1    2  505  502 -0.59911184631E+02  0.23800566095E+02  0.71714407838E+02  0.96430147163E+02  0.00000000000E+00 0. -1.
          2    1    1    2  501    0  0.62213325284E+01  0.73588763905E+02  0.68297984185E+03  0.68696104367E+03  0.00000000000E+00 0.  1.
<scales pt_clust_3="75.41685" pt_clust_4="40.00677" pt_clust_5="61.34462" pt_clust_6="14000.00000"></scales>
<clustering>
<clus scale="   40.007">  2  4  1 -1</clus>
<clus scale="   61.345">  2  5  1 -1</clus>
<clus scale="   75.417">  2  3  1 -1</clus>
<clus scale="   40.007">  2  3  1 -1</clus>
</clustering>
</event>
<event>
 6    0  0.4796958E+002  0.8307730E+02  0.7546771E-02  0.1320539E+00
         21   -1    0    0  503  502  0.00000000000E+00  0.00000000000E+00  0.80501383046E+02  0.80501383046E+02  0.00000000000E+00 0.  1.
          1   -1    0    0  502    0 -0.00000000000E+00 -0.00000000000E+00 -0.14922342776E+04  0.14922342776E+04  0.00000000000E+00 0.  1.
         21    1    1    2  503  504  0.48915096822E+01  0.44245194238E+02  0.50804541894E+02  0.67547505928E+02  0.00000000000E+00 0.  1.
         21    1    1    2  504  505 -0.22380596396E+02 -0.67578511799E+02 -0.72330810401E+02  0.10148641527E+03  0.00000000000E+00 0.  1.
         21    1    1    2  505  501 -0.69944187677E+02  0.16323795441E+02 -0.24962509835E+03  0.25975246951E+03  0.00000000000E+00 0.  1.
          1    1    1    2  501    0  0.87433274390E+02  0.70095221202E+01 -0.11405815276E+04  0.11439492699E+04  0.00000000000E+00 0.  1.
<scales pt_clust_3="44.51476" pt_clust_4="41.90642" pt_clust_5="14000.00000" pt_clust_6="83.07730"></scales>
<clustering>
<clus scale="   44.515">  1  3  2 -1</clus>
<clus scale="   41.906">  1  4  2 -1</clus>
<clus scale="   83.077">  2  6  1 -1</clus>
<clus scale="   44.515">  1  3  2 -1</clus>
</clustering>
</event>
<event>
 6    0  0.4796958E+002  0.8360325E+02  0.7546771E-02  0.1319126E+00
         -2   -1    0    0    0  501 -0.00000000000E+00  0.00000000000E+00  0.13132430100E+03  0.13132430100E+03  0.00000000000E+00 0. -1.
         21   -1    0    0  503  502  0.00000000000E+00 -0.00000000000E+00 -0.58867103248E+03  0.58867103248E+03  0.00000000000E+00 0. -1.
         21    1    1    2  503  505 -0.51814252452E+02 -0.64006509111E+02 -0.42439520992E+03  0.43231105025E+03  0.00000000000E+00 0. -1.
         21    1    1    2  504  502  0.68739123068E+02  0.64056592694E+02 -0.42958500438E+02  0.10331382709E+03  0.00000000000E+00 0. -1.
         21    1    1    2  505  501 -0.51643455298E+02 -0.12200633752E+00 -0.75848462611E+02  0.91760833917E+02  0.00000000000E+00 0. -1.
         -2    1    1    2    0  504  0.34718584682E+02  0.71922754301E-01  0.85855441491E+02  0.92609622226E+02  0.00000000000E+00 0. -1.
<scales pt_clust_3="83.60325" pt_clust_4="14000.00000" pt_clust_5="45.08108" pt_clust_6="34.71866"></scales>
<clustering>
<clus scale="   34.719">  1  6  2 -1</clus>
<clus scale="   45.081">  1  5  2 -1</clus>
<clus scale="   83.603">  2  3  1 -1</clus>
<clus scale="   83.603">  2  3  1 -1</clus>
</clustering>
</event>
<event>
 6    0  0.4796958E+002  0.1321523E+03  0.7546771E-02  0.1224297E+00
         21   -1    0    0  505  502  0.00000000000E+00  0.00000000000E+00  0.47221987590E+02  0.47221987590E+02  0.00000000000E+00 0. -1.
          1   -1    0    0  503    0 -0.00000000000E+00 -0.00000000000E+00 -0.20757913289E+04  0.20757913289E+04  0.00000000000E+00 0. -1.
         21    1    1    2  503  504 -0.14564464473E+03  0.89285774892E+02 -0.10100587830E+04  0.10244037570E+04  0.00000000000E+00 0. -1.
         21    1    1    2  504  502  0.30822257180E+02 -0.97159978480E+02 -0.19400243497E+03  0.21915067357E+03  0.00000000000E+00 0. -1.
         21    1    1    2  505  501  0.83597109889E+02  0.64637869316E+01 -0.37534131362E+02  0.91864401922E+02  0.00000000000E+00 0. -1.
          1    1    1    2  501    0  0.31225277659E+02  0.14104166563E+01 -0.78697399192E+03  0.78759448398E+03  0.00000000000E+00 0. -1.
<scales pt_clust_3="132.15228" pt_clust_4="14000.00000" pt_clust_5="85.41534" pt_clust_6="31.25712"></scales>
<clustering>
<clus scale="   31.257">  2  6  1 -1</clus>
<clus scale="   85.415">  1  5  2 -1</clus>
<clus scale="  132.152">  2  3  1 -1</clus>
<clus scale="   85.415">  1  3  2 -1</clus>
</clustering>
</event>
<event>
 6    0  0.4796958E+002  0.5555699E+02  0.7546771E-02  0.1417483E+00
         21   -1    0    0  505  502  0.00000000000E+00  0.00000000000E+00  0.16947189692E+03  0.16947189692E+03  0.00000000000E+00 0.  1.
          1   -1    0    0  503    0 -0.00000000000E+00 -0.00000000000E+00 -0.33671754976E+03  0.33671754976E+03  0.00000000000E+00 0.  1.
         21    1    1    2  503  504  0.15875787631E+01 -0.78277569587E+02 -0.20829456408E+03  0.22252308584E+03  0.00000000000E+00 0.  1.
         21    1    1    2  504  502 -0.14613007275E+02  0.79484149769E+02  0.50290144029E+02  0.95185968675E+02  0.00000000000E+00 0.  1.
         21    1    1    2  505  501  0.41739743842E+02 -0.35445389606E+02  0.75152446284E+02  0.92986407839E+02  0.00000000000E+00 0.  1.
          1    1    1    2  501    0 -0.28714315330E+02  0.34238809424E+02 -0.84393679066E+02  0.95493984323E+02  0.00000000000E+00 0.  1.
<scales pt_clust_3="14000.00000" pt_clust_4="55.55699" pt_clust_5="53.16830" pt_clust_6="44.68566"></scales>
<clustering>
<clus scale="   44.686">  2  6  1 -1</clus>
<clus scale="   53.168">  1  5  2 -1</clus>
<clus scale="   55.557">  1  4  2 -1</clus>
<clus scale="   53.168">  1  3  2 -1</clus>
</clustering>
</event>
<event>
 6    0  0.4796958E+002  0.1228103E+03  0.7546771E-02  0.1238532E+00
          2   -1    0    0  503    0 -0.00000000000E+00  0.00000000000E+00  0.15551774566E+04  0.15551774566E+04  0.00000000000E+00 0. -1.
         21   -1    0    0  505  502  0.00000000000E+00 -0.00000000000E+00 -0.95163039327E+02  0.95163039327E+02  0.00000000000E+00 0. -1.
         21    1    1    2  503  502  0.10333935058E+03  0.16769811031E+03  0.21894365345E+03  0.29451315923E+03  0.00000000000E+00 0. -1.
         21    1    1    2  504  501 -0.58663406643E+02 -0.60681095966E+02  0.21391062110E+03  0.22995944100E+03  0.00000000000E+00 0. -1.
         21    1    1    2  505  504 -0.34575337914E+02 -0.64765167093E+02 -0.21350252108E+02  0.76457923890E+02  0.00000000000E+00 0. -1.
          2    1    1    2  501    0 -0.10100606022E+02 -0.42251847246E+02  0.10485103948E+04  0.10494099718E+04  0.00000000000E+00 0. -1.
<scales pt_clust_3="14000.00000" pt_clust_4="122.81025" pt_clust_5="75.70657" pt_clust_6="43.44239"></scales>
<clustering>
<clus scale="   43.442">  1  6  2 -1</clus>
<clus scale="   75.707">  2  5  1 -1</clus>
<clus scale="  122.810">  1  4  2 -1</clus>
<clus scale="   75.707">  2  3  1 -1</clus>
</clustering>
</event>
<event>
 6    0  0.4796958E+002  0.1078673E+03  0.7546771E-02  0.1264571E+00
         21   -1    0    0  505  502  0.00000000000E+00  0.00000000000E+00  0.24081509176E+02  0.24081509176E+02  0.00000000000E+00 0.  1.
          2   -1    0    0  504    0 -0.00000000000E+00 -0.00000000000E+00 -0.28348897845E+04  0.28348897845E+04  0.00000000000E+00 0.  1.
         21    1    1    2  503  502 -0.15924866850E+02  0.27463027681E+02 -0.11809258984E+02  0.33871490539E+02  0.00000000000E+00 0.  1.
         21    1    1    2  504  503 -0.44366314944E+02  0.21067918870E+02 -0.18901788422E+03  0.19529461759E+03  0.00000000000E+00 0.  1.
         21    1    1    2  505  501  0.34932075466E+02 -0.14835135545E+03 -0.67101620804E+03  0.68810691467E+03  0.00000000000E+00 0.  1.
          2    1    1    2  501    0  0.25359106329E+02  0.99820408894E+02 -0.19389649241E+04  0.19416982709E+04  0.00000000000E+00 0.  1.
<scales pt_clust_3="31.74617" pt_clust_4="55.57519" pt_clust_5="14000.00000" pt_clust_6="107.86728"></scales>
<clustering>
<clus scale="   31.746">  1  3  2 -1</clus>
<clus scale="   55.575">  1  4  2 -1</clus>
<clus scale="  107.867">  2  6  1 -1</clus>
<clus scale="   31.746">  1  3  2 -1</clus>
</clustering>
</event>
<event>
 6    0  0.4796958E+002  0.1076991E+03  0.7546771E-02  0.1264891E+00
          2   -1    0    0  505    0 -0.00000000000E+00  0.00000000000E+00  0.10117149981E+04  0.10117149981E+04  0.00000000000E+00 0.  1.
         21   -1    0    0  503  502  0.00000000000E+00 -0.00000000000E+00 -0.54350988141E+03  0.54350988141E+03  0.00000000000E+00 0.  1.
         21    1    1    2  503  504  0.73171032485E+02  0.20675197790E+02 -0.50218684033E+03  0.50791051023E+03  0.00000000000E+00 0.  1.
         21    1    1    2  504  501 -0.15819701178E+03 -0.66002110556E+02  0.21518856527E+03  0.27511577882E+03  0.00000000000E+00 0. -1.
         21    1    1    2  505  502  0.29532128611E+02 -0.75663915627E+01  0.29383824000E+02  0.42341540058E+02  0.00000000000E+00 0.  1.
          2    1    1    2  501    0  0.55493850688E+02  0.52893304328E+02  0.72581956777E+03  0.72985705043E+03  0.00000000000E+00 0.  1.
<scales pt_clust_3="76.11326" pt_clust_4="14000.00000" pt_clust_5="30.48601" pt_clust_6="107.69911"></scales>
<clustering>
<clus scale="   30.486">  1  5  2 -1</clus>
<clus scale="   76.113">  2  3  1 -1</clus>
<clus scale="  107.699">  1  6  2 -1</clus>
<clus scale="   76.113">  2  3  1 -1</clus>
</clustering>
</event>
<event>
 6    0  0.4796958E+002  0.1135757E+03  0.7546771E-02  0.1254088E+00
         -2   -1    0    0    0  501 -0.00000000000E+00  0.00000000000E+00  0.13253211860E+03  0.13253211860E+03  0.00000000000E+00 0. -1.
         21   -1    0    0  505  502  0.00000000000E+00 -0.00000000000E+00 -0.81504135545E+03  0.81504135545E+03  0.00000000000E+00 0. -1.
         21    1    1    2  503  502 -0.15814226539E+02 -0.12857019212E+03 -0.59352443919E+03  0.60749620903E+03  0.00000000000E+00 0. -1.
         21    1    1    2  504  501  0.79417996239E+02  0.42553639203E+02  0.40050395534E+02  0.98600530011E+02  0.00000000000E+00 0. -1.
         21    1    1    2  505  504 -0.13808740439E+02  0.88297376873E+02 -0.15966173466E+03  0.18297261432E+03  0.00000000000E+00 0. -1.
         -2    1    1    2    0  503 -0.49795029261E+02 -0.22808239585E+01  0.30626541463E+02  0.58504120701E+02  0.00000000000E+00 0. -1.
<scales pt_clust_3="113.57568" pt_clust_4="57.22858" pt_clust_5="14000.00000" pt_clust_6="49.84724"></scales>
<clustering>
<clus scale="   49.847">  1  6  2 -1</clus>
<clus scale="   57.229">  1  4  2 -1</clus>
<clus scale="  113.576">  2  3  1 -1</clus>
<clus scale="  113.576">  2  3  1 -1</clus>
</clustering>
</event>
<event>
 6    0  0.4796958E+002  0.9325668E+02  0.7546771E-02  0.1295151E+00
          2   -1    0    0  504    0 -0.00000000000E+00  0.00000000000E+00  0.20294511726E+04  0.20294511726E+04  0.00000000000E+00 0. -1.
         21   -1    0    0  503  502  0.00000000000E+00 -0.00000000000E+00 -0.66479184910E+02  0.66479184910E+02  0.00000000000E+00 0. -1.
         21    1    1    2  503  501  0.66952323956E+02 -0.94812182087E+02  0.22202931360E+03  0.25053738175E+03  0.00000000000E+00 0. -1.
         21    1    1    2  504  505 -0.10501922419E+03  0.12372466896E+01  0.24291022029E+03  0.26464304893E+03  0.00000000000E+00 0. -1.
         21    1    1    2  505  502 -0.29727328839E+01  0.66880270101E+02 -0.13609287666E+02  0.68315593977E+02  0.00000000000E+00 0. -1.
          2    1    1    2  501    0  0.41039633116E+02  0.26694665296E+02  0.15116417415E+04  0.15124343329E+04  0.00000000000E+00 0. -1.
<scales pt_clust_3="14000.00000" pt_clust_4="93.25668" pt_clust_5="68.29621" pt_clust_6="48.95770"></scales>
<clustering>
<clus scale="   48.958">  1  6  2 -1</clus>
<clus scale="   68.296">  2  5  1 -1</clus>
<clus scale="   93.257">  1  4  2 -1</clus>
<clus scale="   68.296">  2  3  1 -1</clus>
</clustering>
</event>
<event>
 6    0  0.4796958E+002  0.1442509E+03  0.7546771E-02  0.1207721E+00
         -2   -1    0    0    0  501 -0.00000000000E+00  0.00000000000E+00  0.74893594615E+03  0.74893594615E+03  0.00000000000E+00 0.  1.
         21   -1    0    0  504  502  0.00000000000E+00 -0.00000000000E+00 -0.29818497142E+03  0.29818497142E+03  0.00000000000E+00 0.  1.
         21    1    1    2  503  501  0.10787385003E+03 -0.33020875655E+02  0.42673902493E+03  0.44139929899E+03  0.00000000000E+00 0.  1.
         21    1    1    2  504  503 -0.32957920176E+02 -0.14719303476E+03 -0.19566842882E+03  0.24705899704E+03  0.00000000000E+00 0.  1.
         21    1    1    2  505  502 -0.71414788257E+02  0.13327023432E+03  0.18826617560E+02  0.15236623270E+03  0.00000000000E+00 0.  1.
         -2    1    1    2    0  505 -0.35011416000E+01  0.46943676093E+02  0.20085376107E+03  0.20629638885E+03  0.00000000000E+00 0.  1.
<scales pt_clust_3="105.17689" pt_clust_4="144.25086" pt_clust_5="14000.00000" pt_clust_6="47.07406"></scales>
<clustering>
<clus scale="   47.074">  1  6  2 -1</clus>
<clus scale="  105.177">  1  3  2 -1</clus>
<clus scale="  144.251">  2  4  1 -1</clus>
<clus scale="  144.251">  2  3  1 -1</clus>
</clustering>
</event>
<event>
 6    0  0.4796958E+002  0.1049405E+03  0.7546771E-02  0.1270237E+00
         21   -1    0    0  505  502  0.00000000000E+00  0.00000000000E+00  0.16923791743E+04  0.16923791743E+04  0.00000000000E+00 0.  1.
          2   -1    0    0  503    0 -0.00000000000E+00 -0.00000000000E+00 -0.18733680721E+03  0.18733680721E+03  0.00000000000E+00 0.  1.
         21    1    1    2  503  502 -0.61447325815E+02 -0.14015655962E+03  0.61999360918E+03  0.63860137056E+03  0.00000000000E+00 0.  1.
         21    1    1    2  504  501  0.62092240464E+02  0.86545451444E+02  0.14764265273E+03  0.18205470166E+03  0.00000000000E+00 0.  1.
         21    1    1    2  505  504 -0.88115796075E+01  0.83999836403E+02  0.89468564038E+03  0.89866345845E+03  0.00000000000E+00 0.  1.
          2    1    1    2  501    0  0.81666649575E+01 -0.30388728226E+02 -0.15727953525E+03  0.16039645079E+03  0.00000000000E+00 0.  1.
<scales pt_clust_3="14000.00000" pt_clust_4="104.94048" pt_clust_5="82.29277" pt_clust_6="31.46695"></scales>
<clustering>
<clus scale="   31.467">  2  6  1 -1</clus>
<clus scale="   82.293">  1  5  2 -1</clus>
<clus scale="  104.940">  2  4  1 -1</clus>
<clus scale="   82.293">  1  3  2 -1</clus>
</clustering>
</event>
<event>
 6    0  0.4796958E+002  0.6830948E+02  0.7546771E-02  0.1365938E+00
         -3   -1    0    0    0  501 -0.00000000000E+00  0.00000000000E+00  0.12209776950E+04  0.12209776950E+04  0.00000000000E+00 0.  1.
         21   -1    0    0  505  502  0.00000000000E+00 -0.00000000000E+00 -0.51353394762E+03  0.51353394762E+03  0.00000000000E+00 0. -1.
         21    1    1    2  503  502 -0.94690790743E+01 -0.35799345469E+02 -0.27529092087E+02  0.46142252933E+02  0.00000000000E+00 0. -1.
         21    1    1    2  504  503  0.32117174320E+02 -0.47526057574E+02  0.20761960430E+02  0.61002442867E+02  0.00000000000E+00 0.  1.
         21    1    1    2  505  501 -0.79328263199E+02  0.12119390126E+03 -0.44406255992E+03  0.46708938348E+03  0.00000000000E+00 0. -1.
         -3    1    1    2    0  504  0.56680167953E+02 -0.37868498213E+02  0.11582734389E+04  0.11602775633E+04  0.00000000000E+00 0.  1.
<scales pt_clust_3="37.03048" pt_clust_4="58.40063" pt_clust_5="14000.00000" pt_clust_6="68.30948"></scales>
<clustering>
<clus scale="   37.030">  2  3  1 -1</clus>
<clus scale="   58.401">  2  4  1 -1</clus>
<clus scale="   68.309">  1  6  2 -1</clus>
<clus scale="   37.030">  2  3  1 -1</clus>
</clustering>
</event>
<event>
 6    0  0.4796958E+002  0.1162387E+03  0.7546771E-02  0.1249434E+00
         21   -1    0    0  504  502  0.00000000000E+00  0.00000000000E+00  0.40560496381E+03  0.40560496381E+03  0.00000000000E+00 0.  1.
          2   -1    0    0  505    0 -0.00000000000E+00 -0.00000000000E+00 -0.11123621949E+04  0.11123621949E+04  0.00000000000E+00 0. -1.
         21    1    1    2  503  502 -0.41837922252E+02  0.19993492858E+02  0.62929962692E+02  0.78168610705E+02  0.00000000000E+00 0. -1.
         21    1    1    2  504  501  0.14993033504E+03  0.11437973157E+03  0.44571778219E+02  0.19377428047E+03  0.00000000000E+00 0. -1.
         21    1    1    2  505  503 -0.45384548724E+02 -0.38482160905E+02  0.20852205736E+03  0.21684575711E+03  0.00000000000E+00 0.  1.
          2    1    1    2  501    0 -0.62707864066E+02 -0.95891063520E+02 -0.10227810294E+04  0.10291785104E+04  0.00000000000E+00 0. -1.
<scales pt_clust_3="46.36973" pt_clust_4="14000.00000" pt_clust_5="76.42533" pt_clust_6="116.23868"></scales>
<clustering>
<clus scale="   46.370">  1  3  2 -1</clus>
<clus scale="   76.425">  1  5  2 -1</clus>
<clus scale="  116.239">  2  6  1 -1</clus>
<clus scale="   46.370">  1  3  2 -1</clus>
</clustering>
</event>
<event>
 6    0  0.4796958E+002  0.1299457E+03  0.7546771E-02  0.1227536E+00
          1   -1    0    0  503    0 -0.00000000000E+00  0.00000000000E+00  0.27614620486E+04  0.27614620486E+04  0.00000000000E+00 0. -1.
         21   -1    0    0  505  502  0.00000000000E+00 -0.00000000000E+00 -0.13246503966E+03  0.13246503966E+03  0.00000000000E+00 0. -1.
         21    1    1    2  503  504  0.41944935486E+02 -0.45400357915E+02  0.30470761196E+03  0.31091365184E+03  0.00000000000E+00 0.  1.
         21    1    1    2  504  502  0.81175183198E+02  0.11225511424E+03  0.11946983899E+03  0.18293076141E+03  0.00000000000E+00 0. -1.
         21    1    1    2  505  501  0.16179206815E+02 -0.27608824814E+02 -0.92669998013E+02  0.98039494452E+02  0.00000000000E+00 0. -1.
          1    1    1    2  501    0 -0.13929932550E+03 -0.39245931514E+02  0.22974895560E+04  0.23020431805E+04  0.00000000000E+00 0. -1.
<scales pt_clust_3="64.42699" pt_clust_4="129.94571" pt_clust_5="32.00022" pt_clust_6="14000.00000"></scales>
<clustering>
<clus scale="   32.000">  2  5  1 -1</clus>
<clus scale="   64.427">  1  3  2 -1</clus>
<clus scale="  129.946">  2  4  1 -1</clus>
<clus scale="   32.000">  2  3  1 -1</clus>
</clustering>
</event>
<event>
 6    0  0.4796958E+002  0.1704487E+03  0.7546771E-02  0.1177381E+00
          2   -1    0    0  503    0 -0.00000000000E+00  0.00000000000E+00  0.14299946566E+04  0.14299946566E+04  0.00000000000E+00 0. -1.
         21   -1    0    0  504  502  0.00000000000E+00 -0.00000000000E+00 -0.34519836031E+02  0.34519836031E+02  0.00000000000E+00 0. -1.
         21    1    1    2  503  502 -0.58390589379E+02 -0.16364490747E+03  0.47207301357E+03  0.50303284864E+03  0.00000000000E+00 0. -1.
         21    1    1    2  504  505 -0.26696124104E+01  0.10607034838E+03  0.19302922614E+03  0.22026876260E+03  0.00000000000E+00 0. -1.
         21    1    1    2  505  501  0.33310346995E+02  0.42654321335E+02  0.14147759713E+03  0.15147567738E+03  0.00000000000E+00 0. -1.
          2    1    1    2  501    0  0.27749854795E+02  0.14920237759E+02  0.58889498375E+03  0.58973720403E+03  0.00000000000E+00 0. -1.
<scales pt_clust_3="160.65965" pt_clust_4="41.79566" pt_clust_5="41.79566" pt_clust_6="31.50663"></scales>
<clustering>
<clus scale="   31.507">  1  6  2 -1</clus>
<clus scale="   41.796">  4  5 -1 -1</clus>
<clus scale="  160.660">  1  3  2 -1</clus>
<clus scale="  170.449">  2  3  1 -1</clus>
</clustering>
</event>
<event>
 6    0  0.4796958E+002  0.9042118E+02  0.7546771E-02  0.1301835E+00
          2   -1    0    0  505    0 -0.00000000000E+00  0.00000000000E+00  0.23095748006E+04  0.23095748006E+04  0.00000000000E+00 0.  1.
         21   -1    0    0  504  502  0.00000000000E+00 -0.00000000000E+00 -0.49510550628E+02  0.49510550628E+02  0.00000000000E+00 0. -1.
         21    1    1    2  503  501 -0.45477336814E+02  0.42859857341E+01  0.33860869092E+02  0.56860498529E+02  0.00000000000E+00 0. -1.
         21    1    1    2  504  503 -0.62833530912E+02 -0.63057886746E+02  0.35611837096E+02  0.95877800502E+02  0.00000000000E+00 0. -1.
         21    1    1    2  505  502  0.59816397667E+02  0.96339775682E+01  0.11836002725E+03  0.13296582645E+03  0.00000000000E+00 0.  1.
          2    1    1    2  501    0  0.48494470059E+02  0.49137923444E+02  0.20722315165E+04  0.20733812257E+04  0.00000000000E+00 0.  1.
<scales pt_clust_3="41.25716" pt_clust_4="41.25716" pt_clust_5="60.58725" pt_clust_6="69.70538"></scales>
<clustering>
<clus scale="   41.257">  3  4 -1 -1</clus>
<clus scale="   60.587">  2  5  1 -1</clus>
<clus scale="   69.705">  1  6  2 -1</clus>
<clus scale="   60.587">  2  3  1 -1</clus>
</clustering>
</event>
<event>
 6    0  0.4796958E+002  0.1765047E+03  0.7546771E-02  0.1171229E+00
         21   -1    0    0  503  502  0.00000000000E+00  0.00000000000E+00  0.44864670511E+03  0.44864670511E+03  0.00000000000E+00 0.  1.
          1   -1    0    0  505    0 -0.00000000000E+00 -0.00000000000E+00 -0.48752220967E+03  0.48752220967E+03  0.00000000000E+00 0. -1.
         21    1    1    2  503  504  0.66432846099E+02 -0.14890934871E+03  0.17261894298E+03  0.23745445174E+03  0.00000000000E+00 0.  1.
         21    1    1    2  504  501 -0.36040041622E+02  0.14644597996E+03 -0.43500465417E+02  0.15696369051E+03  0.00000000000E+00 0.  1.
         21    1    1    2  505  502  0.35847547710E+01 -0.45265194675E+02  0.18164644173E+03  0.18723572872E+03  0.00000000000E+00 0.  1.
          1    1    1    2  501    0 -0.33977559247E+02  0.47728563429E+02 -0.34964042385E+03  0.35451504382E+03  0.00000000000E+00 0. -1.
<scales pt_clust_3="176.50472" pt_clust_4="14000.00000" pt_clust_5="45.40692" pt_clust_6="58.22850"></scales>
<clustering>
<clus scale="   45.407">  1  5  2 -1</clus>
<clus scale="   58.228">  2  6  1 -1</clus>
<clus scale="  176.505">  1  3  2 -1</clus>
<clus scale="   45.407">  1  3  2 -1</clus>
</clustering>
</event>
<event>
 6    0  0.4796958E+002  0.1217670E+03  0.7546771E-02  0.1240210E+00
          1   -1    0    0  503    0 -0.00000000000E+00  0.00000000000E+00  0.40445732056E+03  0.40445732056E+03  0.00000000000E+00 0.  1.
         21   -1    0    0  504  502  0.00000000000E+00 -0.00000000000E+00 -0.29698980424E+03  0.29698980424E+03  0.00000000000E+00 0.  1.
         21    1    1    2  503  505 -0.12133106873E+02  0.12023939293E+03 -0.48591258201E+02  0.13025296261E+03  0.00000000000E+00 0.  1.
         21    1    1    2  504  501 -0.14455783085E+03 -0.54961645929E+02 -0.12980875399E+03  0.20191102396E+03  0.00000000000E+00 0.  1.
         21    1    1    2  505  502  0.53220640767E+02  0.26750882161E+01 -0.46515321927E+01  0.53490461321E+02  0.00000000000E+00 0. -1.
          1    1    1    2  501    0  0.10347029696E+03 -0.67952835217E+02  0.29051906070E+03  0.31579267692E+03  0.00000000000E+00 0.  1.
<scales pt_clust_3="121.26302" pt_clust_4="121.76699" pt_clust_5="53.28783" pt_clust_6="14000.00000"></scales>
<clustering>
<clus scale="   53.288">  2  5  1 -1</clus>
<clus scale="  121.263">  2  3  1 -1</clus>
<clus scale="  121.767">  2  4  1 -1</clus>
<clus scale="   53.288">  2  3  1 -1</clus>
</clustering>
</event>
<event>
 6    0  0.4796958E+002  0.7565059E+02  0.7546771E-02  0.1341868E+00
          1   -1    0    0  504    0 -0.00000000000E+00  0.00000000000E+00  0.30888124896E+03  0.30888124896E+03  0.00000000000E+00 0.  1.
         21   -1    0    0  505  502  0.00000000000E+00 -0.00000000000E+00 -0.56772067177E+03  0.56772067177E+03  0.00000000000E+00 0.  1.
         21    1    1    2  503  501  0.46528265946E+02 -0.55689742910E+02 -0.14765356019E+03  0.16452294926E+03  0.00000000000E+00 0.  1.
         21    1    1    2  504  502 -0.47737626952E+02 -0.51604210808E+02 -0.67263853974E+02  0.97294920995E+02  0.00000000000E+00 0.  1.
         21    1    1    2  505  503  0.34587800313E+02  0.69920342336E+02 -0.32246677808E+03  0.33176798093E+03  0.00000000000E+00 0.  1.
          1    1    1    2  501    0 -0.33378439308E+02  0.37373611381E+02  0.27854476943E+03  0.28301606954E+03  0.00000000000E+00 0.  1.
<scales pt_clust_3="57.53848" pt_clust_4="75.65059" pt_clust_5="14000.00000" pt_clust_6="50.10895"></scales>
<clustering>
<clus scale="   50.109">  1  6  2 -1</clus>
<clus scale="   57.538">  1  3  2 -1</clus>
<clus scale="   75.651">  1  4  2 -1</clus>
<clus scale="   75.651">  2  3  1 -1</clus>
</clustering>
</event>
<event>
 6    0  0.4796958E+002  0.7423593E+02  0.7546771E-02  0.1346254E+00
          2   -1    0    0  504    0 -0.00000000000E+00  0.00000000000E+00  0.18781729301E+04  0.18781729301E+04  0.00000000000E+00 0. -1.
         21   -1    0    0  503  502  0.00000000000E+00 -0.00000000000E+00 -0.22790285715E+03  0.22790285715E+03  0.00000000000E+00 0. -1.
         21    1    1    2  503  505 -0.51710696738E+01  0.11686822122E+03 -0.18720126832E+02  0.11847094261E+03  0.00000000000E+00 0. -1.
         21    1    1    2  504  502  0.34910440753E+02 -0.34561587774E+02 -0.13102992258E+03  0.13993599550E+03  0.00000000000E+00 0. -1.
         21    1    1    2  505  501  0.16640192274E+01 -0.47300274778E+02  0.29606264856E+00  0.47330461726E+02  0.00000000000E+00 0. -1.
          2    1    1    2  501    0 -0.31403390306E+02 -0.35006358670E+02  0.17997240597E+04  0.18003383874E+04  0.00000000000E+00 0. -1.
<scales pt_clust_3="14000.00000" pt_clust_4="49.32918" pt_clust_5="74.23593" pt_clust_6="47.02784"></scales>
<clustering>
<clus scale="   47.028">  1  6  2 -1</clus>
<clus scale="   49.329">  2  4  1 -1</clus>
<clus scale="   74.236">  1  5  2 -1</clus>
<clus scale="   49.329">  2  3  1 -1</clus>
</clustering>
</event>
<event>
 6    0  0.4796958E+002  0.1504110E+03  0.7546771E-02  0.1199969E+00
         -1   -1    0    0    0  501 -0.00000000000E+00  0.00000000000E+00  0.14704438718E+04  0.14704438718E+04  0.00000000000E+00 0.  1.
         21   -1    0    0  501  502  0.00000000000E+00 -0.00000000000E+00 -0.16886474129E+03  0.16886474129E+03  0.00000000000E+00 0.  1.
         21    1    1    2  503  505 -0.65718591976E+02 -0.20679890303E+03  0.18520279750E+03  0.28528020581E+03  0.00000000000E+00 0.  1.
         21    1    1    2  504  503  0.33529327686E+02  0.11873147376E+03  0.64228136175E+03  0.65402349065E+03  0.00000000000E+00 0.  1.
         21    1    1    2  505  502 -0.10880779634E+02  0.80500275495E+02 -0.97406184971E+02  0.12683316045E+03  0.00000000000E+00 0.  1.
         -1    1    1    2    0  504  0.43070043924E+02  0.75671537754E+01  0.57150115622E+03  0.57317175617E+03  0.00000000000E+00 0.  1.
<scales pt_clust_3="14000.00000" pt_clust_4="150.41104" pt_clust_5="81.26379" pt_clust_6="43.72974"></scales>
<clustering>
<clus scale="   43.730">  1  6  2 -1</clus>
<clus scale="   81.264">  2  5  1 -1</clus>
<clus scale="  150.411">  1  4  2 -1</clus>
<clus scale="   81.264">  2  3  1 -1</clus>
</clustering>
</event>
<event>
 6    0  0.4796958E+002  0.6969465E+02  0.7546771E-02  0.1361134E+00
          3   -1    0    0  504    0 -0.00000000000E+00  0.00000000000E+00  0.27284464847E+04  0.27284464847E+04  0.00000000000E+00 0. -1.
         21   -1    0    0  503  502  0.00000000000E+00 -0.00000000000E+00 -0.12996546632E+03  0.12996546632E+03  0.00000000000E+00 0.  1.
         21    1    1    2  503  501  0.38454365557E+01  0.48942442406E+02 -0.10154465582E+03  0.11278948168E+03  0.00000000000E+00 0.  1.
         21    1    1    2  504  505  0.10424827634E+01  0.52710059954E+02  0.21017046121E+03  0.21668193269E+03  0.00000000000E+00 0. -1.
         21    1    1    2  505  502 -0.60475589738E+02 -0.95053333317E+02  0.14598459102E+03  0.18440155624E+03  0.00000000000E+00 0.  1.
          3    1    1    2  501    0  0.55587670419E+02 -0.65991690436E+01  0.23438706219E+04  0.23445389804E+04  0.00000000000E+00 0. -1.
<scales pt_clust_3="49.09328" pt_clust_4="14000.00000" pt_clust_5="69.69465" pt_clust_6="55.95404"></scales>
<clustering>
<clus scale="   49.093">  2  3  1 -1</clus>
<clus scale="   55.954">  1  6  2 -1</clus>
<clus scale="   69.695">  2  5  1 -1</clus>
<clus scale="   49.093">  2  3  1 -1</clus>
</clustering>
</event>
<event>
 6    0  0.4796958E+002  0.9152913E+02  0.7546771E-02  0.1299190E+00
         21   -1    0    0  503  502  0.00000000000E+00  0.00000000000E+00  0.86758058033E+02  0.86758058033E+02  0.00000000000E+00 0.  1.
         -3   -1    0    0    0  501 -0.00000000000E+00 -0.00000000000E+00 -0.15302657330E+04  0.15302657330E+04  0.00000000000E+00 0. -1.
         21    1    1    2  503  505  0.64086412272E+02 -0.95810525798E+02 -0.29089944837E+02  0.11888208436E+03  0.00000000000E+00 0.  1.
         21    1    1    2  504  502 -0.29219166635E+02  0.73388421663E+01  0.11045205842E+02  0.32087612489E+02  0.00000000000E+00 0.  1.
         21    1    1    2  505  501 -0.46936848576E+02  0.56764421697E+02 -0.47436023108E+02  0.87609609137E+02  0.00000000000E+00 0.  1.
         -3    1    1    2    0  504  0.12069602939E+02  0.31707261935E+02 -0.13780269128E+04  0.13784444850E+04  0.00000000000E+00 0. -1.
<scales pt_clust_3="14000.00000" pt_clust_4="30.12670" pt_clust_5="91.52913" pt_clust_6="33.91558"></scales>
<clustering>
<clus scale="   30.127">  1  4  2 -1</clus>
<clus scale="   33.916">  2  6  1 -1</clus>
<clus scale="   91.529">  2  5  1 -1</clus>
<clus scale="   30.127">  1  3  2 -1</clus>
</clustering>
</event>
<event>
 6    0  0.4796958E+002  0.9476255E+02  0.7546771E-02  0.1291712E+00
         21   -1    0    0  503  502  0.00000000000E+00  0.00000000000E+00  0.52332771719E+03  0.52332771719E+03  0.00000000000E+00 0. -1.
          2   -1    0    0  504    0 -0.00000000000E+00 -0.00000000000E+00 -0.18116187920E+03  0.18116187920E+03  0.00000000000E+00 0.  1.
         21    1    1    2  503  505 -0.13948528289E+02 -0.30855737391E+02  0.14104299515E+03  0.14505090297E+03  0.00000000000E+00 0. -1.
         21    1    1    2  504  502  0.11016121361E+03 -0.50830044224E+02  0.18301956836E+03  0.21957993711E+03  0.00000000000E+00 0. -1.
         21    1    1    2  505  501 -0.56487983149E+02  0.62936543281E+02  0.16560844795E+03  0.18595176459E+03  0.00000000000E+00 0. -1.
          2    1    1    2  501    0 -0.39724702174E+02  0.18749238334E+02 -0.14750517347E+03  0.15390699173E+03  0.00000000000E+00 0.  1.
<scales pt_clust_3="33.86204" pt_clust_4="94.76255" pt_clust_5="14000.00000" pt_clust_6="43.92330"></scales>
<clustering>
<clus scale="   33.862">  1  3  2 -1</clus>
<clus scale="   43.923">  2  6  1 -1</clus>
<clus scale="   94.763">  2  4  1 -1</clus>
<clus scale="   33.862">  1  3  2 -1</clus>
</clustering>
</event>
<event>
 6    0  0.4796958E+002  0.1231913E+03  0.7546771E-02  0.1237923E+00
         21   -1    0    0  503  502  0.00000000000E+00  0.00000000000E+00  0.61048705416E+03  0.61048705416E+03  0.00000000000E+00 0. -1.
         -2   -1    0    0    0  501 -0.00000000000E+00 -0.00000000000E+00 -0.87824492999E+02  0.87824492999E+02  0.00000000000E+00 0. -1.
         21    1    1    2  503  505 -0.28987119197E+02 -0.35078508228E+02  0.27977048134E+03  0.28344713272E+03  0.00000000000E+00 0. -1.
         21    1    1    2  504  502 -0.27142027418E+02  0.13597676804E+03  0.17872083542E+03  0.22620236098E+03  0.00000000000E+00 0. -1.
         21    1    1    2  505  501  0.95829687551E+02 -0.84456506450E+02  0.69406796668E+02  0.14537377316E+03  0.00000000000E+00 0. -1.
         -2    1    1    2    0  504 -0.39700540935E+02 -0.16441753358E+02 -0.52355522705E+01  0.43288280303E+02  0.00000000000E+00 0. -1.
<scales pt_clust_3="46.60715" pt_clust_4="123.19129" pt_clust_5="14000.00000" pt_clust_6="42.97050"></scales>
<clustering>
<clus scale="   42.971">  2  6  1 -1</clus>
<clus scale="   46.607">  1  3  2 -1</clus>
<clus scale="  123.191">  1  4  2 -1</clus>
<clus scale="   46.607">  1  3  2 -1</clus>
</clustering>
</event>
<event>
 6    0  0.4796958E+002  0.1111805E+03  0.7546771E-02  0.1258399E+00
         -3   -1    0    0    0  501 -0.00000000000E+00  0.00000000000E+00  0.38872654430E+03  0.38872654430E+03  0.00000000000E+00 0.  1.
         21   -1    0    0  503  502  0.00000000000E+00 -0.00000000000E+00 -0.20696978402E+04  0.20696978402E+04  0.00000000000E+00 0.  1.
         21    1    1    2  503  501  0.88468961080E+01  0.44029786727E+02 -0.85744996328E+02  0.96794080838E+02  0.00000000000E+00 0. -1.
         21    1    1    2  504  502 -0.65806842840E+02  0.10611383685E+02 -0.16190409761E+04  0.16204125476E+04  0.00000000000E+00 0.  1.
         21    1    1    2  505  504  0.10714404107E+02 -0.15506996464E+03 -0.33309310840E+03  0.36757653795E+03  0.00000000000E+00 0.  1.
         -3    1    1    2    0  505  0.46245542625E+02  0.10042879423E+03  0.35690778495E+03  0.37364121812E+03  0.00000000000E+00 0.  1.
<scales pt_clust_3="44.90980" pt_clust_4="74.87811" pt_clust_5="111.18046" pt_clust_6="14000.00000"></scales>
<clustering>
<clus scale="   44.910">  2  3  1 -1</clus>
<clus scale="   74.878">  2  4  1 -1</clus>
<clus scale="  111.180">  2  5  1 -1</clus>
<clus scale="   44.910">  2  3  1 -1</clus>
</clustering>
</event>
<event>
 6    0  0.4796958E+002  0.9505817E+02  0.7546771E-02  0.1291045E+00
         21   -1    0    0  504  502  0.00000000000E+00  0.00000000000E+00  0.58381531509E+03  0.58381531509E+03  0.00000000000E+00 0.  1.
          2   -1    0    0  503    0 -0.00000000000E+00 -0.00000000000E+00 -0.31669777771E+04  0.31669777771E+04  0.00000000000E+00 0. -1.
         21    1    1    2  503  505  0.11581606404E+03 -0.53612511045E+02  0.33062940552E+02  0.13183633820E+03  0.00000000000E+00 0.  1.
         21    1    1    2  504  501 -0.23420748173E+02  0.65832101040E+02 -0.90983127812E+02  0.11471846634E+03  0.00000000000E+00 0.  1.
         21    1    1    2  505  502 -0.30604416463E+02 -0.64994597310E+01  0.48867835582E+03  0.48967888328E+03  0.00000000000E+00 0.  1.
          2    1    1    2  501    0 -0.61790899408E+02 -0.57201302641E+01 -0.30139206305E+04  0.30145594044E+04  0.00000000000E+00 0. -1.
<scales pt_clust_3="14000.00000" pt_clust_4="95.05817" pt_clust_5="31.28695" pt_clust_6="62.15997"></scales>
<clustering>
<clus scale="   31.287">  1  5  2 -1</clus>
<clus scale="   62.160">  2  6  1 -1</clus>
<clus scale="   95.058">  2  4  1 -1</clus>
<clus scale="   31.287">  1  3  2 -1</clus>
</clustering>
</event>
<event>
 6    0  0.4796958E+002  0.1540725E+03  0.7546771E-02  0.1195556E+00
          1   -1    0    0  505    0 -0.00000000000E+00  0.00000000000E+00  0.55596321266E+03  0.55596321266E+03  0.00000000000E+00 0. -1.
         21   -1    0    0  503  502  0.00000000000E+00 -0.00000000000E+00 -0.10690520784E+03  0.10690520784E+03  0.00000000000E+00 0. -1.
         21    1    1    2  503  501  0.89431188559E+02  0.12266094314E+03  0.16815907048E+03  0.22654164616E+03  0.00000000000E+00 0. -1.
         21    1    1    2  504  502 -0.13398514346E+03 -0.85396630620E+02  0.39782719614E+02  0.16379031708E+03  0.00000000000E+00 0. -1.
         21    1    1    2  505  504  0.13030621848E+01 -0.51558118863E+02  0.37190497354E+02  0.63585145162E+02  0.00000000000E+00 0. -1.
          1    1    1    2  501    0  0.43250892716E+02  0.14293806341E+02  0.20392571737E+03  0.20895131210E+03  0.00000000000E+00 0. -1.
<scales pt_clust_3="154.07253" pt_clust_4="14000.00000" pt_clust_5="50.06823" pt_clust_6="45.55165"></scales>
<clustering>
<clus scale="   45.552">  1  6  2 -1</clus>
<clus scale="   50.068">  1  5  2 -1</clus>
<clus scale="  154.073">  1  3  2 -1</clus>
<clus scale="  154.073">  2  3  1 -1</clus>
</clustering>
</event>
<event>
 6    0  0.4796958E+002  0.1669930E+03  0.7546771E-02  0.1181020E+00
          2   -1    0    0  502    0 -0.00000000000E+00  0.00000000000E+00  0.23093357741E+04  0.23093357741E+04  0.00000000000E+00 0. -1.
         21   -1    0    0  503  502  0.00000000000E+00 -0.00000000000E+00 -0.75964849824E+02  0.75964849824E+02  0.00000000000E+00 0.  1.
         21    1    1    2  503  504  0.47839469075E+02  0.20700348825E+02 -0.26253774360E+02  0.58364200594E+02  0.00000000000E+00 0.  1.
         21    1    1    2  504  505  0.10230914503E+03  0.50423827104E+02  0.77175643899E+02  0.13771638794E+03  0.00000000000E+00 0.  1.
         21    1    1    2  505  501 -0.56378159383E+02 -0.40041117069E+02  0.11419954292E+04  0.11440871244E+04  0.00000000000E+00 0.  1.
          2    1    1    2  501    0 -0.93770454725E+02 -0.31083058860E+02  0.10404536256E+04  0.10451329111E+04  0.00000000000E+00 0. -1.
<scales pt_clust_3="52.12599" pt_clust_4="160.90198" pt_clust_5="37.39038" pt_clust_6="37.39038"></scales>
<clustering>
<clus scale="   37.390">  5  6 -1 -1</clus>
<clus scale="   52.126">  2  3  1 -1</clus>
<clus scale="  160.902">  2  4  1 -1</clus>
<clus scale="   52.126">  2  3  1 -1</clus>
</clustering>
</event>
<event>
 6    0  0.4796958E+002  0.1213306E+03  0.7546771E-02  0.1240918E+00
          2   -1    0    0  503    0 -0.00000000000E+00  0.00000000000E+00  0.26896582551E+03  0.26896582551E+03  0.00000000000E+00 0. -1.
         21   -1    0    0  505  502  0.00000000000E+00 -0.00000000000E+00 -0.10813632432E+03  0.10813632432E+03  0.00000000000E+00 0. -1.
         21    1    1    2  503  504  0.34859188584E+02  0.87015004806E+02  0.70460179053E+02  0.11726641003E+03  0.00000000000E+00 0. -1.
         21    1    1    2  504  502 -0.35139902770E+02  0.52909585831E+02 -0.28066447221E+02  0.69440352095E+02  0.00000000000E+00 0. -1.
         21    1    1    2  505  501  0.25969022989E+01 -0.87060486708E+02  0.40159354768E+02  0.95911657387E+02  0.00000000000E+00 0. -1.
          2    1    1    2  501    0 -0.23161881132E+01 -0.52864103929E+02  0.78276414593E+02  0.94483730309E+02  0.00000000000E+00 0. -1.
<scales pt_clust_3="109.89410" pt_clust_4="63.51564" pt_clust_5="40.08163" pt_clust_6="40.08163"></scales>
<clustering>
<clus scale="   40.082">  5  6 -1 -1</clus>
<clus scale="   63.516">  2  4  1 -1</clus>
<clus scale="  109.894">  1  3  2 -1</clus>
<clus scale="   63.516">  2  3  1 -1</clus>
</clustering>
</event>
<event>
 6    0  0.4796958E+002  0.9929053E+02  0.7546771E-02  0.1281795E+00
         21   -1    0    0  505  502  0.00000000000E+00  0.00000000000E+00  0.60901539755E+03  0.60901539755E+03  0.00000000000E+00 0. -1.
          2   -1    0    0  503    0 -0.00000000000E+00 -0.00000000000E+00 -0.38167266499E+04  0.38167266499E+04  0.00000000000E+00 0.  1.
         21    1    1    2  503  502  0.34838308793E+02 -0.20428771748E+02  0.95359247563E+02  0.10355881696E+03  0.00000000000E+00 0.  1.
         21    1    1    2  504  501  0.12609938711E+03  0.35291028887E+02  0.11993760843E+03  0.17757123096E+03  0.00000000000E+00 0. -1.
         21    1    1    2  505  504 -0.62615957642E+02 -0.20114513657E+01  0.35742743818E+03  0.36287625666E+03  0.00000000000E+00 0. -1.
          2    1    1    2  501    0 -0.98321738265E+02 -0.12850805773E+02 -0.37804355465E+04  0.37817357429E+04  0.00000000000E+00 0.  1.
<scales pt_clust_3="40.38617" pt_clust_4="99.29053" pt_clust_5="41.40096" pt_clust_6="14000.00000"></scales>
<clustering>
<clus scale="   40.386">  1  3  2 -1</clus>
<clus scale="   41.401">  1  5  2 -1</clus>
<clus scale="   99.291">  1  4  2 -1</clus>
<clus scale="   40.386">  1  3  2 -1</clus>
</clustering>
</event>
<event>
 6    0  0.4796958E+002  0.9891737E+02  0.7546771E-02  0.1282589E+00
          2   -1    0    0  504    0 -0.00000000000E+00  0.00000000000E+00  0.12573883572E+04  0.12573883572E+04  0.00000000000E+00 0. -1.
         21   -1    0    0  503  502  0.00000000000E+00 -0.00000000000E+00 -0.23080490098E+03  0.23080490098E+03  0.00000000000E+00 0.  1.
         21    1    1    2  503  505  0.18363608993E+02 -0.39643271331E+02 -0.16459505151E+03  0.17029486804E+03  0.00000000000E+00 0.  1.
         21    1    1    2  504  502  0.75429351403E+02 -0.42705978213E+00 -0.27966475052E+02  0.80448077416E+02  0.00000000000E+00 0.  1.
         21    1    1    2  505  501 -0.11483796277E+03  0.15865418803E+02  0.37081364042E+03  0.38851283779E+03  0.00000000000E+00 0. -1.
          2    1    1    2  501    0  0.21045002370E+02  0.24204912310E+02  0.84833134238E+03  0.84893747495E+03  0.00000000000E+00 0. -1.
<scales pt_clust_3="43.59896" pt_clust_4="14000.00000" pt_clust_5="98.91737" pt_clust_6="32.07444"></scales>
<clustering>
<clus scale="   32.074">  1  6  2 -1</clus>
<clus scale="   43.599">  2  3  1 -1</clus>
<clus scale="   98.917">  1  5  2 -1</clus>
<clus scale="   43.599">  2  3  1 -1</clus>
</clustering>
</event>
<event>
 6    0  0.4796958E+002  0.9964488E+02  0.7546771E-02  0.1281044E+00
         -4   -1    0    0    0  501 -0.00000000000E+00  0.00000000000E+00  0.31471294039E+03  0.31471294039E+03  0.00000000000E+00 0.  1.
         21   -1    0    0  503  502  0.00000000000E+00 -0.00000000000E+00 -0.11015013640E+04  0.11015013640E+04  0.00000000000E+00 0. -1.
         21    1    1    2  503  504 -0.32179885460E+02 -0.30991003813E+01 -0.19594265334E+03  0.19859172402E+03  0.00000000000E+00 0. -1.
         21    1    1    2  504  501  0.78114139729E+02  0.79590292812E+02 -0.29778548553E+03  0.31798212045E+03  0.00000000000E+00 0. -1.
         21    1    1    2  505  502 -0.96910673281E+01 -0.93524643546E+02 -0.59129751996E+03  0.59872659273E+03  0.00000000000E+00 0. -1.
         -4    1    1    2    0  505 -0.36243186940E+02  0.17033451115E+02  0.29823723516E+03  0.30091386723E+03  0.00000000000E+00 0.  1.
<scales pt_clust_3="32.32877" pt_clust_4="14000.00000" pt_clust_5="99.64488" pt_clust_6="40.08747"></scales>
<clustering>
<clus scale="   32.329">  2  3  1 -1</clus>
<clus scale="   40.087">  1  6  2 -1</clus>
<clus scale="   99.645">  2  5  1 -1</clus>
<clus scale="   32.329">  2  3  1 -1</clus>
</clustering>
</event>
<event>
 6    0  0.4796958E+002  0.9822720E+02  0.7546771E-02  0.1284069E+00
          1   -1    0    0  505    0 -0.00000000000E+00  0.00000000000E+00  0.34325635091E+04  0.34325635091E+04  0.00000000000E+00 0.  1.
         21   -1    0    0  501  502  0.00000000000E+00 -0.00000000000E+00 -0.29764303623E+02  0.29764303623E+02  0.00000000000E+00 0. -1.
         21    1    1    2  503  504 -0.34025299785E+02  0.14660776396E+03  0.16084426803E+04  0.16154687906E+04  0.00000000000E+00 0.  1.
         21    1    1    2  504  502  0.66448079551E+02 -0.69713296059E+02  0.68958824730E+02  0.11845087772E+03  0.00000000000E+00 0. -1.
         21    1    1    2  505  503 -0.29630770487E+02 -0.19436459783E+02  0.34565362361E+03  0.34746537387E+03  0.00000000000E+00 0. -1.
          1    1    1    2  501    0 -0.27920092786E+01 -0.57458008116E+02  0.13797440769E+04  0.13809427706E+04  0.00000000000E+00 0.  1.
<scales pt_clust_3="14000.00000" pt_clust_4="98.22720" pt_clust_5="35.43668" pt_clust_6="68.06995"></scales>
<clustering>
<clus scale="   35.437">  1  5  2 -1</clus>
<clus scale="   68.070">  1  6  2 -1</clus>
<clus scale="   98.227">  2  4  1 -1</clus>
<clus scale="   98.227">  2  3  1 -1</clus>
</clustering>
</event>
<event>
 6    0  0.4796958E+002  0.3699925E+03  0.7546771E-02  0.1054696E+00
          4   -1    0    0  504    0 -0.00000000000E+00  0.00000000000E+00  0.28722039154E+03  0.28722039154E+03  0.00000000000E+00 0. -1.
         21   -1    0    0  505  502  0.00000000000E+00 -0.00000000000E+00 -0.30352788410E+04  0.30352788410E+04  0.00000000000E+00 0.  1.
         21    1    1    2  503  502 -0.22079644142E+02  0.23423196231E+02 -0.50114528880E+03  0.50217801355E+03  0.00000000000E+00 0.  1.
         21    1    1    2  504  503 -0.37949900381E+03 -0.16881697151E+03 -0.13819618114E+04  0.14430305305E+04  0.00000000000E+00 0.  1.
         21    1    1    2  505  501  0.46039486425E+02  0.57247039012E+02 -0.98811034663E+03  0.99083748157E+03  0.00000000000E+00 0.  1.
          4    1    1    2  501    0  0.35553916153E+03  0.88146736264E+02  0.12315899738E+03  0.38645320691E+03  0.00000000000E+00 0. -1.
<scales pt_clust_3="32.18939" pt_clust_4="14000.00000" pt_clust_5="76.21189" pt_clust_6="369.99246"></scales>
<clustering>
<clus scale="   32.189">  2  3  1 -1</clus>
<clus scale="   76.212">  2  5  1 -1</clus>
<clus scale="  369.992">  1  6  2 -1</clus>
<clus scale="   32.189">  2  3  1 -1</clus>
</clustering>
</event>
<event>
 6    0  0.4796958E+002  0.1221001E+03  0.7546771E-02  0.1239672E+00
          1   -1    0    0  503    0 -0.00000000000E+00  0.00000000000E+00  0.70601005720E+03  0.70601005720E+03  0.00000000000E+00 0. -1.
         21   -1    0    0  504  502  0.00000000000E+00 -0.00000000000E+00 -0.86270842662E+02  0.86270842662E+02  0.00000000000E+00 0.  1.
         21    1    1    2  503  502  0.28308604514E+02  0.12771294385E+03  0.19342947433E+03  0.23351003117E+03  0.00000000000E+00 0.  1.
         21    1    1    2  504  505  0.15164653433E+02 -0.30511632835E+02 -0.33396366022E+02  0.47709995970E+02  0.00000000000E+00 0.  1.
         21    1    1    2  505  501 -0.93373616653E+01 -0.11033785060E+03  0.99091053628E+02  0.14859564094E+03  0.00000000000E+00 0.  1.
          1    1    1    2  501    0 -0.34135896282E+02  0.13136539577E+02  0.36061505261E+03  0.36246523178E+03  0.00000000000E+00 0. -1.
<scales pt_clust_3="14000.00000" pt_clust_4="34.07237" pt_clust_5="122.10007" pt_clust_6="36.07122"></scales>
<clustering>
<clus scale="   34.072">  2  4  1 -1</clus>
<clus scale="   36.071">  1  6  2 -1</clus>
<clus scale="  122.100">  2  5  1 -1</clus>
<clus scale="   34.072">  2  3  1 -1</clus>
</clustering>
</event>
<event>
 6    0  0.4796958E+002  0.8865149E+02  0.7546771E-02  0.1306151E+00
         21   -1    0    0  501  502  0.00000000000E+00  0.00000000000E+00  0.10596079722E+03  0.10596079722E+03  0.00000000000E+00 0.  1.
          2   -1    0    0  505    0 -0.00000000000E+00 -0.00000000000E+00 -0.20019427681E+04  0.20019427681E+04  0.00000000000E+00 0. -1.
         21    1    1    2  503  504 -0.92672495440E+01 -0.10245634632E+03  0.36329963420E+02  0.10910110475E+03  0.00000000000E+00 0.  1.
         21    1    1    2  504  502 -0.23830620914E+02  0.19538031719E+02  0.22932316973E+02  0.38412554437E+02  0.00000000000E+00 0.  1.
         21    1    1    2  505  503 -0.32378825889E+02  0.51040704662E+02 -0.56141320194E+03  0.56465770623E+03  0.00000000000E+00 0. -1.
          2    1    1    2  501    0  0.65476696347E+02  0.31877609936E+02 -0.13938310493E+04  0.13957321999E+04  0.00000000000E+00 0. -1.
<scales pt_clust_3="88.65149" pt_clust_4="30.81612" pt_clust_5="61.07544" pt_clust_6="14000.00000"></scales>
<clustering>
<clus scale="   30.816">  1  4  2 -1</clus>
<clus scale="   61.075">  2  5  1 -1</clus>
<clus scale="   88.651">  1  3  2 -1</clus>
<clus scale="   30.816">  1  3  2 -1</clus>
</clustering>
</event>
<event>
 6    0  0.4796958E+002  0.1385783E+03  0.7546771E-02  0.1215255E+00
          2   -1    0    0  504    0 -0.00000000000E+00  0.00000000000E+00  0.19868159557E+04  0.19868159557E+04  0.00000000000E+00 0.  1.
         21   -1    0    0  505  502  0.00000000000E+00 -0.00000000000E+00 -0.74744695450E+03  0.74744695450E+03  0.00000000000E+00 0.  1.
         21    1    1    2  503  502  0.91831880470E+01  0.44192418633E+02 -0.27798306012E+03  0.28162365405E+03  0.00000000000E+00 0.  1.
         21    1    1    2  504  503  0.78173321053E+01  0.66989105545E+02  0.15339572312E+03  0.16756759476E+03  0.00000000000E+00 0.  1.
         21    1    1    2  505  501  0.70164287133E+01 -0.18158571268E+03 -0.44183671271E+03  0.47774709001E+03  0.00000000000E+00 0.  1.
          2    1    1    2  501    0 -0.24016948866E+02  0.70404188498E+02  0.18057930509E+04  0.18073245714E+04  0.00000000000E+00 0.  1.
<scales pt_clust_3="45.13647" pt_clust_4="68.12495" pt_clust_5="14000.00000" pt_clust_6="138.57831"></scales>
<clustering>
<clus scale="   45.136">  2  3  1 -1</clus>
<clus scale="   68.125">  1  4  2 -1</clus>
<clus scale="  138.578">  1  6  2 -1</clus>
<clus scale="   45.136">  2  3  1 -1</clus>
</clustering>
</event>
<event>
 6    0  0.4796958E+002  0.9048584E+02  0.7546771E-02  0.1301679E+00
         21   -1    0    0  505  502  0.00000000000E+00  0.00000000000E+00  0.29402662304E+03  0.29402662304E+03  0.00000000000E+00 0.  1.
          1   -1    0    0  504    0 -0.00000000000E+00 -0.00000000000E+00 -0.17864839080E+04  0.17864839080E+04  0.00000000000E+00 0. -1.
         21    1    1    2  503  501 -0.59640425554E+02 -0.11664865894E+03 -0.20365331727E+03  0.24215400808E+03  0.00000000000E+00 0.  1.
         21    1    1    2  504  502  0.23670509290E+02  0.77653567371E+02 -0.34032898456E+03  0.34987738890E+03  0.00000000000E+00 0.  1.
         21    1    1    2  505  503 -0.42480271914E+02 -0.27263567518E+01  0.26669204406E+03  0.27006786719E+03  0.00000000000E+00 0.  1.
          1    1    1    2  501    0  0.78450188178E+02  0.41721448323E+02 -0.12151670272E+04  0.12184112668E+04  0.00000000000E+00 0. -1.
<scales pt_clust_3="90.48584" pt_clust_4="78.73992" pt_clust_5="42.56767" pt_clust_6="14000.00000"></scales>
<clustering>
<clus scale="   42.568">  1  5  2 -1</clus>
<clus scale="   78.740">  1  4  2 -1</clus>
<clus scale="   90.486">  1  3  2 -1</clus>
<clus scale="   42.568">  1  3  2 -1</clus>
</clustering>
</event>
<event>
 6    0  0.4796958E+002  0.9247798E+02  0.7546771E-02  0.1296959E+00
          2   -1    0    0  502    0 -0.00000000000E+00  0.00000000000E+00  0.10328868902E+03  0.10328868902E+03  0.00000000000E+00 0.  1.
         21   -1    0    0  505  502  0.00000000000E+00 -0.00000000000E+00 -0.43017736609E+03  0.43017736609E+03  0.00000000000E+00 0.  1.
         21    1    1    2  503  501 -0.15366735032E+02 -0.93592082683E+02 -0.48086489474E+02  0.10633872745E+03  0.00000000000E+00 0.  1.
         21    1    1    2  504  503 -0.41200587372E+02  0.74577924824E+01 -0.95714369800E+02  0.10447175530E+03  0.00000000000E+00 0.  1.
         21    1    1    2  505  504 -0.26369481432E+02  0.28099052804E+02 -0.21350831694E+03  0.21695784780E+03  0.00000000000E+00 0.  1.
          2    1    1    2  501    0  0.82936803837E+02  0.58035237397E+02  0.30420499140E+02  0.10569772457E+03  0.00000000000E+00 0.  1.
<scales pt_clust_3="92.47798" pt_clust_4="57.28977" pt_clust_5="38.53448" pt_clust_6="14000.00000"></scales>
<clustering>
<clus scale="   38.534">  2  5  1 -1</clus>
<clus scale="   57.290">  2  4  1 -1</clus>
<clus scale="   92.478">  2  3  1 -1</clus>
<clus scale="   38.534">  2  3  1 -1</clus>
</clustering>
</event>
<event>
 6    0  0.4796958E+002  0.1139463E+03  0.7546771E-02  0.1253432E+00
         -1   -1    0    0    0  501 -0.00000000000E+00  0.00000000000E+00  0.34889830514E+03  0.34889830514E+03  0.00000000000E+00 0. -1.
         21   -1    0    0  504  502  0.00000000000E+00 -0.00000000000E+00 -0.20913725016E+03  0.20913725016E+03  0.00000000000E+00 0.  1.
         21    1    1    2  503  501  0.50792152730E+02 -0.10339117275E+03 -0.81251870873E+02  0.14096610906E+03  0.00000000000E+00 0.  1.
         21    1    1    2  504  503 -0.14380043171E+02 -0.32548894326E+02 -0.71122922783E+02  0.79527896417E+02  0.00000000000E+00 0.  1.
         21    1    1    2  505  502 -0.38524682243E+01  0.79933834104E+02  0.70565197625E+02  0.10669445375E+03  0.00000000000E+00 0. -1.
         -1    1    1    2    0  505 -0.32559641335E+02  0.56006232975E+02  0.22157065101E+03  0.23084709608E+03  0.00000000000E+00 0. -1.
<scales pt_clust_3="14000.00000" pt_clust_4="35.58393" pt_clust_5="113.94630" pt_clust_6="64.06585"></scales>
<clustering>
<clus scale="   35.584">  2  4  1 -1</clus>
<clus scale="   64.066">  1  6  2 -1</clus>
<clus scale="  113.946">  1  5  2 -1</clus>
<clus scale="   35.584">  2  3  1 -1</clus>
</clustering>
</event>
<event>
 6    0  0.4796958E+002  0.1143627E+03  0.7546771E-02  0.1252698E+00
         21   -1    0    0  501  502  0.00000000000E+00  0.00000000000E+00  0.34831499694E+03  0.34831499694E+03  0.00000000000E+00 0.  1.
          1   -1    0    0  503    0 -0.00000000000E+00 -0.00000000000E+00 -0.31083736137E+04  0.31083736137E+04  0.00000000000E+00 0. -1.
         21    1    1    2  503  505 -0.90195521006E+01  0.49882325285E+02 -0.50288032883E+03  0.50542875246E+03  0.00000000000E+00 0. -1.
         21    1    1    2  504  502 -0.10986517186E+03 -0.32639761895E+02  0.33518204621E+03  0.35423539369E+03  0.00000000000E+00 0.  1.
         21    1    1    2  505  504  0.51567308049E+02  0.93211893683E+01 -0.39354975456E+03  0.39702327532E+03  0.00000000000E+00 0.  1.
          1    1    1    2  501    0  0.67317415915E+02 -0.26563752759E+02 -0.21988105795E+04  0.22000011891E+04  0.00000000000E+00 0. -1.
<scales pt_clust_3="50.69121" pt_clust_4="114.36267" pt_clust_5="52.96440" pt_clust_6="14000.00000"></scales>
<clustering>
<clus scale="   50.691">  2  3  1 -1</clus>
<clus scale="   52.964">  2  5  1 -1</clus>
<clus scale="  114.363">  1  4  2 -1</clus>
<clus scale="  114.363">  1  3  2 -1</clus>
</clustering>
</event>
<event>
 6    0  0.4796958E+002  0.7799481E+02  0.7546771E-02  0.1334840E+00
          1   -1    0    0  504    0 -0.00000000000E+00  0.00000000000E+00  0.24378357288E+04  0.24378357288E+04  0.00000000000E+00 0.  1.
         21   -1    0    0  505  502  0.00000000000E+00 -0.00000000000E+00 -0.15391737656E+03  0.15391737656E+03  0.00000000000E+00 0.  1.
         21    1    1    2  503  502 -0.48735430302E+02  0.31421373683E+02 -0.12795861516E+03  0.14048434818E+03  0.00000000000E+00 0.  1.
         21    1    1    2  504  503  0.11378430884E+03  0.28372160591E+02  0.15619299183E+04  0.15663259297E+04  0.00000000000E+00 0.  1.
         21    1    1    2  505  501 -0.25464783344E+02 -0.59833615875E+02  0.45130735277E+02  0.79153648344E+02  0.00000000000E+00 0. -1.
          1    1    1    2  501    0 -0.39584095191E+02  0.40081601222E-01  0.80481631385E+03  0.80578917916E+03  0.00000000000E+00 0.  1.
<scales pt_clust_3="58.11436" pt_clust_4="14000.00000" pt_clust_5="77.99481" pt_clust_6="39.58412"></scales>
<clustering>
<clus scale="   39.584">  1  6  2 -1</clus>
<clus scale="   58.114">  2  3  1 -1</clus>
<clus scale="   77.995">  2  5  1 -1</clus>
<clus scale="   58.114">  2  3  1 -1</clus>
</clustering>
</event>
<event>
 6    0  0.4796958E+002  0.1187541E+03  0.7546771E-02  0.1245167E+00
          2   -1    0    0  504    0 -0.00000000000E+00  0.00000000000E+00  0.33612402280E+04  0.33612402280E+04  0.00000000000E+00 0.  1.
         21   -1    0    0  505  502  0.00000000000E+00 -0.00000000000E+00 -0.39189899614E+03  0.39189899614E+03  0.00000000000E+00 0. -1.
         21    1    1    2  503  502 -0.32327268958E+02 -0.94915099665E+01 -0.18823047635E+02  0.38593369923E+02  0.00000000000E+00 0. -1.
         21    1    1    2  504  503  0.18015265515E+03  0.14831550311E+02 -0.33364904485E+03  0.37946889092E+03  0.00000000000E+00 0. -1.
         21    1    1    2  505  501 -0.30280092888E+02  0.10203591313E+02  0.40337799157E+02  0.51460036357E+02  0.00000000000E+00 0. -1.
          2    1    1    2  501    0 -0.11754529331E+03 -0.15543631657E+02  0.32814755252E+04  0.32836169270E+04  0.00000000000E+00 0.  1.
<scales pt_clust_3="35.66319" pt_clust_4="118.75409" pt_clust_5="31.95305" pt_clust_6="14000.00000"></scales>
<clustering>
<clus scale="   31.953">  2  5  1 -1</clus>
<clus scale="   35.663">  2  3  1 -1</clus>
<clus scale="  118.754">  2  4  1 -1</clus>
<clus scale="   31.953">  2  3  1 -1</clus>
</clustering>
</event>
<event>
 6    0  0.4796958E+002  0.7493635E+02  0.7546771E-02  0.1344068E+00
         21   -1    0    0  501  502  0.00000000000E+00  0.00000000000E+00  0.10703787141E+03  0.10703787141E+03  0.00000000000E+00 0. -1.
          1   -1    0    0  503    0 -0.00000000000E+00 -0.00000000000E+00 -0.38823284778E+04  0.38823284778E+04  0.00000000000E+00 0.  1.
         21    1    1    2  503  505 -0.47307708502E+02 -0.12003114767E+03 -0.39215864219E+03  0.41283640384E+03  0.00000000000E+00 0. -1.
         21    1    1    2  504  502 -0.38023172872E+02 -0.34151154648E+02  0.26907860951E+02  0.57758947532E+02  0.00000000000E+00 0. -1.
         21    1    1    2  505  504  0.71425183575E+02  0.82548760323E+02 -0.12163027610E+01  0.10916654282E+03  0.00000000000E+00 0. -1.
          1    1    1    2  501    0  0.13905697799E+02  0.71633541999E+02 -0.34088235224E+04  0.34096044550E+04  0.00000000000E+00 0.  1.
<scales pt_clust_3="74.93635" pt_clust_4="51.10835" pt_clust_5="67.07604" pt_clust_6="14000.00000"></scales>
<clustering>
<clus scale="   51.108">  1  4  2 -1</clus>
<clus scale="   67.076">  1  5  2 -1</clus>
<clus scale="   74.936">  1  3  2 -1</clus>
<clus scale="   51.108">  1  3  2 -1</clus>
</clustering>
</event>
<event>
 6    0  0.4796958E+002  0.6910039E+02  0.7546771E-02  0.1363179E+00
         21   -1    0    0  504  502  0.00000000000E+00  0.00000000000E+00  0.86438887375E+02  0.86438887375E+02  0.00000000000E+00 0.  1.
          2   -1    0    0  505    0 -0.00000000000E+00 -0.00000000000E+00 -0.22725025308E+04  0.22725025308E+04  0.00000000000E+00 0. -1.
         21    1    1    2  503  501 -0.59212694370E+02  0.99336409170E+02  0.18035384866E+02  0.11704332731E+03  0.00000000000E+00 0.  1.
         21    1    1    2  504  503  0.15439323732E+02 -0.32461111628E+02 -0.11184338659E+02  0.37645529836E+02  0.00000000000E+00 0. -1.
         21    1    1    2  505  502  0.35290861814E+02  0.13976805629E+01 -0.55847733096E+02  0.66078496733E+02  0.00000000000E+00 0. -1.
          2    1    1    2  501    0  0.84825088240E+01 -0.68272978105E+02 -0.21370669566E+04  0.21381740643E+04  0.00000000000E+00 0. -1.
<scales pt_clust_3="14000.00000" pt_clust_4="38.56994" pt_clust_5="35.31853" pt_clust_6="69.10039"></scales>
<clustering>
<clus scale="   35.319">  1  5  2 -1</clus>
<clus scale="   38.570">  1  4  2 -1</clus>
<clus scale="   69.100">  2  6  1 -1</clus>
<clus scale="   35.319">  1  3  2 -1</clus>
</clustering>
</event>
<event>
 6    0  0.4796958E+002  0.1098017E+03  0.7546771E-02  0.1260937E+00
         -2   -1    0    0    0  501 -0.00000000000E+00  0.00000000000E+00  0.23201163215E+03  0.23201163215E+03  0.00000000000E+00 0. -1.
         21   -1    0    0  504  502  0.00000000000E+00 -0.00000000000E+00 -0.15920321367E+04  0.15920321367E+04  0.00000000000E+00 0. -1.
         21    1    1    2  503  502  0.20740915983E+02 -0.14644141381E+03 -0.34624661399E+03  0.37651293600E+03  0.00000000000E+00 0. -1.
         21    1    1    2  504  505 -0.45508510618E+02  0.94338212289E+02 -0.11562731925E+04  0.11610075015E+04  0.00000000000E+00 0. -1.
         21    1    1    2  505  501  0.56596743481E+02 -0.52349456836E+01 -0.54591180272E+02  0.78808584510E+02  0.00000000000E+00 0.  1.
         -2    1    1    2    0  503 -0.31829148846E+02  0.57338147206E+02  0.19709048226E+03  0.20771474680E+03  0.00000000000E+00 0. -1.
<scales pt_clust_3="14000.00000" pt_clust_4="109.80174" pt_clust_5="56.83833" pt_clust_6="56.29334"></scales>
<clustering>
<clus scale="   56.838">  1  5  2 -1</clus>
<clus scale="   56.293">  1  6  2 -1</clus>
<clus scale="  109.802">  2  4  1 -1</clus>
<clus scale="  109.802">  2  3  1 -1</clus>
</clustering>
</event>
<event>
 6    0  0.4796958E+002  0.9790643E+02  0.7546771E-02  0.1284761E+00
         21   -1    0    0  503  502  0.00000000000E+00  0.00000000000E+00  0.26121449688E+02  0.26121449688E+02  0.00000000000E+00 0.  1.
          2   -1    0    0  505    0 -0.00000000000E+00 -0.00000000000E+00 -0.25834310403E+04  0.25834310403E+04  0.00000000000E+00 0.  1.
         21    1    1    2  503  504 -0.10409070544E+03  0.65353696384E+02 -0.59077551264E+03  0.60342496379E+03  0.00000000000E+00 0.  1.
         21    1    1    2  504  501  0.62073710352E+02 -0.63109683963E+02 -0.82358813975E+03  0.82833169785E+03  0.00000000000E+00 0. -1.
         21    1    1    2  505  502  0.96373184041E+02  0.18581390319E+02 -0.12856812755E+03  0.16174925684E+03  0.00000000000E+00 0.  1.
          2    1    1    2  501    0 -0.54356188952E+02 -0.20825402740E+02 -0.10143778107E+04  0.10160465715E+04  0.00000000000E+00 0.  1.
<scales pt_clust_3="97.90643" pt_clust_4="81.27818" pt_clust_5="14000.00000" pt_clust_6="58.20904"></scales>
<clustering>
<clus scale="   58.209">  2  6  1 -1</clus>
<clus scale="   81.278">  2  4  1 -1</clus>
<clus scale="   97.906">  2  3  1 -1</clus>
<clus scale="   97.906">  1  3  2 -1</clus>
</clustering>
</event>
<event>
 6    0  0.4796958E+002  0.1234893E+03  0.7546771E-02  0.1237449E+00
          2   -1    0    0  503    0 -0.00000000000E+00  0.00000000000E+00  0.36499840978E+03  0.36499840978E+03  0.00000000000E+00 0. -1.
         21   -1    0    0  505  502  0.00000000000E+00 -0.00000000000E+00 -0.97356380740E+03  0.97356380740E+03  0.00000000000E+00 0. -1.
         21    1    1    2  503  504 -0.11145902868E+03 -0.33003463558E+02 -0.34769446916E+01  0.11629459500E+03  0.00000000000E+00 0. -1.
         21    1    1    2  504  502 -0.31177123873E+02 -0.17288672298E+02 -0.87653705527E+03  0.87726171722E+03  0.00000000000E+00 0. -1.
         21    1    1    2  505  501  0.10884813610E+03  0.54981642904E+02  0.69835125542E+02  0.14052701715E+03  0.00000000000E+00 0. -1.
          2    1    1    2  501    0  0.33788016452E+02 -0.46895070477E+01  0.20161347680E+03  0.20447888781E+03  0.00000000000E+00 0. -1.
<scales pt_clust_3="14000.00000" pt_clust_4="35.58885" pt_clust_5="123.48928" pt_clust_6="34.11190"></scales>
<clustering>
<clus scale="   34.112">  1  6  2 -1</clus>
<clus scale="   35.589">  2  4  1 -1</clus>
<clus scale="  123.489">  1  5  2 -1</clus>
<clus scale="   35.589">  2  3  1 -1</clus>
</clustering>
</event>
<event>
 6    0  0.4796958E+002  0.8856324E+02  0.7546771E-02  0.1306369E+00
         21   -1    0    0  504  502  0.00000000000E+00  0.00000000000E+00  0.55026752659E+03  0.55026752659E+03  0.00000000000E+00 0.  1.
          2   -1    0    0  505    0 -0.00000000000E+00 -0.00000000000E+00 -0.79819550865E+02  0.79819550865E+02  0.00000000000E+00 0. -1.
         21    1    1    2  503  502 -0.10181947967E+03  0.80673863528E+00  0.92116862677E+02  0.13730758776E+03  0.00000000000E+00 0. -1.
         21    1    1    2  504  501  0.71942111642E+02 -0.52479531076E+02  0.38408036783E+03  0.39426830657E+03  0.00000000000E+00 0.  1.
         21    1    1    2  505  503  0.39911161985E+02  0.21206563385E+02  0.27019700037E+02  0.52656275710E+02  0.00000000000E+00 0. -1.
          2    1    1    2  501    0 -0.10033793956E+02  0.30466229055E+02 -0.32768954821E+02  0.45854907415E+02  0.00000000000E+00 0. -1.
<scales pt_clust_3="14000.00000" pt_clust_4="88.56324" pt_clust_5="47.96974" pt_clust_6="32.07597"></scales>
<clustering>
<clus scale="   32.076">  2  6  1 -1</clus>
<clus scale="   47.970">  2  5  1 -1</clus>
<clus scale="   88.563">  1  4  2 -1</clus>
<clus scale="   88.563">  1  3  2 -1</clus>
</clustering>
</event>
<event>
 6    0  0.4796958E+002  0.1041535E+03  0.7546771E-02  0.1271796E+00
          1   -1    0    0  505    0 -0.00000000000E+00  0.00000000000E+00  0.21962731713E+04  0.21962731713E+04  0.00000000000E+00 0. -1.
         21   -1    0    0  504  502  0.00000000000E+00 -0.00000000000E+00 -0.85803826563E+02  0.85803826563E+02  0.00000000000E+00 0.  1.
         21    1    1    2  503  501  0.29748917662E+02 -0.58186676149E+02  0.61483856732E+03  0.61830182859E+03  0.00000000000E+00 0. -1.
         21    1    1    2  504  503  0.15616199322E+02  0.10722198566E+03 -0.11759955120E+02  0.10898952442E+03  0.00000000000E+00 0.  1.
         21    1    1    2  505  502 -0.80374730324E+02 -0.12631202543E+02  0.47885793719E+02  0.94407064314E+02  0.00000000000E+00 0.  1.
          1    1    1    2  501    0  0.35009613340E+02 -0.36404106967E+02  0.14595049388E+04  0.14603785806E+04  0.00000000000E+00 0. -1.
<scales pt_clust_3="104.15351" pt_clust_4="14000.00000" pt_clust_5="78.66732" pt_clust_6="50.50675"></scales>
<clustering>
<clus scale="   50.507">  1  6  2 -1</clus>
<clus scale="   78.667">  2  5  1 -1</clus>
<clus scale="  104.154">  1  3  2 -1</clus>
<clus scale="   78.667">  2  3  1 -1</clus>
</clustering>
</event>
<event>
 6    0  0.4796958E+002  0.1074190E+03  0.7546771E-02  0.1265426E+00
          2   -1    0    0  503    0 -0.00000000000E+00  0.00000000000E+00  0.30556751450E+04  0.30556751450E+04  0.00000000000E+00 0. -1.
         21   -1    0    0  505  502  0.00000000000E+00 -0.00000000000E+00 -0.43956556164E+02  0.43956556164E+02  0.00000000000E+00 0. -1.
         21    1    1    2  503  502  0.89859325748E+01  0.54754780480E+02  0.72568053384E+02  0.91350727099E+02  0.00000000000E+00 0.  1.
         21    1    1    2  504  501  0.62204759508E+01  0.81996478803E+02  0.39454973596E+03  0.40302805237E+03  0.00000000000E+00 0.  1.
         21    1    1    2  505  504 -0.54083120772E+02 -0.26115729447E+02  0.21476603062E+01  0.60096819565E+02  0.00000000000E+00 0. -1.
          2    1    1    2  501    0  0.38876712247E+02 -0.11063552984E+03  0.25424531392E+04  0.25451561022E+04  0.00000000000E+00 0. -1.
<scales pt_clust_3="55.48723" pt_clust_4="14000.00000" pt_clust_5="50.57985" pt_clust_6="107.41900"></scales>
<clustering>
<clus scale="   55.487">  2  3  1 -1</clus>
<clus scale="   50.580">  2  5  1 -1</clus>
<clus scale="  107.419">  1  6  2 -1</clus>
<clus scale="   55.487">  2  3  1 -1</clus>
</clustering>
</event>
<event>
 6    0  0.4796958E+002  0.1061229E+03  0.7546771E-02  0.1267923E+00
         -3   -1    0    0    0  501 -0.00000000000E+00  0.00000000000E+00  0.85294325474E+03  0.85294325474E+03  0.00000000000E+00 0. -1.
         21   -1    0    0  504  502  0.00000000000E+00 -0.00000000000E+00 -0.20397979379E+03  0.20397979379E+03  0.00000000000E+00 0. -1.
         21    1    1    2  503  505  0.14793099518E+03 -0.15124902232E+02  0.27566150817E+03  0.31321176397E+03  0.00000000000E+00 0. -1.
         21    1    1    2  504  501 -0.59997218945E+01 -0.36409918284E+02 -0.22718106917E+02  0.43333488137E+02  0.00000000000E+00 0. -1.
         21    1    1    2  505  502 -0.93340117896E+02  0.58551786833E+02 -0.13094238928E+03  0.17113327748E+03  0.00000000000E+00 0. -1.
         -3    1    1    2    0  503 -0.48591155389E+02 -0.70169663171E+01  0.52696244898E+03  0.52924451894E+03  0.00000000000E+00 0. -1.
<scales pt_clust_3="106.12293" pt_clust_4="36.90093" pt_clust_5="14000.00000" pt_clust_6="49.17012"></scales>
<clustering>
<clus scale="   36.901">  2  4  1 -1</clus>
<clus scale="   49.170">  1  6  2 -1</clus>
<clus scale="  106.123">  1  3  2 -1</clus>
<clus scale="   36.901">  2  3  1 -1</clus>
</clustering>
</event>
<event>
 6    0  0.4796958E+002  0.1056639E+03  0.7546771E-02  0.1268817E+00
          2   -1    0    0  505    0 -0.00000000000E+00  0.00000000000E+00  0.40052074879E+03  0.40052074879E+03  0.00000000000E+00 0. -1.
         21   -1    0    0  504  502  0.00000000000E+00 -0.00000000000E+00 -0.68214707913E+03  0.68214707913E+03  0.00000000000E+00 0. -1.
         21    1    1    2  503  502 -0.14092244842E+03  0.38685855450E+02 -0.23750524301E+03  0.27886281993E+03  0.00000000000E+00 0. -1.
         21    1    1    2  504  501  0.13547392965E+02 -0.55666344244E+02 -0.37973140427E+03  0.38402892225E+03  0.00000000000E+00 0. -1.
         21    1    1    2  505  503  0.64497186341E+02  0.22000839575E+02 -0.96275633825E+01  0.68823062738E+02  0.00000000000E+00 0.  1.
          2    1    1    2  501    0  0.62877869112E+02 -0.50203507813E+01  0.34523788032E+03  0.35095302300E+03  0.00000000000E+00 0. -1.
<scales pt_clust_3="14000.00000" pt_clust_4="57.29113" pt_clust_5="105.66391" pt_clust_6="63.25077"></scales>
<clustering>
<clus scale="   57.291">  2  4  1 -1</clus>
<clus scale="   63.251">  1  6  2 -1</clus>
<clus scale="  105.664">  1  5  2 -1</clus>
<clus scale="   57.291">  2  3  1 -1</clus>
</clustering>
</event>
<event>
 6    0  0.4796958E+002  0.1581065E+03  0.7546771E-02  0.1190851E+00
         21   -1    0    0  505  502  0.00000000000E+00  0.00000000000E+00  0.10836924137E+04  0.10836924137E+04  0.00000000000E+00 0.  1.
         -2   -1    0    0    0  501 -0.00000000000E+00 -0.00000000000E+00 -0.17926653660E+04  0.17926653660E+04  0.00000000000E+00 0. -1.
         21    1    1    2  503  502 -0.61965499471E+02  0.10976322267E+03 -0.49093094794E+03  0.50685390777E+03  0.00000000000E+00 0. -1.
         21    1    1    2  504  501  0.77188160051E+01 -0.16822654007E+03  0.28484074122E+03  0.33089877118E+03  0.00000000000E+00 0.  1.
         21    1    1    2  505  504  0.59208003950E+02  0.23070398526E+02  0.76629456611E+03  0.76892469922E+03  0.00000000000E+00 0.  1.
         -2    1    1    2    0  503 -0.49613204842E+01  0.35392918883E+02 -0.12691773117E+04  0.12696804015E+04  0.00000000000E+00 0. -1.
<scales pt_clust_3="158.10646" pt_clust_4="14000.00000" pt_clust_5="63.56467" pt_clust_6="35.73896"></scales>
<clustering>
<clus scale="   35.739">  2  6  1 -1</clus>
<clus scale="   63.565">  1  5  2 -1</clus>
<clus scale="  158.106">  2  3  1 -1</clus>
<clus scale="   63.565">  1  3  2 -1</clus>
</clustering>
</event>
<event>
 6    0  0.4796958E+002  0.1688346E+03  0.7546771E-02  0.1179069E+00
         -1   -1    0    0    0  501 -0.00000000000E+00  0.00000000000E+00  0.51010816313E+02  0.51010816313E+02  0.00000000000E+00 0. -1.
         21   -1    0    0  503  502  0.00000000000E+00 -0.00000000000E+00 -0.13621192673E+04  0.13621192673E+04  0.00000000000E+00 0. -1.
         21    1    1    2  503  501  0.20829739820E+02  0.12115097380E+03 -0.34598313240E+03  0.36717266295E+03  0.00000000000E+00 0. -1.
         21    1    1    2  504  502 -0.16859437553E+01  0.63506272961E+02 -0.76625545196E+03  0.76888445606E+03  0.00000000000E+00 0. -1.
         21    1    1    2  505  504  0.13663343964E+02 -0.63387596858E+02 -0.89403839831E+02  0.11044329305E+03  0.00000000000E+00 0. -1.
         -1    1    1    2    0  505 -0.32807140028E+02 -0.12126964990E+03 -0.10946602684E+03  0.16662967159E+03  0.00000000000E+00 0. -1.
<scales pt_clust_3="160.46709" pt_clust_4="63.52865" pt_clust_5="37.71222" pt_clust_6="37.71222"></scales>
<clustering>
<clus scale="   37.712">  5  6 -1 -1</clus>
<clus scale="   63.529">  2  4  1 -1</clus>
<clus scale="  160.467">  2  3  1 -1</clus>
<clus scale="   63.529">  2  3  1 -1</clus>
</clustering>
</event>
<event>
 6    0  0.4796958E+002  0.8477943E+02  0.7546771E-02  0.1316010E+00
         21   -1    0    0  504  502  0.00000000000E+00  0.00000000000E+00  0.34521593162E+03  0.34521593162E+03  0.00000000000E+00 0.  1.
          1   -1    0    0  505    0 -0.00000000000E+00 -0.00000000000E+00 -0.47016934099E+03  0.47016934099E+03  0.00000000000E+00 0. -1.
         21    1    1    2  503  501 -0.93653320474E+02  0.69904041016E+02  0.78766008661E+02  0.14093120132E+03  0.00000000000E+00 0.  1.
         21    1    1    2  504  503  0.29974169158E+02 -0.25355500507E+02  0.20843153630E+03  0.21209681173E+03  0.00000000000E+00 0.  1.
         21    1    1    2  505  502  0.40528364308E+02  0.56261976606E+02 -0.49371833206E+02  0.85120715688E+02  0.00000000000E+00 0.  1.
          1    1    1    2  501    0  0.23150787008E+02 -0.10081051711E+03 -0.36277912113E+03  0.37723654387E+03  0.00000000000E+00 0. -1.
<scales pt_clust_3="14000.00000" pt_clust_4="39.26006" pt_clust_5="69.12964" pt_clust_6="84.77943"></scales>
<clustering>
<clus scale="   39.260">  1  4  2 -1</clus>
<clus scale="   69.130">  2  5  1 -1</clus>
<clus scale="   84.779">  2  6  1 -1</clus>
<clus scale="   39.260">  1  3  2 -1</clus>
</clustering>
</event>
<event>
 6    0  0.4796958E+002  0.1145792E+03  0.7546771E-02  0.1252317E+00
          2   -1    0    0  503    0 -0.00000000000E+00  0.00000000000E+00  0.16741562761E+04  0.16741562761E+04  0.00000000000E+00 0. -1.
         21   -1    0    0  505  502  0.00000000000E+00 -0.00000000000E+00 -0.10257318093E+04  0.10257318093E+04  0.00000000000E+00 0. -1.
         21    1    1    2  503  502 -0.71252582979E+02 -0.93596688983E+02 -0.90271000945E+03  0.91034204118E+03  0.00000000000E+00 0. -1.
         21    1    1    2  504  501 -0.57503367240E+02  0.29708712122E+02  0.36986316047E+03  0.37548369112E+03  0.00000000000E+00 0. -1.
         21    1    1    2  505  504  0.10323594978E+03  0.36875718763E+02 -0.90251994800E+02  0.14199613560E+03  0.00000000000E+00 0.  1.
          2    1    1    2  501    0  0.25520000442E+02  0.27012258099E+02  0.12715233105E+04  0.12720662175E+04  0.00000000000E+00 0. -1.
<scales pt_clust_3="14000.00000" pt_clust_4="64.35892" pt_clust_5="114.57920" pt_clust_6="37.16090"></scales>
<clustering>
<clus scale="   37.161">  1  6  2 -1</clus>
<clus scale="   64.359">  1  4  2 -1</clus>
<clus scale="  114.579">  1  5  2 -1</clus>
<clus scale="  114.579">  2  3  1 -1</clus>
</clustering>
</event>
<event>
 6    0  0.4796958E+002  0.1037520E+03  0.7546771E-02  0.1272598E+00
         21   -1    0    0  505  502  0.00000000000E+00  0.00000000000E+00  0.29410731480E+03  0.29410731480E+03  0.00000000000E+00 0.  1.
          1   -1    0    0  503    0 -0.00000000000E+00 -0.00000000000E+00 -0.84420697625E+03  0.84420697625E+03  0.00000000000E+00 0.  1.
         21    1    1    2  503  502 -0.12750681643E+00 -0.43959390691E+02  0.21603806830E+03  0.22046517013E+03  0.00000000000E+00 0.  1.
         21    1    1    2  504  501  0.11182404685E+03  0.74602871652E+02 -0.17496704104E+03  0.22064376575E+03  0.00000000000E+00 0. -1.
         21    1    1    2  505  504 -0.28568853053E+02 -0.72456196558E+02  0.18845848472E+02  0.80132676163E+02  0.00000000000E+00 0.  1.
          1    1    1    2  501    0 -0.83127686985E+02  0.41812715597E+02 -0.61001653718E+03  0.61707267900E+03  0.00000000000E+00 0.  1.
<scales pt_clust_3="43.95958" pt_clust_4="14000.00000" pt_clust_5="103.75196" pt_clust_6="92.15587"></scales>
<clustering>
<clus scale="   43.960">  1  3  2 -1</clus>
<clus scale="   92.156">  2  6  1 -1</clus>
<clus scale="  103.752">  1  5  2 -1</clus>
<clus scale="   43.960">  1  3  2 -1</clus>
</clustering>
</event>
<event>
 6    0  0.4796958E+002  0.1313612E+03  0.7546771E-02  0.1225450E+00
          1   -1    0    0  504    0 -0.00000000000E+00  0.00000000000E+00  0.68964740096E+03  0.68964740096E+03  0.00000000000E+00 0.  1.
         21   -1    0    0  503  502  0.00000000000E+00 -0.00000000000E+00 -0.40022645609E+03  0.40022645609E+03  0.00000000000E+00 0. -1.
         21    1    1    2  503  501  0.90219064944E+02 -0.10027549514E+03 -0.34343765936E+03  0.36897707310E+03  0.00000000000E+00 0. -1.
         21    1    1    2  504  505 -0.29881126523E+02  0.16736140093E+02  0.12869116755E+03  0.13317055498E+03  0.00000000000E+00 0.  1.
         21    1    1    2  505  502 -0.36847320340E+02  0.11108314694E+03  0.42303635428E+02  0.12444592449E+03  0.00000000000E+00 0.  1.
          1    1    1    2  501    0 -0.23490618080E+02 -0.27543791895E+02  0.46186380126E+03  0.46328030448E+03  0.00000000000E+00 0.  1.
<scales pt_clust_3="131.36122" pt_clust_4="34.24880" pt_clust_5="14000.00000" pt_clust_6="50.13444"></scales>
<clustering>
<clus scale="   34.249">  1  4  2 -1</clus>
<clus scale="   50.134">  1  6  2 -1</clus>
<clus scale="  131.361">  2  3  1 -1</clus>
<clus scale="  131.361">  2  3  1 -1</clus>
</clustering>
</event>
<event>
 6    0  0.4796958E+002  0.1044738E+03  0.7546771E-02  0.1271160E+00
         21   -1    0    0  503  502  0.00000000000E+00  0.00000000000E+00  0.43032654015E+03  0.43032654015E+03  0.00000000000E+00 0.  1.
          2   -1    0    0  504    0 -0.00000000000E+00 -0.00000000000E+00 -0.15488230804E+04  0.15488230804E+04  0.00000000000E+00 0.  1.
         21    1    1    2  503  505  0.24132798954E+02  0.48132188411E+02  0.24613407760E+03  0.25195452705E+03  0.00000000000E+00 0.  1.
         21    1    1    2  504  502 -0.62432330768E+02 -0.10065252124E+03 -0.17045118036E+03  0.20756283589E+03  0.00000000000E+00 0. -1.
         21    1    1    2  505  501  0.43862239162E+02  0.21127331348E+02  0.15889294198E+03  0.16618431685E+03  0.00000000000E+00 0.  1.
          2    1    1    2  501    0 -0.55627073479E+01  0.31393001486E+02 -0.13530723795E+04  0.13534479408E+04  0.00000000000E+00 0.  1.
<scales pt_clust_3="35.16949" pt_clust_4="97.68196" pt_clust_5="35.16949" pt_clust_6="31.88204"></scales>
<clustering>
<clus scale="   31.882">  2  6  1 -1</clus>
<clus scale="   35.169">  3  5 -1 -1</clus>
<clus scale="   97.682">  2  4  1 -1</clus>
<clus scale="  104.474">  1  3  2 -1</clus>
</clustering>
</event>
<event>
 6    0  0.4796958E+002  0.8424393E+02  0.7546771E-02  0.1317422E+00
          1   -1    0    0  504    0 -0.00000000000E+00  0.00000000000E+00  0.16240607848E+04  0.16240607848E+04  0.00000000000E+00 0.  1.
         21   -1    0    0  501  502  0.00000000000E+00 -0.00000000000E+00 -0.48393433442E+02  0.48393433442E+02  0.00000000000E+00 0. -1.
         21    1    1    2  503  505 -0.23327941006E+01 -0.56652386443E+02  0.18373516343E+03  0.19228506208E+03  0.00000000000E+00 0. -1.
         21    1    1    2  504  503  0.11890945388E+02  0.37861335031E+02  0.16775130268E+03  0.17238148051E+03  0.00000000000E+00 0. -1.
         21    1    1    2  505  502 -0.84077115786E+02  0.98144462698E+01  0.34153375375E+01  0.84716877214E+02  0.00000000000E+00 0. -1.
          1    1    1    2  501    0  0.74518964499E+02  0.89766051427E+01  0.12207655477E+04  0.12230707984E+04  0.00000000000E+00 0.  1.
<scales pt_clust_3="51.76280" pt_clust_4="39.68470" pt_clust_5="84.24393" pt_clust_6="14000.00000"></scales>
<clustering>
<clus scale="   39.685">  1  4  2 -1</clus>
<clus scale="   51.763">  1  3  2 -1</clus>
<clus scale="   84.244">  2  5  1 -1</clus>
<clus scale="   84.244">  2  3  1 -1</clus>
</clustering>
</event>
<event>
 6    0  0.4796958E+002  0.1717289E+03  0.7546771E-02  0.1176057E+00
         21   -1    0    0  504  502  0.00000000000E+00  0.00000000000E+00  0.36074014149E+03  0.36074014149E+03  0.00000000000E+00 0.  1.
          2   -1    0    0  503    0 -0.00000000000E+00 -0.00000000000E+00 -0.23198254043E+04  0.23198254043E+04  0.00000000000E+00 0.  1.
         21    1    1    2  503  502  0.10251014764E+02 -0.14777719650E+03 -0.19929049954E+03  0.24831408804E+03  0.00000000000E+00 0. -1.
         21    1    1    2  504  505  0.17399145392E+02  0.17346143543E+03  0.31036087546E+03  0.35597116857E+03  0.00000000000E+00 0.  1.
         21    1    1    2  505  501 -0.55622005126E+02  0.22087298758E+02 -0.33916220995E+03  0.34440188861E+03  0.00000000000E+00 0. -1.
          2    1    1    2  501    0  0.27971844970E+02 -0.47771537688E+02 -0.17309934287E+04  0.17318784005E+04  0.00000000000E+00 0.  1.
<scales pt_clust_3="14000.00000" pt_clust_4="171.72886" pt_clust_5="39.77883" pt_clust_6="55.35832"></scales>
<clustering>
<clus scale="   55.358">  2  6  1 -1</clus>
<clus scale="   39.779">  2  5  1 -1</clus>
<clus scale="  171.729">  1  4  2 -1</clus>
<clus scale="  171.729">  1  3  2 -1</clus>
</clustering>
</event>
<event>
 6    0  0.4796958E+002  0.1033214E+03  0.7546771E-02  0.1273463E+00
          1   -1    0    0  504    0 -0.00000000000E+00  0.00000000000E+00  0.48240005661E+03  0.48240005661E+03  0.00000000000E+00 0. -1.
         21   -1    0    0  505  502  0.00000000000E+00 -0.00000000000E+00 -0.17446202253E+03  0.17446202253E+03  0.00000000000E+00 0. -1.
         21    1    1    2  503  501  0.43164955447E+02  0.68643215658E+02 -0.26780470720E+02  0.85394953285E+02  0.00000000000E+00 0. -1.
         21    1    1    2  504  502 -0.30322281593E+02  0.71509198903E+00  0.12838950354E+02  0.32936161946E+02  0.00000000000E+00 0. -1.
         21    1    1    2  505  503 -0.45304965884E+02  0.35175680514E+02 -0.93104417413E+02  0.10935401673E+03  0.00000000000E+00 0. -1.
          1    1    1    2  501    0  0.32462292029E+02 -0.10453398816E+03  0.41498397186E+03  0.42917694718E+03  0.00000000000E+00 0. -1.
<scales pt_clust_3="14000.00000" pt_clust_4="30.33071" pt_clust_5="73.22033" pt_clust_6="103.32144"></scales>
<clustering>
<clus scale="   30.331">  2  4  1 -1</clus>
<clus scale="   73.220">  2  5  1 -1</clus>
<clus scale="  103.321">  1  6  2 -1</clus>
<clus scale="   30.331">  2  3  1 -1</clus>
</clustering>
</event>
<event>
 6    0  0.4796958E+002  0.7333242E+02  0.7546771E-02  0.1349114E+00
         21   -1    0    0  503  502  0.00000000000E+00  0.00000000000E+00  0.77635401145E+02  0.77635401145E+02  0.00000000000E+00 0.  1.
         -1   -1    0    0    0  501 -0.00000000000E+00 -0.00000000000E+00 -0.11325938630E+04  0.11325938630E+04  0.00000000000E+00 0.  1.
         21    1    1    2  503  505  0.28761925318E+02 -0.44746999453E+02  0.38316285897E+02  0.65556693579E+02  0.00000000000E+00 0.  1.
         21    1    1    2  504  501  0.30256419820E+02  0.11469942230E+03 -0.40365696330E+03  0.42072598261E+03  0.00000000000E+00 0.  1.
         21    1    1    2  505  504 -0.49215361047E+02 -0.27629102546E+02 -0.31971155881E+02  0.64866585226E+02  0.00000000000E+00 0.  1.
         -1    1    1    2    0  502 -0.98029840910E+01 -0.42323320300E+02 -0.65764662856E+03  0.65908000273E+03  0.00000000000E+00 0.  1.
<scales pt_clust_3="54.07114" pt_clust_4="73.33242" pt_clust_5="14000.00000" pt_clust_6="43.44378"></scales>
<clustering>
<clus scale="   43.444">  2  6  1 -1</clus>
<clus scale="   54.071">  1  3  2 -1</clus>
<clus scale="   73.332">  2  4  1 -1</clus>
<clus scale="   54.071">  1  3  2 -1</clus>
</clustering>
</event>
<event>
 6    0  0.4796958E+002  0.7341525E+02  0.7546771E-02  0.1348850E+00
          2   -1    0    0  503    0 -0.00000000000E+00  0.00000000000E+00  0.14689674800E+04  0.14689674800E+04  0.00000000000E+00 0.  1.
         21   -1    0    0  505  502  0.00000000000E+00 -0.00000000000E+00 -0.19799860074E+03  0.19799860074E+03  0.00000000000E+00 0.  1.
         21    1    1    2  503  504  0.21656462467E+02 -0.31300294900E+02  0.10632130898E+03  0.11292887838E+03  0.00000000000E+00 0.  1.
         21    1    1    2  504  502 -0.21106889355E+02 -0.30830984644E+02  0.45629628876E+01  0.37641347249E+02  0.00000000000E+00 0.  1.
         21    1    1    2  505  501  0.63166653064E+02  0.90308476281E+02 -0.16010521494E+03  0.19436904794E+03  0.00000000000E+00 0.  1.
          2    1    1    2  501    0 -0.63716226176E+02 -0.28177196736E+02  0.13201898223E+04  0.13220268072E+04  0.00000000000E+00 0.  1.
<scales pt_clust_3="38.31016" pt_clust_4="37.36376" pt_clust_5="14000.00000" pt_clust_6="73.41525"></scales>
<clustering>
<clus scale="   37.364">  2  4  1 -1</clus>
<clus scale="   38.310">  1  3  2 -1</clus>
<clus scale="   73.415">  1  6  2 -1</clus>
<clus scale="   37.364">  2  3  1 -1</clus>
</clustering>
</event>
<event>
 6    0  0.4796958E+002  0.7052572E+02  0.7546771E-02  0.1358314E+00
          2   -1    0    0  505    0 -0.00000000000E+00  0.00000000000E+00  0.80644522211E+03  0.80644522211E+03  0.00000000000E+00 0.  1.
         21   -1    0    0  503  502  0.00000000000E+00 -0.00000000000E+00 -0.16957544162E+03  0.16957544162E+03  0.00000000000E+00 0.  1.
         21    1    1    2  503  504 -0.29302332048E+02  0.77886790020E+02 -0.56856178677E+02  0.10078493824E+03  0.00000000000E+00 0.  1.
         21    1    1    2  504  501  0.52396337129E+02 -0.77623876082E+02  0.30339862501E+02  0.98444652161E+02  0.00000000000E+00 0. -1.
         21    1    1    2  505  502  0.28408131188E+02 -0.20405769880E+02 -0.50134817276E+02  0.61130330158E+02  0.00000000000E+00 0.  1.
          2    1    1    2  501    0 -0.51502136268E+02  0.20142855941E+02  0.71352091394E+03  0.71566074317E+03  0.00000000000E+00 0.  1.
<scales pt_clust_3="14000.00000" pt_clust_4="70.52572" pt_clust_5="34.97738" pt_clust_6="54.98288"></scales>
<clustering>
<clus scale="   34.977">  2  5  1 -1</clus>
<clus scale="   54.983">  1  6  2 -1</clus>
<clus scale="   70.526">  1  4  2 -1</clus>
<clus scale="   34.977">  2  3  1 -1</clus>
</clustering>
</event>
<event>
 6    0  0.4796958E+002  0.1005748E+03  0.7546771E-02  0.1279092E+00
          2   -1    0    0  505    0 -0.00000000000E+00  0.00000000000E+00  0.17010991828E+04  0.17010991828E+04  0.00000000000E+00 0. -1.
         21   -1    0    0  504  502  0.00000000000E+00 -0.00000000000E+00 -0.41915947425E+03  0.41915947425E+03  0.00000000000E+00 0. -1.
         21    1    1    2  503  501  0.90172361481E+02  0.98585097313E+02  0.16486793341E+02  0.13461757145E+03  0.00000000000E+00 0. -1.
         21    1    1    2  504  503  0.15853099673E+02 -0.95928110429E+02 -0.33803968201E+03  0.35174472242E+03  0.00000000000E+00 0. -1.
         21    1    1    2  505  502 -0.41055415132E+02  0.76711048144E+01  0.15511730946E+02  0.44553414658E+02  0.00000000000E+00 0. -1.
          2    1    1    2  501    0 -0.64970046022E+02 -0.10328091699E+02  0.15879808663E+04  0.15893429485E+04  0.00000000000E+00 0. -1.
<scales pt_clust_3="14000.00000" pt_clust_4="100.57476" pt_clust_5="41.76593" pt_clust_6="65.85206"></scales>
<clustering>
<clus scale="   41.766">  2  5  1 -1</clus>
<clus scale="   65.852">  1  6  2 -1</clus>
<clus scale="  100.575">  2  4  1 -1</clus>
<clus scale="   41.766">  2  3  1 -1</clus>
</clustering>
</event>
<event>
 6    0  0.4796958E+002  0.1426424E+03  0.7546771E-02  0.1209817E+00
         21   -1    0    0  501  502  0.00000000000E+00  0.00000000000E+00  0.48906131542E+03  0.48906131542E+03  0.00000000000E+00 0.  1.
          1   -1    0    0  505    0 -0.00000000000E+00 -0.00000000000E+00 -0.53408591696E+03  0.53408591696E+03  0.00000000000E+00 0.  1.
         21    1    1    2  503  502  0.25219415443E+02  0.49334418657E+02  0.26294522852E+03  0.26871936473E+03  0.00000000000E+00 0.  1.
         21    1    1    2  504  503  0.32834515596E+02  0.74708029313E+02  0.19327177626E+03  0.20979364756E+03  0.00000000000E+00 0.  1.
         21    1    1    2  505  504  0.37470127734E+02 -0.54374184014E+02 -0.33000219396E+03  0.33654421756E+03  0.00000000000E+00 0.  1.
          1    1    1    2  501    0 -0.95524058773E+02 -0.69668263957E+02 -0.17123941236E+03  0.20809000253E+03  0.00000000000E+00 0.  1.
<scales pt_clust_3="37.61553" pt_clust_4="37.61553" pt_clust_5="66.03455" pt_clust_6="135.14026"></scales>
<clustering>
<clus scale="   37.616">  3  4 -1 -1</clus>
<clus scale="   66.035">  2  5  1 -1</clus>
<clus scale="  135.140">  2  6  1 -1</clus>
<clus scale="  142.642">  1  3  2 -1</clus>
</clustering>
</event>
<event>
 6    0  0.4796958E+002  0.8920825E+02  0.7546771E-02  0.1304780E+00
          3   -1    0    0  505    0 -0.00000000000E+00  0.00000000000E+00  0.14167445856E+04  0.14167445856E+04  0.00000000000E+00 0.  1.
         21   -1    0    0  503  502  0.00000000000E+00 -0.00000000000E+00 -0.41582700270E+03  0.41582700270E+03  0.00000000000E+00 0.  1.
         21    1    1    2  503  501 -0.49109542407E+02  0.10938495695E+02 -0.25605836616E+02  0.56454022995E+02  0.00000000000E+00 0.  1.
         21    1    1    2  504  502 -0.30398656665E+02 -0.31391567444E+02 -0.11142449891E+03  0.11968679038E+03  0.00000000000E+00 0.  1.
         21    1    1    2  505  504  0.14052593849E+03 -0.44320385753E+02 -0.23674814941E+03  0.27885753034E+03  0.00000000000E+00 0.  1.
          3    1    1    2  501    0 -0.61017739415E+02  0.64773457502E+02  0.13746960678E+04  0.13775732445E+04  0.00000000000E+00 0.  1.
<scales pt_clust_3="53.67671" pt_clust_4="43.69793" pt_clust_5="14000.00000" pt_clust_6="89.20825"></scales>
<clustering>
<clus scale="   43.698">  2  4  1 -1</clus>
<clus scale="   53.677">  2  3  1 -1</clus>
<clus scale="   89.208">  1  6  2 -1</clus>
<clus scale="   43.698">  2  3  1 -1</clus>
</clustering>
</event>
<event>
 6    0  0.4796958E+002  0.1219996E+03  0.7546771E-02  0.1239834E+00
         21   -1    0    0  504  502  0.00000000000E+00  0.00000000000E+00  0.62927986137E+02  0.62927986137E+02  0.00000000000E+00 0. -1.
          2   -1    0    0  505    0 -0.00000000000E+00 -0.00000000000E+00 -0.12256648837E+04  0.12256648837E+04  0.00000000000E+00 0.  1.
         21    1    1    2  503  501 -0.42186329508E+02  0.34256667220E+02 -0.10786728850E+02  0.55403602461E+02  0.00000000000E+00 0.  1.
         21    1    1    2  504  503 -0.25231348277E+01  0.69727335806E+02  0.13136402400E+01  0.69785336702E+02  0.00000000000E+00 0. -1.
         21    1    1    2  505  502  0.44937762152E+02 -0.32515310367E+02 -0.20254711472E+03  0.21000471794E+03  0.00000000000E+00 0.  1.
          2    1    1    2  501    0 -0.22829781669E+00 -0.71468692659E+02 -0.95071669423E+03  0.95339921273E+03  0.00000000000E+00 0.  1.
<scales pt_clust_3="46.45602" pt_clust_4="46.45602" pt_clust_5="55.46754" pt_clust_6="110.05898"></scales>
<clustering>
<clus scale="   46.456">  3  4 -1 -1</clus>
<clus scale="   55.468">  2  5  1 -1</clus>
<clus scale="  110.059">  2  6  1 -1</clus>
<clus scale="  122.000">  1  3  2 -1</clus>
</clustering>
</event>
<event>
 6    0  0.4796958E+002  0.8923422E+02  0.7546771E-02  0.1304717E+00
         -1   -1    0    0    0  501 -0.00000000000E+00  0.00000000000E+00  0.36163637353E+03  0.36163637353E+03  0.00000000000E+00 0.  1.
         21   -1    0    0  505  502  0.00000000000E+00 -0.00000000000E+00 -0.42781379122E+03  0.42781379122E+03  0.00000000000E+00 0.  1.
         21    1    1    2  503  501  0.34744592027E+02  0.30473007384E+02 -0.50165158251E+00  0.46217339911E+02  0.00000000000E+00 0. -1.
         21    1    1    2  504  502  0.29559269707E+00 -0.74415609947E+02 -0.33665370952E+03  0.34478035111E+03  0.00000000000E+00 0.  1.
         21    1    1    2  505  503  0.47716819099E+02 -0.38771036162E+01 -0.46596336050E+02  0.66806775784E+02  0.00000000000E+00 0. -1.
         -1    1    1    2    0  504 -0.82757003823E+02  0.47819706180E+02  0.31757427947E+03  0.33164569794E+03  0.00000000000E+00 0.  1.
<scales pt_clust_3="46.21462" pt_clust_4="89.23422" pt_clust_5="48.84346" pt_clust_6="14000.00000"></scales>
<clustering>
<clus scale="   46.215">  1  3  2 -1</clus>
<clus scale="   48.843">  2  5  1 -1</clus>
<clus scale="   89.234">  2  4  1 -1</clus>
<clus scale="   48.843">  2  3  1 -1</clus>
</clustering>
</event>
<event>
 6    0  0.4796958E+002  0.1762775E+03  0.7546771E-02  0.1171455E+00
          3   -1    0    0  505    0 -0.00000000000E+00  0.00000000000E+00  0.15225805073E+03  0.15225805073E+03  0.00000000000E+00 0.  1.
         21   -1    0    0  503  502  0.00000000000E+00 -0.00000000000E+00 -0.28439390045E+04  0.28439390045E+04  0.00000000000E+00 0. -1.
         21    1    1    2  503  501  0.47635935754E+02 -0.15271784406E+03 -0.19621904759E+04  0.19687009387E+04  0.00000000000E+00 0. -1.
         21    1    1    2  504  502  0.42050994565E+02  0.49522403623E+02 -0.46366856756E+03  0.46819792305E+03  0.00000000000E+00 0. -1.
         21    1    1    2  505  504 -0.47715791172E+02 -0.68491504778E+02 -0.35263903168E+03  0.36238400850E+03  0.00000000000E+00 0. -1.
          3    1    1    2  501    0 -0.41971139147E+02  0.17168694521E+03  0.86817121396E+02  0.19691418498E+03  0.00000000000E+00 0.  1.
<scales pt_clust_3="14000.00000" pt_clust_4="64.96733" pt_clust_5="73.75699" pt_clust_6="176.27754"></scales>
<clustering>
<clus scale="   64.967">  2  4  1 -1</clus>
<clus scale="   73.757">  2  5  1 -1</clus>
<clus scale="  176.278">  1  6  2 -1</clus>
<clus scale="   64.967">  2  3  1 -1</clus>
</clustering>
</event>
<event>
 6    0  0.4796958E+002  0.9178716E+02  0.7546771E-02  0.1298581E+00
          2   -1    0    0  503    0 -0.00000000000E+00  0.00000000000E+00  0.15547393134E+04  0.15547393134E+04  0.00000000000E+00 0.  1.
         21   -1    0    0  501  502  0.00000000000E+00 -0.00000000000E+00 -0.35920953498E+03  0.35920953498E+03  0.00000000000E+00 0. -1.
         21    1    1    2  503  504 -0.41436466987E+02 -0.83174714393E+02  0.14750699878E+04  0.14779940740E+04  0.00000000000E+00 0.  1.
         21    1    1    2  504  505  0.67161561404E+02  0.37994241730E+02  0.69823134126E+01  0.77478967698E+02  0.00000000000E+00 0.  1.
         21    1    1    2  505  502  0.69690136007E+01  0.50436804671E+02 -0.31235497782E+03  0.31647759887E+03  0.00000000000E+00 0. -1.
          2    1    1    2  501    0 -0.32694108018E+02 -0.52563320071E+01  0.25832455009E+02  0.41998207783E+02  0.00000000000E+00 0.  1.
<scales pt_clust_3="14000.00000" pt_clust_4="91.78716" pt_clust_5="50.88058" pt_clust_6="33.11395"></scales>
<clustering>
<clus scale="   33.114">  2  6  1 -1</clus>
<clus scale="   50.881">  2  5  1 -1</clus>
<clus scale="   91.787">  2  4  1 -1</clus>
<clus scale="   33.114">  2  3  1 -1</clus>
</clustering>
</event>
<event>
 6    0  0.4796958E+002  0.9298145E+02  0.7546771E-02  0.1295788E+00
         21   -1    0    0  505  502  0.00000000000E+00  0.00000000000E+00  0.36160335363E+02  0.36160335363E+02  0.00000000000E+00 0.  1.
          2   -1    0    0  502    0 -0.00000000000E+00 -0.00000000000E+00 -0.16300435046E+04  0.16300435046E+04  0.00000000000E+00 0.  1.
         21    1    1    2  503  504 -0.13510501266E+03 -0.29148881668E+02 -0.38107903653E+03  0.40536928081E+03  0.00000000000E+00 0.  1.
         21    1    1    2  504  501  0.65494915730E+02  0.16773812895E+02 -0.40988390283E+03  0.41542238575E+03  0.00000000000E+00 0.  1.
         21    1    1    2  505  503  0.53400015627E+02 -0.17702386616E+02 -0.17029049772E+02  0.58778607478E+02  0.00000000000E+00 0.  1.
          2    1    1    2  501    0  0.16210081303E+02  0.30077455389E+02 -0.78589118015E+03  0.78663356596E+03  0.00000000000E+00 0.  1.
<scales pt_clust_3="92.98145" pt_clust_4="14000.00000" pt_clust_5="56.54401" pt_clust_6="34.16753"></scales>
<clustering>
<clus scale="   34.168">  2  6  1 -1</clus>
<clus scale="   56.544">  1  5  2 -1</clus>
<clus scale="   92.981">  1  3  2 -1</clus>
<clus scale="   56.544">  1  3  2 -1</clus>
</clustering>
</event>
<event>
 6    0  0.4796958E+002  0.8662503E+02  0.7546771E-02  0.1311237E+00
          2   -1    0    0  505    0 -0.00000000000E+00  0.00000000000E+00  0.74370908956E+03  0.74370908956E+03  0.00000000000E+00 0. -1.
         21   -1    0    0  501  502  0.00000000000E+00 -0.00000000000E+00 -0.19432339894E+03  0.19432339894E+03  0.00000000000E+00 0. -1.
         21    1    1    2  503  504  0.35329793293E+02  0.50942460102E+02  0.81987124739E+02  0.10278724220E+03  0.00000000000E+00 0.  1.
         21    1    1    2  504  502 -0.86799419144E+02  0.16989439667E+01 -0.16044758472E+03  0.18242930964E+03  0.00000000000E+00 0. -1.
         21    1    1    2  505  503 -0.24933272003E+02 -0.43096959138E+02  0.52555023190E+02  0.72395071671E+02  0.00000000000E+00 0. -1.
          2    1    1    2  501    0  0.76402897855E+02 -0.95444449313E+01  0.57529112741E+03  0.58042086498E+03  0.00000000000E+00 0. -1.
<scales pt_clust_3="55.26761" pt_clust_4="86.62503" pt_clust_5="49.78972" pt_clust_6="14000.00000"></scales>
<clustering>
<clus scale="   49.790">  1  5  2 -1</clus>
<clus scale="   55.268">  1  3  2 -1</clus>
<clus scale="   86.625">  2  4  1 -1</clus>
<clus scale="   86.625">  2  3  1 -1</clus>
</clustering>
</event>
<event>
 6    0  0.4796958E+002  0.1240875E+03  0.7546771E-02  0.1236502E+00
          1   -1    0    0  505    0 -0.00000000000E+00  0.00000000000E+00  0.97707478864E+03  0.97707478864E+03  0.00000000000E+00 0.  1.
         21   -1    0    0  504  502  0.00000000000E+00 -0.00000000000E+00 -0.27106973533E+03  0.27106973533E+03  0.00000000000E+00 0. -1.
         21    1    1    2  503  502  0.29297242962E+02 -0.22394672716E+02 -0.14619187249E+02  0.39668254903E+02  0.00000000000E+00 0.  1.
         21    1    1    2  504  501 -0.12557297254E+03 -0.51822139672E+02 -0.20781083406E+03  0.24827293116E+03  0.00000000000E+00 0. -1.
         21    1    1    2  505  503  0.90301771945E+02  0.13651299840E+03  0.47366480862E+03  0.50114724351E+03  0.00000000000E+00 0. -1.
          1    1    1    2  501    0  0.59739576344E+01 -0.62296186015E+02  0.45477026600E+03  0.45905609439E+03  0.00000000000E+00 0.  1.
<scales pt_clust_3="36.87614" pt_clust_4="14000.00000" pt_clust_5="124.08755" pt_clust_6="62.80283"></scales>
<clustering>
<clus scale="   36.876">  2  3  1 -1</clus>
<clus scale="   62.803">  1  6  2 -1</clus>
<clus scale="  124.088">  1  5  2 -1</clus>
<clus scale="   36.876">  2  3  1 -1</clus>
</clustering>
</event>
<event>
 6    0  0.4796958E+002  0.1015984E+03  0.7546771E-02  0.1276970E+00
         -1   -1    0    0    0  501 -0.00000000000E+00  0.00000000000E+00  0.61188357628E+03  0.61188357628E+03  0.00000000000E+00 0.  1.
         21   -1    0    0  505  502  0.00000000000E+00 -0.00000000000E+00 -0.10654310532E+03  0.10654310532E+03  0.00000000000E+00 0. -1.
         21    1    1    2  503  504 -0.10990184995E+03 -0.30552145395E+02  0.76592931336E+02  0.13739842554E+03  0.00000000000E+00 0. -1.
         21    1    1    2  504  502  0.36035617200E+01  0.30725943018E+02 -0.34661901056E+01  0.31130109304E+02  0.00000000000E+00 0. -1.
         21    1    1    2  505  501  0.95165656355E+02 -0.42051611385E+02 -0.10953482132E+02  0.10461748869E+03  0.00000000000E+00 0. -1.
         -1    1    1    2    0  503  0.11132631876E+02  0.41877813762E+02  0.44316721186E+03  0.44528065806E+03  0.00000000000E+00 0.  1.
<scales pt_clust_3="101.59841" pt_clust_4="30.93654" pt_clust_5="14000.00000" pt_clust_6="43.69488"></scales>
<clustering>
<clus scale="   30.937">  2  4  1 -1</clus>
<clus scale="   43.695">  1  6  2 -1</clus>
<clus scale="  101.598">  1  3  2 -1</clus>
<clus scale="   30.937">  2  3  1 -1</clus>
</clustering>
</event>
<event>
 6    0  0.4796958E+002  0.1896220E+03  0.7546771E-02  0.1158803E+00
         21   -1    0    0  503  502  0.00000000000E+00  0.00000000000E+00  0.28568185230E+03  0.28568185230E+03  0.00000000000E+00 0.  1.
          2   -1    0    0  504    0 -0.00000000000E+00 -0.00000000000E+00 -0.10078144752E+04  0.10078144752E+04  0.00000000000E+00 0.  1.
         21    1    1    2  503  501  0.16962218778E+03 -0.59073405691E+02 -0.31867177497E+03  0.36580466647E+03  0.00000000000E+00 0. -1.
         21    1    1    2  504  505 -0.68053570884E+02  0.20875895829E+02  0.11179926239E+03  0.13253741588E+03  0.00000000000E+00 0.  1.
         21    1    1    2  505  502 -0.65465951983E+02  0.96101761000E+02  0.11362428314E+03  0.16257864883E+03  0.00000000000E+00 0.  1.
          2    1    1    2  501    0 -0.36102664918E+02 -0.57904251139E+02 -0.62888439348E+03  0.63257559633E+03  0.00000000000E+00 0.  1.
<scales pt_clust_3="176.60699" pt_clust_4="54.01741" pt_clust_5="54.01741" pt_clust_6="68.23712"></scales>
<clustering>
<clus scale="   54.017">  4  5 -1 -1</clus>
<clus scale="   68.237">  2  6  1 -1</clus>
<clus scale="  176.607">  2  3  1 -1</clus>
<clus scale="  189.622">  1  3  2 -1</clus>
</clustering>
</event>
<event>
 6    0  0.4796958E+002  0.2120131E+03  0.7546771E-02  0.1139982E+00
          2   -1    0    0  505    0 -0.00000000000E+00  0.00000000000E+00  0.94495927538E+03  0.94495927538E+03  0.00000000000E+00 0.  1.
         21   -1    0    0  503  502  0.00000000000E+00 -0.00000000000E+00 -0.12635747127E+03  0.12635747127E+03  0.00000000000E+00 0.  1.
         21    1    1    2  503  504 -0.41519934771E+02 -0.30499079544E+02 -0.93673542179E+01  0.52362640895E+02  0.00000000000E+00 0.  1.
         21    1    1    2  504  501 -0.10792475842E+03 -0.49722938551E+02  0.84188473495E+02  0.14562906017E+03  0.00000000000E+00 0.  1.
         21    1    1    2  505  502  0.22740567095E+03  0.14185394330E+03  0.23979743421E+03  0.35963688613E+03  0.00000000000E+00 0.  1.
          2    1    1    2  501    0 -0.77960977765E+02 -0.61631925206E+02  0.50398325062E+03  0.51368815945E+03  0.00000000000E+00 0.  1.
<scales pt_clust_3="45.77603" pt_clust_4="45.77603" pt_clust_5="200.29065" pt_clust_6="99.38012"></scales>
<clustering>
<clus scale="   45.776">  3  4 -1 -1</clus>
<clus scale="   99.380">  1  6  2 -1</clus>
<clus scale="  200.291">  1  5  2 -1</clus>
<clus scale="  212.013">  2  3  1 -1</clus>
</clustering>
</event>
<event>
 6    0  0.4796958E+002  0.1453182E+03  0.7546771E-02  0.1206347E+00
         -1   -1    0    0    0  501 -0.00000000000E+00  0.00000000000E+00  0.62402702089E+03  0.62402702089E+03  0.00000000000E+00 0. -1.
         21   -1    0    0  504  502  0.00000000000E+00 -0.00000000000E+00 -0.24284568555E+04  0.24284568555E+04  0.00000000000E+00 0. -1.
         21    1    1    2  503  502  0.14435216605E+03  0.34110740513E+02 -0.23279829845E+04  0.23327035530E+04  0.00000000000E+00 0. -1.
         21    1    1    2  504  501 -0.75050441673E+02  0.33858056028E+02  0.79768981775E+02  0.11463868111E+03  0.00000000000E+00 0. -1.
         21    1    1    2  505  503 -0.45968065850E+02 -0.12364691331E+03 -0.23484471627E+02  0.13398933784E+03  0.00000000000E+00 0. -1.
         -1    1    1    2    0  505 -0.23333658530E+02  0.55678116765E+02  0.46726863969E+03  0.47115230440E+03  0.00000000000E+00 0. -1.
<scales pt_clust_3="14000.00000" pt_clust_4="113.05720" pt_clust_5="145.31821" pt_clust_6="60.36980"></scales>
<clustering>
<clus scale="   60.370">  1  6  2 -1</clus>
<clus scale="  113.057">  1  4  2 -1</clus>
<clus scale="  145.318">  1  5  2 -1</clus>
<clus scale="  145.318">  2  3  1 -1</clus>
</clustering>
</event>
<event>
 6    0  0.4796958E+002  0.9430147E+02  0.7546771E-02  0.1292757E+00
          2   -1    0    0  505    0 -0.00000000000E+00  0.00000000000E+00  0.34627787372E+04  0.34627787372E+04  0.00000000000E+00 0.  1.
         21   -1    0    0  504  502  0.00000000000E+00 -0.00000000000E+00 -0.15660029333E+02  0.15660029333E+02  0.00000000000E+00 0.  1.
         21    1    1    2  503  502  0.32171356597E+02 -0.87486376415E+02  0.30703940341E+03  0.32087701302E+03  0.00000000000E+00 0.  1.
         21    1    1    2  504  501  0.13501938189E+02  0.30966738971E+02  0.18569175039E+03  0.18873968163E+03  0.00000000000E+00 0.  1.
         21    1    1    2  505  503 -0.82270524606E+02  0.69497619698E+02  0.40308409943E+03  0.41722314123E+03  0.00000000000E+00 0.  1.
          2    1    1    2  501    0  0.36597229821E+02 -0.12977982254E+02  0.25513034546E+04  0.25515989306E+04  0.00000000000E+00 0.  1.
<scales pt_clust_3="94.30147" pt_clust_4="33.78226" pt_clust_5="14000.00000" pt_clust_6="38.85664"></scales>
<clustering>
<clus scale="   33.782">  2  4  1 -1</clus>
<clus scale="   38.857">  1  6  2 -1</clus>
<clus scale="   94.301">  2  3  1 -1</clus>
<clus scale="   33.782">  2  3  1 -1</clus>
</clustering>
</event>
<event>
 6    0  0.4796958E+002  0.8278533E+02  0.7546771E-02  0.1321328E+00
          2   -1    0    0  503    0 -0.00000000000E+00  0.00000000000E+00  0.22396470035E+04  0.22396470035E+04  0.00000000000E+00 0. -1.
         21   -1    0    0  504  502  0.00000000000E+00 -0.00000000000E+00 -0.13305748758E+04  0.13305748758E+04  0.00000000000E+00 0. -1.
         21    1    1    2  503  502  0.55434782647E+02  0.15894975821E+02  0.12317247817E+03  0.13600413509E+03  0.00000000000E+00 0. -1.
         21    1    1    2  504  505 -0.35581207630E+01  0.56097171645E+02 -0.13147674193E+04  0.13159684341E+04  0.00000000000E+00 0. -1.
         21    1    1    2  505  501 -0.97503175788E+02 -0.87259922031E+02  0.49932704314E+03  0.51618665160E+03  0.00000000000E+00 0. -1.
          2    1    1    2  501    0  0.45626513904E+02  0.15267774566E+02  0.16013400257E+04  0.16020626585E+04  0.00000000000E+00 0. -1.
<scales pt_clust_3="14000.00000" pt_clust_4="56.22154" pt_clust_5="82.78533" pt_clust_6="48.11324"></scales>
<clustering>
<clus scale="   48.113">  1  6  2 -1</clus>
<clus scale="   56.222">  2  4  1 -1</clus>
<clus scale="   82.785">  1  5  2 -1</clus>
<clus scale="   56.222">  2  3  1 -1</clus>
</clustering>
</event>
<event>
 6    0  0.4796958E+002  0.2900159E+03  0.7546771E-02  0.1090341E+00
         21   -1    0    0  505  502  0.00000000000E+00  0.00000000000E+00  0.16555122240E+03  0.16555122240E+03  0.00000000000E+00 0.  1.
          2   -1    0    0  503    0 -0.00000000000E+00 -0.00000000000E+00 -0.29769085396E+04  0.29769085396E+04  0.00000000000E+00 0. -1.
         21    1    1    2  503  504  0.17558819941E+03  0.26519610463E+03 -0.14613244783E+04  0.14955364993E+04  0.00000000000E+00 0.  1.
         21    1    1    2  504  502 -0.14690149832E+03  0.84711828659E+01 -0.16426990484E+03  0.22053664725E+03  0.00000000000E+00 0.  1.
         21    1    1    2  505  501  0.13174768234E+03 -0.60238954616E+02  0.56693449670E+02  0.15556455474E+03  0.00000000000E+00 0.  1.
          2    1    1    2  501    0 -0.16043438344E+03 -0.21342833288E+03 -0.12424563836E+04  0.12708220607E+04  0.00000000000E+00 0. -1.
<scales pt_clust_3="14000.00000" pt_clust_4="86.87092" pt_clust_5="144.86609" pt_clust_6="290.01587"></scales>
<clustering>
<clus scale="  144.866">  1  5  2 -1</clus>
<clus scale="   86.871">  1  4  2 -1</clus>
<clus scale="  290.016">  2  6  1 -1</clus>
<clus scale="  144.866">  1  3  2 -1</clus>
</clustering>
</event>
<event>
 6    0  0.4796958E+002  0.2563226E+03  0.7546771E-02  0.1109373E+00
          2   -1    0    0  505    0 -0.00000000000E+00  0.00000000000E+00  0.21249255278E+04  0.21249255278E+04  0.00000000000E+00 0. -1.
         21   -1    0    0  503  502  0.00000000000E+00 -0.00000000000E+00 -0.18023625186E+03  0.18023625186E+03  0.00000000000E+00 0. -1.
         21    1    1    2  503  501 -0.19976240955E+03  0.10183895068E+03  0.18468697025E+03  0.29049177118E+03  0.00000000000E+00 0. -1.
         21    1    1    2  504  502 -0.15636361569E+02  0.54244140392E+02 -0.10390839190E+03  0.11825344171E+03  0.00000000000E+00 0. -1.
         21    1    1    2  505  504  0.18712069286E+03 -0.19974918444E+03  0.12161016689E+04  0.12465220253E+04  0.00000000000E+00 0. -1.
          2    1    1    2  501    0  0.28278078257E+02  0.43666093366E+02  0.64780902869E+03  0.64989454150E+03  0.00000000000E+00 0. -1.
<scales pt_clust_3="256.32259" pt_clust_4="56.61898" pt_clust_5="14000.00000" pt_clust_6="52.02285"></scales>
<clustering>
<clus scale="   52.023">  1  6  2 -1</clus>
<clus scale="   56.619">  2  4  1 -1</clus>
<clus scale="  256.323">  2  3  1 -1</clus>
<clus scale="   56.619">  2  3  1 -1</clus>
</clustering>
</event>
<event>
 6    0  0.4796958E+002  0.1931759E+03  0.7546771E-02  0.1155628E+00
         -3   -1    0    0    0  501 -0.00000000000E+00  0.00000000000E+00  0.10403245549E+04  0.10403245549E+04  0.00000000000E+00 0. -1.
         21   -1    0    0  505  502  0.00000000000E+00 -0.00000000000E+00 -0.17852979414E+03  0.17852979414E+03  0.00000000000E+00 0.  1.
         21    1    1    2  503  504 -0.99121964561E+02  0.20016889516E+03  0.67237915572E+03  0.70851004191E+03  0.00000000000E+00 0.  1.
         21    1    1    2  504  502  0.82944767034E+02 -0.17157959179E+03 -0.93226484326E+02  0.21215694209E+03  0.00000000000E+00 0.  1.
         21    1    1    2  505  501 -0.31789627310E+02 -0.10286946833E+02  0.51333729263E+02  0.61249926038E+02  0.00000000000E+00 0.  1.
         -3    1    1    2    0  503  0.47966824837E+02 -0.18302356532E+02  0.23130836008E+03  0.23693743896E+03  0.00000000000E+00 0. -1.
<scales pt_clust_3="193.17591" pt_clust_4="14000.00000" pt_clust_5="33.41260" pt_clust_6="45.42014"></scales>
<clustering>
<clus scale="   33.413">  1  5  2 -1</clus>
<clus scale="   45.420">  1  6  2 -1</clus>
<clus scale="  193.176">  1  3  2 -1</clus>
<clus scale="  193.176">  2  3  1 -1</clus>
</clustering>
</event>
<event>
 6    0  0.4796958E+002  0.1070758E+03  0.7546771E-02  0.1266083E+00
          2   -1    0    0  503    0 -0.00000000000E+00  0.00000000000E+00  0.18994371304E+04  0.18994371304E+04  0.00000000000E+00 0. -1.
         21   -1    0    0  505  502  0.00000000000E+00 -0.00000000000E+00 -0.62017386985E+03  0.62017386985E+03  0.00000000000E+00 0. -1.
         21    1    1    2  503  504 -0.11969434878E+03  0.12185228118E+03 -0.19211115881E+03  0.25706305238E+03  0.00000000000E+00 0.  1.
         21    1    1    2  504  502  0.27980779988E+02 -0.93832503493E+02 -0.38576604391E+03  0.39799862235E+03  0.00000000000E+00 0. -1.
         21    1    1    2  505  501  0.70713432607E+02 -0.51531196087E+02  0.54088833010E+03  0.54791973806E+03  0.00000000000E+00 0. -1.
          2    1    1    2  501    0  0.21000136182E+02  0.23511418404E+02  0.13162521332E+04  0.13166295875E+04  0.00000000000E+00 0. -1.
<scales pt_clust_3="14000.00000" pt_clust_4="107.07584" pt_clust_5="95.04247" pt_clust_6="31.52447"></scales>
<clustering>
<clus scale="   31.524">  1  6  2 -1</clus>
<clus scale="   95.042">  1  5  2 -1</clus>
<clus scale="  107.076">  2  4  1 -1</clus>
<clus scale="  107.076">  2  3  1 -1</clus>
</clustering>
</event>
<event>
 6    0  0.4796958E+002  0.1581706E+03  0.7546771E-02  0.1190778E+00
         21   -1    0    0  504  502  0.00000000000E+00  0.00000000000E+00  0.57728784869E+02  0.57728784869E+02  0.00000000000E+00 0. -1.
          2   -1    0    0  505    0 -0.00000000000E+00 -0.00000000000E+00 -0.22263692323E+04  0.22263692323E+04  0.00000000000E+00 0. -1.
         21    1    1    2  503  502 -0.75770572216E+01 -0.32311283337E+02  0.16983607402E+01  0.33231239162E+02  0.00000000000E+00 0. -1.
         21    1    1    2  504  501  0.18016460172E+03  0.74732261752E+02 -0.27696293518E+03  0.33875162306E+03  0.00000000000E+00 0. -1.
         21    1    1    2  505  503 -0.16991389228E+02 -0.42026018443E+02 -0.79016250458E+02  0.91095891074E+02  0.00000000000E+00 0. -1.
          2    1    1    2  501    0 -0.15559615527E+03 -0.39495997156E+00 -0.18143596225E+04  0.18210192639E+04  0.00000000000E+00 0. -1.
<scales pt_clust_3="33.18781" pt_clust_4="158.17055" pt_clust_5="50.25626" pt_clust_6="14000.00000"></scales>
<clustering>
<clus scale="   33.188">  1  3  2 -1</clus>
<clus scale="   50.256">  1  5  2 -1</clus>
<clus scale="  158.171">  1  4  2 -1</clus>
<clus scale="   33.188">  1  3  2 -1</clus>
</clustering>
</event>
<event>
 6    0  0.4796958E+002  0.1086739E+03  0.7546771E-02  0.1263045E+00
          1   -1    0    0  504    0 -0.00000000000E+00  0.00000000000E+00  0.27427079490E+03  0.27427079490E+03  0.00000000000E+00 0. -1.
         21   -1    0    0  503  502  0.00000000000E+00 -0.00000000000E+00 -0.40051933586E+03  0.40051933586E+03  0.00000000000E+00 0.  1.
         21    1    1    2  503  505 -0.87009761422E+01 -0.90447450827E+02 -0.16466219693E+03  0.18806936871E+03  0.00000000000E+00 0.  1.
         21    1    1    2  504  502  0.37245274466E+02 -0.65860974126E+01 -0.54886353699E+02  0.66656574856E+02  0.00000000000E+00 0. -1.
         21    1    1    2  505  501 -0.77837214849E+02  0.12980741113E+03 -0.12348773508E+03  0.19534025882E+03  0.00000000000E+00 0.  1.
          1    1    1    2  501    0  0.49292916526E+02 -0.32773862892E+02  0.21678774475E+03  0.22472392837E+03  0.00000000000E+00 0. -1.
<scales pt_clust_3="108.67390" pt_clust_4="37.82310" pt_clust_5="14000.00000" pt_clust_6="59.59900"></scales>
<clustering>
<clus scale="   37.823">  2  4  1 -1</clus>
<clus scale="   59.599">  1  6  2 -1</clus>
<clus scale="  108.674">  2  3  1 -1</clus>
<clus scale="   37.823">  2  3  1 -1</clus>
</clustering>
</event>
<event>
 6    0  0.4796958E+002  0.6820870E+02  0.7546771E-02  0.1366293E+00
         21   -1    0    0  504  502  0.00000000000E+00  0.00000000000E+00  0.15939776053E+04  0.15939776053E+04  0.00000000000E+00 0.  1.
         -2   -1    0    0    0  501 -0.00000000000E+00 -0.00000000000E+00 -0.69813084213E+03  0.69813084213E+03  0.00000000000E+00 0.  1.
         21    1    1    2  503  501 -0.87338945404E+02  0.17034425756E+02 -0.17741206886E+03  0.19847746779E+03  0.00000000000E+00 0.  1.
         21    1    1    2  504  505  0.20022844449E+02 -0.45158188529E+02  0.11305518184E+04  0.11316305009E+04  0.00000000000E+00 0.  1.
         21    1    1    2  505  503  0.27895840806E+02  0.83448405994E+02  0.44577043938E+03  0.45437110276E+03  0.00000000000E+00 0.  1.
         -2    1    1    2    0  502  0.39420260148E+02 -0.55324643222E+02 -0.50306342578E+03  0.50762937604E+03  0.00000000000E+00 0.  1.
<scales pt_clust_3="68.20870" pt_clust_4="49.39814" pt_clust_5="61.69951" pt_clust_6="14000.00000"></scales>
<clustering>
<clus scale="   49.398">  1  4  2 -1</clus>
<clus scale="   61.700">  1  5  2 -1</clus>
<clus scale="   68.209">  1  3  2 -1</clus>
<clus scale="   49.398">  1  3  2 -1</clus>
</clustering>
</event>
<event>
 6    0  0.4796958E+002  0.1784031E+03  0.7546771E-02  0.1169358E+00
         21   -1    0    0  504  502  0.00000000000E+00  0.00000000000E+00  0.23689572073E+03  0.23689572073E+03  0.00000000000E+00 0. -1.
          2   -1    0    0  505    0 -0.00000000000E+00 -0.00000000000E+00 -0.12265109374E+04  0.12265109374E+04  0.00000000000E+00 0.  1.
         21    1    1    2  503  501 -0.10464498477E+03 -0.69877790382E+02  0.17397546196E+03  0.21471129404E+03  0.00000000000E+00 0. -1.
         21    1    1    2  504  503 -0.32866130060E+02  0.31257757842E+02 -0.64940389451E+01  0.45819236924E+02  0.00000000000E+00 0. -1.
         21    1    1    2  505  502 -0.34708175678E+02 -0.15377382347E+02 -0.68742921779E+01  0.38579492476E+02  0.00000000000E+00 0.  1.
          2    1    1    2  501    0  0.17221929051E+03  0.53997414887E+02 -0.11502223475E+04  0.11642966346E+04  0.00000000000E+00 0.  1.
<scales pt_clust_3="178.40313" pt_clust_4="46.75535" pt_clust_5="37.96210" pt_clust_6="14000.00000"></scales>
<clustering>
<clus scale="   37.962">  1  5  2 -1</clus>
<clus scale="   46.755">  1  4  2 -1</clus>
<clus scale="  178.403">  1  3  2 -1</clus>
<clus scale="   37.962">  1  3  2 -1</clus>
</clustering>
</event>
<event>
 6    0  0.4796958E+002  0.8618104E+02  0.7546771E-02  0.1312373E+00
          3   -1    0    0  505    0 -0.00000000000E+00  0.00000000000E+00  0.47767526335E+02  0.47767526335E+02  0.00000000000E+00 0.  1.
         21   -1    0    0  501  502  0.00000000000E+00 -0.00000000000E+00 -0.23440850872E+04  0.23440850872E+04  0.00000000000E+00 0.  1.
         21    1    1    2  503  502  0.10117273045E+02  0.47141111588E+02 -0.18400261188E+04  0.18406576981E+04  0.00000000000E+00 0.  1.
         21    1    1    2  504  503  0.68965011038E+02 -0.64933297586E+01 -0.32146702473E+03  0.32884553223E+03  0.00000000000E+00 0.  1.
         21    1    1    2  505  504 -0.12130901009E+03 -0.49425920732E+02 -0.83641786438E+02  0.15541797196E+03  0.00000000000E+00 0.  1.
          3    1    1    2  501    0  0.42226726005E+02  0.87781389029E+01 -0.51182630965E+02  0.66931411342E+02  0.00000000000E+00 0.  1.
<scales pt_clust_3="48.35365" pt_clust_4="86.18104" pt_clust_5="14000.00000" pt_clust_6="43.12948"></scales>
<clustering>
<clus scale="   43.129">  1  6  2 -1</clus>
<clus scale="   48.354">  2  3  1 -1</clus>
<clus scale="   86.181">  2  4  1 -1</clus>
<clus scale="   48.354">  2  3  1 -1</clus>
</clustering>
</event>
<event>
 6    0  0.4796958E+002  0.1148522E+03  0.7546771E-02  0.1251839E+00
         21   -1    0    0  503  502  0.00000000000E+00  0.00000000000E+00  0.19076103459E+03  0.19076103459E+03  0.00000000000E+00 0.  1.
          2   -1    0    0  504    0 -0.00000000000E+00 -0.00000000000E+00 -0.28808968986E+04  0.28808968986E+04  0.00000000000E+00 0.  1.
         21    1    1    2  503  501  0.53262345470E+02  0.96616602823E+02 -0.84652701581E+02  0.13906014983E+03  0.00000000000E+00 0.  1.
         21    1    1    2  504  505 -0.14994670375E+03 -0.37676374416E+02 -0.40578127075E+03  0.43423721956E+03  0.00000000000E+00 0.  1.
         21    1    1    2  505  502  0.27177829296E+02 -0.19340306824E+02  0.14677639439E+03  0.15051907461E+03  0.00000000000E+00 0.  1.
          2    1    1    2  501    0  0.69506528986E+02 -0.39599921583E+02 -0.23464782861E+04  0.23478414892E+04  0.00000000000E+00 0.  1.
<scales pt_clust_3="14000.00000" pt_clust_4="114.85221" pt_clust_5="33.35689" pt_clust_6="80.53286"></scales>
<clustering>
<clus scale="   33.357">  1  5  2 -1</clus>
<clus scale="   80.533">  2  6  1 -1</clus>
<clus scale="  114.852">  2  4  1 -1</clus>
<clus scale="   33.357">  1  3  2 -1</clus>
</clustering>
</event>
<event>
 6    0  0.4796958E+002  0.8532881E+02  0.7546771E-02  0.1314575E+00
          2   -1    0    0  503    0 -0.00000000000E+00  0.00000000000E+00  0.18513073896E+04  0.18513073896E+04  0.00000000000E+00 0.  1.
         21   -1    0    0  505  502  0.00000000000E+00 -0.00000000000E+00 -0.47756946765E+02  0.47756946765E+02  0.00000000000E+00 0. -1.
         21    1    1    2  503  502 -0.32591576365E+02 -0.91836240570E+02  0.90501354885E+02  0.13299098153E+03  0.00000000000E+00 0. -1.
         21    1    1    2  504  501  0.82320799532E+02  0.52832472683E+02  0.93382244068E+03  0.93893148574E+03  0.00000000000E+00 0. -1.
         21    1    1    2  505  504 -0.18244471919E+02  0.25777859775E+02 -0.13019951119E+02  0.34159595099E+02  0.00000000000E+00 0. -1.
          2    1    1    2  501    0 -0.31484751248E+02  0.13225908112E+02  0.79224659835E+03  0.79298227395E+03  0.00000000000E+00 0.  1.
<scales pt_clust_3="14000.00000" pt_clust_4="85.32881" pt_clust_5="31.58099" pt_clust_6="34.55879"></scales>
<clustering>
<clus scale="   31.581">  2  5  1 -1</clus>
<clus scale="   34.559">  1  6  2 -1</clus>
<clus scale="   85.329">  1  4  2 -1</clus>
<clus scale="   31.581">  2  3  1 -1</clus>
</clustering>
</event>
<event>
 6    0  0.4796958E+002  0.6266721E+02  0.7546771E-02  0.1386968E+00
         21   -1    0    0  504  502  0.00000000000E+00  0.00000000000E+00  0.12462560268E+03  0.12462560268E+03  0.00000000000E+00 0. -1.
          2   -1    0    0  503    0 -0.00000000000E+00 -0.00000000000E+00 -0.13771939381E+04  0.13771939381E+04  0.00000000000E+00 0. -1.
         21    1    1    2  503  502  0.32711242403E+02 -0.37995057594E+02 -0.15365310562E+03  0.16162588483E+03  0.00000000000E+00 0.  1.
         21    1    1    2  504  505  0.31671763729E+02 -0.53804673462E+02  0.10138232966E+03  0.11906477343E+03  0.00000000000E+00 0. -1.
         21    1    1    2  505  501 -0.71901990993E+02  0.34519541708E+02 -0.15574552233E+03  0.17498046404E+03  0.00000000000E+00 0. -1.
          2    1    1    2  501    0  0.75189848604E+01  0.57280189347E+02 -0.10445520371E+04  0.10461484184E+04  0.00000000000E+00 0. -1.
<scales pt_clust_3="50.13631" pt_clust_4="14000.00000" pt_clust_5="62.66721" pt_clust_6="43.30188"></scales>
<clustering>
<clus scale="   50.136">  2  3  1 -1</clus>
<clus scale="   43.302">  2  6  1 -1</clus>
<clus scale="   62.667">  2  5  1 -1</clus>
<clus scale="   62.667">  1  3  2 -1</clus>
</clustering>
</event>
<event>
 6    0  0.4796958E+002  0.1152333E+03  0.7546771E-02  0.1251174E+00
         21   -1    0    0  503  502  0.00000000000E+00  0.00000000000E+00  0.95288225929E+03  0.95288225929E+03  0.00000000000E+00 0. -1.
          2   -1    0    0  504    0 -0.00000000000E+00 -0.00000000000E+00 -0.34658786577E+04  0.34658786577E+04  0.00000000000E+00 0. -1.
         21    1    1    2  503  501  0.29304765034E+02 -0.46077604407E+02  0.12157792843E+03  0.13327830867E+03  0.00000000000E+00 0. -1.
         21    1    1    2  504  505 -0.62862018705E+02 -0.42387478071E+02 -0.87783275212E+02  0.11599239242E+03  0.00000000000E+00 0. -1.
         21    1    1    2  505  502  0.65712353454E+02 -0.20878680556E+02  0.80891550374E+03  0.81184870813E+03  0.00000000000E+00 0. -1.
          2    1    1    2  501    0 -0.32155099782E+02  0.10934376303E+03 -0.33557065554E+04  0.33576415078E+04  0.00000000000E+00 0. -1.
<scales pt_clust_3="54.60691" pt_clust_4="75.84849" pt_clust_5="115.23335" pt_clust_6="14000.00000"></scales>
<clustering>
<clus scale="   54.607">  1  3  2 -1</clus>
<clus scale="   75.848">  2  4  1 -1</clus>
<clus scale="  115.233">  1  5  2 -1</clus>
<clus scale="   54.607">  1  3  2 -1</clus>
</clustering>
</event>
<event>
 6    0  0.4796958E+002  0.1315951E+03  0.7546771E-02  0.1225108E+00
          2   -1    0    0  503    0 -0.00000000000E+00  0.00000000000E+00  0.49219201593E+03  0.49219201593E+03  0.00000000000E+00 0. -1.
         21   -1    0    0  504  502  0.00000000000E+00 -0.00000000000E+00 -0.40487001305E+03  0.40487001305E+03  0.00000000000E+00 0.  1.
         21    1    1    2  503  505 -0.32540408484E+02 -0.74479774344E+01  0.49760908407E+01  0.33750733802E+02  0.00000000000E+00 0.  1.
         21    1    1    2  504  501 -0.95401757258E+02  0.93460004006E+02 -0.34736082521E+03  0.37215025263E+03  0.00000000000E+00 0.  1.
         21    1    1    2  505  502 -0.61185952754E+01 -0.10157310083E+03  0.16091238710E+03  0.19038731140E+03  0.00000000000E+00 0. -1.
          2    1    1    2  501    0  0.13406076102E+03  0.15561074263E+02  0.26879435015E+03  0.30077373115E+03  0.00000000000E+00 0. -1.
<scales pt_clust_3="33.38189" pt_clust_4="131.59506" pt_clust_5="105.91654" pt_clust_6="14000.00000"></scales>
<clustering>
<clus scale="   33.382">  1  3  2 -1</clus>
<clus scale="  105.917">  1  5  2 -1</clus>
<clus scale="  131.595">  2  4  1 -1</clus>
<clus scale="  131.595">  2  3  1 -1</clus>
</clustering>
</event>
<event>
 6    0  0.4796958E+002  0.1705158E+03  0.7546771E-02  0.1177311E+00
         21   -1    0    0  504  502  0.00000000000E+00  0.00000000000E+00  0.57833406302E+03  0.57833406302E+03  0.00000000000E+00 0.  1.
         -1   -1    0    0    0  501 -0.00000000000E+00 -0.00000000000E+00 -0.54412662052E+03  0.54412662052E+03  0.00000000000E+00 0.  1.
         21    1    1    2  503  502  0.34710097371E+02 -0.10584342632E+02  0.82144186439E+02  0.89802486236E+02  0.00000000000E+00 0.  1.
         21    1    1    2  504  501  0.40883978208E+01  0.17403285517E+03  0.43865058183E+03  0.47193059089E+03  0.00000000000E+00 0.  1.
         21    1    1    2  505  503 -0.39841051968E+02 -0.20172385611E+03 -0.26276820259E+03  0.33365693734E+03  0.00000000000E+00 0.  1.
         -1    1    1    2    0  505  0.10425567759E+01  0.38275343569E+02 -0.22381912318E+03  0.22707066907E+03  0.00000000000E+00 0.  1.
<scales pt_clust_3="36.28800" pt_clust_4="14000.00000" pt_clust_5="170.51584" pt_clust_6="38.25790"></scales>
<clustering>
<clus scale="   36.288">  1  3  2 -1</clus>
<clus scale="   38.258">  2  6  1 -1</clus>
<clus scale="  170.516">  2  5  1 -1</clus>
<clus scale="   36.288">  1  3  2 -1</clus>
</clustering>
</event>
<event>
 6    0  0.4796958E+002  0.1386906E+03  0.7546771E-02  0.1215102E+00
         21   -1    0    0  504  502  0.00000000000E+00  0.00000000000E+00  0.43613557067E+02  0.43613557067E+02  0.00000000000E+00 0. -1.
          2   -1    0    0  505    0 -0.00000000000E+00 -0.00000000000E+00 -0.23399108380E+04  0.23399108380E+04  0.00000000000E+00 0. -1.
         21    1    1    2  503  502 -0.16459325347E+02 -0.12364570410E+03 -0.31842828890E+03  0.34198793064E+03  0.00000000000E+00 0.  1.
         21    1    1    2  504  501 -0.27489813971E+02 -0.29448993631E+02  0.95942738287E+01  0.41412355503E+02  0.00000000000E+00 0. -1.
         21    1    1    2  505  503  0.95844837175E+02  0.11184657478E+03 -0.16239010709E+04  0.16305675629E+04  0.00000000000E+00 0. -1.
          2    1    1    2  501    0 -0.51895697858E+02  0.41248122955E+02 -0.36356219494E+03  0.36955654600E+03  0.00000000000E+00 0. -1.
<scales pt_clust_3="14000.00000" pt_clust_4="40.28564" pt_clust_5="138.69063" pt_clust_6="67.15024"></scales>
<clustering>
<clus scale="   40.286">  1  4  2 -1</clus>
<clus scale="   67.150">  1  6  2 -1</clus>
<clus scale="  138.691">  2  5  1 -1</clus>
<clus scale="   40.286">  1  3  2 -1</clus>
</clustering>
</event>
<event>
 6    0  0.4796958E+002  0.8419760E+02  0.7546771E-02  0.1317544E+00
         21   -1    0    0  504  502  0.00000000000E+00  0.00000000000E+00  0.48003407078E+02  0.48003407078E+02  0.00000000000E+00 0.  1.
          2   -1    0    0  503    0 -0.00000000000E+00 -0.00000000000E+00 -0.35283099442E+04  0.35283099442E+04  0.00000000000E+00 0. -1.
         21    1    1    2  503  502 -0.24974907548E+02 -0.17554242106E+02 -0.10168551101E+03  0.10616892470E+03  0.00000000000E+00 0. -1.
         21    1    1    2  504  505  0.37521776407E+02 -0.17939141972E+02  0.18180707171E+02  0.45389807586E+02  0.00000000000E+00 0.  1.
         21    1    1    2  505  501  0.99092640504E+01  0.11539150457E+03 -0.23622755429E+03  0.26309095432E+03  0.00000000000E+00 0.  1.
          2    1    1    2  501    0 -0.22456132910E+02 -0.79898120492E+02 -0.31605741790E+04  0.31616636647E+04  0.00000000000E+00 0. -1.
<scales pt_clust_3="30.52699" pt_clust_4="36.26230" pt_clust_5="14000.00000" pt_clust_6="84.19760"></scales>
<clustering>
<clus scale="   30.527">  1  3  2 -1</clus>
<clus scale="   36.262">  1  4  2 -1</clus>
<clus scale="   84.198">  2  6  1 -1</clus>
<clus scale="   30.527">  1  3  2 -1</clus>
</clustering>
</event>
<event>
 6    0  0.4796958E+002  0.1104818E+03  0.7546771E-02  0.1259680E+00
         21   -1    0    0  503  502  0.00000000000E+00  0.00000000000E+00  0.17829185970E+03  0.17829185970E+03  0.00000000000E+00 0. -1.
          2   -1    0    0  504    0 -0.00000000000E+00 -0.00000000000E+00 -0.87782043959E+03  0.87782043959E+03  0.00000000000E+00 0.  1.
         21    1    1    2  503  501 -0.23906469374E+02  0.21259928775E+02  0.70252083821E+02  0.77193646958E+02  0.00000000000E+00 0. -1.
         21    1    1    2  504  505  0.78990546804E+02 -0.20663517648E+02 -0.39427129198E+02  0.90669652932E+02  0.00000000000E+00 0. -1.
         21    1    1    2  505  502  0.41613755643E+02 -0.64525475025E+02  0.54961521016E+02  0.94424628028E+02  0.00000000000E+00 0. -1.
          2    1    1    2  501    0 -0.96697833073E+02  0.63929063898E+02 -0.78531505554E+03  0.79382437137E+03  0.00000000000E+00 0.  1.
<scales pt_clust_3="31.99225" pt_clust_4="110.48183" pt_clust_5="55.10433" pt_clust_6="14000.00000"></scales>
<clustering>
<clus scale="   31.992">  1  3  2 -1</clus>
<clus scale="   55.104">  1  5  2 -1</clus>
<clus scale="  110.482">  1  4  2 -1</clus>
<clus scale="   31.992">  1  3  2 -1</clus>
</clustering>
</event>
<event>
 6    0  0.4796958E+002  0.1268216E+03  0.7546771E-02  0.1232250E+00
         21   -1    0    0  505  502  0.00000000000E+00  0.00000000000E+00  0.89189550005E+03  0.89189550005E+03  0.00000000000E+00 0.  1.
          2   -1    0    0  503    0 -0.00000000000E+00 -0.00000000000E+00 -0.16297145422E+04  0.16297145422E+04  0.00000000000E+00 0. -1.
         21    1    1    2  503  502 -0.15349222980E+02  0.34783707557E+02  0.75203683142E+02  0.84268018344E+02  0.00000000000E+00 0.  1.
         21    1    1    2  504  501 -0.97740738466E+02  0.69222530349E+02 -0.20677719183E+02  0.12154249765E+03  0.00000000000E+00 0.  1.
         21    1    1    2  505  504  0.91414372121E+02 -0.13504047052E+03  0.75276508209E+03  0.77022580126E+03  0.00000000000E+00 0.  1.
          2    1    1    2  501    0  0.21675589325E+02  0.31034232615E+02 -0.15451100882E+04  0.15455737250E+04  0.00000000000E+00 0. -1.
<scales pt_clust_3="39.11353" pt_clust_4="14000.00000" pt_clust_5="126.82160" pt_clust_6="37.85439"></scales>
<clustering>
<clus scale="   37.854">  2  6  1 -1</clus>
<clus scale="   39.114">  1  3  2 -1</clus>
<clus scale="  126.822">  1  5  2 -1</clus>
<clus scale="   39.114">  1  3  2 -1</clus>
</clustering>
</event>
<event>
 6    0  0.4796958E+002  0.1384277E+03  0.7546771E-02  0.1215460E+00
         21   -1    0    0  503  502  0.00000000000E+00  0.00000000000E+00  0.11367247862E+04  0.11367247862E+04  0.00000000000E+00 0.  1.
          1   -1    0    0  505    0 -0.00000000000E+00 -0.00000000000E+00 -0.15017024417E+04  0.15017024417E+04  0.00000000000E+00 0.  1.
         21    1    1    2  503  504 -0.30189495451E+02 -0.23065811753E+02  0.89334509153E+03  0.89415260994E+03  0.00000000000E+00 0.  1.
         21    1    1    2  504  501 -0.55173554255E+02  0.95747674497E+02 -0.36420128992E+03  0.38059731717E+03  0.00000000000E+00 0. -1.
         21    1    1    2  505  502  0.11283749258E+03 -0.90188908621E+02  0.21229621425E+03  0.25678010350E+03  0.00000000000E+00 0.  1.
          1    1    1    2  501    0 -0.27474442874E+02  0.17507045877E+02 -0.11064176714E+04  0.11068971973E+04  0.00000000000E+00 0.  1.
<scales pt_clust_3="38.00406" pt_clust_4="138.42772" pt_clust_5="14000.00000" pt_clust_6="32.57824"></scales>
<clustering>
<clus scale="   32.578">  2  6  1 -1</clus>
<clus scale="   38.004">  1  3  2 -1</clus>
<clus scale="  138.428">  2  4  1 -1</clus>
<clus scale="   38.004">  1  3  2 -1</clus>
</clustering>
</event>
<event>
 6    0  0.4796958E+002  0.1070674E+03  0.7546771E-02  0.1266099E+00
         21   -1    0    0  505  502  0.00000000000E+00  0.00000000000E+00  0.10970578685E+04  0.10970578685E+04  0.00000000000E+00 0.  1.
         -2   -1    0    0    0  501 -0.00000000000E+00 -0.00000000000E+00 -0.24169136509E+03  0.24169136509E+03  0.00000000000E+00 0.  1.
         21    1    1    2  503  501  0.97895893033E+02 -0.43019685519E+02  0.58603410939E+03  0.59570989297E+03  0.00000000000E+00 0.  1.
         21    1    1    2  504  502  0.30923339930E+02 -0.51168223843E+01  0.39739465001E+02  0.50612843255E+02  0.00000000000E+00 0.  1.
         21    1    1    2  505  503 -0.70433796213E+02  0.85445181233E+02  0.44894074802E+03  0.46239549509E+03  0.00000000000E+00 0. -1.
         -2    1    1    2    0  504 -0.58385436751E+02 -0.37308673330E+02 -0.21934781897E+03  0.23003100230E+03  0.00000000000E+00 0.  1.
<scales pt_clust_3="107.06740" pt_clust_4="31.34382" pt_clust_5="14000.00000" pt_clust_6="69.16953"></scales>
<clustering>
<clus scale="   31.344">  1  4  2 -1</clus>
<clus scale="   69.170">  2  6  1 -1</clus>
<clus scale="  107.067">  2  3  1 -1</clus>
<clus scale="   31.344">  1  3  2 -1</clus>
</clustering>
</event>
<event>
 6    0  0.4796958E+002  0.9027669E+02  0.7546771E-02  0.1302183E+00
         21   -1    0    0  503  502  0.00000000000E+00  0.00000000000E+00  0.14530436095E+03  0.14530436095E+03  0.00000000000E+00 0. -1.
         -1   -1    0    0    0  501 -0.00000000000E+00 -0.00000000000E+00 -0.17026205717E+04  0.17026205717E+04  0.00000000000E+00 0.  1.
         21    1    1    2  503  504  0.45381450542E+02 -0.30452047600E+02  0.70851810072E+02  0.89480624980E+02  0.00000000000E+00 0. -1.
         21    1    1    2  504  501 -0.11042598084E+03  0.12375828595E+03 -0.78490579442E+02  0.18349599900E+03  0.00000000000E+00 0. -1.
         21    1    1    2  505  502  0.33753888198E+02 -0.10317659881E+02 -0.16075736211E+02  0.38784125214E+02  0.00000000000E+00 0. -1.
         -1    1    1    2    0  505  0.31290642102E+02 -0.82988578469E+02 -0.15336017052E+04  0.15361641834E+04  0.00000000000E+00 0.  1.
<scales pt_clust_3="75.11714" pt_clust_4="90.27669" pt_clust_5="35.29560" pt_clust_6="14000.00000"></scales>
<clustering>
<clus scale="   35.296">  1  5  2 -1</clus>
<clus scale="   75.117">  1  3  2 -1</clus>
<clus scale="   90.277">  1  4  2 -1</clus>
<clus scale="   35.296">  1  3  2 -1</clus>
</clustering>
</event>
<event>
 6    0  0.4796958E+002  0.9126882E+02  0.7546771E-02  0.1299808E+00
          1   -1    0    0  505    0 -0.00000000000E+00  0.00000000000E+00  0.25503108467E+04  0.25503108467E+04  0.00000000000E+00 0.  1.
         21   -1    0    0  501  502  0.00000000000E+00 -0.00000000000E+00 -0.13777396090E+03  0.13777396090E+03  0.00000000000E+00 0. -1.
         21    1    1    2  503  504 -0.47418575153E+02  0.12162494770E+03 -0.84836038812E+02  0.15568655258E+03  0.00000000000E+00 0. -1.
         21    1    1    2  504  502  0.80814863896E+02 -0.31115728581E+02  0.10203725561E+03  0.13383135777E+03  0.00000000000E+00 0. -1.
         21    1    1    2  505  503 -0.53598473309E+02 -0.31738551674E+02  0.12220883701E+04  0.12236748410E+04  0.00000000000E+00 0.  1.
          1    1    1    2  501    0  0.20202184566E+02 -0.58770667442E+02  0.11732472988E+04  0.11748920563E+04  0.00000000000E+00 0.  1.
<scales pt_clust_3="91.26882" pt_clust_4="90.11557" pt_clust_5="14000.00000" pt_clust_6="62.14595"></scales>
<clustering>
<clus scale="   62.146">  1  6  2 -1</clus>
<clus scale="   90.116">  2  4  1 -1</clus>
<clus scale="   91.269">  2  3  1 -1</clus>
<clus scale="   90.116">  2  3  1 -1</clus>
</clustering>
</event>
<event>
 6    0  0.4796958E+002  0.8826499E+02  0.7546771E-02  0.1307109E+00
          2   -1    0    0  503    0 -0.00000000000E+00  0.00000000000E+00  0.95902870151E+03  0.95902870151E+03  0.00000000000E+00 0.  1.
         21   -1    0    0  504  502  0.00000000000E+00 -0.00000000000E+00 -0.17049754094E+03  0.17049754094E+03  0.00000000000E+00 0.  1.
         21    1    1    2  503  505  0.88198956957E+01 -0.78511854790E+02  0.88289610843E+02  0.11847766577E+03  0.00000000000E+00 0.  1.
         21    1    1    2  504  501  0.10899809242E+03  0.15855142816E+02  0.95828202152E+01  0.11056129588E+03  0.00000000000E+00 0.  1.
         21    1    1    2  505  502 -0.40013562627E+02  0.21137970053E+02 -0.97457811885E+02  0.10745196168E+03  0.00000000000E+00 0.  1.
          2    1    1    2  501    0 -0.77804425486E+02  0.41518741921E+02  0.78811654139E+03  0.79303531912E+03  0.00000000000E+00 0.  1.
<scales pt_clust_3="73.82280" pt_clust_4="14000.00000" pt_clust_5="45.25372" pt_clust_6="88.26499"></scales>
<clustering>
<clus scale="   45.254">  2  5  1 -1</clus>
<clus scale="   73.823">  2  3  1 -1</clus>
<clus scale="   88.265">  1  6  2 -1</clus>
<clus scale="   45.254">  2  3  1 -1</clus>
</clustering>
</event>
<event>
 6    0  0.4796958E+002  0.1153638E+03  0.7546771E-02  0.1250947E+00
         21   -1    0    0  505  502  0.00000000000E+00  0.00000000000E+00  0.77955630961E+03  0.77955630961E+03  0.00000000000E+00 0. -1.
          1   -1    0    0  503    0 -0.00000000000E+00 -0.00000000000E+00 -0.60718126030E+03  0.60718126030E+03  0.00000000000E+00 0. -1.
         21    1    1    2  503  502 -0.92631737828E+02  0.14636148345E+02  0.38043839741E+03  0.39182678560E+03  0.00000000000E+00 0. -1.
         21    1    1    2  504  501 -0.20884101281E+02  0.16905803338E+03  0.70645518989E+02  0.18441137083E+03  0.00000000000E+00 0. -1.
         21    1    1    2  505  504  0.73123958735E+02 -0.10683978309E+03  0.24635635756E+03  0.27830434330E+03  0.00000000000E+00 0. -1.
          1    1    1    2  501    0  0.40391880374E+02 -0.76854398641E+02 -0.52506522465E+03  0.53219507018E+03  0.00000000000E+00 0. -1.
<scales pt_clust_3="90.16058" pt_clust_4="14000.00000" pt_clust_5="115.36384" pt_clust_6="86.82225"></scales>
<clustering>
<clus scale="   86.822">  2  6  1 -1</clus>
<clus scale="   90.161">  1  3  2 -1</clus>
<clus scale="  115.364">  1  5  2 -1</clus>
<clus scale="   90.161">  1  3  2 -1</clus>
</clustering>
</event>
<event>
 6    0  0.4796958E+002  0.9336077E+02  0.7546771E-02  0.1294911E+00
         -1   -1    0    0    0  501 -0.00000000000E+00  0.00000000000E+00  0.21183215577E+04  0.21183215577E+04  0.00000000000E+00 0.  1.
         21   -1    0    0  504  502  0.00000000000E+00 -0.00000000000E+00 -0.32855989326E+03  0.32855989326E+03  0.00000000000E+00 0. -1.
         21    1    1    2  503  505 -0.29198093208E+02  0.70993565100E+02  0.56952302035E+02  0.95583364869E+02  0.00000000000E+00 0.  1.
         21    1    1    2  504  501  0.12608393056E+02 -0.12243307646E+03  0.21778655945E+03  0.25015957960E+03  0.00000000000E+00 0.  1.
         21    1    1    2  505  502  0.55649466077E+02  0.22630309571E+02 -0.28964941626E+03  0.29581375614E+03  0.00000000000E+00 0. -1.
         -1    1    1    2    0  503 -0.39059765924E+02  0.28809201794E+02  0.18046722192E+04  0.18053247503E+04  0.00000000000E+00 0.  1.
<scales pt_clust_3="14000.00000" pt_clust_4="93.36077" pt_clust_5="59.82712" pt_clust_6="48.53489"></scales>
<clustering>
<clus scale="   48.535">  1  6  2 -1</clus>
<clus scale="   59.827">  2  5  1 -1</clus>
<clus scale="   93.361">  1  4  2 -1</clus>
<clus scale="   59.827">  2  3  1 -1</clus>
</clustering>
</event>
<event>
 6    0  0.4796958E+002  0.2656060E+03  0.7546771E-02  0.1103821E+00
          2   -1    0    0  502    0 -0.00000000000E+00  0.00000000000E+00  0.49769528452E+03  0.49769528452E+03  0.00000000000E+00 0.  1.
         21   -1    0    0  503  502  0.00000000000E+00 -0.00000000000E+00 -0.82721142035E+03  0.82721142035E+03  0.00000000000E+00 0.  1.
         21    1    1    2  503  504 -0.33237141431E+02 -0.17856588590E+03 -0.37144878093E+03  0.41347875403E+03  0.00000000000E+00 0.  1.
         21    1    1    2  504  505  0.48557348883E+02  0.25349666585E+03  0.11377054691E+02  0.25835598135E+03  0.00000000000E+00 0.  1.
         21    1    1    2  505  501  0.25333773094E+03 -0.48022498575E+02 -0.17679468352E+03  0.31263801178E+03  0.00000000000E+00 0.  1.
          2    1    1    2  501    0 -0.26865793839E+03 -0.26908281367E+02  0.20735027393E+03  0.34043395772E+03  0.00000000000E+00 0.  1.
<scales pt_clust_3="181.63283" pt_clust_4="206.51369" pt_clust_5="14000.00000" pt_clust_6="265.60605"></scales>
<clustering>
<clus scale="  181.633">  2  3  1 -1</clus>
<clus scale="  206.514">  2  4  1 -1</clus>
<clus scale="  265.606">  1  6  2 -1</clus>
<clus scale="  181.633">  2  3  1 -1</clus>
</clustering>
</event>
<event>
 6    0  0.4796958E+002  0.9804587E+02  0.7546771E-02  0.1284460E+00
          2   -1    0    0  503    0 -0.00000000000E+00  0.00000000000E+00  0.14505347646E+04  0.14505347646E+04  0.00000000000E+00 0.  1.
         21   -1    0    0  501  502  0.00000000000E+00 -0.00000000000E+00 -0.37713410520E+03  0.37713410520E+03  0.00000000000E+00 0. -1.
         21    1    1    2  503  505  0.22296080036E+02  0.22210842226E+02  0.36914960726E+02  0.48509288005E+02  0.00000000000E+00 0. -1.
         21    1    1    2  504  502  0.76732407042E+01 -0.32983717787E+02 -0.14900962139E+03  0.15280926520E+03  0.00000000000E+00 0. -1.
         21    1    1    2  505  504  0.79373847517E+02 -0.13614799609E+02 -0.21075257431E+03  0.22561519899E+03  0.00000000000E+00 0. -1.
          2    1    1    2  501    0 -0.10934316826E+03  0.24387675170E+02  0.13962478943E+04  0.14007351176E+04  0.00000000000E+00 0.  1.
<scales pt_clust_3="31.47120" pt_clust_4="33.84214" pt_clust_5="98.04587" pt_clust_6="14000.00000"></scales>
<clustering>
<clus scale="   31.471">  1  3  2 -1</clus>
<clus scale="   33.842">  2  4  1 -1</clus>
<clus scale="   98.046">  2  5  1 -1</clus>
<clus scale="   33.842">  2  3  1 -1</clus>
</clustering>
</event>
<event>
 6    0  0.4796958E+002  0.8092543E+02  0.7546771E-02  0.1326446E+00
         21   -1    0    0  501  502  0.00000000000E+00  0.00000000000E+00  0.14899176208E+04  0.14899176208E+04  0.00000000000E+00 0. -1.
          2   -1    0    0  504    0 -0.00000000000E+00 -0.00000000000E+00 -0.81274842166E+03  0.81274842166E+03  0.00000000000E+00 0.  1.
         21    1    1    2  503  502  0.10687958364E+02 -0.62024580003E+02  0.12687778982E+04  0.12703380007E+04  0.00000000000E+00 0. -1.
         21    1    1    2  504  505 -0.83918636297E+02 -0.20107029689E+02  0.65107845815E+02  0.10810023935E+03  0.00000000000E+00 0. -1.
         21    1    1    2  505  503  0.35375690156E+02  0.10433861443E+03  0.11033459999E+03  0.15592212758E+03  0.00000000000E+00 0. -1.
          2    1    1    2  501    0  0.37854987777E+02 -0.22207004736E+02 -0.76705114487E+03  0.76830567485E+03  0.00000000000E+00 0.  1.
<scales pt_clust_3="63.43139" pt_clust_4="14000.00000" pt_clust_5="80.92543" pt_clust_6="43.88794"></scales>
<clustering>
<clus scale="   43.888">  2  6  1 -1</clus>
<clus scale="   63.431">  1  3  2 -1</clus>
<clus scale="   80.925">  1  5  2 -1</clus>
<clus scale="   63.431">  1  3  2 -1</clus>
</clustering>
</event>
<event>
 6    0  0.4796958E+002  0.1306798E+03  0.7546771E-02  0.1226450E+00
          1   -1    0    0  503    0 -0.00000000000E+00  0.00000000000E+00  0.13501523283E+04  0.13501523283E+04  0.00000000000E+00 0.  1.
         21   -1    0    0  505  502  0.00000000000E+00 -0.00000000000E+00 -0.71082574598E+02  0.71082574598E+02  0.00000000000E+00 0. -1.
         21    1    1    2  503  504  0.32179870353E+02  0.37037238963E+02  0.11723671702E+03  0.12708953121E+03  0.00000000000E+00 0.  1.
         21    1    1    2  504  502  0.42879072108E+02  0.36842964177E+01  0.33085620697E+02  0.54284870469E+02  0.00000000000E+00 0. -1.
         21    1    1    2  505  501 -0.96209873868E+02 -0.12612618208E+03  0.63314319261E+02  0.17080063424E+03  0.00000000000E+00 0. -1.
          1    1    1    2  501    0  0.21150931407E+02  0.85404646695E+02  0.10654330967E+04  0.10690598669E+04  0.00000000000E+00 0.  1.
<scales pt_clust_3="51.63911" pt_clust_4="43.03706" pt_clust_5="14000.00000" pt_clust_6="130.67983"></scales>
<clustering>
<clus scale="   43.037">  2  4  1 -1</clus>
<clus scale="   51.639">  1  3  2 -1</clus>
<clus scale="  130.680">  1  6  2 -1</clus>
<clus scale="   43.037">  2  3  1 -1</clus>
</clustering>
</event>
<event>
 6    0  0.4796958E+002  0.1734144E+03  0.7546771E-02  0.1174333E+00
          2   -1    0    0  505    0 -0.00000000000E+00  0.00000000000E+00  0.82606394825E+03  0.82606394825E+03  0.00000000000E+00 0. -1.
         21   -1    0    0  503  502  0.00000000000E+00 -0.00000000000E+00 -0.20264242000E+03  0.20264242000E+03  0.00000000000E+00 0. -1.
         21    1    1    2  503  501 -0.83059849368E+02 -0.58068071837E+02  0.36076422074E+03  0.37472878527E+03  0.00000000000E+00 0. -1.
         21    1    1    2  504  502 -0.11298934048E+02  0.30859019630E+02 -0.97003988619E+02  0.10241932831E+03  0.00000000000E+00 0. -1.
         21    1    1    2  505  504  0.15724917193E+03  0.55585830976E+02 -0.17901997759E+02  0.16774256527E+03  0.00000000000E+00 0. -1.
          2    1    1    2  501    0 -0.62890388517E+02 -0.28376778770E+02  0.37756329388E+03  0.38381568940E+03  0.00000000000E+00 0. -1.
<scales pt_clust_3="31.82836" pt_clust_4="32.86252" pt_clust_5="169.06966" pt_clust_6="31.82836"></scales>
<clustering>
<clus scale="   31.828">  3  6 -1 -1</clus>
<clus scale="   32.863">  2  4  1 -1</clus>
<clus scale="  169.070">  2  5  1 -1</clus>
<clus scale="   32.863">  2  3  1 -1</clus>
</clustering>
</event>
<event>
 6    0  0.4796958E+002  0.2162185E+03  0.7546771E-02  0.1136734E+00
          2   -1    0    0  505    0 -0.00000000000E+00  0.00000000000E+00  0.14020739890E+04  0.14020739890E+04  0.00000000000E+00 0. -1.
         21   -1    0    0  501  502  0.00000000000E+00 -0.00000000000E+00 -0.80363647022E+02  0.80363647022E+02  0.00000000000E+00 0. -1.
         21    1    1    2  503  502 -0.87165549384E+02 -0.57891931475E+02  0.51539203363E+02  0.11664303757E+03  0.00000000000E+00 0. -1.
         21    1    1    2  504  503 -0.86575656069E+01  0.19277624898E+03  0.34262296631E+03  0.39322783810E+03  0.00000000000E+00 0. -1.
         21    1    1    2  505  504  0.38548292743E+02  0.40400074667E+02  0.47211004321E+02  0.73123292018E+02  0.00000000000E+00 0.  1.
          2    1    1    2  501    0  0.57274822248E+02 -0.17528439217E+03  0.88033716795E+03  0.89944346830E+03  0.00000000000E+00 0. -1.
<scales pt_clust_3="104.63894" pt_clust_4="54.45679" pt_clust_5="54.45679" pt_clust_6="191.05558"></scales>
<clustering>
<clus scale="   54.457">  4  5 -1 -1</clus>
<clus scale="  104.639">  2  3  1 -1</clus>
<clus scale="  191.056">  1  6  2 -1</clus>
<clus scale="  104.639">  2  3  1 -1</clus>
</clustering>
</event>
<event>
 6    0  0.4796958E+002  0.9071851E+02  0.7546771E-02  0.1301121E+00
          2   -1    0    0  505    0 -0.00000000000E+00  0.00000000000E+00  0.28797348487E+04  0.28797348487E+04  0.00000000000E+00 0.  1.
         21   -1    0    0  501  502  0.00000000000E+00 -0.00000000000E+00 -0.25835570952E+02  0.25835570952E+02  0.00000000000E+00 0.  1.
         21    1    1    2  503  502  0.33937020690E+02  0.14792082091E+02  0.47853764618E+02  0.60502147516E+02  0.00000000000E+00 0.  1.
         21    1    1    2  504  503  0.35368917054E+02 -0.25423170301E+02  0.11668625904E+03  0.12455111774E+03  0.00000000000E+00 0.  1.
         21    1    1    2  505  504 -0.15217583816E+03  0.37247188075E+02  0.40121981811E+03  0.43072285891E+03  0.00000000000E+00 0.  1.
          2    1    1    2  501    0  0.82869900420E+02 -0.26616099865E+02  0.22881394359E+04  0.22897942954E+04  0.00000000000E+00 0.  1.
<scales pt_clust_3="37.02063" pt_clust_4="47.80396" pt_clust_5="14000.00000" pt_clust_6="90.71851"></scales>
<clustering>
<clus scale="   37.021">  2  3  1 -1</clus>
<clus scale="   47.804">  2  4  1 -1</clus>
<clus scale="   90.719">  1  6  2 -1</clus>
<clus scale="   37.021">  2  3  1 -1</clus>
</clustering>
</event>
<event>
 6    0  0.4796958E+002  0.8704330E+02  0.7546771E-02  0.1310174E+00
          2   -1    0    0  505    0 -0.00000000000E+00  0.00000000000E+00  0.29618990340E+04  0.29618990340E+04  0.00000000000E+00 0. -1.
         21   -1    0    0  503  502  0.00000000000E+00 -0.00000000000E+00 -0.18329395416E+02  0.18329395416E+02  0.00000000000E+00 0. -1.
         21    1    1    2  503  504 -0.40382056709E+02 -0.14438263569E+02  0.99212761251E+02  0.10808490160E+03  0.00000000000E+00 0. -1.
         21    1    1    2  504  501 -0.30579184563E+02 -0.86240213445E+02  0.40950704328E+03  0.41960514706E+03  0.00000000000E+00 0. -1.
         21    1    1    2  505  502  0.22398251161E+02  0.28804466844E+02  0.33228016992E+02  0.49350583365E+02  0.00000000000E+00 0. -1.
          2    1    1    2  501    0  0.48562990110E+02  0.71874010170E+02  0.24016218171E+04  0.24031877974E+04  0.00000000000E+00 0. -1.
<scales pt_clust_3="30.77016" pt_clust_4="14000.00000" pt_clust_5="36.48807" pt_clust_6="87.04330"></scales>
<clustering>
<clus scale="   36.488">  2  5  1 -1</clus>
<clus scale="   30.770">  2  3  1 -1</clus>
<clus scale="   87.043">  1  6  2 -1</clus>
<clus scale="   36.488">  2  3  1 -1</clus>
</clustering>
</event>
<event>
 6    0  0.4796958E+002  0.6896521E+02  0.7546771E-02  0.1363648E+00
         -2   -1    0    0    0  501 -0.00000000000E+00  0.00000000000E+00  0.44688877329E+03  0.44688877329E+03  0.00000000000E+00 0. -1.
         21   -1    0    0  505  502  0.00000000000E+00 -0.00000000000E+00 -0.40723224432E+03  0.40723224432E+03  0.00000000000E+00 0. -1.
         21    1    1    2  503  502 -0.65167818299E+02 -0.54130343390E+02 -0.28569374017E+03  0.29798968403E+03  0.00000000000E+00 0. -1.
         21    1    1    2  504  503  0.11180098849E+03 -0.97483712919E+01  0.57833512181E+02  0.12625057189E+03  0.00000000000E+00 0.  1.
         21    1    1    2  505  501  0.28351811064E+01  0.44857473625E+02 -0.72748004870E+02  0.85513176789E+02  0.00000000000E+00 0. -1.
         -2    1    1    2    0  504 -0.49468351297E+02  0.19021241057E+02  0.34026476183E+03  0.34436758490E+03  0.00000000000E+00 0. -1.
<scales pt_clust_3="14000.00000" pt_clust_4="68.96521" pt_clust_5="44.94698" pt_clust_6="53.08409"></scales>
<clustering>
<clus scale="   44.947">  2  5  1 -1</clus>
<clus scale="   53.084">  1  6  2 -1</clus>
<clus scale="   68.965">  1  4  2 -1</clus>
<clus scale="   44.947">  2  3  1 -1</clus>
</clustering>
</event>
<event>
 6    0  0.4796958E+002  0.1409770E+03  0.7546771E-02  0.1212020E+00
          1   -1    0    0  503    0 -0.00000000000E+00  0.00000000000E+00  0.19277978449E+04  0.19277978449E+04  0.00000000000E+00 0.  1.
         21   -1    0    0  505  502  0.00000000000E+00 -0.00000000000E+00 -0.39853692118E+02  0.39853692118E+02  0.00000000000E+00 0. -1.
         21    1    1    2  503  502  0.21574640088E+02  0.13490165585E+03  0.82516170242E+03  0.83639449842E+03  0.00000000000E+00 0.  1.
         21    1    1    2  504  501 -0.26865781250E+01 -0.37617665063E+02  0.31726555866E+02  0.49283676546E+02  0.00000000000E+00 0. -1.
         21    1    1    2  505  504 -0.86348807389E+02 -0.60449306675E+02  0.92386665143E+02  0.14016251678E+03  0.00000000000E+00 0. -1.
          1    1    1    2  501    0  0.67460745426E+02 -0.36834684116E+02  0.93866922938E+03  0.94181084529E+03  0.00000000000E+00 0.  1.
<scales pt_clust_3="130.12750" pt_clust_4="32.44068" pt_clust_5="32.44068" pt_clust_6="76.86186"></scales>
<clustering>
<clus scale="   32.441">  4  5 -1 -1</clus>
<clus scale="   76.862">  1  6  2 -1</clus>
<clus scale="  130.127">  1  3  2 -1</clus>
<clus scale="  140.977">  2  3  1 -1</clus>
</clustering>
</event>
<event>
 6    0  0.4796958E+002  0.1064523E+03  0.7546771E-02  0.1267284E+00
         21   -1    0    0  501  502  0.00000000000E+00  0.00000000000E+00  0.12252034699E+04  0.12252034699E+04  0.00000000000E+00 0.  1.
         -1   -1    0    0    0  501 -0.00000000000E+00 -0.00000000000E+00 -0.74714429075E+02  0.74714429075E+02  0.00000000000E+00 0. -1.
         21    1    1    2  503  504  0.29364572798E+02  0.15202924452E+03  0.18323004786E+03  0.23989251711E+03  0.00000000000E+00 0. -1.
         21    1    1    2  504  505 -0.21185705681E+02 -0.73394849077E+02  0.32043340537E+03  0.32941342606E+03  0.00000000000E+00 0. -1.
         21    1    1    2  505  502  0.56237856284E+00 -0.32826467073E+02  0.67521706689E+03  0.67601477841E+03  0.00000000000E+00 0.  1.
         -1    1    1    2    0  503 -0.87412456789E+01 -0.45807928375E+02 -0.28391479319E+02  0.54597177362E+02  0.00000000000E+00 0. -1.
<scales pt_clust_3="106.45227" pt_clust_4="14000.00000" pt_clust_5="32.83128" pt_clust_6="47.40100"></scales>
<clustering>
<clus scale="   32.831">  1  5  2 -1</clus>
<clus scale="   47.401">  2  6  1 -1</clus>
<clus scale="  106.452">  2  3  1 -1</clus>
<clus scale="   32.831">  1  3  2 -1</clus>
</clustering>
</event>
<event>
 6    0  0.4796958E+002  0.8510381E+02  0.7546771E-02  0.1315161E+00
         21   -1    0    0  504  502  0.00000000000E+00  0.00000000000E+00  0.24636216484E+02  0.24636216484E+02  0.00000000000E+00 0. -1.
          1   -1    0    0  503    0 -0.00000000000E+00 -0.00000000000E+00 -0.18702074216E+04  0.18702074216E+04  0.00000000000E+00 0.  1.
         21    1    1    2  503  505  0.11215411610E+02  0.10659532715E+03 -0.25880848450E+03  0.28012529497E+03  0.00000000000E+00 0. -1.
         21    1    1    2  504  501 -0.28871911352E+02  0.97369325353E+01 -0.12633061097E+03  0.12995313920E+03  0.00000000000E+00 0.  1.
         21    1    1    2  505  502 -0.21980482611E+02 -0.69501946294E+02 -0.10431347719E+03  0.12725943453E+03  0.00000000000E+00 0. -1.
          1    1    1    2  501    0  0.39636982353E+02 -0.46830313396E+02 -0.13561186325E+04  0.13575057694E+04  0.00000000000E+00 0.  1.
<scales pt_clust_3="85.10381" pt_clust_4="30.46958" pt_clust_5="14000.00000" pt_clust_6="60.56209"></scales>
<clustering>
<clus scale="   30.470">  1  4  2 -1</clus>
<clus scale="   60.562">  2  6  1 -1</clus>
<clus scale="   85.104">  2  3  1 -1</clus>
<clus scale="   30.470">  1  3  2 -1</clus>
</clustering>
</event>
<event>
 6    0  0.4796958E+002  0.9005149E+02  0.7546771E-02  0.1302727E+00
         21   -1    0    0  505  502  0.00000000000E+00  0.00000000000E+00  0.62998625434E+03  0.62998625434E+03  0.00000000000E+00 0. -1.
         -4   -1    0    0    0  501 -0.00000000000E+00 -0.00000000000E+00 -0.15849504594E+03  0.15849504594E+03  0.00000000000E+00 0. -1.
         21    1    1    2  503  502 -0.13856231015E+02 -0.86831295354E+02  0.32658367737E+03  0.33821378936E+03  0.00000000000E+00 0. -1.
         21    1    1    2  504  503  0.32698230640E+02  0.10508440502E+03  0.23197320380E+03  0.25675566936E+03  0.00000000000E+00 0. -1.
         21    1    1    2  505  501 -0.20124598686E+02  0.32204611741E+02  0.40984054475E+02  0.55873331840E+02  0.00000000000E+00 0. -1.
         -4    1    1    2    0  504  0.12825990613E+01 -0.50457721404E+02 -0.12804972725E+03  0.13763850972E+03  0.00000000000E+00 0. -1.
<scales pt_clust_3="90.05149" pt_clust_4="14000.00000" pt_clust_5="37.97547" pt_clust_6="50.20465"></scales>
<clustering>
<clus scale="   37.975">  1  5  2 -1</clus>
<clus scale="   50.205">  2  6  1 -1</clus>
<clus scale="   90.051">  1  3  2 -1</clus>
<clus scale="   37.975">  1  3  2 -1</clus>
</clustering>
</event>
<event>
 6    0  0.4796958E+002  0.1229678E+03  0.7546771E-02  0.1238280E+00
         21   -1    0    0  501  502  0.00000000000E+00  0.00000000000E+00  0.66120898494E+02  0.66120898494E+02  0.00000000000E+00 0. -1.
          1   -1    0    0  504    0 -0.00000000000E+00 -0.00000000000E+00 -0.15959892788E+04  0.15959892788E+04  0.00000000000E+00 0. -1.
         21    1    1    2  503  505 -0.30008314070E+02 -0.20413151822E+02  0.68409803776E+01  0.36932298779E+02  0.00000000000E+00 0. -1.
         21    1    1    2  504  503  0.62368290180E+02  0.12785084997E+03 -0.48756558331E+03  0.50789353361E+03  0.00000000000E+00 0. -1.
         21    1    1    2  505  502 -0.28424559890E+02  0.12106805086E+02  0.22982851368E+02  0.38506386371E+02  0.00000000000E+00 0. -1.
          1    1    1    2  501    0 -0.39354162199E+01 -0.11954450323E+03 -0.10721266288E+04  0.10787779586E+04  0.00000000000E+00 0. -1.
<scales pt_clust_3="49.31729" pt_clust_4="14000.00000" pt_clust_5="30.89547" pt_clust_6="122.96783"></scales>
<clustering>
<clus scale="   30.895">  1  5  2 -1</clus>
<clus scale="   49.317">  1  3  2 -1</clus>
<clus scale="  122.968">  2  6  1 -1</clus>
<clus scale="   30.895">  1  3  2 -1</clus>
</clustering>
</event>
<event>
 6    0  0.4796958E+002  0.9739598E+02  0.7546771E-02  0.1285869E+00
         21   -1    0    0  503  502  0.00000000000E+00  0.00000000000E+00  0.20637431017E+02  0.20637431017E+02  0.00000000000E+00 0.  1.
          2   -1    0    0  504    0 -0.00000000000E+00 -0.00000000000E+00 -0.21143667149E+04  0.21143667149E+04  0.00000000000E+00 0.  1.
         21    1    1    2  503  501 -0.62811577634E+02  0.79385624121E+02 -0.39962495860E+03  0.41224686674E+03  0.00000000000E+00 0.  1.
         21    1    1    2  504  505  0.67231251058E+02 -0.18319092389E+02 -0.85986902511E+03  0.86268787554E+03  0.00000000000E+00 0.  1.
         21    1    1    2  505  502  0.36220350937E+02  0.46462774306E+02 -0.93815360472E+02  0.11077917259E+03  0.00000000000E+00 0.  1.
          2    1    1    2  501    0 -0.40640024360E+02 -0.10752930604E+03 -0.74041993969E+03  0.74929023103E+03  0.00000000000E+00 0.  1.
<scales pt_clust_3="97.39598" pt_clust_4="72.59211" pt_clust_5="58.91267" pt_clust_6="14000.00000"></scales>
<clustering>
<clus scale="   58.913">  1  5  2 -1</clus>
<clus scale="   72.592">  2  4  1 -1</clus>
<clus scale="   97.396">  1  3  2 -1</clus>
<clus scale="   58.913">  1  3  2 -1</clus>
</clustering>
</event>
<event>
 6    0  0.4796958E+002  0.2076564E+03  0.7546771E-02  0.1143435E+00
          1   -1    0    0  505    0 -0.00000000000E+00  0.00000000000E+00  0.12212177630E+04  0.12212177630E+04  0.00000000000E+00 0.  1.
         21   -1    0    0  504  502  0.00000000000E+00 -0.00000000000E+00 -0.10660007606E+04  0.10660007606E+04  0.00000000000E+00 0. -1.
         21    1    1    2  503  502 -0.15626856097E+03 -0.18805147030E+03 -0.81086696103E+03  0.84692883238E+03  0.00000000000E+00 0. -1.
         21    1    1    2  504  501  0.18409144306E+01  0.66839132964E+02 -0.10381510637E+03  0.12348455358E+03  0.00000000000E+00 0.  1.
         21    1    1    2  505  503  0.17246018471E+03  0.15470239707E+03 -0.14129124583E+02  0.23210984282E+03  0.00000000000E+00 0. -1.
          1    1    1    2  501    0 -0.18032538171E+02 -0.33490059740E+02  0.10840281944E+04  0.10846952949E+04  0.00000000000E+00 0.  1.
<scales pt_clust_3="14000.00000" pt_clust_4="64.43478" pt_clust_5="207.65640" pt_clust_6="38.03625"></scales>
<clustering>
<clus scale="   38.036">  1  6  2 -1</clus>
<clus scale="   64.435">  2  4  1 -1</clus>
<clus scale="  207.656">  1  5  2 -1</clus>
<clus scale="   64.435">  2  3  1 -1</clus>
</clustering>
</event>
<event>
 6    0  0.4796958E+002  0.1975139E+03  0.7546771E-02  0.1151854E+00
         21   -1    0    0  505  502  0.00000000000E+00  0.00000000000E+00  0.19258501293E+03  0.19258501293E+03  0.00000000000E+00 0.  1.
          2   -1    0    0  504    0 -0.00000000000E+00 -0.00000000000E+00 -0.93080948181E+03  0.93080948181E+03  0.00000000000E+00 0. -1.
         21    1    1    2  503  501 -0.40739505552E+02 -0.30597726320E+02 -0.32526226584E+02  0.60447362097E+02  0.00000000000E+00 0. -1.
         21    1    1    2  504  502 -0.14959066766E+03  0.15052646540E+03 -0.35857174311E+01  0.21224618255E+03  0.00000000000E+00 0.  1.
         21    1    1    2  505  503  0.32095453751E+02 -0.42043995534E+01  0.57616822134E+02  0.66087013247E+02  0.00000000000E+00 0. -1.
          2    1    1    2  501    0  0.15823471946E+03 -0.11572433953E+03 -0.75972934700E+03  0.78461393685E+03  0.00000000000E+00 0. -1.
<scales pt_clust_3="48.53960" pt_clust_4="197.51388" pt_clust_5="32.36966" pt_clust_6="14000.00000"></scales>
<clustering>
<clus scale="   32.370">  1  5  2 -1</clus>
<clus scale="   48.540">  1  3  2 -1</clus>
<clus scale="  197.514">  1  4  2 -1</clus>
<clus scale="   32.370">  1  3  2 -1</clus>
</clustering>
</event>
<event>
 6    0  0.4796958E+002  0.3292789E+03  0.7546771E-02  0.1071456E+00
         21   -1    0    0  503  502  0.00000000000E+00  0.00000000000E+00  0.21056628954E+04  0.21056628954E+04  0.00000000000E+00 0.  1.
         -1   -1    0    0    0  501 -0.00000000000E+00 -0.00000000000E+00 -0.19592441000E+03  0.19592441000E+03  0.00000000000E+00 0.  1.
         21    1    1    2  503  501  0.29561302351E+03 -0.30784856392E+02  0.83238142476E+03  0.88385157313E+03  0.00000000000E+00 0.  1.
         21    1    1    2  504  505 -0.20745392194E+03 -0.29298651792E+01  0.44606876443E+02  0.21221566216E+03  0.00000000000E+00 0.  1.
         21    1    1    2  505  502  0.20057337250E+02  0.30056227361E+02  0.10847856841E+04  0.10853873291E+04  0.00000000000E+00 0.  1.
         -1    1    1    2    0  504 -0.10821643881E+03  0.36584942105E+01 -0.52035499966E+02  0.12013274102E+03  0.00000000000E+00 0.  1.
<scales pt_clust_3="312.52618" pt_clust_4="75.15235" pt_clust_5="36.13411" pt_clust_6="75.15235"></scales>
<clustering>
<clus scale="   36.134">  1  5  2 -1</clus>
<clus scale="   75.152">  4  6 -1 -1</clus>
<clus scale="  312.526">  1  3  2 -1</clus>
<clus scale="   36.134">  1  3  2 -1</clus>
</clustering>
</event>
<event>
 6    0  0.4796958E+002  0.1388775E+03  0.7546771E-02  0.1214847E+00
          2   -1    0    0  504    0 -0.00000000000E+00  0.00000000000E+00  0.21084296633E+04  0.21084296633E+04  0.00000000000E+00 0. -1.
         21   -1    0    0  505  502  0.00000000000E+00 -0.00000000000E+00 -0.66997087947E+02  0.66997087947E+02  0.00000000000E+00 0. -1.
         21    1    1    2  503  502 -0.60601489587E+02  0.15071791824E+03  0.64840159599E+02  0.17490762624E+03  0.00000000000E+00 0. -1.
         21    1    1    2  504  503 -0.11893998891E+02 -0.93131687841E+02  0.26991942864E+03  0.28578221856E+03  0.00000000000E+00 0. -1.
         21    1    1    2  505  501  0.86459057249E+02 -0.66101438942E+01  0.54436569785E+03  0.55122851484E+03  0.00000000000E+00 0. -1.
          2    1    1    2  501    0 -0.13963568771E+02 -0.50976086507E+02  0.11623072892E+04  0.11635083916E+04  0.00000000000E+00 0. -1.
<scales pt_clust_3="14000.00000" pt_clust_4="138.87748" pt_clust_5="86.30227" pt_clust_6="52.85397"></scales>
<clustering>
<clus scale="   52.854">  1  6  2 -1</clus>
<clus scale="   86.302">  1  5  2 -1</clus>
<clus scale="  138.877">  1  4  2 -1</clus>
<clus scale="  138.877">  2  3  1 -1</clus>
</clustering>
</event>
<event>
 6    0  0.4796958E+002  0.1807028E+03  0.7546771E-02  0.1167125E+00
          1   -1    0    0  503    0 -0.00000000000E+00  0.00000000000E+00  0.49883705395E+03  0.49883705395E+03  0.00000000000E+00 0. -1.
         21   -1    0    0  505  502  0.00000000000E+00 -0.00000000000E+00 -0.32529390918E+03  0.32529390918E+03  0.00000000000E+00 0.  1.
         21    1    1    2  503  502 -0.11749220617E+03 -0.18652056375E+03  0.41522873430E+02  0.22431782861E+03  0.00000000000E+00 0.  1.
         21    1    1    2  504  501  0.71156218698E+02  0.15344008813E+03  0.19558726287E+03  0.25857580224E+03  0.00000000000E+00 0. -1.
         21    1    1    2  505  504  0.20668960928E+02  0.51581215997E+02 -0.19669889331E+03  0.20439736402E+03  0.00000000000E+00 0.  1.
          1    1    1    2  501    0  0.25667026540E+02 -0.18500740377E+02  0.13313190178E+03  0.13683996827E+03  0.00000000000E+00 0. -1.
<scales pt_clust_3="14000.00000" pt_clust_4="180.70278" pt_clust_5="55.48850" pt_clust_6="31.63975"></scales>
<clustering>
<clus scale="   31.640">  1  6  2 -1</clus>
<clus scale="   55.488">  2  5  1 -1</clus>
<clus scale="  180.703">  1  4  2 -1</clus>
<clus scale="   55.488">  2  3  1 -1</clus>
</clustering>
</event>
<event>
 6    0  0.4796958E+002  0.1532627E+03  0.7546771E-02  0.1196520E+00
          2   -1    0    0  504    0 -0.00000000000E+00  0.00000000000E+00  0.27528679707E+04  0.27528679707E+04  0.00000000000E+00 0. -1.
         21   -1    0    0  503  502  0.00000000000E+00 -0.00000000000E+00 -0.28549006818E+02  0.28549006818E+02  0.00000000000E+00 0.  1.
         21    1    1    2  503  501  0.50470316791E+02 -0.11582852705E+01  0.44676500578E+03  0.44960823490E+03  0.00000000000E+00 0. -1.
         21    1    1    2  504  505 -0.11364711807E+03  0.27586620451E+02  0.18604390318E+03  0.21974763476E+03  0.00000000000E+00 0.  1.
         21    1    1    2  505  502 -0.28275383409E+02 -0.25038394026E+02  0.29240317940E+02  0.47764156808E+02  0.00000000000E+00 0.  1.
          2    1    1    2  501    0  0.91452184691E+02 -0.13899411544E+01  0.20622697370E+04  0.20642969511E+04  0.00000000000E+00 0. -1.
<scales pt_clust_3="48.21184" pt_clust_4="138.47017" pt_clust_5="37.76796" pt_clust_6="48.21184"></scales>
<clustering>
<clus scale="   37.768">  2  5  1 -1</clus>
<clus scale="   48.212">  3  6 -1 -1</clus>
<clus scale="  138.470">  2  4  1 -1</clus>
<clus scale="   37.768">  2  3  1 -1</clus>
</clustering>
</event>
<event>
 6    0  0.4796958E+002  0.1378965E+03  0.7546771E-02  0.1216188E+00
         21   -1    0    0  503  502  0.00000000000E+00  0.00000000000E+00  0.17114458180E+04  0.17114458180E+04  0.00000000000E+00 0.  1.
          1   -1    0    0  504    0 -0.00000000000E+00 -0.00000000000E+00 -0.13442135960E+03  0.13442135960E+03  0.00000000000E+00 0. -1.
         21    1    1    2  503  501  0.12984332454E+03 -0.47648022259E+02  0.46928244363E+03  0.48923985411E+03  0.00000000000E+00 0.  1.
         21    1    1    2  504  505 -0.11073296468E+03  0.43166584050E+01  0.22599389361E+03  0.25170153546E+03  0.00000000000E+00 0.  1.
         21    1    1    2  505  502 -0.82392342386E+02  0.12242379392E+03  0.96351436977E+03  0.97474921090E+03  0.00000000000E+00 0.  1.
          1    1    1    2  501    0  0.63281982521E+02 -0.79092430061E+02 -0.81766248643E+02  0.13017657709E+03  0.00000000000E+00 0. -1.
<scales pt_clust_3="137.89653" pt_clust_4="87.94519" pt_clust_5="14000.00000" pt_clust_6="101.29275"></scales>
<clustering>
<clus scale="  101.293">  2  6  1 -1</clus>
<clus scale="   87.945">  2  4  1 -1</clus>
<clus scale="  137.897">  2  3  1 -1</clus>
<clus scale="  137.897">  1  3  2 -1</clus>
</clustering>
</event>
<event>
 6    0  0.4796958E+002  0.6873890E+03  0.7546771E-02  0.9739045E-01
          1   -1    0    0  505    0 -0.00000000000E+00  0.00000000000E+00  0.26091386210E+04  0.26091386210E+04  0.00000000000E+00 0.  1.
         21   -1    0    0  503  502  0.00000000000E+00 -0.00000000000E+00 -0.81793043422E+03  0.81793043422E+03  0.00000000000E+00 0.  1.
         21    1    1    2  503  501 -0.89038260815E+03  0.37793480123E+03  0.71035398787E+03  0.12000911178E+04  0.00000000000E+00 0.  1.
         21    1    1    2  504  502  0.40224644511E+03 -0.11629775341E+03 -0.34093542956E+03  0.53996697786E+03  0.00000000000E+00 0.  1.
         21    1    1    2  505  504  0.40245471676E+03 -0.37571574741E+03  0.46798264331E+03  0.72259246905E+03  0.00000000000E+00 0.  1.
          1    1    1    2  501    0  0.85681446283E+02  0.11407869960E+03  0.95380698516E+03  0.96441849053E+03  0.00000000000E+00 0.  1.
<scales pt_clust_3="687.38901" pt_clust_4="421.85113" pt_clust_5="14000.00000" pt_clust_6="142.67186"></scales>
<clustering>
<clus scale="  142.672">  1  6  2 -1</clus>
<clus scale="  421.851">  2  4  1 -1</clus>
<clus scale="  687.389">  2  3  1 -1</clus>
<clus scale="  421.851">  2  3  1 -1</clus>
</clustering>
</event>
<event>
 6    0  0.4796958E+002  0.8125623E+02  0.7546771E-02  0.1325524E+00
         21   -1    0    0  501  502  0.00000000000E+00  0.00000000000E+00  0.38798010341E+03  0.38798010341E+03  0.00000000000E+00 0. -1.
          2   -1    0    0  504    0 -0.00000000000E+00 -0.00000000000E+00 -0.17215903930E+04  0.17215903930E+04  0.00000000000E+00 0. -1.
         21    1    1    2  503  502 -0.30552490690E+02  0.35902774779E+02  0.27851385883E+03  0.28247554493E+03  0.00000000000E+00 0. -1.
         21    1    1    2  504  505  0.66672320419E+02  0.78901088550E+02 -0.73496944494E+03  0.74219314540E+03  0.00000000000E+00 0.  1.
         21    1    1    2  505  503 -0.40409051245E+02 -0.75163958620E+02  0.85863802556E+02  0.12105826980E+03  0.00000000000E+00 0.  1.
          2    1    1    2  501    0  0.42892215161E+01 -0.39639904709E+02 -0.96301850605E+03  0.96384353629E+03  0.00000000000E+00 0. -1.
<scales pt_clust_3="47.05692" pt_clust_4="81.25623" pt_clust_5="14000.00000" pt_clust_6="39.87129"></scales>
<clustering>
<clus scale="   39.871">  2  6  1 -1</clus>
<clus scale="   47.057">  1  3  2 -1</clus>
<clus scale="   81.256">  2  4  1 -1</clus>
<clus scale="   47.057">  1  3  2 -1</clus>
</clustering>
</event>
<event>
 6    0  0.4796958E+002  0.6469216E+02  0.7546771E-02  0.1379133E+00
         21   -1    0    0  503  502  0.00000000000E+00  0.00000000000E+00  0.27223381894E+02  0.27223381894E+02  0.00000000000E+00 0.  1.
          2   -1    0    0  505    0 -0.00000000000E+00 -0.00000000000E+00 -0.13824736524E+04  0.13824736524E+04  0.00000000000E+00 0. -1.
         21    1    1    2  503  501 -0.78150413884E+01  0.65078590260E+02 -0.24553503445E+03  0.25413333296E+03  0.00000000000E+00 0.  1.
         21    1    1    2  504  502  0.43410214113E+02 -0.21928638367E+02 -0.25553314555E+02  0.54938909297E+02  0.00000000000E+00 0.  1.
         21    1    1    2  505  504 -0.76198585578E+02 -0.82228923516E+02 -0.44202036854E+03  0.45601516040E+03  0.00000000000E+00 0.  1.
          2    1    1    2  501    0  0.40603412853E+02  0.39078971624E+02 -0.64214155297E+03  0.64460963164E+03  0.00000000000E+00 0. -1.
<scales pt_clust_3="57.98871" pt_clust_4="48.63447" pt_clust_5="64.69216" pt_clust_6="14000.00000"></scales>
<clustering>
<clus scale="   48.634">  1  4  2 -1</clus>
<clus scale="   57.989">  1  3  2 -1</clus>
<clus scale="   64.692">  1  5  2 -1</clus>
<clus scale="   48.634">  1  3  2 -1</clus>
</clustering>
</event>
<event>
 6    0  0.4796958E+002  0.1928177E+03  0.7546771E-02  0.1155944E+00
          3   -1    0    0  503    0 -0.00000000000E+00  0.00000000000E+00  0.85483930974E+03  0.85483930974E+03  0.00000000000E+00 0.  1.
         21   -1    0    0  504  502  0.00000000000E+00 -0.00000000000E+00 -0.39587634901E+03  0.39587634901E+03  0.00000000000E+00 0.  1.
         21    1    1    2  503  505  0.10812627475E+03  0.77578144760E+02 -0.30007175064E+03  0.32825708731E+03  0.00000000000E+00 0.  1.
         21    1    1    2  504  501 -0.78570808968E+02 -0.13778845833E+03  0.47029013752E+03  0.49631828973E+03  0.00000000000E+00 0.  1.
         21    1    1    2  505  502  0.61883072531E+02  0.33178421273E+02 -0.42072447668E+02  0.81856051437E+02  0.00000000000E+00 0. -1.
          3    1    1    2  501    0 -0.91438538309E+02  0.27031892296E+02  0.33081702153E+03  0.34428423028E+03  0.00000000000E+00 0.  1.
<scales pt_clust_3="192.81765" pt_clust_4="14000.00000" pt_clust_5="70.21625" pt_clust_6="94.34877"></scales>
<clustering>
<clus scale="   70.216">  2  5  1 -1</clus>
<clus scale="   94.349">  1  6  2 -1</clus>
<clus scale="  192.818">  2  3  1 -1</clus>
<clus scale="   70.216">  2  3  1 -1</clus>
</clustering>
</event>
<event>
 6    0  0.4796958E+002  0.9392662E+02  0.7546771E-02  0.1293612E+00
          1   -1    0    0  503    0 -0.00000000000E+00  0.00000000000E+00  0.30194720209E+04  0.30194720209E+04  0.00000000000E+00 0.  1.
         21   -1    0    0  505  502  0.00000000000E+00 -0.00000000000E+00 -0.42955319920E+02  0.42955319920E+02  0.00000000000E+00 0.  1.
         21    1    1    2  503  504  0.18652484837E+01  0.12810087190E+03  0.92483010721E+03  0.93366163021E+03  0.00000000000E+00 0. -1.
         21    1    1    2  504  502 -0.44203214189E+02 -0.70650631651E+01 -0.14217112463E+02  0.46967707512E+02  0.00000000000E+00 0.  1.
         21    1    1    2  505  501  0.26418930504E+02 -0.35481781998E+02  0.62863337997E+02  0.76868172912E+02  0.00000000000E+00 0. -1.
          1    1    1    2  501    0  0.15919035201E+02 -0.85554026738E+02  0.20030403682E+04  0.20049298301E+04  0.00000000000E+00 0.  1.
<scales pt_clust_3="93.92662" pt_clust_4="43.12720" pt_clust_5="44.23705" pt_clust_6="14000.00000"></scales>
<clustering>
<clus scale="   44.237">  2  5  1 -1</clus>
<clus scale="   43.127">  2  4  1 -1</clus>
<clus scale="   93.927">  2  3  1 -1</clus>
<clus scale="   44.237">  2  3  1 -1</clus>
</clustering>
</event>
<event>
 6    0  0.4796958E+002  0.9586037E+02  0.7546771E-02  0.1289250E+00
         -4   -1    0    0    0  501 -0.00000000000E+00  0.00000000000E+00  0.77485847814E+03  0.77485847814E+03  0.00000000000E+00 0.  1.
         21   -1    0    0  505  502  0.00000000000E+00 -0.00000000000E+00 -0.36824899419E+03  0.36824899419E+03  0.00000000000E+00 0.  1.
         21    1    1    2  503  502  0.28761820835E+02 -0.32978603561E+02 -0.14749946625E+03  0.15385357706E+03  0.00000000000E+00 0.  1.
         21    1    1    2  504  501 -0.74136488017E+02 -0.10769659564E+03 -0.32066691144E+02  0.13462187136E+03  0.00000000000E+00 0.  1.
         21    1    1    2  505  504  0.53936362673E+02  0.68874142313E+02 -0.11792387108E+03  0.14682921395E+03  0.00000000000E+00 0.  1.
         -4    1    1    2    0  503 -0.85616954913E+01  0.71801056887E+02  0.70409951242E+03  0.70780280996E+03  0.00000000000E+00 0.  1.
<scales pt_clust_3="43.75878" pt_clust_4="14000.00000" pt_clust_5="95.86037" pt_clust_6="72.00235"></scales>
<clustering>
<clus scale="   43.759">  2  3  1 -1</clus>
<clus scale="   72.002">  1  6  2 -1</clus>
<clus scale="   95.860">  2  5  1 -1</clus>
<clus scale="   43.759">  2  3  1 -1</clus>
</clustering>
</event>
<event>
 6    0  0.4796958E+002  0.8452978E+02  0.7546771E-02  0.1316667E+00
          1   -1    0    0  504    0 -0.00000000000E+00  0.00000000000E+00  0.55301283195E+03  0.55301283195E+03  0.00000000000E+00 0.  1.
         21   -1    0    0  505  502  0.00000000000E+00 -0.00000000000E+00 -0.23003985984E+03  0.23003985984E+03  0.00000000000E+00 0. -1.
         21    1    1    2  503  501 -0.10879594193E+03  0.37815472463E+02  0.26763123285E+02  0.11824902412E+03  0.00000000000E+00 0.  1.
         21    1    1    2  504  502  0.16005048134E+02 -0.37248296405E+02  0.29653530948E+02  0.50228767141E+02  0.00000000000E+00 0.  1.
         21    1    1    2  505  503  0.72460764880E+02 -0.35406631804E+02 -0.16367032492E+03  0.18246141314E+03  0.00000000000E+00 0. -1.
          1    1    1    2  501    0  0.20330128915E+02  0.34839455746E+02  0.43022664279E+03  0.43211348739E+03  0.00000000000E+00 0.  1.
<scales pt_clust_3="84.52978" pt_clust_4="34.36523" pt_clust_5="14000.00000" pt_clust_6="40.33735"></scales>
<clustering>
<clus scale="   40.337">  1  6  2 -1</clus>
<clus scale="   34.365">  1  4  2 -1</clus>
<clus scale="   84.530">  1  3  2 -1</clus>
<clus scale="   84.530">  2  3  1 -1</clus>
</clustering>
</event>
<event>
 6    0  0.4796958E+002  0.7894112E+02  0.7546771E-02  0.1332084E+00
          2   -1    0    0  503    0 -0.00000000000E+00  0.00000000000E+00  0.68159265620E+03  0.68159265620E+03  0.00000000000E+00 0. -1.
         21   -1    0    0  505  502  0.00000000000E+00 -0.00000000000E+00 -0.22304717061E+03  0.22304717061E+03  0.00000000000E+00 0.  1.
         21    1    1    2  503  504 -0.40330473337E+02 -0.21090686780E+02  0.15016392100E+02  0.47925527437E+02  0.00000000000E+00 0.  1.
         21    1    1    2  504  502  0.78073863773E+02 -0.35728480341E+02 -0.77159002029E+02  0.11543640720E+03  0.00000000000E+00 0.  1.
         21    1    1    2  505  501 -0.18470347474E+02  0.89145538581E+02 -0.90831137162E+02  0.12860161843E+03  0.00000000000E+00 0.  1.
          2    1    1    2  501    0 -0.19273042963E+02 -0.32326371460E+02  0.61151923268E+03  0.61267627375E+03  0.00000000000E+00 0. -1.
<scales pt_clust_3="60.69049" pt_clust_4="14000.00000" pt_clust_5="78.94112" pt_clust_6="37.63568"></scales>
<clustering>
<clus scale="   37.636">  1  6  2 -1</clus>
<clus scale="   60.690">  1  3  2 -1</clus>
<clus scale="   78.941">  2  5  1 -1</clus>
<clus scale="   78.941">  2  3  1 -1</clus>
</clustering>
</event>
<event>
 6    0  0.4796958E+002  0.1309658E+03  0.7546771E-02  0.1226030E+00
         21   -1    0    0  503  502  0.00000000000E+00  0.00000000000E+00  0.28006913450E+02  0.28006913450E+02  0.00000000000E+00 0.  1.
          1   -1    0    0  502    0 -0.00000000000E+00 -0.00000000000E+00 -0.13112212262E+04  0.13112212262E+04  0.00000000000E+00 0.  1.
         21    1    1    2  503  504 -0.33177478005E+02 -0.41121245674E+02 -0.16765164635E+03  0.17578047792E+03  0.00000000000E+00 0.  1.
         21    1    1    2  504  505 -0.72047163918E+02 -0.35276310389E+02 -0.64067314119E+02  0.10266368706E+03  0.00000000000E+00 0.  1.
         21    1    1    2  505  501  0.66408884929E+02  0.62698219157E+02 -0.54316892036E+03  0.55079368435E+03  0.00000000000E+00 0.  1.
          1    1    1    2  501    0  0.38815756994E+02  0.13699336906E+02 -0.50832643187E+03  0.50999029027E+03  0.00000000000E+00 0.  1.
<scales pt_clust_3="52.83656" pt_clust_4="120.16939" pt_clust_5="34.95712" pt_clust_6="34.95712"></scales>
<clustering>
<clus scale="   34.957">  5  6 -1 -1</clus>
<clus scale="   52.837">  1  3  2 -1</clus>
<clus scale="  120.169">  1  4  2 -1</clus>
<clus scale="   52.837">  1  3  2 -1</clus>
</clustering>
</event>
<event>
 6    0  0.4796958E+002  0.1173892E+03  0.7546771E-02  0.1247467E+00
         21   -1    0    0  504  502  0.00000000000E+00  0.00000000000E+00  0.12552404970E+03  0.12552404970E+03  0.00000000000E+00 0. -1.
          2   -1    0    0  505    0 -0.00000000000E+00 -0.00000000000E+00 -0.40319571720E+03  0.40319571720E+03  0.00000000000E+00 0.  1.
         21    1    1    2  503  501 -0.72125088688E+02  0.52354516527E+02 -0.35521648404E+02  0.95941707950E+02  0.00000000000E+00 0. -1.
         21    1    1    2  504  503  0.73208902903E+02 -0.12900166096E+03 -0.16783246062E+03  0.22398372002E+03  0.00000000000E+00 0. -1.
         21    1    1    2  505  502 -0.34021781372E+02  0.61948717713E+02  0.45239473779E+02  0.83915047648E+02  0.00000000000E+00 0. -1.
          2    1    1    2  501    0  0.32937967158E+02  0.14698426718E+02 -0.11955703225E+03  0.12487929127E+03  0.00000000000E+00 0.  1.
<scales pt_clust_3="14000.00000" pt_clust_4="117.38922" pt_clust_5="70.51506" pt_clust_6="36.06873"></scales>
<clustering>
<clus scale="   36.069">  2  6  1 -1</clus>
<clus scale="   70.515">  1  5  2 -1</clus>
<clus scale="  117.389">  1  4  2 -1</clus>
<clus scale="   70.515">  1  3  2 -1</clus>
</clustering>
</event>
<event>
 6    0  0.4796958E+002  0.1376468E+03  0.7546771E-02  0.1216531E+00
         21   -1    0    0  504  502  0.00000000000E+00  0.00000000000E+00  0.84084909082E+03  0.84084909082E+03  0.00000000000E+00 0.  1.
          1   -1    0    0  505    0 -0.00000000000E+00 -0.00000000000E+00 -0.49512808435E+03  0.49512808435E+03  0.00000000000E+00 0.  1.
         21    1    1    2  503  502 -0.97287844720E+01  0.67642445998E+02  0.70243179232E+03  0.70574823599E+03  0.00000000000E+00 0.  1.
         21    1    1    2  504  501  0.22987695763E+02  0.26687579003E+02  0.62528117073E+02  0.71766471658E+02  0.00000000000E+00 0. -1.
         21    1    1    2  505  503  0.13043014675E+03 -0.53232258288E+02 -0.37804259868E+03  0.40343760722E+03  0.00000000000E+00 0.  1.
          1    1    1    2  501    0 -0.14368905804E+03 -0.41097766713E+02 -0.41196304232E+02  0.15502486030E+03  0.00000000000E+00 0.  1.
<scales pt_clust_3="92.60750" pt_clust_4="35.22302" pt_clust_5="137.64677" pt_clust_6="14000.00000"></scales>
<clustering>
<clus scale="   35.223">  1  4  2 -1</clus>
<clus scale="   92.608">  1  3  2 -1</clus>
<clus scale="  137.647">  2  5  1 -1</clus>
<clus scale="   35.223">  1  3  2 -1</clus>
</clustering>
</event>
<event>
 6    0  0.4796958E+002  0.9757090E+02  0.7546771E-02  0.1285489E+00
         21   -1    0    0  504  502  0.00000000000E+00  0.00000000000E+00  0.55585002195E+02  0.55585002195E+02  0.00000000000E+00 0.  1.
          2   -1    0    0  505    0 -0.00000000000E+00 -0.00000000000E+00 -0.11859530036E+04  0.11859530036E+04  0.00000000000E+00 0.  1.
         21    1    1    2  503  502 -0.63628414174E+02  0.22724594602E+02 -0.20499445115E+03  0.21584185714E+03  0.00000000000E+00 0.  1.
         21    1    1    2  504  501  0.32258620205E+02 -0.48050975803E+02  0.18677691695E+02  0.60814233698E+02  0.00000000000E+00 0.  1.
         21    1    1    2  505  503 -0.36066356095E+02 -0.70930002633E+02 -0.31135915583E+03  0.32136641273E+03  0.00000000000E+00 0.  1.
          2    1    1    2  501    0  0.67436150065E+02  0.96256383835E+02 -0.63269208611E+03  0.64351550222E+03  0.00000000000E+00 0.  1.
<scales pt_clust_3="52.95480" pt_clust_4="57.87499" pt_clust_5="97.57090" pt_clust_6="14000.00000"></scales>
<clustering>
<clus scale="   57.875">  1  4  2 -1</clus>
<clus scale="   52.955">  1  3  2 -1</clus>
<clus scale="   97.571">  2  5  1 -1</clus>
<clus scale="   57.875">  1  3  2 -1</clus>
</clustering>
</event>
<event>
 6    0  0.4796958E+002  0.1936184E+03  0.7546771E-02  0.1155238E+00
          1   -1    0    0  503    0 -0.00000000000E+00  0.00000000000E+00  0.17045525643E+03  0.17045525643E+03  0.00000000000E+00 0.  1.
         21   -1    0    0  501  502  0.00000000000E+00 -0.00000000000E+00 -0.74489505151E+03  0.74489505151E+03  0.00000000000E+00 0. -1.
         21    1    1    2  503  504  0.17768583862E+03  0.23956249782E+02 -0.20454747376E+03  0.27200336059E+03  0.00000000000E+00 0. -1.
         21    1    1    2  504  505  0.39948911336E+02 -0.24885651801E+02 -0.28549099407E+03  0.28934463685E+03  0.00000000000E+00 0. -1.
         21    1    1    2  505  502 -0.21705975003E+02  0.30006907477E+02 -0.14277908913E+03  0.14750400720E+03  0.00000000000E+00 0. -1.
          1    1    1    2  501    0 -0.19592877496E+03 -0.29077505458E+02  0.58377761878E+02  0.20649830329E+03  0.00000000000E+00 0.  1.
<scales pt_clust_3="193.61840" pt_clust_4="31.35892" pt_clust_5="37.03463" pt_clust_6="14000.00000"></scales>
<clustering>
<clus scale="   37.035">  2  5  1 -1</clus>
<clus scale="   31.359">  2  4  1 -1</clus>
<clus scale="  193.618">  2  3  1 -1</clus>
<clus scale="   37.035">  2  3  1 -1</clus>
</clustering>
</event>
<event>
 6    0  0.4796958E+002  0.1491687E+03  0.7546771E-02  0.1201498E+00
         21   -1    0    0  505  502  0.00000000000E+00  0.00000000000E+00  0.30160735086E+03  0.30160735086E+03  0.00000000000E+00 0. -1.
          2   -1    0    0  504    0 -0.00000000000E+00 -0.00000000000E+00 -0.51328044181E+03  0.51328044181E+03  0.00000000000E+00 0.  1.
         21    1    1    2  503  502  0.44917199242E+02 -0.12221874296E+02  0.13561318251E+03  0.14338013903E+03  0.00000000000E+00 0. -1.
         21    1    1    2  504  503 -0.74254104388E+02 -0.14989140007E+02 -0.10549735091E+02  0.76482960502E+02  0.00000000000E+00 0. -1.
         21    1    1    2  505  501 -0.10249465971E+01  0.17103127543E+03  0.52538871661E+02  0.17892199620E+03  0.00000000000E+00 0. -1.
          2    1    1    2  501    0  0.30361851743E+02 -0.14382026112E+03 -0.38927541002E+03  0.41610269694E+03  0.00000000000E+00 0.  1.
<scales pt_clust_3="46.55028" pt_clust_4="67.42365" pt_clust_5="14000.00000" pt_clust_6="149.16872"></scales>
<clustering>
<clus scale="   46.550">  1  3  2 -1</clus>
<clus scale="   67.424">  1  4  2 -1</clus>
<clus scale="  149.169">  2  6  1 -1</clus>
<clus scale="   46.550">  1  3  2 -1</clus>
</clustering>
</event>
<event>
 6    0  0.4796958E+002  0.2539389E+03  0.7546771E-02  0.1110841E+00
          1   -1    0    0  503    0 -0.00000000000E+00  0.00000000000E+00  0.38539473415E+04  0.38539473415E+04  0.00000000000E+00 0.  1.
         21   -1    0    0  504  502  0.00000000000E+00 -0.00000000000E+00 -0.17528024065E+04  0.17528024065E+04  0.00000000000E+00 0. -1.
         21    1    1    2  503  505  0.36209022024E+03  0.14028394288E+03  0.24777677270E+03  0.46063243624E+03  0.00000000000E+00 0. -1.
         21    1    1    2  504  501 -0.14827565769E+03  0.33565916922E+02  0.10562357843E+04  0.10671205993E+04  0.00000000000E+00 0. -1.
         21    1    1    2  505  502 -0.91931663074E+02 -0.17939594554E+03 -0.16332053230E+04  0.16455983601E+04  0.00000000000E+00 0. -1.
          1    1    1    2  501    0 -0.12188289947E+03  0.55460857364E+01  0.24303377009E+04  0.24333983523E+04  0.00000000000E+00 0.  1.
<scales pt_clust_3="14000.00000" pt_clust_4="253.93892" pt_clust_5="201.80088" pt_clust_6="122.00902"></scales>
<clustering>
<clus scale="  122.009">  1  6  2 -1</clus>
<clus scale="  201.801">  2  5  1 -1</clus>
<clus scale="  253.939">  1  4  2 -1</clus>
<clus scale="  201.801">  2  3  1 -1</clus>
</clustering>
</event>
<event>
 6    0  0.4796958E+002  0.7675578E+02  0.7546771E-02  0.1338519E+00
         21   -1    0    0  505  502  0.00000000000E+00  0.00000000000E+00  0.54792123289E+03  0.54792123289E+03  0.00000000000E+00 0. -1.
          2   -1    0    0  504    0 -0.00000000000E+00 -0.00000000000E+00 -0.61708599822E+03  0.61708599822E+03  0.00000000000E+00 0. -1.
         21    1    1    2  503  502  0.48365373468E+02 -0.18372323061E+02  0.44766463474E+03  0.45064440172E+03  0.00000000000E+00 0. -1.
         21    1    1    2  504  503 -0.10151143878E+03  0.20344517415E+02 -0.36946934858E+02  0.10992519087E+03  0.00000000000E+00 0. -1.
         21    1    1    2  505  501 -0.48876615027E+01  0.46529065453E+02  0.50412164388E+02  0.68776663812E+02  0.00000000000E+00 0. -1.
          2    1    1    2  501    0  0.58033726812E+02 -0.48501259806E+02 -0.53029462960E+03  0.53566097472E+03  0.00000000000E+00 0. -1.
<scales pt_clust_3="50.21060" pt_clust_4="76.75578" pt_clust_5="46.78507" pt_clust_6="14000.00000"></scales>
<clustering>
<clus scale="   46.785">  1  5  2 -1</clus>
<clus scale="   50.211">  1  3  2 -1</clus>
<clus scale="   76.756">  1  4  2 -1</clus>
<clus scale="   46.785">  1  3  2 -1</clus>
</clustering>
</event>
<event>
 6    0  0.4796958E+002  0.7270923E+02  0.7546771E-02  0.1351115E+00
         21   -1    0    0  505  502  0.00000000000E+00  0.00000000000E+00  0.70700833090E+03  0.70700833090E+03  0.00000000000E+00 0.  1.
         -3   -1    0    0    0  501 -0.00000000000E+00 -0.00000000000E+00 -0.57172377041E+02  0.57172377041E+02  0.00000000000E+00 0. -1.
         21    1    1    2  503  504 -0.34073049763E+02  0.46895688947E+02  0.28558422837E+02  0.64620135228E+02  0.00000000000E+00 0. -1.
         21    1    1    2  504  501  0.38102904332E+02 -0.11655096847E+02  0.52688145849E+02  0.66058408353E+02  0.00000000000E+00 0.  1.
         21    1    1    2  505  503  0.53037366771E+02  0.46792620623E+02  0.51552929927E+03  0.52035850145E+03  0.00000000000E+00 0.  1.
         -3    1    1    2    0  502 -0.57067221340E+02 -0.82033212724E+02  0.53060085894E+02  0.11314366291E+03  0.00000000000E+00 0. -1.
<scales pt_clust_3="47.38089" pt_clust_4="39.84561" pt_clust_5="72.70923" pt_clust_6="14000.00000"></scales>
<clustering>
<clus scale="   39.846">  2  4  1 -1</clus>
<clus scale="   47.381">  2  3  1 -1</clus>
<clus scale="   72.709">  1  5  2 -1</clus>
<clus scale="   72.709">  1  3  2 -1</clus>
</clustering>
</event>
<event>
 6    0  0.4796958E+002  0.1078282E+03  0.7546771E-02  0.1264645E+00
          3   -1    0    0  504    0 -0.00000000000E+00  0.00000000000E+00  0.43487511326E+04  0.43487511326E+04  0.00000000000E+00 0.  1.
         21   -1    0    0  505  502  0.00000000000E+00 -0.00000000000E+00 -0.21055160566E+03  0.21055160566E+03  0.00000000000E+00 0. -1.
         21    1    1    2  503  502  0.54697522606E+02 -0.31525691627E+01 -0.42011078023E+00  0.54789909332E+02  0.00000000000E+00 0. -1.
         21    1    1    2  504  503 -0.54158493070E+01  0.52381257734E+02  0.44607839174E+03  0.44917597794E+03  0.00000000000E+00 0.  1.
         21    1    1    2  505  501  0.18059955096E+01 -0.89718395196E+02 -0.17000787817E+03  0.19223769322E+03  0.00000000000E+00 0. -1.
          3    1    1    2  501    0 -0.51087668809E+02  0.40489706624E+02  0.38625491242E+04  0.38630991578E+04  0.00000000000E+00 0.  1.
<scales pt_clust_3="54.73082" pt_clust_4="52.66049" pt_clust_5="14000.00000" pt_clust_6="107.82821"></scales>
<clustering>
<clus scale="   52.660">  1  4  2 -1</clus>
<clus scale="   54.731">  2  3  1 -1</clus>
<clus scale="  107.828">  1  6  2 -1</clus>
<clus scale="   54.731">  2  3  1 -1</clus>
</clustering>
</event>
<event>
 6    0  0.4796958E+002  0.1769871E+03  0.7546771E-02  0.1170751E+00
          2   -1    0    0  505    0 -0.00000000000E+00  0.00000000000E+00  0.54836167888E+03  0.54836167888E+03  0.00000000000E+00 0.  1.
         21   -1    0    0  503  502  0.00000000000E+00 -0.00000000000E+00 -0.13684465963E+03  0.13684465963E+03  0.00000000000E+00 0. -1.
         21    1    1    2  503  504 -0.38162373580E+01  0.31039776748E+02  0.57969131087E+01  0.31806219670E+02  0.00000000000E+00 0.  1.
         21    1    1    2  504  501  0.96861938602E+02 -0.14888951147E+03  0.79435550347E+02  0.19457730709E+03  0.00000000000E+00 0. -1.
         21    1    1    2  505  502  0.47600217209E+02  0.66840838625E+01 -0.32306766987E+02  0.57915324817E+02  0.00000000000E+00 0. -1.
          2    1    1    2  501    0 -0.14064591845E+03  0.11116565086E+03  0.35859132278E+03  0.40090748693E+03  0.00000000000E+00 0.  1.
<scales pt_clust_3="31.27349" pt_clust_4="176.98713" pt_clust_5="49.58875" pt_clust_6="14000.00000"></scales>
<clustering>
<clus scale="   31.273">  2  3  1 -1</clus>
<clus scale="   49.589">  2  5  1 -1</clus>
<clus scale="  176.987">  2  4  1 -1</clus>
<clus scale="   31.273">  2  3  1 -1</clus>
</clustering>
</event>
<event>
 6    0  0.4796958E+002  0.1142373E+03  0.7546771E-02  0.1252918E+00
          2   -1    0    0  503    0 -0.00000000000E+00  0.00000000000E+00  0.89406806342E+03  0.89406806342E+03  0.00000000000E+00 0. -1.
         21   -1    0    0  505  502  0.00000000000E+00 -0.00000000000E+00 -0.23447813742E+03  0.23447813742E+03  0.00000000000E+00 0.  1.
         21    1    1    2  503  502  0.12889795405E+03 -0.55313853018E+02  0.29398543794E+02  0.14331287196E+03  0.00000000000E+00 0.  1.
         21    1    1    2  504  501 -0.10690388513E+03 -0.26645117058E+02  0.41744046868E+02  0.11781752148E+03  0.00000000000E+00 0. -1.
         21    1    1    2  505  504  0.33418742251E+02  0.15428595383E+02 -0.13442658456E+03  0.13937489202E+03  0.00000000000E+00 0.  1.
          2    1    1    2  501    0 -0.55412811174E+02  0.66530374692E+02  0.72287391990E+03  0.72804091538E+03  0.00000000000E+00 0. -1.
<scales pt_clust_3="114.23733" pt_clust_4="14000.00000" pt_clust_5="36.80834" pt_clust_6="86.33722"></scales>
<clustering>
<clus scale="   36.808">  2  5  1 -1</clus>
<clus scale="   86.337">  1  6  2 -1</clus>
<clus scale="  114.237">  1  3  2 -1</clus>
<clus scale="   36.808">  2  3  1 -1</clus>
</clustering>
</event>
<event>
 6    0  0.4796958E+002  0.1906737E+03  0.7546771E-02  0.1157855E+00
          1   -1    0    0  505    0 -0.00000000000E+00  0.00000000000E+00  0.23381905358E+04  0.23381905358E+04  0.00000000000E+00 0.  1.
         21   -1    0    0  503  502  0.00000000000E+00 -0.00000000000E+00 -0.42834762020E+03  0.42834762020E+03  0.00000000000E+00 0.  1.
         21    1    1    2  503  501 -0.36501788970E+02  0.61861723491E+02 -0.26028739766E+03  0.27001626397E+03  0.00000000000E+00 0.  1.
         21    1    1    2  504  502  0.79452275748E+02  0.12887738700E+03 -0.11936837205E+03  0.19279744098E+03  0.00000000000E+00 0.  1.
         21    1    1    2  505  504 -0.12424670301E+02 -0.16077323784E+03  0.95334992573E+03  0.96689114555E+03  0.00000000000E+00 0.  1.
          1    1    1    2  501    0 -0.30525816477E+02 -0.29965872647E+02  0.13361487596E+04  0.13368333055E+04  0.00000000000E+00 0.  1.
<scales pt_clust_3="71.77823" pt_clust_4="14000.00000" pt_clust_5="190.67372" pt_clust_6="42.77592"></scales>
<clustering>
<clus scale="   42.776">  1  6  2 -1</clus>
<clus scale="   71.778">  2  3  1 -1</clus>
<clus scale="  190.674">  1  5  2 -1</clus>
<clus scale="   71.778">  2  3  1 -1</clus>
</clustering>
</event>
<event>
 6    0  0.4796958E+002  0.7420490E+02  0.7546771E-02  0.1346351E+00
         21   -1    0    0  501  502  0.00000000000E+00  0.00000000000E+00  0.90682245842E+03  0.90682245842E+03  0.00000000000E+00 0.  1.
          2   -1    0    0  503    0 -0.00000000000E+00 -0.00000000000E+00 -0.15956757208E+04  0.15956757208E+04  0.00000000000E+00 0.  1.
         21    1    1    2  503  504  0.52434648949E+01  0.30769118030E+02 -0.73325150328E+03  0.73391552621E+03  0.00000000000E+00 0.  1.
         21    1    1    2  504  505 -0.14358752206E+03 -0.26592749855E+02  0.23524367227E+03  0.27688289254E+03  0.00000000000E+00 0. -1.
         21    1    1    2  505  502  0.70303032858E+02  0.17741882702E+02  0.64687952258E+03  0.65093041684E+03  0.00000000000E+00 0.  1.
          2    1    1    2  501    0  0.68041024306E+02 -0.21918250877E+02 -0.83772495400E+03  0.84076934367E+03  0.00000000000E+00 0.  1.
<scales pt_clust_3="31.21270" pt_clust_4="74.20490" pt_clust_5="72.53684" pt_clust_6="14000.00000"></scales>
<clustering>
<clus scale="   31.213">  2  3  1 -1</clus>
<clus scale="   72.537">  1  5  2 -1</clus>
<clus scale="   74.205">  1  4  2 -1</clus>
<clus scale="   72.537">  1  3  2 -1</clus>
</clustering>
</event>
<event>
 6    0  0.4796958E+002  0.1003438E+03  0.7546771E-02  0.1279575E+00
         -2   -1    0    0    0  501 -0.00000000000E+00  0.00000000000E+00  0.35542446046E+03  0.35542446046E+03  0.00000000000E+00 0. -1.
         21   -1    0    0  505  502  0.00000000000E+00 -0.00000000000E+00 -0.35388198203E+03  0.35388198203E+03  0.00000000000E+00 0. -1.
         21    1    1    2  503  502  0.40682099157E+01  0.53780726225E+02 -0.16692720589E+03  0.17542408305E+03  0.00000000000E+00 0. -1.
         21    1    1    2  504  503 -0.97358534522E+02 -0.18283424839E+01 -0.15267137869E+03  0.18108168586E+03  0.00000000000E+00 0. -1.
         21    1    1    2  505  501  0.73872764419E+02  0.13981394526E+02  0.19770397958E+03  0.21151720558E+03  0.00000000000E+00 0. -1.
         -2    1    1    2    0  504  0.19417560188E+02 -0.65933778268E+02  0.12343708345E+03  0.14128346800E+03  0.00000000000E+00 0. -1.
<scales pt_clust_3="53.93438" pt_clust_4="100.34382" pt_clust_5="14000.00000" pt_clust_6="66.27667"></scales>
<clustering>
<clus scale="   53.934">  2  3  1 -1</clus>
<clus scale="   66.277">  1  6  2 -1</clus>
<clus scale="  100.344">  2  4  1 -1</clus>
<clus scale="   53.934">  2  3  1 -1</clus>
</clustering>
</event>
<event>
 6    0  0.4796958E+002  0.9143375E+02  0.7546771E-02  0.1299416E+00
          1   -1    0    0  504    0 -0.00000000000E+00  0.00000000000E+00  0.42843670883E+03  0.42843670883E+03  0.00000000000E+00 0.  1.
         21   -1    0    0  503  502  0.00000000000E+00 -0.00000000000E+00 -0.51782564614E+03  0.51782564614E+03  0.00000000000E+00 0.  1.
         21    1    1    2  503  501 -0.10299550367E+03  0.54225032588E+02 -0.36279822827E+02  0.12192068520E+03  0.00000000000E+00 0.  1.
         21    1    1    2  504  505  0.63474689590E+02 -0.82549058650E+02 -0.12687957076E+03  0.16413960150E+03  0.00000000000E+00 0.  1.
         21    1    1    2  505  502 -0.25687827560E+02  0.19044294340E+02 -0.28937261500E+03  0.29113409272E+03  0.00000000000E+00 0.  1.
          1    1    1    2  501    0  0.65208641639E+02  0.92797317223E+01  0.36314307127E+03  0.36906797555E+03  0.00000000000E+00 0.  1.
<scales pt_clust_3="91.43375" pt_clust_4="14000.00000" pt_clust_5="31.97733" pt_clust_6="65.57014"></scales>
<clustering>
<clus scale="   31.977">  2  5  1 -1</clus>
<clus scale="   65.570">  1  6  2 -1</clus>
<clus scale="   91.434">  1  3  2 -1</clus>
<clus scale="   31.977">  2  3  1 -1</clus>
</clustering>
</event>
<event>
 6    0  0.4796958E+002  0.1087582E+03  0.7546771E-02  0.1262887E+00
          2   -1    0    0  502    0 -0.00000000000E+00  0.00000000000E+00  0.29147541124E+04  0.29147541124E+04  0.00000000000E+00 0.  1.
         21   -1    0    0  504  502  0.00000000000E+00 -0.00000000000E+00 -0.51557241268E+02  0.51557241268E+02  0.00000000000E+00 0.  1.
         21    1    1    2  503  501  0.33232531725E+02 -0.81785473382E+02  0.94821204798E+03  0.95231263394E+03  0.00000000000E+00 0.  1.
         21    1    1    2  504  505  0.19996636136E+02  0.26843988369E+02  0.11769319138E+02  0.35482136932E+02  0.00000000000E+00 0.  1.
         21    1    1    2  505  503 -0.89348039465E+02  0.61286242036E+02  0.40853071132E+02  0.11579313037E+03  0.00000000000E+00 0.  1.
          2    1    1    2  501    0  0.36118871605E+02 -0.63447570231E+01  0.18623624328E+04  0.18627234524E+04  0.00000000000E+00 0.  1.
<scales pt_clust_3="14000.00000" pt_clust_4="33.47335" pt_clust_5="108.75819" pt_clust_6="36.74059"></scales>
<clustering>
<clus scale="   33.473">  2  4  1 -1</clus>
<clus scale="   36.741">  1  6  2 -1</clus>
<clus scale="  108.758">  2  5  1 -1</clus>
<clus scale="   33.473">  2  3  1 -1</clus>
</clustering>
</event>
<event>
 6    0  0.4796958E+002  0.8212889E+02  0.7546771E-02  0.1323116E+00
          3   -1    0    0  503    0 -0.00000000000E+00  0.00000000000E+00  0.13007373303E+03  0.13007373303E+03  0.00000000000E+00 0. -1.
         21   -1    0    0  504  502  0.00000000000E+00 -0.00000000000E+00 -0.28470662091E+03  0.28470662091E+03  0.00000000000E+00 0. -1.
         21    1    1    2  503  505  0.61191145717E+02 -0.79966384649E+02 -0.29871941731E+01  0.10073679723E+03  0.00000000000E+00 0. -1.
         21    1    1    2  504  501 -0.45819962231E+02  0.66236439814E+02 -0.47555635465E+02  0.93532204948E+02  0.00000000000E+00 0. -1.
         21    1    1    2  505  502  0.71118291989E+02  0.15623462524E+02 -0.11205562759E+03  0.13363520386E+03  0.00000000000E+00 0. -1.
          3    1    1    2  501    0 -0.86489475476E+02 -0.18935176887E+01  0.79655693439E+01  0.86876147890E+02  0.00000000000E+00 0. -1.
<scales pt_clust_3="14000.00000" pt_clust_4="82.12889" pt_clust_5="72.81417" pt_clust_6="69.18019"></scales>
<clustering>
<clus scale="   72.814">  2  5  1 -1</clus>
<clus scale="   69.180">  1  6  2 -1</clus>
<clus scale="   82.129">  2  4  1 -1</clus>
<clus scale="   72.814">  2  3  1 -1</clus>
</clustering>
</event>
<event>
 6    0  0.4796958E+002  0.8636470E+02  0.7546771E-02  0.1311902E+00
          2   -1    0    0  503    0 -0.00000000000E+00  0.00000000000E+00  0.53476108890E+03  0.53476108890E+03  0.00000000000E+00 0. -1.
         21   -1    0    0  505  502  0.00000000000E+00 -0.00000000000E+00 -0.72131964418E+03  0.72131964418E+03  0.00000000000E+00 0. -1.
         21    1    1    2  503  504  0.75075377066E+02  0.25843127243E+02 -0.20507321002E+03  0.21990725531E+03  0.00000000000E+00 0. -1.
         21    1    1    2  504  502 -0.46248600651E+02 -0.10304373208E+03 -0.34714093837E+03  0.36505311241E+03  0.00000000000E+00 0. -1.
         21    1    1    2  505  501 -0.45839114083E+01  0.34361032458E+02 -0.14957718662E+03  0.15354161505E+03  0.00000000000E+00 0. -1.
          2    1    1    2  501    0 -0.24242865007E+02  0.42839572375E+02  0.51523277974E+03  0.51757875032E+03  0.00000000000E+00 0. -1.
<scales pt_clust_3="86.36470" pt_clust_4="14000.00000" pt_clust_5="34.66544" pt_clust_6="49.28964"></scales>
<clustering>
<clus scale="   34.665">  2  5  1 -1</clus>
<clus scale="   49.290">  1  6  2 -1</clus>
<clus scale="   86.365">  1  3  2 -1</clus>
<clus scale="   34.665">  2  3  1 -1</clus>
</clustering>
</event>
<event>
 6    0  0.4796958E+002  0.9742002E+02  0.7546771E-02  0.1285817E+00
          2   -1    0    0  502    0 -0.00000000000E+00  0.00000000000E+00  0.14385340420E+04  0.14385340420E+04  0.00000000000E+00 0.  1.
         21   -1    0    0  503  502  0.00000000000E+00 -0.00000000000E+00 -0.10105984134E+03  0.10105984134E+03  0.00000000000E+00 0.  1.
         21    1    1    2  503  505  0.31939269794E+02  0.23010704486E+02  0.49159308721E+02  0.62978147875E+02  0.00000000000E+00 0.  1.
         21    1    1    2  504  501 -0.14029773735E+03 -0.88329691062E+02  0.42529687181E+02  0.17115596314E+03  0.00000000000E+00 0.  1.
         21    1    1    2  505  504  0.12190237135E+02  0.68143800171E+02  0.14888137824E+02  0.70808446043E+02  0.00000000000E+00 0.  1.
          2    1    1    2  501    0  0.96168230417E+02 -0.28248135944E+01  0.12308970669E+04  0.12346513263E+04  0.00000000000E+00 0.  1.
<scales pt_clust_3="39.36508" pt_clust_4="97.42002" pt_clust_5="78.04759" pt_clust_6="14000.00000"></scales>
<clustering>
<clus scale="   39.365">  2  3  1 -1</clus>
<clus scale="   78.048">  2  5  1 -1</clus>
<clus scale="   97.420">  2  4  1 -1</clus>
<clus scale="   39.365">  2  3  1 -1</clus>
</clustering>
</event>
<event>
 6    0  0.4796958E+002  0.1007879E+03  0.7546771E-02  0.1278648E+00
          1   -1    0    0  503    0 -0.00000000000E+00  0.00000000000E+00  0.11004728371E+04  0.11004728371E+04  0.00000000000E+00 0.  1.
         21   -1    0    0  505  502  0.00000000000E+00 -0.00000000000E+00 -0.62226852658E+02  0.62226852658E+02  0.00000000000E+00 0.  1.
         21    1    1    2  503  502 -0.85443001284E+02  0.42813033784E+01  0.32685914498E+03  0.33786940773E+03  0.00000000000E+00 0.  1.
         21    1    1    2  504  501  0.10551642544E+03  0.39205732472E+02  0.22143831240E+03  0.24840638417E+03  0.00000000000E+00 0.  1.
         21    1    1    2  505  504  0.19529887008E+02 -0.33990316462E+02 -0.33395434933E+02  0.51497700668E+02  0.00000000000E+00 0.  1.
          1    1    1    2  501    0 -0.39603311167E+02 -0.94967193886E+01  0.52334396195E+03  0.52492619714E+03  0.00000000000E+00 0.  1.
<scales pt_clust_3="100.78789" pt_clust_4="14000.00000" pt_clust_5="39.20151" pt_clust_6="40.31154"></scales>
<clustering>
<clus scale="   39.202">  2  5  1 -1</clus>
<clus scale="   40.312">  1  6  2 -1</clus>
<clus scale="  100.788">  1  3  2 -1</clus>
<clus scale="   39.202">  2  3  1 -1</clus>
</clustering>
</event>
<event>
 6    0  0.4796958E+002  0.8906594E+02  0.7546771E-02  0.1305130E+00
         21   -1    0    0  503  502  0.00000000000E+00  0.00000000000E+00  0.91425694184E+02  0.91425694184E+02  0.00000000000E+00 0.  1.
          1   -1    0    0  504    0 -0.00000000000E+00 -0.00000000000E+00 -0.85229366695E+03  0.85229366695E+03  0.00000000000E+00 0.  1.
         21    1    1    2  503  501 -0.17121341881E+02 -0.26012691632E+02  0.69316229265E+02  0.75990394875E+02  0.00000000000E+00 0.  1.
         21    1    1    2  504  505  0.28860947064E+02  0.81921967255E+02 -0.35240441019E+03  0.36295045296E+03  0.00000000000E+00 0.  1.
         21    1    1    2  505  502 -0.25644239456E+02  0.39965554566E+02 -0.63322099983E+02  0.79148979244E+02  0.00000000000E+00 0.  1.
          1    1    1    2  501    0  0.13904634273E+02 -0.95874830189E+02 -0.41445769186E+03  0.42562953405E+03  0.00000000000E+00 0.  1.
<scales pt_clust_3="31.14162" pt_clust_4="89.06594" pt_clust_5="43.82796" pt_clust_6="14000.00000"></scales>
<clustering>
<clus scale="   31.142">  1  3  2 -1</clus>
<clus scale="   43.828">  1  5  2 -1</clus>
<clus scale="   89.066">  2  4  1 -1</clus>
<clus scale="   31.142">  1  3  2 -1</clus>
</clustering>
</event>
<event>
 6    0  0.4796958E+002  0.2526492E+03  0.7546771E-02  0.1111642E+00
          2   -1    0    0  505    0 -0.00000000000E+00  0.00000000000E+00  0.11625406844E+04  0.11625406844E+04  0.00000000000E+00 0. -1.
         21   -1    0    0  504  502  0.00000000000E+00 -0.00000000000E+00 -0.70105438278E+03  0.70105438278E+03  0.00000000000E+00 0. -1.
         21    1    1    2  503  501  0.18177261688E+03 -0.23225019239E+03 -0.33274195035E+03  0.44463315400E+03  0.00000000000E+00 0. -1.
         21    1    1    2  504  503 -0.29249139503E+02  0.10434963473E+02 -0.25438303394E+03  0.25627159145E+03  0.00000000000E+00 0. -1.
         21    1    1    2  505  502 -0.54114400284E+02  0.18115540227E+03  0.11138764892E+03  0.21943759117E+03  0.00000000000E+00 0. -1.
          2    1    1    2  501    0 -0.98409077093E+02  0.40659826651E+02  0.93722363702E+03  0.94325273058E+03  0.00000000000E+00 0. -1.
<scales pt_clust_3="252.64916" pt_clust_4="31.05480" pt_clust_5="14000.00000" pt_clust_6="106.68779"></scales>
<clustering>
<clus scale="   31.055">  2  4  1 -1</clus>
<clus scale="  106.688">  1  6  2 -1</clus>
<clus scale="  252.649">  2  3  1 -1</clus>
<clus scale="   31.055">  2  3  1 -1</clus>
</clustering>
</event>
<event>
 6    0  0.4796958E+002  0.1334610E+03  0.7546771E-02  0.1222409E+00
          1   -1    0    0  504    0 -0.00000000000E+00  0.00000000000E+00  0.24438887977E+03  0.24438887977E+03  0.00000000000E+00 0. -1.
         21   -1    0    0  505  502  0.00000000000E+00 -0.00000000000E+00 -0.64420540467E+03  0.64420540467E+03  0.00000000000E+00 0. -1.
         21    1    1    2  503  501 -0.14342624991E+03  0.42389746295E+02 -0.97083636469E+02  0.17830651201E+03  0.00000000000E+00 0. -1.
         21    1    1    2  504  502  0.55874055751E+02 -0.26311118452E+02  0.20594631914E+02  0.65102411045E+02  0.00000000000E+00 0. -1.
         21    1    1    2  505  503  0.15450437895E+02  0.26858386455E+02 -0.47277471025E+03  0.47378899903E+03  0.00000000000E+00 0. -1.
          1    1    1    2  501    0  0.72101756269E+02 -0.42937014298E+02  0.14944718991E+03  0.17139636235E+03  0.00000000000E+00 0. -1.
<scales pt_clust_3="133.46100" pt_clust_4="62.21928" pt_clust_5="30.98530" pt_clust_6="14000.00000"></scales>
<clustering>
<clus scale="   30.985">  2  5  1 -1</clus>
<clus scale="   62.219">  1  4  2 -1</clus>
<clus scale="  133.461">  2  3  1 -1</clus>
<clus scale="   30.985">  2  3  1 -1</clus>
</clustering>
</event>
<event>
 6    0  0.4796958E+002  0.1336739E+03  0.7546771E-02  0.1222104E+00
         21   -1    0    0  505  502  0.00000000000E+00  0.00000000000E+00  0.35160390704E+03  0.35160390704E+03  0.00000000000E+00 0.  1.
          2   -1    0    0  504    0 -0.00000000000E+00 -0.00000000000E+00 -0.20927862691E+04  0.20927862691E+04  0.00000000000E+00 0. -1.
         21    1    1    2  503  502 -0.65766639901E+02  0.98950452427E+02 -0.24078294303E+02  0.12122791434E+03  0.00000000000E+00 0. -1.
         21    1    1    2  504  503 -0.61407697915E+01 -0.31353454606E+02 -0.14483780006E+03  0.14831971040E+03  0.00000000000E+00 0. -1.
         21    1    1    2  505  501  0.22270191837E+02  0.30375387134E+02  0.29849409802E+03  0.30086101798E+03  0.00000000000E+00 0.  1.
          2    1    1    2  501    0  0.49637217855E+02 -0.97972384956E+02 -0.18707603657E+04  0.18739815334E+04  0.00000000000E+00 0. -1.
<scales pt_clust_3="14000.00000" pt_clust_4="31.94915" pt_clust_5="37.64706" pt_clust_6="133.67386"></scales>
<clustering>
<clus scale="   31.949">  2  4  1 -1</clus>
<clus scale="   37.647">  1  5  2 -1</clus>
<clus scale="  133.674">  2  6  1 -1</clus>
<clus scale="   37.647">  1  3  2 -1</clus>
</clustering>
</event>
<event>
 6    0  0.4796958E+002  0.5906465E+02  0.7546771E-02  0.1401799E+00
          1   -1    0    0  504    0 -0.00000000000E+00  0.00000000000E+00  0.12653348577E+04  0.12653348577E+04  0.00000000000E+00 0.  1.
         21   -1    0    0  505  502  0.00000000000E+00 -0.00000000000E+00 -0.80443431161E+02  0.80443431161E+02  0.00000000000E+00 0.  1.
         21    1    1    2  503  501 -0.51805501047E+02 -0.56322109155E+02  0.16557491753E+03  0.18240351761E+03  0.00000000000E+00 0.  1.
         21    1    1    2  504  502 -0.57069693978E+02  0.54654467251E+02 -0.25709787708E+02  0.83096654236E+02  0.00000000000E+00 0.  1.
         21    1    1    2  505  503  0.50520959176E+02  0.41423053164E+01  0.21458659096E+02  0.55045436320E+02  0.00000000000E+00 0.  1.
          1    1    1    2  501    0  0.58354235848E+02 -0.24746634127E+01  0.10235676376E+04  0.10252326807E+04  0.00000000000E+00 0.  1.
<scales pt_clust_3="57.57969" pt_clust_4="14000.00000" pt_clust_5="50.69049" pt_clust_6="59.06465"></scales>
<clustering>
<clus scale="   50.690">  2  5  1 -1</clus>
<clus scale="   59.065">  1  6  2 -1</clus>
<clus scale="   57.580">  1  3  2 -1</clus>
<clus scale="   50.690">  2  3  1 -1</clus>
</clustering>
</event>
<event>
 6    0  0.4796958E+002  0.9958103E+02  0.7546771E-02  0.1281179E+00
         21   -1    0    0  504  502  0.00000000000E+00  0.00000000000E+00  0.78513625945E+03  0.78513625945E+03  0.00000000000E+00 0. -1.
         -1   -1    0    0    0  501 -0.00000000000E+00 -0.00000000000E+00 -0.21397683637E+03  0.21397683637E+03  0.00000000000E+00 0.  1.
         21    1    1    2  503  505  0.66920906663E+02  0.89289394394E+01  0.48551364289E+03  0.49018530286E+03  0.00000000000E+00 0. -1.
         21    1    1    2  504  501 -0.68681480622E+02 -0.51346316670E+02  0.27870042296E+02  0.90168338532E+02  0.00000000000E+00 0. -1.
         21    1    1    2  505  502  0.28414142183E+02 -0.61208393834E+02  0.21681665995E+03  0.22707552705E+03  0.00000000000E+00 0. -1.
         -1    1    1    2    0  503 -0.26653568224E+02  0.10362577107E+03 -0.15904092206E+03  0.19168392738E+03  0.00000000000E+00 0.  1.
<scales pt_clust_3="99.58103" pt_clust_4="87.48304" pt_clust_5="67.48208" pt_clust_6="14000.00000"></scales>
<clustering>
<clus scale="   67.482">  1  5  2 -1</clus>
<clus scale="   87.483">  2  4  1 -1</clus>
<clus scale="   99.581">  1  3  2 -1</clus>
<clus scale="   67.482">  1  3  2 -1</clus>
</clustering>
</event>
<event>
 6    0  0.4796958E+002  0.2275268E+03  0.7546771E-02  0.1128393E+00
         21   -1    0    0  504  502  0.00000000000E+00  0.00000000000E+00  0.55612303280E+03  0.55612303280E+03  0.00000000000E+00 0. -1.
          2   -1    0    0  505    0 -0.00000000000E+00 -0.00000000000E+00 -0.25469748070E+04  0.25469748070E+04  0.00000000000E+00 0.  1.
         21    1    1    2  503  501 -0.92885245750E+02 -0.94268488923E+02 -0.11151322360E+04  0.11229577555E+04  0.00000000000E+00 0.  1.
         21    1    1    2  504  503  0.15774259274E+03  0.92998233841E+02  0.51755161785E+03  0.54899096004E+03  0.00000000000E+00 0. -1.
         21    1    1    2  505  502  0.14263985262E+02  0.27093726298E+02  0.44599584799E+01  0.30942244746E+02  0.00000000000E+00 0. -1.
          2    1    1    2  501    0 -0.79121332250E+02 -0.25823471217E+02 -0.13977311146E+04  0.14002068795E+04  0.00000000000E+00 0.  1.
<scales pt_clust_3="70.38383" pt_clust_4="209.52144" pt_clust_5="30.61913" pt_clust_6="70.38383"></scales>
<clustering>
<clus scale="   30.619">  1  5  2 -1</clus>
<clus scale="   70.384">  3  6 -1 -1</clus>
<clus scale="  209.521">  1  4  2 -1</clus>
<clus scale="   30.619">  1  3  2 -1</clus>
</clustering>
</event>
<event>
 6    0  0.4796958E+002  0.9756808E+02  0.7546771E-02  0.1285495E+00
         21   -1    0    0  503  502  0.00000000000E+00  0.00000000000E+00  0.14550244988E+04  0.14550244988E+04  0.00000000000E+00 0.  1.
          1   -1    0    0  505    0 -0.00000000000E+00 -0.00000000000E+00 -0.22852121944E+03  0.22852121944E+03  0.00000000000E+00 0.  1.
         21    1    1    2  503  501  0.10754800278E+03 -0.79349015561E+02  0.28992988459E+03  0.31925252881E+03  0.00000000000E+00 0. -1.
         21    1    1    2  504  502 -0.58971392286E+02  0.72170480093E+02  0.11030507962E+04  0.11069811481E+04  0.00000000000E+00 0.  1.
         21    1    1    2  505  504 -0.37472276796E+02  0.47350284655E+02  0.22011117349E+02  0.64270601927E+02  0.00000000000E+00 0. -1.
          1    1    1    2  501    0 -0.11104333696E+02 -0.40171749187E+02 -0.18848851871E+03  0.19304143945E+03  0.00000000000E+00 0.  1.
<scales pt_clust_3="97.56808" pt_clust_4="14000.00000" pt_clust_5="50.26906" pt_clust_6="41.67824"></scales>
<clustering>
<clus scale="   41.678">  2  6  1 -1</clus>
<clus scale="   50.269">  2  5  1 -1</clus>
<clus scale="   97.568">  2  3  1 -1</clus>
<clus scale="   97.568">  1  3  2 -1</clus>
</clustering>
</event>
<event>
 6    0  0.4796958E+002  0.1286155E+03  0.7546771E-02  0.1229525E+00
         21   -1    0    0  503  502  0.00000000000E+00  0.00000000000E+00  0.50724805868E+02  0.50724805868E+02  0.00000000000E+00 0.  1.
          1   -1    0    0  504    0 -0.00000000000E+00 -0.00000000000E+00 -0.21939853500E+04  0.21939853500E+04  0.00000000000E+00 0.  1.
         21    1    1    2  503  501  0.88224532292E+02  0.56333914806E+02 -0.20748685290E+03  0.23239593839E+03  0.00000000000E+00 0.  1.
         21    1    1    2  504  505  0.24477335274E+01 -0.54281811547E+02 -0.14547283163E+04  0.14557427591E+04  0.00000000000E+00 0.  1.
         21    1    1    2  505  502 -0.15816559963E+03  0.39872217062E+01 -0.14781640297E+03  0.21652238644E+03  0.00000000000E+00 0.  1.
          1    1    1    2  501    0  0.67493333815E+02 -0.60393249657E+01 -0.33322897195E+03  0.34004907190E+03  0.00000000000E+00 0.  1.
<scales pt_clust_3="128.61554" pt_clust_4="54.33697" pt_clust_5="14000.00000" pt_clust_6="75.19475"></scales>
<clustering>
<clus scale="   54.337">  2  4  1 -1</clus>
<clus scale="   75.195">  2  6  1 -1</clus>
<clus scale="  128.616">  2  3  1 -1</clus>
<clus scale="  128.616">  1  3  2 -1</clus>
</clustering>
</event>
<event>
 6    0  0.4796958E+002  0.1268934E+03  0.7546771E-02  0.1232140E+00
         -1   -1    0    0    0  501 -0.00000000000E+00  0.00000000000E+00  0.79286176390E+03  0.79286176390E+03  0.00000000000E+00 0. -1.
         21   -1    0    0  504  502  0.00000000000E+00 -0.00000000000E+00 -0.45278338933E+03  0.45278338933E+03  0.00000000000E+00 0. -1.
         21    1    1    2  503  502 -0.29080672124E+02 -0.49107074199E+02  0.21360990766E+02  0.60938347155E+02  0.00000000000E+00 0.  1.
         21    1    1    2  504  505 -0.13945707992E+02  0.45906148117E+02 -0.31872205627E+03  0.32231290132E+03  0.00000000000E+00 0. -1.
         21    1    1    2  505  501  0.24435444552E+02  0.12886618004E+03 -0.66518697803E+02  0.14706570119E+03  0.00000000000E+00 0. -1.
         -1    1    1    2    0  503  0.18590935564E+02 -0.12566525396E+03  0.70395813788E+03  0.71532820357E+03  0.00000000000E+00 0. -1.
<scales pt_clust_3="52.49302" pt_clust_4="47.97767" pt_clust_5="14000.00000" pt_clust_6="126.89341"></scales>
<clustering>
<clus scale="   47.978">  2  4  1 -1</clus>
<clus scale="   52.493">  2  3  1 -1</clus>
<clus scale="  126.893">  1  6  2 -1</clus>
<clus scale="   47.978">  2  3  1 -1</clus>
</clustering>
</event>
<event>
 6    0  0.4796958E+002  0.1225654E+03  0.7546771E-02  0.1238924E+00
          2   -1    0    0  505    0 -0.00000000000E+00  0.00000000000E+00  0.96583189090E+03  0.96583189090E+03  0.00000000000E+00 0. -1.
         21   -1    0    0  504  502  0.00000000000E+00 -0.00000000000E+00 -0.41170169179E+02  0.41170169179E+02  0.00000000000E+00 0. -1.
         21    1    1    2  503  501  0.67414911586E+02 -0.71063445212E+02  0.35249451472E+03  0.36585129008E+03  0.00000000000E+00 0. -1.
         21    1    1    2  504  503 -0.38184150906E+02  0.90361164186E+02  0.62707607439E+02  0.11642771751E+03  0.00000000000E+00 0. -1.
         21    1    1    2  505  502 -0.32597166736E+02  0.44087589608E+02  0.15010341319E+03  0.15980402212E+03  0.00000000000E+00 0. -1.
          2    1    1    2  501    0  0.33664060560E+01 -0.63385308582E+02  0.35935618638E+03  0.36491903037E+03  0.00000000000E+00 0. -1.
<scales pt_clust_3="52.21522" pt_clust_4="103.99473" pt_clust_5="54.82965" pt_clust_6="52.21522"></scales>
<clustering>
<clus scale="   52.215">  3  6 -1 -1</clus>
<clus scale="   54.830">  1  5  2 -1</clus>
<clus scale="  103.995">  2  4  1 -1</clus>
<clus scale="  103.995">  2  3  1 -1</clus>
</clustering>
</event>
<event>
 6    0  0.4796958E+002  0.1287155E+03  0.7546771E-02  0.1229374E+00
          2   -1    0    0  503    0 -0.00000000000E+00  0.00000000000E+00  0.26049143012E+04  0.26049143012E+04  0.00000000000E+00 0.  1.
         21   -1    0    0  504  502  0.00000000000E+00 -0.00000000000E+00 -0.12283653006E+03  0.12283653006E+03  0.00000000000E+00 0. -1.
         21    1    1    2  503  505  0.28546703219E+02 -0.93573423144E+02  0.21796948292E+02  0.10022976972E+03  0.00000000000E+00 0. -1.
         21    1    1    2  504  501 -0.91157665196E+02  0.18496807508E+02  0.23686343720E+03  0.25447227687E+03  0.00000000000E+00 0. -1.
         21    1    1    2  505  502 -0.31484765727E+02 -0.18507951873E+02 -0.68321609520E+02  0.77470491691E+02  0.00000000000E+00 0. -1.
          2    1    1    2  501    0  0.94095727705E+02  0.93584567508E+02  0.22917389952E+04  0.22955782930E+04  0.00000000000E+00 0.  1.
<scales pt_clust_3="14000.00000" pt_clust_4="97.90087" pt_clust_5="36.52170" pt_clust_6="128.71548"></scales>
<clustering>
<clus scale="   36.522">  2  5  1 -1</clus>
<clus scale="   97.901">  2  4  1 -1</clus>
<clus scale="  128.715">  1  6  2 -1</clus>
<clus scale="   36.522">  2  3  1 -1</clus>
</clustering>
</event>
<event>
 6    0  0.4796958E+002  0.9268641E+02  0.7546771E-02  0.1296474E+00
          2   -1    0    0  503    0 -0.00000000000E+00  0.00000000000E+00  0.10793573057E+04  0.10793573057E+04  0.00000000000E+00 0. -1.
         21   -1    0    0  504  502  0.00000000000E+00 -0.00000000000E+00 -0.83389620819E+02  0.83389620819E+02  0.00000000000E+00 0.  1.
         21    1    1    2  503  505 -0.11504878600E+03 -0.15172207823E+02  0.16551647030E+03  0.20214381264E+03  0.00000000000E+00 0. -1.
         21    1    1    2  504  501  0.85069086297E+02  0.93401969232E+01  0.71313646740E+02  0.11139849610E+03  0.00000000000E+00 0. -1.
         21    1    1    2  505  502 -0.14057314168E+02  0.26590615576E+02 -0.39185697603E+02  0.49398257206E+02  0.00000000000E+00 0.  1.
          2    1    1    2  501    0  0.44037013866E+02 -0.20758604676E+02  0.79832326549E+03  0.79980636061E+03  0.00000000000E+00 0. -1.
<scales pt_clust_3="14000.00000" pt_clust_4="92.68641" pt_clust_5="30.07771" pt_clust_6="48.22948"></scales>
<clustering>
<clus scale="   30.078">  2  5  1 -1</clus>
<clus scale="   48.229">  1  6  2 -1</clus>
<clus scale="   92.686">  2  4  1 -1</clus>
<clus scale="   30.078">  2  3  1 -1</clus>
</clustering>
</event>
<event>
 6    0  0.4796958E+002  0.5612331E+02  0.7546771E-02  0.1414860E+00
         21   -1    0    0  504  502  0.00000000000E+00  0.00000000000E+00  0.10484124539E+03  0.10484124539E+03  0.00000000000E+00 0. -1.
          1   -1    0    0  503    0 -0.00000000000E+00 -0.00000000000E+00 -0.10129350197E+04  0.10129350197E+04  0.00000000000E+00 0.  1.
         21    1    1    2  503  505  0.79936826966E+02  0.35478900075E+02 -0.18956278168E+03  0.20876469254E+03  0.00000000000E+00 0. -1.
         21    1    1    2  504  501 -0.48268706709E+02  0.21061895018E+02  0.91826626328E+01  0.53458327341E+02  0.00000000000E+00 0. -1.
         21    1    1    2  505  502  0.21915231711E+02 -0.64792442764E+02  0.44395370102E+02  0.81543159780E+02  0.00000000000E+00 0. -1.
          1    1    1    2  501    0 -0.53583351968E+02  0.82516476712E+01 -0.77210902534E+03  0.77401008541E+03  0.00000000000E+00 0.  1.
<scales pt_clust_3="14000.00000" pt_clust_4="52.66376" pt_clust_5="50.62848" pt_clust_6="56.12331"></scales>
<clustering>
<clus scale="   52.664">  1  4  2 -1</clus>
<clus scale="   50.628">  1  5  2 -1</clus>
<clus scale="   56.123">  2  6  1 -1</clus>
<clus scale="   52.664">  1  3  2 -1</clus>
</clustering>
</event>
<event>
 6    0  0.4796958E+002  0.1138266E+03  0.7546771E-02  0.1253643E+00
         21   -1    0    0  503  502  0.00000000000E+00  0.00000000000E+00  0.20160744429E+03  0.20160744429E+03  0.00000000000E+00 0.  1.
          1   -1    0    0  504    0 -0.00000000000E+00 -0.00000000000E+00 -0.37067910100E+03  0.37067910100E+03  0.00000000000E+00 0.  1.
         21    1    1    2  503  505 -0.87383991389E+02 -0.21541731358E+02  0.72358894693E+02  0.11548081132E+03  0.00000000000E+00 0. -1.
         21    1    1    2  504  502  0.41833722454E+02  0.72133346062E+02 -0.18438249391E+02  0.85400521012E+02  0.00000000000E+00 0.  1.
         21    1    1    2  505  501 -0.46253514938E+02 -0.11871051091E+03 -0.76882894931E+01  0.12763495932E+03  0.00000000000E+00 0.  1.
          1    1    1    2  501    0  0.91803783873E+02  0.68118896209E+02 -0.21530401251E+03  0.24377025364E+03  0.00000000000E+00 0.  1.
<scales pt_clust_3="66.70511" pt_clust_4="83.38633" pt_clust_5="113.82657" pt_clust_6="14000.00000"></scales>
<clustering>
<clus scale="   83.386">  1  4  2 -1</clus>
<clus scale="   66.705">  1  3  2 -1</clus>
<clus scale="  113.827">  1  5  2 -1</clus>
<clus scale="   83.386">  1  3  2 -1</clus>
</clustering>
</event>
<event>
 6    0  0.4796958E+002  0.1325984E+03  0.7546771E-02  0.1223650E+00
          2   -1    0    0  504    0 -0.00000000000E+00  0.00000000000E+00  0.39641324106E+04  0.39641324106E+04  0.00000000000E+00 0.  1.
         21   -1    0    0  505  502  0.00000000000E+00 -0.00000000000E+00 -0.10951923001E+03  0.10951923001E+03  0.00000000000E+00 0.  1.
         21    1    1    2  503  501 -0.37091518286E+02 -0.72510823700E+02  0.19403672451E+03  0.21043728458E+03  0.00000000000E+00 0. -1.
         21    1    1    2  504  502  0.82636972095E+02 -0.13431204315E+02  0.68691842155E+02  0.10829513186E+03  0.00000000000E+00 0. -1.
         21    1    1    2  505  503  0.17538643924E+02 -0.36747480493E+02 -0.75053232281E+02  0.85387171338E+02  0.00000000000E+00 0.  1.
          2    1    1    2  501    0 -0.63084097734E+02  0.12268950851E+03  0.36669378462E+04  0.36695320528E+04  0.00000000000E+00 0.  1.
<scales pt_clust_3="88.83059" pt_clust_4="14000.00000" pt_clust_5="40.71832" pt_clust_6="132.59843"></scales>
<clustering>
<clus scale="   40.718">  2  5  1 -1</clus>
<clus scale="   88.831">  2  3  1 -1</clus>
<clus scale="  132.598">  1  6  2 -1</clus>
<clus scale="   40.718">  2  3  1 -1</clus>
</clustering>
</event>
<event>
 6    0  0.4796958E+002  0.6233060E+02  0.7546771E-02  0.1388304E+00
         21   -1    0    0  504  502  0.00000000000E+00  0.00000000000E+00  0.60086775315E+02  0.60086775315E+02  0.00000000000E+00 0. -1.
         -3   -1    0    0    0  501 -0.00000000000E+00 -0.00000000000E+00 -0.17469903578E+04  0.17469903578E+04  0.00000000000E+00 0.  1.
         21    1    1    2  503  502 -0.29039232520E+02 -0.38062482514E+02  0.42243950912E+02  0.63848108736E+02  0.00000000000E+00 0. -1.
         21    1    1    2  504  505  0.78922488145E+02  0.47556233313E+02 -0.49539034792E+03  0.50388684372E+03  0.00000000000E+00 0.  1.
         21    1    1    2  505  501 -0.54617725679E+02  0.37139723860E+02 -0.54415444965E+03  0.54814826472E+03  0.00000000000E+00 0.  1.
         -3    1    1    2    0  503  0.47344700539E+01 -0.46633474658E+02 -0.68960273587E+03  0.69119391597E+03  0.00000000000E+00 0.  1.
<scales pt_clust_3="48.22594" pt_clust_4="62.33060" pt_clust_5="14000.00000" pt_clust_6="46.87319"></scales>
<clustering>
<clus scale="   46.873">  2  6  1 -1</clus>
<clus scale="   48.226">  1  3  2 -1</clus>
<clus scale="   62.331">  1  4  2 -1</clus>
<clus scale="   48.226">  1  3  2 -1</clus>
</clustering>
</event>
<event>
 6    0  0.4796958E+002  0.1259917E+03  0.7546771E-02  0.1233528E+00
          2   -1    0    0  504    0 -0.00000000000E+00  0.00000000000E+00  0.39312128020E+04  0.39312128020E+04  0.00000000000E+00 0.  1.
         21   -1    0    0  501  502  0.00000000000E+00 -0.00000000000E+00 -0.25393914779E+02  0.25393914779E+02  0.00000000000E+00 0.  1.
         21    1    1    2  503  502 -0.32226653685E+02  0.85112183142E+01  0.13013615539E+02  0.35782009926E+02  0.00000000000E+00 0.  1.
         21    1    1    2  504  505  0.19211961371E+02  0.12616574545E+03  0.31511255181E+04  0.31537087573E+04  0.00000000000E+00 0.  1.
         21    1    1    2  505  503  0.57396521110E+02 -0.27547814368E+02  0.42760456748E+03  0.43231806444E+03  0.00000000000E+00 0.  1.
          2    1    1    2  501    0 -0.44381828796E+02 -0.10712914939E+03  0.31407518605E+03  0.33479788511E+03  0.00000000000E+00 0.  1.
<scales pt_clust_3="33.33164" pt_clust_4="14000.00000" pt_clust_5="58.16766" pt_clust_6="125.99167"></scales>
<clustering>
<clus scale="   33.332">  2  3  1 -1</clus>
<clus scale="   58.168">  2  5  1 -1</clus>
<clus scale="  125.992">  2  6  1 -1</clus>
<clus scale="   33.332">  2  3  1 -1</clus>
</clustering>
</event>
<event>
 6    0  0.4796958E+002  0.1011263E+03  0.7546771E-02  0.1277945E+00
         21   -1    0    0  503  502  0.00000000000E+00  0.00000000000E+00  0.41353365850E+03  0.41353365850E+03  0.00000000000E+00 0.  1.
          2   -1    0    0  504    0 -0.00000000000E+00 -0.00000000000E+00 -0.15772399393E+04  0.15772399393E+04  0.00000000000E+00 0.  1.
         21    1    1    2  503  501 -0.57814433679E+02 -0.56814154263E+02  0.17385692425E+02  0.82901261555E+02  0.00000000000E+00 0.  1.
         21    1    1    2  504  505 -0.31315886346E+02  0.62214988918E+01 -0.52618925468E+02  0.61547892763E+02  0.00000000000E+00 0. -1.
         21    1    1    2  505  502  0.56957918718E+02 -0.49625881742E+02  0.35306277299E+03  0.36105436477E+03  0.00000000000E+00 0.  1.
          2    1    1    2  501    0  0.32172401308E+02  0.10021853711E+03 -0.14815358208E+04  0.14852700787E+04  0.00000000000E+00 0.  1.
<scales pt_clust_3="14000.00000" pt_clust_4="31.92792" pt_clust_5="75.47145" pt_clust_6="101.12627"></scales>
<clustering>
<clus scale="   31.928">  2  4  1 -1</clus>
<clus scale="   75.471">  1  5  2 -1</clus>
<clus scale="  101.126">  2  6  1 -1</clus>
<clus scale="   75.471">  1  3  2 -1</clus>
</clustering>
</event>
<event>
 6    0  0.4796958E+002  0.8539199E+02  0.7546771E-02  0.1314411E+00
         21   -1    0    0  503  502  0.00000000000E+00  0.00000000000E+00  0.18394453732E+04  0.18394453732E+04  0.00000000000E+00 0. -1.
          1   -1    0    0  505    0 -0.00000000000E+00 -0.00000000000E+00 -0.81775430131E+03  0.81775430131E+03  0.00000000000E+00 0.  1.
         21    1    1    2  503  501 -0.22199976686E+02 -0.60433943829E+02  0.35916151973E+02  0.73722930653E+02  0.00000000000E+00 0. -1.
         21    1    1    2  504  502 -0.57673604401E+02  0.19921667373E+02  0.17704518367E+04  0.17715029843E+04  0.00000000000E+00 0. -1.
         21    1    1    2  505  504  0.11458959498E+03  0.88325248726E+02 -0.62989940175E+03  0.64630130834E+03  0.00000000000E+00 0.  1.
          1    1    1    2  501    0 -0.34716013890E+02 -0.47812972271E+02 -0.15477751501E+03  0.16567245121E+03  0.00000000000E+00 0.  1.
<scales pt_clust_3="85.39199" pt_clust_4="61.03112" pt_clust_5="14000.00000" pt_clust_6="59.08707"></scales>
<clustering>
<clus scale="   59.087">  2  6  1 -1</clus>
<clus scale="   61.031">  1  4  2 -1</clus>
<clus scale="   85.392">  1  3  2 -1</clus>
<clus scale="   61.031">  1  3  2 -1</clus>
</clustering>
</event>
<event>
 6    0  0.4796958E+002  0.8038289E+02  0.7546771E-02  0.1327968E+00
          2   -1    0    0  504    0 -0.00000000000E+00  0.00000000000E+00  0.15789658022E+04  0.15789658022E+04  0.00000000000E+00 0.  1.
         21   -1    0    0  503  502  0.00000000000E+00 -0.00000000000E+00 -0.12178616405E+03  0.12178616405E+03  0.00000000000E+00 0. -1.
         21    1    1    2  503  505  0.16398240151E+02  0.27489814187E+02  0.21816353582E+02  0.38736874521E+02  0.00000000000E+00 0. -1.
         21    1    1    2  504  502 -0.60816566907E+02 -0.70473189455E+02 -0.57570821629E+02  0.10945101528E+03  0.00000000000E+00 0. -1.
         21    1    1    2  505  501 -0.36181084712E+02  0.46419166571E+02  0.14214414004E+01  0.58871303806E+02  0.00000000000E+00 0. -1.
          2    1    1    2  501    0  0.80599411468E+02 -0.34357913030E+01  0.14915126648E+04  0.14936927727E+04  0.00000000000E+00 0.  1.
<scales pt_clust_3="32.00925" pt_clust_4="80.38289" pt_clust_5="62.25554" pt_clust_6="14000.00000"></scales>
<clustering>
<clus scale="   32.009">  2  3  1 -1</clus>
<clus scale="   62.256">  2  5  1 -1</clus>
<clus scale="   80.383">  2  4  1 -1</clus>
<clus scale="   32.009">  2  3  1 -1</clus>
</clustering>
</event>
<event>
 6    0  0.4796958E+002  0.1249029E+03  0.7546771E-02  0.1235221E+00
         -2   -1    0    0    0  501 -0.00000000000E+00  0.00000000000E+00  0.85371563862E+02  0.85371563862E+02  0.00000000000E+00 0. -1.
         21   -1    0    0  503  502  0.00000000000E+00 -0.00000000000E+00 -0.65278150156E+03  0.65278150156E+03  0.00000000000E+00 0. -1.
         21    1    1    2  503  505 -0.62220400688E+02 -0.64353513941E+02 -0.62245397219E+02  0.10902863153E+03  0.00000000000E+00 0. -1.
         21    1    1    2  504  502  0.13134825886E+03  0.54509465670E+02 -0.50556355248E+03  0.52518392260E+03  0.00000000000E+00 0. -1.
         21    1    1    2  505  501 -0.13948341522E+02  0.34449387925E+02 -0.17284802980E+02  0.40988790830E+02  0.00000000000E+00 0.  1.
         -2    1    1    2    0  504 -0.55179516654E+02 -0.24605339655E+02  0.17683814981E+02  0.62951720469E+02  0.00000000000E+00 0. -1.
<scales pt_clust_3="124.90292" pt_clust_4="14000.00000" pt_clust_5="37.16607" pt_clust_6="63.08797"></scales>
<clustering>
<clus scale="   37.166">  1  5  2 -1</clus>
<clus scale="   63.088">  1  6  2 -1</clus>
<clus scale="  124.903">  1  3  2 -1</clus>
<clus scale="  124.903">  2  3  1 -1</clus>
</clustering>
</event>
<event>
 6    0  0.4796958E+002  0.6876783E+02  0.7546771E-02  0.1364334E+00
         21   -1    0    0  504  502  0.00000000000E+00  0.00000000000E+00  0.10878966110E+03  0.10878966110E+03  0.00000000000E+00 0.  1.
          2   -1    0    0  505    0 -0.00000000000E+00 -0.00000000000E+00 -0.39108408066E+03  0.39108408066E+03  0.00000000000E+00 0. -1.
         21    1    1    2  503  501 -0.67287780805E+02 -0.71865000303E+02 -0.99033456567E+02  0.13964186061E+03  0.00000000000E+00 0.  1.
         21    1    1    2  504  503  0.23668508613E+02  0.29798988758E+02  0.58659454312E+02  0.69922168239E+02  0.00000000000E+00 0.  1.
         21    1    1    2  505  502 -0.25306214704E+02  0.55547470058E+02 -0.31932482853E+02  0.68888383590E+02  0.00000000000E+00 0. -1.
          2    1    1    2  501    0  0.68925486897E+02 -0.13481458514E+02 -0.20998793445E+03  0.22142132933E+03  0.00000000000E+00 0. -1.
<scales pt_clust_3="68.76783" pt_clust_4="38.05493" pt_clust_5="69.66261" pt_clust_6="14000.00000"></scales>
<clustering>
<clus scale="   38.055">  1  4  2 -1</clus>
<clus scale="   69.663">  1  5  2 -1</clus>
<clus scale="   68.768">  1  3  2 -1</clus>
<clus scale="   38.055">  1  3  2 -1</clus>
</clustering>
</event>
<event>
 6    0  0.4796958E+002  0.1025413E+03  0.7546771E-02  0.1275041E+00
          2   -1    0    0  503    0 -0.00000000000E+00  0.00000000000E+00  0.19600411252E+04  0.19600411252E+04  0.00000000000E+00 0.  1.
         21   -1    0    0  501  502  0.00000000000E+00 -0.00000000000E+00 -0.60290873309E+02  0.60290873309E+02  0.00000000000E+00 0.  1.
         21    1    1    2  503  505  0.24372831108E+02  0.11983126053E+03  0.39586697783E+03  0.41432382267E+03  0.00000000000E+00 0.  1.
         21    1    1    2  504  502 -0.13984205922E+01 -0.50153375518E+02 -0.19068930895E+02  0.53674395959E+02  0.00000000000E+00 0.  1.
         21    1    1    2  505  504  0.18416016645E+01 -0.42782592663E+02  0.17216659338E+02  0.46153603223E+02  0.00000000000E+00 0.  1.
          2    1    1    2  501    0 -0.24816012180E+02 -0.26895292350E+02  0.15057355456E+04  0.15061801766E+04  0.00000000000E+00 0.  1.
<scales pt_clust_3="95.86355" pt_clust_4="33.62737" pt_clust_5="33.62737" pt_clust_6="36.59496"></scales>
<clustering>
<clus scale="   33.627">  4  5 -1 -1</clus>
<clus scale="   36.595">  1  6  2 -1</clus>
<clus scale="   95.864">  1  3  2 -1</clus>
<clus scale="  102.541">  2  3  1 -1</clus>
</clustering>
</event>
<event>
 6    0  0.4796958E+002  0.1225465E+03  0.7546771E-02  0.1238954E+00
         21   -1    0    0  503  502  0.00000000000E+00  0.00000000000E+00  0.30762306935E+03  0.30762306935E+03  0.00000000000E+00 0.  1.
          2   -1    0    0  502    0 -0.00000000000E+00 -0.00000000000E+00 -0.68909868719E+03  0.68909868719E+03  0.00000000000E+00 0. -1.
         21    1    1    2  503  504  0.63392817354E+02  0.97889400818E+02  0.23073694252E+03  0.25853533748E+03  0.00000000000E+00 0.  1.
         21    1    1    2  504  505 -0.13103647712E+03 -0.14517031404E+03 -0.10869839829E+03  0.22374163717E+03  0.00000000000E+00 0.  1.
         21    1    1    2  505  501  0.49275699558E+02  0.85216368781E+01 -0.14514487419E+03  0.15351790568E+03  0.00000000000E+00 0.  1.
          2    1    1    2  501    0  0.18367960203E+02  0.38759276348E+02 -0.35836928788E+03  0.36092687620E+03  0.00000000000E+00 0. -1.
<scales pt_clust_3="122.54649" pt_clust_4="14000.00000" pt_clust_5="63.23466" pt_clust_6="42.89130"></scales>
<clustering>
<clus scale="   42.891">  2  6  1 -1</clus>
<clus scale="   63.235">  2  5  1 -1</clus>
<clus scale="  122.546">  1  3  2 -1</clus>
<clus scale="  122.546">  1  3  2 -1</clus>
</clustering>
</event>
<event>
 6    0  0.4796958E+002  0.8280838E+02  0.7546771E-02  0.1321265E+00
         21   -1    0    0  501  502  0.00000000000E+00  0.00000000000E+00  0.53756495144E+03  0.53756495144E+03  0.00000000000E+00 0.  1.
          2   -1    0    0  504    0 -0.00000000000E+00 -0.00000000000E+00 -0.73364306665E+03  0.73364306665E+03  0.00000000000E+00 0. -1.
         21    1    1    2  503  502 -0.64021709827E+02  0.17675360691E+02  0.20697173605E+03  0.21736719446E+03  0.00000000000E+00 0.  1.
         21    1    1    2  504  505 -0.18097182525E+01  0.30844315180E+02 -0.99940553743E+02  0.10460765336E+03  0.00000000000E+00 0.  1.
         21    1    1    2  505  503  0.11588078030E+03 -0.15408480202E+02  0.31097600631E+03  0.33222259556E+03  0.00000000000E+00 0.  1.
          2    1    1    2  501    0 -0.50049352216E+02 -0.33111195669E+02 -0.61408530382E+03  0.61701057471E+03  0.00000000000E+00 0. -1.
<scales pt_clust_3="82.80838" pt_clust_4="30.89736" pt_clust_5="14000.00000" pt_clust_6="51.90281"></scales>
<clustering>
<clus scale="   30.897">  2  4  1 -1</clus>
<clus scale="   51.903">  2  6  1 -1</clus>
<clus scale="   82.808">  1  3  2 -1</clus>
<clus scale="   82.808">  1  3  2 -1</clus>
</clustering>
</event>
<event>
 6    0  0.4796958E+002  0.1098112E+03  0.7546771E-02  0.1260920E+00
         21   -1    0    0  503  502  0.00000000000E+00  0.00000000000E+00  0.17472587725E+03  0.17472587725E+03  0.00000000000E+00 0. -1.
          1   -1    0    0  504    0 -0.00000000000E+00 -0.00000000000E+00 -0.47729603799E+03  0.47729603799E+03  0.00000000000E+00 0. -1.
         21    1    1    2  503  505 -0.27922536619E+02  0.36707870538E+02  0.50819516061E+01  0.46400022013E+02  0.00000000000E+00 0. -1.
         21    1    1    2  504  502 -0.58875665685E+02 -0.42004242896E+02  0.99302954454E+02  0.12284859460E+03  0.00000000000E+00 0. -1.
         21    1    1    2  505  501  0.90226071153E+01 -0.92065812997E+02 -0.50995180091E+02  0.10563157556E+03  0.00000000000E+00 0.  1.
          1    1    1    2  501    0  0.77775595189E+02  0.97362185355E+02 -0.35595988671E+03  0.37714172308E+03  0.00000000000E+00 0. -1.
<scales pt_clust_3="46.12088" pt_clust_4="81.02628" pt_clust_5="109.81125" pt_clust_6="14000.00000"></scales>
<clustering>
<clus scale="   46.121">  1  3  2 -1</clus>
<clus scale="   81.026">  1  4  2 -1</clus>
<clus scale="  109.811">  1  5  2 -1</clus>
<clus scale="   46.121">  1  3  2 -1</clus>
</clustering>
</event>
<event>
 6    0  0.4796958E+002  0.9513905E+02  0.7546771E-02  0.1290863E+00
          1   -1    0    0  503    0 -0.00000000000E+00  0.00000000000E+00  0.12568139258E+04  0.12568139258E+04  0.00000000000E+00 0. -1.
         21   -1    0    0  501  502  0.00000000000E+00 -0.00000000000E+00 -0.42188686558E+02  0.42188686558E+02  0.00000000000E+00 0.  1.
         21    1    1    2  503  504 -0.55441852914E+02 -0.85017126509E+02  0.64413631187E+03  0.65208381296E+03  0.00000000000E+00 0. -1.
         21    1    1    2  504  505  0.54601246205E+02  0.48805288963E+02  0.69382501989E+02  0.10088202962E+03  0.00000000000E+00 0.  1.
         21    1    1    2  505  502 -0.36761623739E+02  0.58433476763E+02  0.34110415330E+02  0.77002653334E+02  0.00000000000E+00 0.  1.
          1    1    1    2  501    0  0.37602230448E+02 -0.22221639217E+02  0.46699601006E+03  0.46903411645E+03  0.00000000000E+00 0. -1.
<scales pt_clust_3="14000.00000" pt_clust_4="95.13905" pt_clust_5="66.31533" pt_clust_6="43.67756"></scales>
<clustering>
<clus scale="   43.678">  1  6  2 -1</clus>
<clus scale="   66.315">  2  5  1 -1</clus>
<clus scale="   95.139">  2  4  1 -1</clus>
<clus scale="   66.315">  2  3  1 -1</clus>
</clustering>
</event>
<event>
 6    0  0.4796958E+002  0.1300826E+03  0.7546771E-02  0.1227333E+00
         21   -1    0    0  505  502  0.00000000000E+00  0.00000000000E+00  0.25130082745E+03  0.25130082745E+03  0.00000000000E+00 0. -1.
          2   -1    0    0  504    0 -0.00000000000E+00 -0.00000000000E+00 -0.22545402427E+04  0.22545402427E+04  0.00000000000E+00 0.  1.
         21    1    1    2  503  501  0.27897283285E+02 -0.56609527535E+02 -0.23789031005E+03  0.24611927320E+03  0.00000000000E+00 0. -1.
         21    1    1    2  504  502  0.12638280746E+03  0.92920065151E+02 -0.20986763515E+03  0.26201369585E+03  0.00000000000E+00 0. -1.
         21    1    1    2  505  503 -0.12978185283E+03 -0.54574441956E+01  0.20179601839E+03  0.23998905404E+03  0.00000000000E+00 0. -1.
          2    1    1    2  501    0 -0.24498237920E+02 -0.30853093420E+02 -0.17572774885E+04  0.17577190471E+04  0.00000000000E+00 0.  1.
<scales pt_clust_3="73.39009" pt_clust_4="130.08261" pt_clust_5="14000.00000" pt_clust_6="39.39641"></scales>
<clustering>
<clus scale="   39.396">  2  6  1 -1</clus>
<clus scale="   73.390">  2  3  1 -1</clus>
<clus scale="  130.083">  2  4  1 -1</clus>
<clus scale="  130.083">  1  3  2 -1</clus>
</clustering>
</event>
<event>
 6    0  0.4796958E+002  0.9940513E+02  0.7546771E-02  0.1281552E+00
         21   -1    0    0  503  502  0.00000000000E+00  0.00000000000E+00  0.87427662534E+02  0.87427662534E+02  0.00000000000E+00 0. -1.
         -1   -1    0    0    0  501 -0.00000000000E+00 -0.00000000000E+00 -0.46974719277E+03  0.46974719277E+03  0.00000000000E+00 0. -1.
         21    1    1    2  503  505 -0.67859056888E+02  0.95893964885E+02 -0.36858064890E+02  0.12312197631E+03  0.00000000000E+00 0. -1.
         21    1    1    2  504  502  0.31134388111E+02 -0.83474751612E+02 -0.13358765517E+02  0.90087961992E+02  0.00000000000E+00 0. -1.
         21    1    1    2  505  501  0.23499627536E+02  0.18885987880E+02 -0.41031742077E+02  0.50916764336E+02  0.00000000000E+00 0. -1.
         -1    1    1    2    0  504  0.13225041241E+02 -0.31305201152E+02 -0.29107095775E+03  0.29304815266E+03  0.00000000000E+00 0. -1.
<scales pt_clust_3="99.40513" pt_clust_4="14000.00000" pt_clust_5="30.14818" pt_clust_6="34.64207"></scales>
<clustering>
<clus scale="   30.148">  2  5  1 -1</clus>
<clus scale="   34.642">  2  6  1 -1</clus>
<clus scale="   99.405">  2  3  1 -1</clus>
<clus scale="   99.405">  1  3  2 -1</clus>
</clustering>
</event>
<event>
 6    0  0.4796958E+002  0.2300558E+03  0.7546771E-02  0.1126601E+00
         21   -1    0    0  505  502  0.00000000000E+00  0.00000000000E+00  0.86245455826E+02  0.86245455826E+02  0.00000000000E+00 0. -1.
          2   -1    0    0  503    0 -0.00000000000E+00 -0.00000000000E+00 -0.23417626802E+04  0.23417626802E+04  0.00000000000E+00 0. -1.
         21    1    1    2  503  502 -0.67504908897E+02 -0.27881589568E+03 -0.34013674282E+03  0.44495867249E+03  0.00000000000E+00 0. -1.
         21    1    1    2  504  501 -0.12527625518E+02  0.98007969540E+02 -0.25851001386E+03  0.27674885864E+03  0.00000000000E+00 0.  1.
         21    1    1    2  505  504 -0.29821189430E+02 -0.13564729455E+02  0.16660590136E+01  0.32803673222E+02  0.00000000000E+00 0. -1.
          2    1    1    2  501    0  0.10985372384E+03  0.19437265559E+03 -0.16585365267E+04  0.16734969317E+04  0.00000000000E+00 0. -1.
<scales pt_clust_3="230.05579" pt_clust_4="97.61465" pt_clust_5="32.76134" pt_clust_6="14000.00000"></scales>
<clustering>
<clus scale="   32.761">  1  5  2 -1</clus>
<clus scale="   97.615">  1  4  2 -1</clus>
<clus scale="  230.056">  1  3  2 -1</clus>
<clus scale="   32.761">  1  3  2 -1</clus>
</clustering>
</event>
<event>
 6    0  0.4796958E+002  0.1197114E+03  0.7546771E-02  0.1243574E+00
         21   -1    0    0  501  502  0.00000000000E+00  0.00000000000E+00  0.56214497112E+03  0.56214497112E+03  0.00000000000E+00 0. -1.
          1   -1    0    0  503    0 -0.00000000000E+00 -0.00000000000E+00 -0.30092376964E+04  0.30092376964E+04  0.00000000000E+00 0.  1.
         21    1    1    2  503  505  0.41065715074E+02  0.77218847634E+02 -0.13729112646E+04  0.13756941826E+04  0.00000000000E+00 0.  1.
         21    1    1    2  504  502  0.89723994735E+00  0.97046979737E+02  0.48494416727E+03  0.49456017499E+03  0.00000000000E+00 0. -1.
         21    1    1    2  505  504 -0.11630808928E+03 -0.13612411248E+03 -0.44887721254E+02  0.18458670903E+03  0.00000000000E+00 0.  1.
          1    1    1    2  501    0  0.74345134263E+02 -0.38141714894E+02 -0.15142379067E+04  0.15165416009E+04  0.00000000000E+00 0.  1.
<scales pt_clust_3="119.71145" pt_clust_4="96.93088" pt_clust_5="14000.00000" pt_clust_6="83.55830"></scales>
<clustering>
<clus scale="   83.558">  2  6  1 -1</clus>
<clus scale="   96.931">  1  4  2 -1</clus>
<clus scale="  119.711">  2  3  1 -1</clus>
<clus scale="   96.931">  1  3  2 -1</clus>
</clustering>
</event>
<event>
 6    0  0.4796958E+002  0.7226046E+02  0.7546771E-02  0.1352571E+00
         -3   -1    0    0    0  501 -0.00000000000E+00  0.00000000000E+00  0.42327466097E+03  0.42327466097E+03  0.00000000000E+00 0. -1.
         21   -1    0    0  503  502  0.00000000000E+00 -0.00000000000E+00 -0.72535920887E+03  0.72535920887E+03  0.00000000000E+00 0. -1.
         21    1    1    2  503  505  0.59449563341E+02  0.14094383689E+02  0.96458232904E+01  0.61854216833E+02  0.00000000000E+00 0. -1.
         21    1    1    2  504  502 -0.39939370121E+02  0.42753538389E+02 -0.64877061390E+03  0.65140335261E+03  0.00000000000E+00 0. -1.
         21    1    1    2  505  501 -0.73335460886E+02 -0.67720149439E+02  0.62030872086E+01  0.10001293294E+03  0.00000000000E+00 0. -1.
         -3    1    1    2    0  504  0.53825267666E+02  0.10872227361E+02  0.33083715551E+03  0.33536336746E+03  0.00000000000E+00 0. -1.
<scales pt_clust_3="72.26046" pt_clust_4="58.09017" pt_clust_5="14000.00000" pt_clust_6="54.91234"></scales>
<clustering>
<clus scale="   54.912">  1  6  2 -1</clus>
<clus scale="   58.090">  2  4  1 -1</clus>
<clus scale="   72.260">  2  3  1 -1</clus>
<clus scale="   58.090">  2  3  1 -1</clus>
</clustering>
</event>
<event>
 6    0  0.4796958E+002  0.9446463E+02  0.7546771E-02  0.1292386E+00
         -1   -1    0    0    0  501 -0.00000000000E+00  0.00000000000E+00  0.41735524312E+03  0.41735524312E+03  0.00000000000E+00 0. -1.
         21   -1    0    0  504  502  0.00000000000E+00 -0.00000000000E+00 -0.72923768654E+03  0.72923768654E+03  0.00000000000E+00 0. -1.
         21    1    1    2  503  502 -0.27874138467E+02 -0.74684569226E+02 -0.26112354144E+03  0.27302061529E+03  0.00000000000E+00 0.  1.
         21    1    1    2  504  505  0.29823276217E+02 -0.22648012897E+02 -0.43942834718E+03  0.44102112489E+03  0.00000000000E+00 0. -1.
         21    1    1    2  505  501  0.37244428426E+02  0.83956014385E+02  0.82082751976E+02  0.12318010380E+03  0.00000000000E+00 0. -1.
         -1    1    1    2    0  503 -0.39193566176E+02  0.13376567738E+02  0.30658669322E+03  0.30937108568E+03  0.00000000000E+00 0. -1.
<scales pt_clust_3="94.46463" pt_clust_4="37.44810" pt_clust_5="14000.00000" pt_clust_6="41.24222"></scales>
<clustering>
<clus scale="   37.448">  2  4  1 -1</clus>
<clus scale="   41.242">  1  6  2 -1</clus>
<clus scale="   94.465">  2  3  1 -1</clus>
<clus scale="   37.448">  2  3  1 -1</clus>
</clustering>
</event>
<event>
 6    0  0.4796958E+002  0.7692836E+02  0.7546771E-02  0.1338001E+00
          2   -1    0    0  503    0 -0.00000000000E+00  0.00000000000E+00  0.11882814596E+04  0.11882814596E+04  0.00000000000E+00 0. -1.
         21   -1    0    0  505  502  0.00000000000E+00 -0.00000000000E+00 -0.40886603378E+03  0.40886603378E+03  0.00000000000E+00 0.  1.
         21    1    1    2  503  502  0.50607112045E+01 -0.47499760325E+02  0.72699781664E+02  0.86989058409E+02  0.00000000000E+00 0. -1.
         21    1    1    2  504  501  0.62810683464E+02  0.90835567601E+02  0.36865716805E+03  0.38484333157E+03  0.00000000000E+00 0. -1.
         21    1    1    2  505  504 -0.59508311252E+01 -0.51622077174E+02 -0.39057085106E+03  0.39401248830E+03  0.00000000000E+00 0.  1.
          2    1    1    2  501    0 -0.61920563544E+02  0.82862698974E+01  0.72862932711E+03  0.73130261506E+03  0.00000000000E+00 0. -1.
<scales pt_clust_3="47.76859" pt_clust_4="14000.00000" pt_clust_5="52.03630" pt_clust_6="76.92836"></scales>
<clustering>
<clus scale="   47.769">  1  3  2 -1</clus>
<clus scale="   52.036">  2  5  1 -1</clus>
<clus scale="   76.928">  1  6  2 -1</clus>
<clus scale="   52.036">  2  3  1 -1</clus>
</clustering>
</event>
<event>
 6    0  0.4796958E+002  0.1044922E+03  0.7546771E-02  0.1271123E+00
         -2   -1    0    0    0  501 -0.00000000000E+00  0.00000000000E+00  0.43423134577E+03  0.43423134577E+03  0.00000000000E+00 0.  1.
         21   -1    0    0  504  502  0.00000000000E+00 -0.00000000000E+00 -0.12718609480E+03  0.12718609480E+03  0.00000000000E+00 0.  1.
         21    1    1    2  503  501 -0.10025167336E+03  0.31080883113E+02 -0.52508180752E+02  0.11736067635E+03  0.00000000000E+00 0.  1.
         21    1    1    2  504  503 -0.19079972985E+02 -0.27275715962E+02 -0.11052488814E+02  0.35073744587E+02  0.00000000000E+00 0.  1.
         21    1    1    2  505  502  0.68028469826E+02  0.59089002194E+02  0.16625309908E+03  0.18910176054E+03  0.00000000000E+00 0.  1.
         -2    1    1    2    0  505  0.51303176520E+02 -0.62894169344E+02  0.20435282146E+03  0.21988125909E+03  0.00000000000E+00 0.  1.
<scales pt_clust_3="104.49222" pt_clust_4="33.28678" pt_clust_5="14000.00000" pt_clust_6="81.87618"></scales>
<clustering>
<clus scale="   33.287">  2  4  1 -1</clus>
<clus scale="   81.876">  1  6  2 -1</clus>
<clus scale="  104.492">  2  3  1 -1</clus>
<clus scale="   33.287">  2  3  1 -1</clus>
</clustering>
</event>
<event>
 6    0  0.4796958E+002  0.7096036E+02  0.7546771E-02  0.1356857E+00
          2   -1    0    0  503    0 -0.00000000000E+00  0.00000000000E+00  0.66231604230E+03  0.66231604230E+03  0.00000000000E+00 0. -1.
         21   -1    0    0  504  502  0.00000000000E+00 -0.00000000000E+00 -0.37711013313E+03  0.37711013313E+03  0.00000000000E+00 0. -1.
         21    1    1    2  503  502  0.77980898584E+02  0.46359106490E+02 -0.31710482471E+03  0.32982670776E+03  0.00000000000E+00 0. -1.
         21    1    1    2  504  505 -0.30774486868E+02 -0.42783006674E+01 -0.91089154606E+01  0.32378159914E+02  0.00000000000E+00 0. -1.
         21    1    1    2  505  501 -0.52109043278E+02 -0.10152864395E+03  0.72919938949E+02  0.13542797137E+03  0.00000000000E+00 0. -1.
          2    1    1    2  501    0  0.49026315612E+01  0.59447838127E+02  0.53849971039E+03  0.54179333638E+03  0.00000000000E+00 0. -1.
<scales pt_clust_3="70.96036" pt_clust_4="31.07045" pt_clust_5="14000.00000" pt_clust_6="59.61843"></scales>
<clustering>
<clus scale="   31.070">  2  4  1 -1</clus>
<clus scale="   59.618">  1  6  2 -1</clus>
<clus scale="   70.960">  2  3  1 -1</clus>
<clus scale="   31.070">  2  3  1 -1</clus>
</clustering>
</event>
<event>
 6    0  0.4796958E+002  0.9504390E+02  0.7546771E-02  0.1291077E+00
         21   -1    0    0  501  502  0.00000000000E+00  0.00000000000E+00  0.83980771803E+02  0.83980771803E+02  0.00000000000E+00 0. -1.
          2   -1    0    0  504    0 -0.00000000000E+00 -0.00000000000E+00 -0.10703271502E+04  0.10703271502E+04  0.00000000000E+00 0.  1.
         21    1    1    2  503  502  0.76157287492E+02 -0.75231131786E+02  0.10598173009E+02  0.10757312350E+03  0.00000000000E+00 0. -1.
         21    1    1    2  504  505 -0.18395620109E+02 -0.27204484316E+02 -0.94540660835E+02  0.10008206311E+03  0.00000000000E+00 0.  1.
         21    1    1    2  505  503 -0.51885619951E+02  0.57916917029E+02 -0.48661449400E+02  0.91730166758E+02  0.00000000000E+00 0. -1.
          2    1    1    2  501    0 -0.58760474321E+01  0.44518699073E+02 -0.85374244113E+03  0.85492256859E+03  0.00000000000E+00 0.  1.
<scales pt_clust_3="14000.00000" pt_clust_4="32.84026" pt_clust_5="95.04390" pt_clust_6="30.18155"></scales>
<clustering>
<clus scale="   32.840">  2  4  1 -1</clus>
<clus scale="   30.182">  2  6  1 -1</clus>
<clus scale="   95.044">  2  5  1 -1</clus>
<clus scale="   95.044">  1  3  2 -1</clus>
</clustering>
</event>
<event>
 6    0  0.4796958E+002  0.9897193E+02  0.7546771E-02  0.1282473E+00
         21   -1    0    0  505  502  0.00000000000E+00  0.00000000000E+00  0.43481466980E+02  0.43481466980E+02  0.00000000000E+00 0.  1.
          2   -1    0    0  504    0 -0.00000000000E+00 -0.00000000000E+00 -0.85240165105E+03  0.85240165105E+03  0.00000000000E+00 0. -1.
         21    1    1    2  503  502  0.15573844996E+02  0.75309904351E+02 -0.12317258593E+03  0.14520885739E+03  0.00000000000E+00 0.  1.
         21    1    1    2  504  503  0.40771745545E+02 -0.13046822684E+03 -0.20194544867E+03  0.24385704355E+03  0.00000000000E+00 0.  1.
         21    1    1    2  505  501 -0.39370248238E+02  0.99570380775E+01 -0.30088961254E+02  0.50542107622E+02  0.00000000000E+00 0.  1.
          2    1    1    2  501    0 -0.16975342303E+02  0.45201284407E+02 -0.45371318821E+03  0.45627510947E+03  0.00000000000E+00 0. -1.
<scales pt_clust_3="98.97193" pt_clust_4="14000.00000" pt_clust_5="40.60984" pt_clust_6="49.19274"></scales>
<clustering>
<clus scale="   40.610">  1  5  2 -1</clus>
<clus scale="   49.193">  2  6  1 -1</clus>
<clus scale="   98.972">  1  3  2 -1</clus>
<clus scale="   40.610">  1  3  2 -1</clus>
</clustering>
</event>
<event>
 6    0  0.4796958E+002  0.3009711E+03  0.7546771E-02  0.1084756E+00
         21   -1    0    0  505  502  0.00000000000E+00  0.00000000000E+00  0.39589530894E+03  0.39589530894E+03  0.00000000000E+00 0.  1.
          2   -1    0    0  504    0 -0.00000000000E+00 -0.00000000000E+00 -0.23489381379E+04  0.23489381379E+04  0.00000000000E+00 0. -1.
         21    1    1    2  503  502  0.12034018478E+02  0.13313639484E+03  0.20775619493E+03  0.24704807986E+03  0.00000000000E+00 0.  1.
         21    1    1    2  504  503  0.26754042369E+03  0.48202638986E+02  0.19028168468E+02  0.27251319951E+03  0.00000000000E+00 0.  1.
         21    1    1    2  505  501 -0.43648330329E+02  0.12824319263E+02 -0.31521975542E+02  0.55346859415E+02  0.00000000000E+00 0.  1.
          2    1    1    2  501    0 -0.23592611184E+03 -0.19416335309E+03 -0.21483052169E+04  0.21699253081E+04  0.00000000000E+00 0. -1.
<scales pt_clust_3="141.40770" pt_clust_4="300.97108" pt_clust_5="45.49330" pt_clust_6="14000.00000"></scales>
<clustering>
<clus scale="   45.493">  1  5  2 -1</clus>
<clus scale="  141.408">  1  3  2 -1</clus>
<clus scale="  300.971">  1  4  2 -1</clus>
<clus scale="   45.493">  1  3  2 -1</clus>
</clustering>
</event>
<event>
 6    0  0.4796958E+002  0.1410550E+03  0.7546771E-02  0.1211916E+00
          2   -1    0    0  504    0 -0.00000000000E+00  0.00000000000E+00  0.10606541822E+04  0.10606541822E+04  0.00000000000E+00 0. -1.
         21   -1    0    0  503  502  0.00000000000E+00 -0.00000000000E+00 -0.29047508583E+03  0.29047508583E+03  0.00000000000E+00 0. -1.
         21    1    1    2  503  505  0.41797942731E+02 -0.14960022032E+02 -0.18056064775E+03  0.18593820961E+03  0.00000000000E+00 0. -1.
         21    1    1    2  504  502 -0.22533968821E+03  0.15417439296E+02  0.17389859873E+03  0.28505507390E+03  0.00000000000E+00 0.  1.
         21    1    1    2  505  501  0.54551227583E+02 -0.35476798245E+02 -0.23141063119E+02  0.69064813377E+02  0.00000000000E+00 0.  1.
          2    1    1    2  501    0  0.12899051789E+03  0.35019380981E+02  0.79998220849E+03  0.81107117114E+03  0.00000000000E+00 0. -1.
<scales pt_clust_3="44.39448" pt_clust_4="141.05502" pt_clust_5="83.76107" pt_clust_6="14000.00000"></scales>
<clustering>
<clus scale="   44.394">  2  3  1 -1</clus>
<clus scale="   83.761">  2  5  1 -1</clus>
<clus scale="  141.055">  2  4  1 -1</clus>
<clus scale="   44.394">  2  3  1 -1</clus>
</clustering>
</event>
<event>
 6    0  0.4796958E+002  0.8327626E+02  0.7546771E-02  0.1320003E+00
         -4   -1    0    0    0  501 -0.00000000000E+00  0.00000000000E+00  0.21971315082E+04  0.21971315082E+04  0.00000000000E+00 0. -1.
         21   -1    0    0  503  502  0.00000000000E+00 -0.00000000000E+00 -0.75336456381E+03  0.75336456381E+03  0.00000000000E+00 0. -1.
         21    1    1    2  503  505 -0.71935097622E+02  0.14608151479E+02 -0.23191717986E+03  0.24325631477E+03  0.00000000000E+00 0.  1.
         21    1    1    2  504  502  0.44689294174E+02  0.62596699048E+02 -0.47078348929E+03  0.47702470957E+03  0.00000000000E+00 0. -1.
         21    1    1    2  505  501  0.38164949432E+02 -0.10930722143E+03  0.38554206245E+02  0.12202892625E+03  0.00000000000E+00 0.  1.
         -4    1    1    2    0  504 -0.10919145985E+02  0.32102370901E+02  0.21079134073E+04  0.21081861214E+04  0.00000000000E+00 0. -1.
<scales pt_clust_3="74.51435" pt_clust_4="83.27626" pt_clust_5="14000.00000" pt_clust_6="33.90855"></scales>
<clustering>
<clus scale="   33.909">  1  6  2 -1</clus>
<clus scale="   74.514">  2  3  1 -1</clus>
<clus scale="   83.276">  2  4  1 -1</clus>
<clus scale="   74.514">  2  3  1 -1</clus>
</clustering>
</event>
<event>
 6    0  0.4796958E+002  0.1757440E+03  0.7546771E-02  0.1171987E+00
          1   -1    0    0  503    0 -0.00000000000E+00  0.00000000000E+00  0.49629965296E+03  0.49629965296E+03  0.00000000000E+00 0.  1.
         21   -1    0    0  504  502  0.00000000000E+00 -0.00000000000E+00 -0.12585657841E+04  0.12585657841E+04  0.00000000000E+00 0. -1.
         21    1    1    2  503  505  0.29698576456E+03  0.65265605478E+02 -0.27169955722E+03  0.40777541981E+03  0.00000000000E+00 0. -1.
         21    1    1    2  504  501 -0.40473193233E+02 -0.31404499150E+02 -0.73179215377E+02  0.89328156258E+02  0.00000000000E+00 0. -1.
         21    1    1    2  505  502 -0.89388507608E+02 -0.68808460640E+01 -0.81797443857E+03  0.82287291454E+03  0.00000000000E+00 0. -1.
          1    1    1    2  501    0 -0.16712406372E+03 -0.26980260264E+02  0.40058707999E+03  0.43488894648E+03  0.00000000000E+00 0.  1.
<scales pt_clust_3="175.74401" pt_clust_4="51.22814" pt_clust_5="121.05990" pt_clust_6="14000.00000"></scales>
<clustering>
<clus scale="   51.228">  2  4  1 -1</clus>
<clus scale="  121.060">  2  5  1 -1</clus>
<clus scale="  175.744">  2  3  1 -1</clus>
<clus scale="   51.228">  2  3  1 -1</clus>
</clustering>
</event>
<event>
 6    0  0.4796958E+002  0.5859718E+02  0.7546771E-02  0.1403815E+00
         21   -1    0    0  504  502  0.00000000000E+00  0.00000000000E+00  0.13348652732E+03  0.13348652732E+03  0.00000000000E+00 0. -1.
          2   -1    0    0  505    0 -0.00000000000E+00 -0.00000000000E+00 -0.16100342838E+04  0.16100342838E+04  0.00000000000E+00 0.  1.
         21    1    1    2  503  501  0.76223846782E+02 -0.66924243298E+02  0.62575297472E+01  0.10162719044E+03  0.00000000000E+00 0.  1.
         21    1    1    2  504  503 -0.25135820286E+02  0.48880476643E+02  0.63320527265E+02  0.83848671017E+02  0.00000000000E+00 0. -1.
         21    1    1    2  505  502  0.11399365073E+01 -0.39864500734E+02 -0.75786839038E+02  0.85639493491E+02  0.00000000000E+00 0. -1.
          2    1    1    2  501    0 -0.52227963003E+02  0.57908267388E+02 -0.14703389745E+04  0.14724054562E+04  0.00000000000E+00 0.  1.
<scales pt_clust_3="58.59718" pt_clust_4="54.72332" pt_clust_5="39.88080" pt_clust_6="14000.00000"></scales>
<clustering>
<clus scale="   39.881">  2  5  1 -1</clus>
<clus scale="   54.723">  1  4  2 -1</clus>
<clus scale="   58.597">  1  3  2 -1</clus>
<clus scale="   54.723">  1  3  2 -1</clus>
</clustering>
</event>
<event>
 6    0  0.4796958E+002  0.1137230E+03  0.7546771E-02  0.1253827E+00
          2   -1    0    0  503    0 -0.00000000000E+00  0.00000000000E+00  0.31908019690E+03  0.31908019690E+03  0.00000000000E+00 0.  1.
         21   -1    0    0  505  502  0.00000000000E+00 -0.00000000000E+00 -0.65180401433E+03  0.65180401433E+03  0.00000000000E+00 0.  1.
         21    1    1    2  503  502 -0.12115023834E+02  0.10635983036E+03 -0.58550491628E+03  0.59521021018E+03  0.00000000000E+00 0.  1.
         21    1    1    2  504  501 -0.28711342413E+02 -0.64026907233E+02  0.35760065108E+02  0.78756385706E+02  0.00000000000E+00 0.  1.
         21    1    1    2  505  504  0.42058664728E+02  0.23656388973E+02 -0.18985791932E+02  0.51855725945E+02  0.00000000000E+00 0.  1.
          2    1    1    2  501    0 -0.12322984811E+01 -0.65989312095E+02  0.23600682568E+03  0.24506188940E+03  0.00000000000E+00 0.  1.
<scales pt_clust_3="113.72300" pt_clust_4="14000.00000" pt_clust_5="48.25511" pt_clust_6="65.82203"></scales>
<clustering>
<clus scale="   48.255">  2  5  1 -1</clus>
<clus scale="   65.822">  1  6  2 -1</clus>
<clus scale="  113.723">  2  3  1 -1</clus>
<clus scale="   48.255">  2  3  1 -1</clus>
</clustering>
</event>
<event>
 6    0  0.4796958E+002  0.9866777E+02  0.7546771E-02  0.1283123E+00
          1   -1    0    0  503    0 -0.00000000000E+00  0.00000000000E+00  0.45039982617E+03  0.45039982617E+03  0.00000000000E+00 0. -1.
         21   -1    0    0  505  502  0.00000000000E+00 -0.00000000000E+00 -0.95568681791E+02  0.95568681791E+02  0.00000000000E+00 0.  1.
         21    1    1    2  503  504 -0.14397634556E+02  0.12803754035E+03  0.13791685165E+03  0.18873781176E+03  0.00000000000E+00 0.  1.
         21    1    1    2  504  502 -0.29971590096E+02 -0.12975891273E+02 -0.12651962882E+02  0.35024878757E+02  0.00000000000E+00 0.  1.
         21    1    1    2  505  501  0.25982806644E+02 -0.80971506121E+02 -0.43068014733E+01  0.85147164272E+02  0.00000000000E+00 0.  1.
          1    1    1    2  501    0  0.18386418008E+02 -0.34090142952E+02  0.23387305708E+03  0.23705865317E+03  0.00000000000E+00 0. -1.
<scales pt_clust_3="98.66777" pt_clust_4="32.65991" pt_clust_5="14000.00000" pt_clust_6="38.67681"></scales>
<clustering>
<clus scale="   32.660">  2  4  1 -1</clus>
<clus scale="   38.677">  1  6  2 -1</clus>
<clus scale="   98.668">  1  3  2 -1</clus>
<clus scale="   32.660">  2  3  1 -1</clus>
</clustering>
</event>
<event>
 6    0  0.4796958E+002  0.1511962E+03  0.7546771E-02  0.1199011E+00
          2   -1    0    0  504    0 -0.00000000000E+00  0.00000000000E+00  0.12731440968E+04  0.12731440968E+04  0.00000000000E+00 0.  1.
         21   -1    0    0  505  502  0.00000000000E+00 -0.00000000000E+00 -0.54769024060E+03  0.54769024060E+03  0.00000000000E+00 0.  1.
         21    1    1    2  503  502  0.22943974547E+02  0.10174196883E+03  0.15693618978E+02  0.10547105701E+03  0.00000000000E+00 0. -1.
         21    1    1    2  504  503 -0.17658113195E+03  0.21515145990E+02  0.70657196993E+03  0.72862044053E+03  0.00000000000E+00 0.  1.
         21    1    1    2  505  501  0.12365529631E+03 -0.12560216527E+03 -0.47549725139E+03  0.50711356943E+03  0.00000000000E+00 0.  1.
          2    1    1    2  501    0  0.29981861098E+02  0.23450504463E+01  0.47868551864E+03  0.47962927039E+03  0.00000000000E+00 0.  1.
<scales pt_clust_3="104.99764" pt_clust_4="151.19616" pt_clust_5="14000.00000" pt_clust_6="30.07343"></scales>
<clustering>
<clus scale="   30.073">  1  6  2 -1</clus>
<clus scale="  104.998">  2  3  1 -1</clus>
<clus scale="  151.196">  1  4  2 -1</clus>
<clus scale="  104.998">  2  3  1 -1</clus>
</clustering>
</event>
<event>
 6    0  0.4796958E+002  0.6564949E+02  0.7546771E-02  0.1375545E+00
          2   -1    0    0  505    0 -0.00000000000E+00  0.00000000000E+00  0.35286705035E+03  0.35286705035E+03  0.00000000000E+00 0. -1.
         21   -1    0    0  503  502  0.00000000000E+00 -0.00000000000E+00 -0.17700167850E+03  0.17700167850E+03  0.00000000000E+00 0. -1.
         21    1    1    2  503  501 -0.76823973018E+02 -0.44816421356E+02 -0.62095049973E+02  0.10847225306E+03  0.00000000000E+00 0. -1.
         21    1    1    2  504  502  0.43450725850E+02  0.34151253898E+02 -0.61748564664E+02  0.82868323005E+02  0.00000000000E+00 0. -1.
         21    1    1    2  505  504  0.68847623609E+02  0.38909920784E+02  0.73985770754E+02  0.10829529762E+03  0.00000000000E+00 0. -1.
          2    1    1    2  501    0 -0.35474376441E+02 -0.28244753326E+02  0.22572321574E+03  0.23023285517E+03  0.00000000000E+00 0. -1.
<scales pt_clust_3="14000.00000" pt_clust_4="65.64949" pt_clust_5="46.69385" pt_clust_6="45.34531"></scales>
<clustering>
<clus scale="   45.345">  1  6  2 -1</clus>
<clus scale="   46.694">  1  5  2 -1</clus>
<clus scale="   65.649">  2  4  1 -1</clus>
<clus scale="   65.649">  2  3  1 -1</clus>
</clustering>
</event>
<event>
 6    0  0.4796958E+002  0.8601991E+02  0.7546771E-02  0.1312787E+00
          3   -1    0    0  505    0 -0.00000000000E+00  0.00000000000E+00  0.32354663411E+02  0.32354663411E+02  0.00000000000E+00 0.  1.
         21   -1    0    0  503  502  0.00000000000E+00 -0.00000000000E+00 -0.13987962039E+04  0.13987962039E+04  0.00000000000E+00 0. -1.
         21    1    1    2  503  504 -0.14911360209E+02 -0.26858324011E+02 -0.86026441115E+03  0.86081274115E+03  0.00000000000E+00 0. -1.
         21    1    1    2  504  501  0.10038278020E+03  0.52836578553E+01 -0.36240870847E+03  0.37609133409E+03  0.00000000000E+00 0. -1.
         21    1    1    2  505  502 -0.15508793546E+02  0.48295837982E+02 -0.85266424984E+02  0.99213778646E+02  0.00000000000E+00 0.  1.
          3    1    1    2  501    0 -0.69962626443E+02 -0.26721171826E+02 -0.58501995931E+02  0.95033013477E+02  0.00000000000E+00 0.  1.
<scales pt_clust_3="30.72000" pt_clust_4="86.01991" pt_clust_5="47.28009" pt_clust_6="14000.00000"></scales>
<clustering>
<clus scale="   30.720">  2  3  1 -1</clus>
<clus scale="   47.280">  1  5  2 -1</clus>
<clus scale="   86.020">  2  4  1 -1</clus>
<clus scale="   30.720">  2  3  1 -1</clus>
</clustering>
</event>
<event>
 6    0  0.4796958E+002  0.1833534E+03  0.7546771E-02  0.1164597E+00
          2   -1    0    0  503    0 -0.00000000000E+00  0.00000000000E+00  0.27456246202E+04  0.27456246202E+04  0.00000000000E+00 0.  1.
         21   -1    0    0  504  502  0.00000000000E+00 -0.00000000000E+00 -0.42036344742E+03  0.42036344742E+03  0.00000000000E+00 0.  1.
         21    1    1    2  503  505  0.11265961698E+03 -0.79601871906E+02  0.43932719993E+03  0.46047479400E+03  0.00000000000E+00 0.  1.
         21    1    1    2  504  501 -0.16152568012E+03  0.15320834779E+03  0.20840310042E+02  0.22360156908E+03  0.00000000000E+00 0.  1.
         21    1    1    2  505  502 -0.97917447097E+00 -0.55553487526E+02 -0.30558027606E+03  0.31059049225E+03  0.00000000000E+00 0.  1.
          2    1    1    2  501    0  0.49845237613E+02 -0.18052988362E+02  0.21706739389E+04  0.21713212123E+04  0.00000000000E+00 0.  1.
<scales pt_clust_3="183.35341" pt_clust_4="14000.00000" pt_clust_5="55.63741" pt_clust_6="53.01375"></scales>
<clustering>
<clus scale="   53.014">  1  6  2 -1</clus>
<clus scale="   55.637">  2  5  1 -1</clus>
<clus scale="  183.353">  1  3  2 -1</clus>
<clus scale="   55.637">  2  3  1 -1</clus>
</clustering>
</event>
<event>
 6    0  0.4796958E+002  0.1466165E+03  0.7546771E-02  0.1204693E+00
         21   -1    0    0  504  502  0.00000000000E+00  0.00000000000E+00  0.60639987641E+02  0.60639987641E+02  0.00000000000E+00 0. -1.
          1   -1    0    0  505    0 -0.00000000000E+00 -0.00000000000E+00 -0.14792194049E+04  0.14792194049E+04  0.00000000000E+00 0. -1.
         21    1    1    2  503  501  0.63395164532E+02  0.11254864040E+03 -0.16523856130E+03  0.20973775407E+03  0.00000000000E+00 0. -1.
         21    1    1    2  504  503 -0.45144752466E+02  0.46865089508E+02 -0.98377845054E+01  0.65811604553E+02  0.00000000000E+00 0. -1.
         21    1    1    2  505  502 -0.51542668143E+02 -0.14538224114E+03 -0.59067673280E+03  0.61048476259E+03  0.00000000000E+00 0. -1.
          1    1    1    2  501    0  0.33292256077E+02 -0.14031488774E+02 -0.65282633868E+03  0.65382527136E+03  0.00000000000E+00 0. -1.
<scales pt_clust_3="146.61652" pt_clust_4="63.55488" pt_clust_5="14000.00000" pt_clust_6="36.12834"></scales>
<clustering>
<clus scale="   36.128">  2  6  1 -1</clus>
<clus scale="   63.555">  1  4  2 -1</clus>
<clus scale="  146.617">  1  3  2 -1</clus>
<clus scale="   63.555">  1  3  2 -1</clus>
</clustering>
</event>
<event>
 6    0  0.4796958E+002  0.1140526E+03  0.7546771E-02  0.1253244E+00
         21   -1    0    0  504  502  0.00000000000E+00  0.00000000000E+00  0.28672902858E+03  0.28672902858E+03  0.00000000000E+00 0. -1.
          1   -1    0    0  503    0 -0.00000000000E+00 -0.00000000000E+00 -0.77516815909E+03  0.77516815909E+03  0.00000000000E+00 0. -1.
         21    1    1    2  503  505  0.50639171172E+02 -0.13763683987E+03  0.14787797785E+02  0.14740048951E+03  0.00000000000E+00 0. -1.
         21    1    1    2  504  501  0.75683762453E+02  0.42811334706E+02  0.17327059052E+03  0.19386474620E+03  0.00000000000E+00 0. -1.
         21    1    1    2  505  502 -0.51899972694E+02  0.10247119475E+02 -0.23326766580E+02  0.57816508561E+02  0.00000000000E+00 0. -1.
          1    1    1    2  501    0 -0.74422960931E+02  0.84578385684E+02 -0.65317075223E+03  0.66281544340E+03  0.00000000000E+00 0. -1.
<scales pt_clust_3="114.05259" pt_clust_4="64.07603" pt_clust_5="52.90190" pt_clust_6="14000.00000"></scales>
<clustering>
<clus scale="   52.902">  1  5  2 -1</clus>
<clus scale="   64.076">  1  4  2 -1</clus>
<clus scale="  114.053">  1  3  2 -1</clus>
<clus scale="   52.902">  1  3  2 -1</clus>
</clustering>
</event>
<event>
 6    0  0.4796958E+002  0.1082992E+03  0.7546771E-02  0.1263752E+00
         21   -1    0    0  504  502  0.00000000000E+00  0.00000000000E+00  0.33323463177E+03  0.33323463177E+03  0.00000000000E+00 0. -1.
          1   -1    0    0  503    0 -0.00000000000E+00 -0.00000000000E+00 -0.10774486508E+04  0.10774486508E+04  0.00000000000E+00 0. -1.
         21    1    1    2  503  502 -0.11330348955E+03 -0.80392100433E+02  0.28189850749E+03  0.31427271450E+03  0.00000000000E+00 0. -1.
         21    1    1    2  504  505  0.24723633859E+02  0.17490519795E+02 -0.16308811910E+01  0.30328800296E+02  0.00000000000E+00 0. -1.
         21    1    1    2  505  501  0.10791474069E+03  0.38833071604E+01 -0.12805969280E+03  0.16751106308E+03  0.00000000000E+00 0.  1.
          1    1    1    2  501    0 -0.19334885001E+02  0.59018273478E+02 -0.89642195256E+03  0.89857070474E+03  0.00000000000E+00 0. -1.
<scales pt_clust_3="108.29923" pt_clust_4="30.28492" pt_clust_5="14000.00000" pt_clust_6="62.13485"></scales>
<clustering>
<clus scale="   30.285">  1  4  2 -1</clus>
<clus scale="   62.135">  2  6  1 -1</clus>
<clus scale="  108.299">  1  3  2 -1</clus>
<clus scale="   30.285">  1  3  2 -1</clus>
</clustering>
</event>
<event>
 6    0  0.4796958E+002  0.1425895E+03  0.7546771E-02  0.1209886E+00
         21   -1    0    0  505  502  0.00000000000E+00  0.00000000000E+00  0.31811155129E+03  0.31811155129E+03  0.00000000000E+00 0. -1.
          1   -1    0    0  503    0 -0.00000000000E+00 -0.00000000000E+00 -0.41057358853E+03  0.41057358853E+03  0.00000000000E+00 0.  1.
         21    1    1    2  503  504 -0.48707023576E+02 -0.12764391055E+03  0.11687382566E+03  0.17979108201E+03  0.00000000000E+00 0. -1.
         21    1    1    2  504  502  0.71867696412E+02 -0.48059110738E+02  0.12182449505E+02  0.87310113895E+02  0.00000000000E+00 0.  1.
         21    1    1    2  505  501  0.36389890591E+02  0.41067142818E+02  0.96575543144E+02  0.11107461407E+03  0.00000000000E+00 0. -1.
          1    1    1    2  501    0 -0.59550563427E+02  0.13463587847E+03 -0.31809385555E+03  0.35050932985E+03  0.00000000000E+00 0.  1.
<scales pt_clust_3="142.58949" pt_clust_4="89.07748" pt_clust_5="54.87016" pt_clust_6="14000.00000"></scales>
<clustering>
<clus scale="   54.870">  1  5  2 -1</clus>
<clus scale="   89.077">  1  4  2 -1</clus>
<clus scale="  142.589">  1  3  2 -1</clus>
<clus scale="   54.870">  1  3  2 -1</clus>
</clustering>
</event>
<event>
 6    0  0.4796958E+002  0.1291494E+03  0.7546771E-02  0.1228723E+00
         21   -1    0    0  505  502  0.00000000000E+00  0.00000000000E+00  0.24979745162E+03  0.24979745162E+03  0.00000000000E+00 0. -1.
          2   -1    0    0  504    0 -0.00000000000E+00 -0.00000000000E+00 -0.19077671227E+04  0.19077671227E+04  0.00000000000E+00 0.  1.
         21    1    1    2  503  502 -0.45947614446E+02 -0.14106874786E+03  0.20776190902E+03  0.25529705391E+03  0.00000000000E+00 0. -1.
         21    1    1    2  504  503  0.38698090733E+02  0.51980315065E+02 -0.28684441502E+03  0.29407348369E+03  0.00000000000E+00 0.  1.
         21    1    1    2  505  501 -0.29432961378E+02  0.33704912984E+02 -0.21951155894E+02  0.49841484928E+02  0.00000000000E+00 0. -1.
          2    1    1    2  501    0  0.36682485091E+02  0.55383519815E+02 -0.15569360092E+04  0.15583525518E+04  0.00000000000E+00 0.  1.
<scales pt_clust_3="14000.00000" pt_clust_4="64.95194" pt_clust_5="44.74729" pt_clust_6="129.14935"></scales>
<clustering>
<clus scale="   44.747">  1  5  2 -1</clus>
<clus scale="   64.952">  2  4  1 -1</clus>
<clus scale="  129.149">  2  6  1 -1</clus>
<clus scale="   44.747">  1  3  2 -1</clus>
</clustering>
</event>
<event>
 6    0  0.4796958E+002  0.2901093E+03  0.7546771E-02  0.1090292E+00
         21   -1    0    0  505  502  0.00000000000E+00  0.00000000000E+00  0.35605873021E+03  0.35605873021E+03  0.00000000000E+00 0.  1.
          2   -1    0    0  504    0 -0.00000000000E+00 -0.00000000000E+00 -0.32059800707E+04  0.32059800707E+04  0.00000000000E+00 0. -1.
         21    1    1    2  503  502 -0.28892081733E+02 -0.12249410812E+02  0.58165703947E+02  0.66091221564E+02  0.00000000000E+00 0. -1.
         21    1    1    2  504  503  0.81377537433E+02  0.46183602389E+02 -0.52803685150E+02  0.10744048536E+03  0.00000000000E+00 0.  1.
         21    1    1    2  505  501  0.54931506067E+02 -0.30308225919E+03  0.16834598664E+03  0.35102236027E+03  0.00000000000E+00 0.  1.
          2    1    1    2  501    0 -0.10741696177E+03  0.26914806761E+03 -0.30236293459E+04  0.30374847337E+04  0.00000000000E+00 0. -1.
<scales pt_clust_3="31.38153" pt_clust_4="90.67268" pt_clust_5="290.10925" pt_clust_6="14000.00000"></scales>
<clustering>
<clus scale="   31.382">  1  3  2 -1</clus>
<clus scale="   90.673">  1  4  2 -1</clus>
<clus scale="  290.109">  1  5  2 -1</clus>
<clus scale="   31.382">  1  3  2 -1</clus>
</clustering>
</event>
<event>
 6    0  0.4796958E+002  0.1156944E+03  0.7546771E-02  0.1250374E+00
          1   -1    0    0  505    0 -0.00000000000E+00  0.00000000000E+00  0.51605464287E+03  0.51605464287E+03  0.00000000000E+00 0. -1.
         21   -1    0    0  504  502  0.00000000000E+00 -0.00000000000E+00 -0.19163933881E+04  0.19163933881E+04  0.00000000000E+00 0. -1.
         21    1    1    2  503  502  0.47965892250E+02  0.22006684264E+02 -0.15294193669E+04  0.15303295791E+04  0.00000000000E+00 0. -1.
         21    1    1    2  504  501 -0.13179258655E+03  0.52929935832E+02 -0.34600625609E+03  0.37402031126E+03  0.00000000000E+00 0.  1.
         21    1    1    2  505  503  0.12004058469E+03 -0.91807972619E+02  0.20290452223E+03  0.25299938923E+03  0.00000000000E+00 0. -1.
          1    1    1    2  501    0 -0.36213890381E+02  0.16871352524E+02  0.27218235547E+03  0.27509875140E+03  0.00000000000E+00 0. -1.
<scales pt_clust_3="52.72474" pt_clust_4="14000.00000" pt_clust_5="115.69438" pt_clust_6="39.95107"></scales>
<clustering>
<clus scale="   39.951">  1  6  2 -1</clus>
<clus scale="   52.725">  2  3  1 -1</clus>
<clus scale="  115.694">  1  5  2 -1</clus>
<clus scale="   52.725">  2  3  1 -1</clus>
</clustering>
</event>
<event>
 6    0  0.4796958E+002  0.7738391E+02  0.7546771E-02  0.1336644E+00
         21   -1    0    0  503  502  0.00000000000E+00  0.00000000000E+00  0.11124289354E+03  0.11124289354E+03  0.00000000000E+00 0. -1.
         -1   -1    0    0    0  501 -0.00000000000E+00 -0.00000000000E+00 -0.12380732381E+04  0.12380732381E+04  0.00000000000E+00 0. -1.
         21    1    1    2  503  504 -0.37546391225E+02 -0.68092374116E+02  0.64604358837E+02  0.10109414467E+03  0.00000000000E+00 0. -1.
         21    1    1    2  504  501  0.95745069885E+02  0.19547176215E+02 -0.64696832625E+03  0.65430667555E+03  0.00000000000E+00 0. -1.
         21    1    1    2  505  502 -0.22657525615E+02  0.19706721827E+02  0.14312505874E+02  0.33265089456E+02  0.00000000000E+00 0. -1.
         -1    1    1    2    0  505 -0.35541153045E+02  0.28838476074E+02 -0.55877888301E+03  0.56065022194E+03  0.00000000000E+00 0. -1.
<scales pt_clust_3="77.38391" pt_clust_4="14000.00000" pt_clust_5="30.02863" pt_clust_6="46.09042"></scales>
<clustering>
<clus scale="   30.029">  1  5  2 -1</clus>
<clus scale="   46.090">  2  6  1 -1</clus>
<clus scale="   77.384">  1  3  2 -1</clus>
<clus scale="   30.029">  1  3  2 -1</clus>
</clustering>
</event>
<event>
 6    0  0.4796958E+002  0.6044489E+02  0.7546771E-02  0.1395974E+00
         -2   -1    0    0    0  501 -0.00000000000E+00  0.00000000000E+00  0.19180661814E+04  0.19180661814E+04  0.00000000000E+00 0. -1.
         21   -1    0    0  504  502  0.00000000000E+00 -0.00000000000E+00 -0.31924581346E+03  0.31924581346E+03  0.00000000000E+00 0.  1.
         21    1    1    2  503  502 -0.61882069165E+02 -0.29413437418E+01  0.33084390179E+03  0.33659430972E+03  0.00000000000E+00 0.  1.
         21    1    1    2  504  505 -0.56067559581E+02  0.33434278181E+01 -0.22358923624E+03  0.23053610630E+03  0.00000000000E+00 0.  1.
         21    1    1    2  505  501  0.93769191021E+02  0.25151493772E+02 -0.62665785633E+02  0.11555197754E+03  0.00000000000E+00 0.  1.
         -2    1    1    2    0  503  0.24180437726E+02 -0.25553577848E+02  0.15542314880E+04  0.15546296013E+04  0.00000000000E+00 0. -1.
<scales pt_clust_3="47.66491" pt_clust_4="60.44489" pt_clust_5="14000.00000" pt_clust_6="35.18066"></scales>
<clustering>
<clus scale="   35.181">  1  6  2 -1</clus>
<clus scale="   47.665">  1  3  2 -1</clus>
<clus scale="   60.445">  2  4  1 -1</clus>
<clus scale="   60.445">  2  3  1 -1</clus>
</clustering>
</event>
<event>
 6    0  0.4796958E+002  0.1873595E+03  0.7546771E-02  0.1160865E+00
          2   -1    0    0  503    0 -0.00000000000E+00  0.00000000000E+00  0.56066218128E+03  0.56066218128E+03  0.00000000000E+00 0.  1.
         21   -1    0    0  505  502  0.00000000000E+00 -0.00000000000E+00 -0.62587556271E+03  0.62587556271E+03  0.00000000000E+00 0.  1.
         21    1    1    2  503  504  0.49497303545E+02 -0.19717382403E+00 -0.31518069169E+02  0.58680581284E+02  0.00000000000E+00 0.  1.
         21    1    1    2  504  502  0.15857182745E+03  0.96954963595E+02 -0.31809231390E+03  0.36841282495E+03  0.00000000000E+00 0.  1.
         21    1    1    2  505  501 -0.13218903278E+03 -0.28972600523E+02 -0.21266744257E+03  0.25207299161E+03  0.00000000000E+00 0. -1.
          2    1    1    2  501    0 -0.75880098220E+02 -0.67785189249E+02  0.49706444421E+03  0.50737134614E+03  0.00000000000E+00 0.  1.
<scales pt_clust_3="44.77056" pt_clust_4="44.77056" pt_clust_5="166.06345" pt_clust_6="101.74783"></scales>
<clustering>
<clus scale="   44.771">  3  4 -1 -1</clus>
<clus scale="  101.748">  1  6  2 -1</clus>
<clus scale="  166.063">  2  5  1 -1</clus>
<clus scale="  166.063">  2  3  1 -1</clus>
</clustering>
</event>
<event>
 6    0  0.4796958E+002  0.8043750E+02  0.7546771E-02  0.1327814E+00
          2   -1    0    0  505    0 -0.00000000000E+00  0.00000000000E+00  0.16193252134E+04  0.16193252134E+04  0.00000000000E+00 0. -1.
         21   -1    0    0  503  502  0.00000000000E+00 -0.00000000000E+00 -0.20038127512E+03  0.20038127512E+03  0.00000000000E+00 0. -1.
         21    1    1    2  503  504  0.22701812152E+02  0.47620318145E+02 -0.82248199573E+02  0.97713015040E+02  0.00000000000E+00 0.  1.
         21    1    1    2  504  501 -0.73997267805E+02 -0.84271502420E+02 -0.74358934414E+02  0.13456051757E+03  0.00000000000E+00 0. -1.
         21    1    1    2  505  502  0.36254935947E+02  0.10753234004E+03  0.72815486011E+03  0.73694445167E+03  0.00000000000E+00 0. -1.
          2    1    1    2  501    0  0.15040519706E+02 -0.70881155770E+02  0.84739621216E+03  0.85048850424E+03  0.00000000000E+00 0. -1.
<scales pt_clust_3="52.75478" pt_clust_4="65.54208" pt_clust_5="14000.00000" pt_clust_6="80.43750"></scales>
<clustering>
<clus scale="   52.755">  2  3  1 -1</clus>
<clus scale="   65.542">  2  4  1 -1</clus>
<clus scale="   80.437">  1  6  2 -1</clus>
<clus scale="   52.755">  2  3  1 -1</clus>
</clustering>
</event>
<event>
 6    0  0.4796958E+002  0.9987269E+02  0.7546771E-02  0.1280564E+00
         21   -1    0    0  504  502  0.00000000000E+00  0.00000000000E+00  0.43240064821E+02  0.43240064821E+02  0.00000000000E+00 0. -1.
          1   -1    0    0  505    0 -0.00000000000E+00 -0.00000000000E+00 -0.41402773820E+04  0.41402773820E+04  0.00000000000E+00 0.  1.
         21    1    1    2  503  502 -0.44264035555E+02  0.16147218238E+02  0.18739828355E+02  0.50707185558E+02  0.00000000000E+00 0. -1.
         21    1    1    2  504  501 -0.62107376122E+02 -0.31851288090E+02 -0.34782967738E+03  0.35476374560E+03  0.00000000000E+00 0. -1.
         21    1    1    2  505  503  0.13450500174E+03  0.51507838338E+02 -0.10627092606E+04  0.10724251141E+04  0.00000000000E+00 0.  1.
          1    1    1    2  501    0 -0.28133590059E+02 -0.35803768487E+02 -0.27052382076E+04  0.27056214016E+04  0.00000000000E+00 0.  1.
<scales pt_clust_3="47.27747" pt_clust_4="99.87269" pt_clust_5="14000.00000" pt_clust_6="45.53470"></scales>
<clustering>
<clus scale="   45.535">  2  6  1 -1</clus>
<clus scale="   47.277">  1  3  2 -1</clus>
<clus scale="   99.873">  1  4  2 -1</clus>
<clus scale="   47.277">  1  3  2 -1</clus>
</clustering>
</event>
<event>
 6    0  0.4796958E+002  0.2609746E+03  0.7546771E-02  0.1106559E+00
          4   -1    0    0  503    0 -0.00000000000E+00  0.00000000000E+00  0.93627042917E+03  0.93627042917E+03  0.00000000000E+00 0.  1.
         21   -1    0    0  505  502  0.00000000000E+00 -0.00000000000E+00 -0.19827035141E+04  0.19827035141E+04  0.00000000000E+00 0. -1.
         21    1    1    2  503  504  0.59174241564E+02 -0.28625699187E+03 -0.13431248563E+03  0.32169006832E+03  0.00000000000E+00 0. -1.
         21    1    1    2  504  502  0.53051383659E+02  0.12479453733E+03 -0.55469087969E+03  0.57102547917E+03  0.00000000000E+00 0.  1.
         21    1    1    2  505  501 -0.16197811184E+03  0.12570608664E+03 -0.11818808829E+04  0.11995338054E+04  0.00000000000E+00 0. -1.
          4    1    1    2  501    0  0.49752486620E+02  0.35756367909E+02  0.82445116326E+03  0.82672459040E+03  0.00000000000E+00 0.  1.
<scales pt_clust_3="14000.00000" pt_clust_4="139.48702" pt_clust_5="260.97465" pt_clust_6="61.26849"></scales>
<clustering>
<clus scale="   61.268">  1  6  2 -1</clus>
<clus scale="  139.487">  2  4  1 -1</clus>
<clus scale="  260.975">  2  5  1 -1</clus>
<clus scale="  139.487">  2  3  1 -1</clus>
</clustering>
</event>
<event>
 6    0  0.4796958E+002  0.8130572E+02  0.7546771E-02  0.1325386E+00
          1   -1    0    0  503    0 -0.00000000000E+00  0.00000000000E+00  0.17458485980E+03  0.17458485980E+03  0.00000000000E+00 0. -1.
         21   -1    0    0  505  502  0.00000000000E+00 -0.00000000000E+00 -0.33738705748E+03  0.33738705748E+03  0.00000000000E+00 0. -1.
         21    1    1    2  503  502  0.39667728602E+02  0.95085948440E+02 -0.17309129230E+03  0.20143351696E+03  0.00000000000E+00 0. -1.
         21    1    1    2  504  501 -0.29822124041E+02 -0.69799389060E+02  0.11733492066E+03  0.13974547364E+03  0.00000000000E+00 0. -1.
         21    1    1    2  505  504 -0.61457554271E+02 -0.15112247262E+02 -0.99108704927E+02  0.11759228881E+03  0.00000000000E+00 0. -1.
          1    1    1    2  501    0  0.51611949709E+02 -0.10174312117E+02 -0.79371211114E+01  0.53200637885E+02  0.00000000000E+00 0. -1.
<scales pt_clust_3="14000.00000" pt_clust_4="81.30572" pt_clust_5="60.40294" pt_clust_6="52.60523"></scales>
<clustering>
<clus scale="   52.605">  1  6  2 -1</clus>
<clus scale="   60.403">  2  5  1 -1</clus>
<clus scale="   81.306">  1  4  2 -1</clus>
<clus scale="   60.403">  2  3  1 -1</clus>
</clustering>
</event>
<event>
 6    0  0.4796958E+002  0.1434017E+03  0.7546771E-02  0.1208824E+00
         21   -1    0    0  504  502  0.00000000000E+00  0.00000000000E+00  0.26396849727E+03  0.26396849727E+03  0.00000000000E+00 0.  1.
         -4   -1    0    0    0  501 -0.00000000000E+00 -0.00000000000E+00 -0.31522603443E+03  0.31522603443E+03  0.00000000000E+00 0. -1.
         21    1    1    2  503  502  0.37077178817E+02 -0.16084022244E+02  0.46444920235E+02  0.61567390526E+02  0.00000000000E+00 0.  1.
         21    1    1    2  504  505 -0.66784561852E+02 -0.42612124289E+02  0.10436719124E+03  0.13102855203E+03  0.00000000000E+00 0.  1.
         21    1    1    2  505  501 -0.59482640108E+02 -0.47292704366E+02  0.55528023169E+02  0.94117722654E+02  0.00000000000E+00 0.  1.
         -4    1    1    2    0  503  0.89190023143E+02  0.10598885090E+03 -0.25759767181E+03  0.29248086649E+03  0.00000000000E+00 0. -1.
<scales pt_clust_3="40.41550" pt_clust_4="32.45495" pt_clust_5="32.45495" pt_clust_6="139.52045"></scales>
<clustering>
<clus scale="   32.455">  4  5 -1 -1</clus>
<clus scale="   40.416">  1  3  2 -1</clus>
<clus scale="  139.520">  2  6  1 -1</clus>
<clus scale="   40.416">  1  3  2 -1</clus>
</clustering>
</event>
<event>
 6    0  0.4796958E+002  0.7731644E+02  0.7546771E-02  0.1336844E+00
         21   -1    0    0  504  502  0.00000000000E+00  0.00000000000E+00  0.76720879514E+03  0.76720879514E+03  0.00000000000E+00 0. -1.
          1   -1    0    0  503    0 -0.00000000000E+00 -0.00000000000E+00 -0.71674023091E+03  0.71674023091E+03  0.00000000000E+00 0. -1.
         21    1    1    2  503  505 -0.16223552014E+02 -0.37428458641E+02 -0.82323062948E+02  0.91875893733E+02  0.00000000000E+00 0.  1.
         21    1    1    2  504  501  0.74211249537E+02 -0.15941635126E+02  0.69521416780E+03  0.69934554006E+03  0.00000000000E+00 0. -1.
         21    1    1    2  505  502 -0.10719888060E+03  0.61137457158E+02  0.46265677704E+01  0.12349410431E+03  0.00000000000E+00 0.  1.
          1    1    1    2  501    0  0.49211183076E+02 -0.77673633905E+01 -0.56704910839E+03  0.56923348795E+03  0.00000000000E+00 0. -1.
<scales pt_clust_3="40.79330" pt_clust_4="77.31644" pt_clust_5="14000.00000" pt_clust_6="54.04457"></scales>
<clustering>
<clus scale="   40.793">  2  3  1 -1</clus>
<clus scale="   54.045">  2  6  1 -1</clus>
<clus scale="   77.316">  1  4  2 -1</clus>
<clus scale="   77.316">  1  3  2 -1</clus>
</clustering>
</event>
<event>
 6    0  0.4796958E+002  0.1694608E+03  0.7546771E-02  0.1178411E+00
         21   -1    0    0  501  502  0.00000000000E+00  0.00000000000E+00  0.17251301812E+03  0.17251301812E+03  0.00000000000E+00 0. -1.
          2   -1    0    0  505    0 -0.00000000000E+00 -0.00000000000E+00 -0.14023478007E+04  0.14023478007E+04  0.00000000000E+00 0. -1.
         21    1    1    2  503  502 -0.45559460998E+02 -0.41268963493E+02  0.93000654641E+02  0.11148055255E+03  0.00000000000E+00 0. -1.
         21    1    1    2  504  503 -0.11902644841E+03  0.15531572909E+03 -0.10438901975E+03  0.22178218722E+03  0.00000000000E+00 0. -1.
         21    1    1    2  505  504  0.75857567996E+02 -0.40540690301E+02 -0.87757309315E+03  0.88177800608E+03  0.00000000000E+00 0.  1.
          2    1    1    2  501    0  0.88728341409E+02 -0.73506075298E+02 -0.34087332437E+03  0.35982007301E+03  0.00000000000E+00 0. -1.
<scales pt_clust_3="61.47188" pt_clust_4="14000.00000" pt_clust_5="85.40851" pt_clust_6="169.46080"></scales>
<clustering>
<clus scale="   61.472">  1  3  2 -1</clus>
<clus scale="   85.409">  2  5  1 -1</clus>
<clus scale="  169.461">  2  6  1 -1</clus>
<clus scale="   61.472">  1  3  2 -1</clus>
</clustering>
</event>
<event>
 6    0  0.4796958E+002  0.2318397E+03  0.7546771E-02  0.1125352E+00
         21   -1    0    0  505  502  0.00000000000E+00  0.00000000000E+00  0.10136713654E+04  0.10136713654E+04  0.00000000000E+00 0.  1.
          2   -1    0    0  503    0 -0.00000000000E+00 -0.00000000000E+00 -0.14885666058E+03  0.14885666058E+03  0.00000000000E+00 0.  1.
         21    1    1    2  503  502 -0.40374821389E+02  0.27040224444E+02  0.73706047978E+02  0.88282962392E+02  0.00000000000E+00 0.  1.
         21    1    1    2  504  501 -0.41900051176E+02  0.20858847382E+03  0.72784197396E+03  0.75829987786E+03  0.00000000000E+00 0.  1.
         21    1    1    2  505  504 -0.25651620372E+02 -0.25904729339E+02  0.71152611746E+02  0.79948450817E+02  0.00000000000E+00 0.  1.
          2    1    1    2  501    0  0.10792649294E+03 -0.20972396893E+03 -0.78859288533E+01  0.23599673492E+03  0.00000000000E+00 0.  1.
<scales pt_clust_3="49.28579" pt_clust_4="231.83968" pt_clust_5="36.45628" pt_clust_6="14000.00000"></scales>
<clustering>
<clus scale="   36.456">  1  5  2 -1</clus>
<clus scale="   49.286">  1  3  2 -1</clus>
<clus scale="  231.840">  1  4  2 -1</clus>
<clus scale="   36.456">  1  3  2 -1</clus>
</clustering>
</event>
<event>
 6    0  0.4796958E+002  0.1293805E+03  0.7546771E-02  0.1228378E+00
         21   -1    0    0  503  502  0.00000000000E+00  0.00000000000E+00  0.17233954028E+03  0.17233954028E+03  0.00000000000E+00 0. -1.
          1   -1    0    0  505    0 -0.00000000000E+00 -0.00000000000E+00 -0.23274450555E+04  0.23274450555E+04  0.00000000000E+00 0. -1.
         21    1    1    2  503  504 -0.16194020477E+02  0.97221856147E+02  0.30079926903E+02  0.10304919997E+03  0.00000000000E+00 0. -1.
         21    1    1    2  504  501 -0.29837074690E+02 -0.15302325484E+03 -0.22747981659E+03  0.27577787167E+03  0.00000000000E+00 0. -1.
         21    1    1    2  505  502  0.19112855037E+02  0.38150044392E+02  0.75913428289E+02  0.87083728155E+02  0.00000000000E+00 0. -1.
          1    1    1    2  501    0  0.26918240130E+02  0.17651354299E+02 -0.20336190538E+04  0.20338737960E+04  0.00000000000E+00 0. -1.
<scales pt_clust_3="129.38051" pt_clust_4="14000.00000" pt_clust_5="43.20047" pt_clust_6="32.18947"></scales>
<clustering>
<clus scale="   32.189">  2  6  1 -1</clus>
<clus scale="   43.200">  1  5  2 -1</clus>
<clus scale="  129.381">  1  3  2 -1</clus>
<clus scale="   43.200">  1  3  2 -1</clus>
</clustering>
</event>
<event>
 6    0  0.4796958E+002  0.8221541E+02  0.7546771E-02  0.1322879E+00
         -1   -1    0    0    0  501 -0.00000000000E+00  0.00000000000E+00  0.61930888673E+03  0.61930888673E+03  0.00000000000E+00 0.  1.
         21   -1    0    0  504  502  0.00000000000E+00 -0.00000000000E+00 -0.32342016714E+03  0.32342016714E+03  0.00000000000E+00 0. -1.
         21    1    1    2  503  502  0.50684819131E+02  0.25290204774E+02  0.11925946118E+02  0.57885866484E+02  0.00000000000E+00 0.  1.
         21    1    1    2  504  505 -0.69095324033E+02  0.10397210334E+01 -0.28387887298E+03  0.29216854613E+03  0.00000000000E+00 0. -1.
         21    1    1    2  505  501 -0.31970274089E+02 -0.85591970777E+02  0.28152189497E+03  0.29597746744E+03  0.00000000000E+00 0.  1.
         -1    1    1    2    0  503  0.50380778991E+02  0.59262044970E+02  0.28631975148E+03  0.29669717382E+03  0.00000000000E+00 0.  1.
<scales pt_clust_3="56.64402" pt_clust_4="32.55428" pt_clust_5="82.21541" pt_clust_6="14000.00000"></scales>
<clustering>
<clus scale="   56.644">  2  3  1 -1</clus>
<clus scale="   32.554">  2  4  1 -1</clus>
<clus scale="   82.215">  2  5  1 -1</clus>
<clus scale="   56.644">  2  3  1 -1</clus>
</clustering>
</event>
<event>
 6    0  0.4796958E+002  0.1088577E+03  0.7546771E-02  0.1262700E+00
         21   -1    0    0  503  502  0.00000000000E+00  0.00000000000E+00  0.87266054807E+03  0.87266054807E+03  0.00000000000E+00 0.  1.
          2   -1    0    0  505    0 -0.00000000000E+00 -0.00000000000E+00 -0.14535462812E+04  0.14535462812E+04  0.00000000000E+00 0.  1.
         21    1    1    2  503  501 -0.51061263372E+02  0.43706939434E+01  0.63170629986E+03  0.63378166972E+03  0.00000000000E+00 0.  1.
         21    1    1    2  504  502 -0.41062193523E+02  0.12676630815E+00  0.15864000495E+03  0.16386815120E+03  0.00000000000E+00 0.  1.
         21    1    1    2  505  504  0.39254057864E+02 -0.10088199536E+03  0.38238962779E+02  0.11480538454E+03  0.00000000000E+00 0.  1.
          2    1    1    2  501    0  0.52869399032E+02  0.96384535104E+02 -0.14094710008E+04  0.14137516239E+04  0.00000000000E+00 0.  1.
<scales pt_clust_3="87.69776" pt_clust_4="41.06239" pt_clust_5="14000.00000" pt_clust_6="108.85769"></scales>
<clustering>
<clus scale="   41.062">  1  4  2 -1</clus>
<clus scale="   87.698">  1  3  2 -1</clus>
<clus scale="  108.858">  2  6  1 -1</clus>
<clus scale="   41.062">  1  3  2 -1</clus>
</clustering>
</event>
<event>
 6    0  0.4796958E+002  0.9969922E+02  0.7546771E-02  0.1280930E+00
         21   -1    0    0  501  502  0.00000000000E+00  0.00000000000E+00  0.39924046118E+02  0.39924046118E+02  0.00000000000E+00 0.  1.
          1   -1    0    0  503    0 -0.00000000000E+00 -0.00000000000E+00 -0.69073014891E+03  0.69073014891E+03  0.00000000000E+00 0. -1.
         21    1    1    2  503  504 -0.70592256623E+02 -0.85616389065E+02 -0.22319099045E+03  0.24925418952E+03  0.00000000000E+00 0.  1.
         21    1    1    2  504  505 -0.19939175119E+02  0.43559865175E+02 -0.35786159666E+02  0.59797004792E+02  0.00000000000E+00 0.  1.
         21    1    1    2  505  502  0.27346774243E+02  0.39586329619E+02 -0.35720088683E+02  0.59923687217E+02  0.00000000000E+00 0.  1.
          1    1    1    2  501    0  0.63184657499E+02  0.24701942710E+01 -0.35610886399E+03  0.36167931351E+03  0.00000000000E+00 0. -1.
<scales pt_clust_3="87.68235" pt_clust_4="47.35022" pt_clust_5="47.35022" pt_clust_6="63.23292"></scales>
<clustering>
<clus scale="   47.350">  4  5 -1 -1</clus>
<clus scale="   63.233">  2  6  1 -1</clus>
<clus scale="   87.682">  2  3  1 -1</clus>
<clus scale="   99.699">  1  3  2 -1</clus>
</clustering>
</event>
<event>
 6    0  0.4796958E+002  0.1388998E+03  0.7546771E-02  0.1214817E+00
          1   -1    0    0  504    0 -0.00000000000E+00  0.00000000000E+00  0.15200337269E+03  0.15200337269E+03  0.00000000000E+00 0.  1.
         21   -1    0    0  505  502  0.00000000000E+00 -0.00000000000E+00 -0.54186606142E+03  0.54186606142E+03  0.00000000000E+00 0.  1.
         21    1    1    2  503  501  0.47698893259E+02 -0.85912950395E+02  0.14955756712E+02  0.99397656524E+02  0.00000000000E+00 0.  1.
         21    1    1    2  504  502  0.28449543016E+01  0.20560911209E+03 -0.24966823456E+03  0.32344617495E+03  0.00000000000E+00 0.  1.
         21    1    1    2  505  503 -0.11708960354E+02 -0.11089309937E+03 -0.18854784360E+03  0.21905403116E+03  0.00000000000E+00 0.  1.
          1    1    1    2  501    0 -0.38834887206E+02 -0.88030623288E+01  0.33397632725E+02  0.51971571482E+02  0.00000000000E+00 0.  1.
<scales pt_clust_3="94.56966" pt_clust_4="138.89979" pt_clust_5="14000.00000" pt_clust_6="39.82013"></scales>
<clustering>
<clus scale="   39.820">  1  6  2 -1</clus>
<clus scale="   94.570">  1  3  2 -1</clus>
<clus scale="  138.900">  1  4  2 -1</clus>
<clus scale="  138.900">  2  3  1 -1</clus>
</clustering>
</event>
<event>
 6    0  0.4796958E+002  0.1518794E+03  0.7546771E-02  0.1198182E+00
         21   -1    0    0  503  502  0.00000000000E+00  0.00000000000E+00  0.47737763889E+02  0.47737763889E+02  0.00000000000E+00 0. -1.
          1   -1    0    0  505    0 -0.00000000000E+00 -0.00000000000E+00 -0.32367445801E+04  0.32367445801E+04  0.00000000000E+00 0.  1.
         21    1    1    2  503  501 -0.11644353348E+03  0.32933464771E+02 -0.15550188048E+03  0.19703944890E+03  0.00000000000E+00 0. -1.
         21    1    1    2  504  502 -0.51694414267E+02 -0.31127961467E+02 -0.15138902570E+02  0.62212931313E+02  0.00000000000E+00 0. -1.
         21    1    1    2  505  504  0.65320153848E+02  0.51111284080E+02 -0.94105663555E+03  0.94470454491E+03  0.00000000000E+00 0. -1.
          1    1    1    2  501    0  0.10281779390E+03 -0.52916787385E+02 -0.20773093976E+04  0.20805254189E+04  0.00000000000E+00 0.  1.
<scales pt_clust_3="151.87943" pt_clust_4="60.34287" pt_clust_5="78.42809" pt_clust_6="14000.00000"></scales>
<clustering>
<clus scale="   60.343">  1  4  2 -1</clus>
<clus scale="   78.428">  2  5  1 -1</clus>
<clus scale="  151.879">  1  3  2 -1</clus>
<clus scale="   60.343">  1  3  2 -1</clus>
</clustering>
</event>
<event>
 6    0  0.4796958E+002  0.2131127E+03  0.7546771E-02  0.1139125E+00
         21   -1    0    0  504  502  0.00000000000E+00  0.00000000000E+00  0.43753376019E+02  0.43753376019E+02  0.00000000000E+00 0. -1.
          2   -1    0    0  505    0 -0.00000000000E+00 -0.00000000000E+00 -0.21876607946E+04  0.21876607946E+04  0.00000000000E+00 0. -1.
         21    1    1    2  503  501  0.60812128252E+02 -0.10095898937E+03 -0.62516059412E+03  0.63617340476E+03  0.00000000000E+00 0. -1.
         21    1    1    2  504  503 -0.13151982186E+03  0.46464090503E+02 -0.14619236577E+03  0.20206083999E+03  0.00000000000E+00 0. -1.
         21    1    1    2  505  502 -0.14588450737E+02  0.10100212423E+03 -0.31378408371E+03  0.32996166926E+03  0.00000000000E+00 0. -1.
          2    1    1    2  501    0  0.85296144345E+02 -0.46507225360E+02 -0.10587703750E+04  0.10632182566E+04  0.00000000000E+00 0. -1.
<scales pt_clust_3="87.15257" pt_clust_4="190.26932" pt_clust_5="102.05024" pt_clust_6="87.15257"></scales>
<clustering>
<clus scale="   87.153">  3  6 -1 -1</clus>
<clus scale="  102.050">  1  5  2 -1</clus>
<clus scale="  190.269">  1  4  2 -1</clus>
<clus scale="  102.050">  1  3  2 -1</clus>
</clustering>
</event>
<event>
 6    0  0.4796958E+002  0.8517493E+02  0.7546771E-02  0.1314976E+00
         21   -1    0    0  505  502  0.00000000000E+00  0.00000000000E+00  0.29713558942E+03  0.29713558942E+03  0.00000000000E+00 0. -1.
         -2   -1    0    0    0  501 -0.00000000000E+00 -0.00000000000E+00 -0.17667731271E+03  0.17667731271E+03  0.00000000000E+00 0. -1.
         21    1    1    2  503  501 -0.23162688500E+02 -0.85905644171E+02 -0.70537005756E+02  0.11354188223E+03  0.00000000000E+00 0. -1.
         21    1    1    2  504  503  0.25007511953E+00  0.79533672263E+02  0.50985709299E+01  0.79697321076E+02  0.00000000000E+00 0. -1.
         21    1    1    2  505  504 -0.39267794351E+02 -0.16204629423E+02  0.20686210500E+03  0.21117878722E+03  0.00000000000E+00 0. -1.
         -2    1    1    2    0  502  0.62180407731E+02  0.22576601332E+02 -0.20965393467E+02  0.69394911604E+02  0.00000000000E+00 0. -1.
<scales pt_clust_3="14000.00000" pt_clust_4="85.17493" pt_clust_5="42.47999" pt_clust_6="54.49146"></scales>
<clustering>
<clus scale="   42.480">  1  5  2 -1</clus>
<clus scale="   54.491">  1  6  2 -1</clus>
<clus scale="   85.175">  1  4  2 -1</clus>
<clus scale="   42.480">  1  3  2 -1</clus>
</clustering>
</event>
<event>
 6    0  0.4796958E+002  0.1244520E+03  0.7546771E-02  0.1235928E+00
         21   -1    0    0  504  502  0.00000000000E+00  0.00000000000E+00  0.11135628238E+04  0.11135628238E+04  0.00000000000E+00 0. -1.
          2   -1    0    0  503    0 -0.00000000000E+00 -0.00000000000E+00 -0.32235489381E+03  0.32235489381E+03  0.00000000000E+00 0. -1.
         21    1    1    2  503  502 -0.26454153173E+02 -0.23261246778E+02  0.62235889909E+02  0.71513731650E+02  0.00000000000E+00 0. -1.
         21    1    1    2  504  505 -0.10260770374E+03  0.30946663227E+02  0.97603188021E+03  0.98189829820E+03  0.00000000000E+00 0. -1.
         21    1    1    2  505  501  0.10598410992E+03 -0.35112549721E+02  0.19678220065E+02  0.11336999183E+03  0.00000000000E+00 0. -1.
          2    1    1    2  501    0  0.23077746998E+02  0.27427133272E+02 -0.26673806021E+03  0.26913569590E+03  0.00000000000E+00 0. -1.
<scales pt_clust_3="35.22652" pt_clust_4="124.45201" pt_clust_5="14000.00000" pt_clust_6="35.80463"></scales>
<clustering>
<clus scale="   35.227">  1  3  2 -1</clus>
<clus scale="   35.805">  2  6  1 -1</clus>
<clus scale="  124.452">  1  4  2 -1</clus>
<clus scale="   35.227">  1  3  2 -1</clus>
</clustering>
</event>
<event>
 6    0  0.4796958E+002  0.8194053E+02  0.7546771E-02  0.1323633E+00
         -1   -1    0    0    0  501 -0.00000000000E+00  0.00000000000E+00  0.16540392485E+04  0.16540392485E+04  0.00000000000E+00 0. -1.
         21   -1    0    0  504  502  0.00000000000E+00 -0.00000000000E+00 -0.38303428894E+02  0.38303428894E+02  0.00000000000E+00 0. -1.
         21    1    1    2  503  502  0.42441240729E+02 -0.63687994482E+02  0.31583877136E+02  0.82794690957E+02  0.00000000000E+00 0. -1.
         21    1    1    2  504  501 -0.65622211362E+02  0.88571520098E+02  0.28793027957E+03  0.30830996528E+03  0.00000000000E+00 0. -1.
         21    1    1    2  505  503  0.12245959653E+02 -0.63430771918E+02  0.52233992767E+03  0.52631969979E+03  0.00000000000E+00 0. -1.
         -1    1    1    2    0  505  0.10935010980E+02  0.38547246302E+02  0.77388173522E+03  0.77491832136E+03  0.00000000000E+00 0. -1.
<scales pt_clust_3="14000.00000" pt_clust_4="81.94053" pt_clust_5="44.59368" pt_clust_6="40.06825"></scales>
<clustering>
<clus scale="   40.068">  1  6  2 -1</clus>
<clus scale="   44.594">  1  5  2 -1</clus>
<clus scale="   81.941">  1  4  2 -1</clus>
<clus scale="   81.941">  2  3  1 -1</clus>
</clustering>
</event>
<event>
 6    0  0.4796958E+002  0.1401062E+03  0.7546771E-02  0.1213186E+00
         21   -1    0    0  505  502  0.00000000000E+00  0.00000000000E+00  0.15089475889E+03  0.15089475889E+03  0.00000000000E+00 0.  1.
          2   -1    0    0  504    0 -0.00000000000E+00 -0.00000000000E+00 -0.80949183213E+03  0.80949183213E+03  0.00000000000E+00 0.  1.
         21    1    1    2  503  501 -0.43980647259E+02  0.37886025380E+02  0.20596216833E+02  0.61594256227E+02  0.00000000000E+00 0.  1.
         21    1    1    2  504  502  0.79049627621E+02 -0.57821534143E+02 -0.31978154169E+03  0.33444342996E+03  0.00000000000E+00 0.  1.
         21    1    1    2  505  503 -0.73734864007E+02  0.30847881321E+02  0.85839014543E+02  0.11728920824E+03  0.00000000000E+00 0.  1.
          2    1    1    2  501    0  0.38665883645E+02 -0.10912372559E+02 -0.44525076292E+03  0.44705969659E+03  0.00000000000E+00 0.  1.
<scales pt_clust_3="38.95592" pt_clust_4="132.43945" pt_clust_5="38.95592" pt_clust_6="40.17624"></scales>
<clustering>
<clus scale="   38.956">  3  5 -1 -1</clus>
<clus scale="   40.176">  2  6  1 -1</clus>
<clus scale="  132.439">  2  4  1 -1</clus>
<clus scale="  140.106">  1  3  2 -1</clus>
</clustering>
</event>
<event>
 6    0  0.4796958E+002  0.1153060E+03  0.7546771E-02  0.1251048E+00
         21   -1    0    0  504  502  0.00000000000E+00  0.00000000000E+00  0.11268196176E+04  0.11268196176E+04  0.00000000000E+00 0. -1.
         -3   -1    0    0    0  501 -0.00000000000E+00 -0.00000000000E+00 -0.12448309534E+03  0.12448309534E+03  0.00000000000E+00 0. -1.
         21    1    1    2  503  502  0.15703064987E+02 -0.42222150799E+02  0.66947166604E+03  0.67098554969E+03  0.00000000000E+00 0.  1.
         21    1    1    2  504  501 -0.10928588041E+03  0.48044000722E+02  0.26347444484E+03  0.28925838405E+03  0.00000000000E+00 0. -1.
         21    1    1    2  505  503  0.15454992450E+03 -0.18344267034E+02  0.13104027423E+03  0.20345452752E+03  0.00000000000E+00 0. -1.
         -3    1    1    2    0  505 -0.60967109082E+02  0.12522417111E+02 -0.61649862863E+02  0.87604251673E+02  0.00000000000E+00 0. -1.
<scales pt_clust_3="45.04771" pt_clust_4="14000.00000" pt_clust_5="115.30600" pt_clust_6="61.57080"></scales>
<clustering>
<clus scale="   45.048">  1  3  2 -1</clus>
<clus scale="   61.571">  2  6  1 -1</clus>
<clus scale="  115.306">  2  5  1 -1</clus>
<clus scale="   45.048">  1  3  2 -1</clus>
</clustering>
</event>
<event>
 6    0  0.4796958E+002  0.6720797E+02  0.7546771E-02  0.1369853E+00
          2   -1    0    0  505    0 -0.00000000000E+00  0.00000000000E+00  0.29281897271E+03  0.29281897271E+03  0.00000000000E+00 0.  1.
         21   -1    0    0  504  502  0.00000000000E+00 -0.00000000000E+00 -0.12297176861E+03  0.12297176861E+03  0.00000000000E+00 0.  1.
         21    1    1    2  503  502 -0.17049897538E+02 -0.77650561105E+02 -0.42481245249E+01  0.79613787800E+02  0.00000000000E+00 0.  1.
         21    1    1    2  504  501  0.67219730745E+02  0.27853750494E+02 -0.45138120276E+02  0.85625776026E+02  0.00000000000E+00 0.  1.
         21    1    1    2  505  503  0.25123503278E+02  0.34034444702E+02  0.56789966335E+02  0.70814081364E+02  0.00000000000E+00 0. -1.
          2    1    1    2  501    0 -0.75293336485E+02  0.15762365909E+02  0.16244348257E+03  0.17973709613E+03  0.00000000000E+00 0.  1.
<scales pt_clust_3="67.20797" pt_clust_4="14000.00000" pt_clust_5="42.30288" pt_clust_6="69.93919"></scales>
<clustering>
<clus scale="   42.303">  1  5  2 -1</clus>
<clus scale="   69.939">  1  6  2 -1</clus>
<clus scale="   67.208">  1  3  2 -1</clus>
<clus scale="   67.208">  2  3  1 -1</clus>
</clustering>
</event>
<event>
 6    0  0.4796958E+002  0.1278374E+03  0.7546771E-02  0.1230700E+00
         21   -1    0    0  504  502  0.00000000000E+00  0.00000000000E+00  0.71786874627E+02  0.71786874627E+02  0.00000000000E+00 0.  1.
          2   -1    0    0  503    0 -0.00000000000E+00 -0.00000000000E+00 -0.84816490584E+03  0.84816490584E+03  0.00000000000E+00 0. -1.
         21    1    1    2  503  502  0.14373988178E+03  0.12531360781E+02 -0.55284297584E+03  0.57136113322E+03  0.00000000000E+00 0. -1.
         21    1    1    2  504  505 -0.43344969594E+02  0.53943761996E+02  0.30314676458E+01  0.69266915937E+02  0.00000000000E+00 0. -1.
         21    1    1    2  505  501 -0.96545413510E+02 -0.30068481828E+02 -0.81985405617E+02  0.13017963437E+03  0.00000000000E+00 0.  1.
          2    1    1    2  501    0 -0.38494986737E+01 -0.36406640949E+02 -0.14458111740E+03  0.14914409695E+03  0.00000000000E+00 0. -1.
<scales pt_clust_3="14000.00000" pt_clust_4="67.98514" pt_clust_5="127.83738" pt_clust_6="36.60959"></scales>
<clustering>
<clus scale="   36.610">  2  6  1 -1</clus>
<clus scale="   67.985">  1  4  2 -1</clus>
<clus scale="  127.837">  1  5  2 -1</clus>
<clus scale="   67.985">  1  3  2 -1</clus>
</clustering>
</event>
<event>
 6    0  0.4796958E+002  0.1343593E+03  0.7546771E-02  0.1221127E+00
         21   -1    0    0  504  502  0.00000000000E+00  0.00000000000E+00  0.15678728791E+03  0.15678728791E+03  0.00000000000E+00 0. -1.
          2   -1    0    0  503    0 -0.00000000000E+00 -0.00000000000E+00 -0.68096552619E+03  0.68096552619E+03  0.00000000000E+00 0.  1.
         21    1    1    2  503  502  0.35247242780E+02  0.16365846960E+02 -0.14619719145E+02  0.41520419773E+02  0.00000000000E+00 0. -1.
         21    1    1    2  504  505 -0.33660254611E+02 -0.33046963871E+02  0.49171639234E+02  0.68139303391E+02  0.00000000000E+00 0.  1.
         21    1    1    2  505  501 -0.13094138667E+03 -0.20651612353E+02  0.19865210474E+02  0.13404015228E+03  0.00000000000E+00 0. -1.
          2    1    1    2  501    0  0.12935439850E+03  0.37332729263E+02 -0.57859536884E+03  0.59405293866E+03  0.00000000000E+00 0.  1.
<scales pt_clust_3="38.86141" pt_clust_4="32.62453" pt_clust_5="14000.00000" pt_clust_6="134.35933"></scales>
<clustering>
<clus scale="   38.861">  1  3  2 -1</clus>
<clus scale="   32.625">  1  4  2 -1</clus>
<clus scale="  134.359">  2  6  1 -1</clus>
<clus scale="   38.861">  1  3  2 -1</clus>
</clustering>
</event>
<event>
 6    0  0.4796958E+002  0.7759036E+02  0.7546771E-02  0.1336032E+00
          2   -1    0    0  505    0 -0.00000000000E+00  0.00000000000E+00  0.21644007838E+03  0.21644007838E+03  0.00000000000E+00 0. -1.
         21   -1    0    0  503  502  0.00000000000E+00 -0.00000000000E+00 -0.18198497865E+03  0.18198497865E+03  0.00000000000E+00 0. -1.
         21    1    1    2  503  501 -0.23458325918E+02 -0.11635054177E+03 -0.40713444966E+02  0.12548038184E+03  0.00000000000E+00 0. -1.
         21    1    1    2  504  502  0.45749241735E+02  0.49918463502E+02 -0.68436622095E+02  0.96272619999E+02  0.00000000000E+00 0. -1.
         21    1    1    2  505  504  0.17799838866E+02  0.42999079692E+02  0.33997047199E+02  0.57632927535E+02  0.00000000000E+00 0. -1.
          2    1    1    2  501    0 -0.40090754683E+02  0.23432998580E+02  0.10960811959E+03  0.11903912766E+03  0.00000000000E+00 0. -1.
<scales pt_clust_3="77.59036" pt_clust_4="14000.00000" pt_clust_5="53.51272" pt_clust_6="46.43677"></scales>
<clustering>
<clus scale="   46.437">  1  6  2 -1</clus>
<clus scale="   53.513">  1  5  2 -1</clus>
<clus scale="   77.590">  1  3  2 -1</clus>
<clus scale="   77.590">  2  3  1 -1</clus>
</clustering>
</event>
<event>
 6    0  0.4796958E+002  0.7664127E+02  0.7546771E-02  0.1338863E+00
         21   -1    0    0  501  502  0.00000000000E+00  0.00000000000E+00  0.17637007292E+02  0.17637007292E+02  0.00000000000E+00 0. -1.
          2   -1    0    0  503    0 -0.00000000000E+00 -0.00000000000E+00 -0.23074356762E+04  0.23074356762E+04  0.00000000000E+00 0. -1.
         21    1    1    2  503  505  0.68948720746E+02 -0.13622739571E+01 -0.34837935157E+03  0.35513934516E+03  0.00000000000E+00 0. -1.
         21    1    1    2  504  502  0.19869828966E+02  0.36846831829E+02 -0.97154193895E+02  0.10578958602E+03  0.00000000000E+00 0. -1.
         21    1    1    2  505  504 -0.44784497223E+02  0.42343964550E+02 -0.99189315625E+02  0.11677834928E+03  0.00000000000E+00 0. -1.
          2    1    1    2  501    0 -0.44034052490E+02 -0.77828522423E+02 -0.17450758078E+04  0.17473654030E+04  0.00000000000E+00 0. -1.
<scales pt_clust_3="76.64127" pt_clust_4="41.86286" pt_clust_5="73.81049" pt_clust_6="14000.00000"></scales>
<clustering>
<clus scale="   41.863">  1  4  2 -1</clus>
<clus scale="   73.810">  1  5  2 -1</clus>
<clus scale="   76.641">  1  3  2 -1</clus>
<clus scale="   41.863">  1  3  2 -1</clus>
</clustering>
</event>
<event>
 6    0  0.4796958E+002  0.1043835E+03  0.7546771E-02  0.1271339E+00
         21   -1    0    0  505  502  0.00000000000E+00  0.00000000000E+00  0.21292471349E+04  0.21292471349E+04  0.00000000000E+00 0. -1.
         -3   -1    0    0    0  501 -0.00000000000E+00 -0.00000000000E+00 -0.44308099304E+02  0.44308099304E+02  0.00000000000E+00 0. -1.
         21    1    1    2  503  502 -0.15344345592E+03  0.15220087864E+02  0.45725257217E+03  0.48255202828E+03  0.00000000000E+00 0. -1.
         21    1    1    2  504  501  0.41376186424E+02 -0.73064008815E-01  0.45708380817E+03  0.45895272287E+03  0.00000000000E+00 0. -1.
         21    1    1    2  505  504  0.50672798450E+02 -0.19569089622E+01  0.11681052343E+04  0.11692054569E+04  0.00000000000E+00 0. -1.
         -3    1    1    2    0  503  0.61394471049E+02 -0.13190114893E+02  0.24974209809E+01  0.62845026198E+02  0.00000000000E+00 0. -1.
<scales pt_clust_3="98.55663" pt_clust_4="31.06179" pt_clust_5="31.06179" pt_clust_6="62.79538"></scales>
<clustering>
<clus scale="   31.062">  4  5 -1 -1</clus>
<clus scale="   62.795">  2  6  1 -1</clus>
<clus scale="   98.557">  2  3  1 -1</clus>
<clus scale="  104.383">  1  3  2 -1</clus>
</clustering>
</event>
<event>
 6    0  0.4796958E+002  0.1415086E+03  0.7546771E-02  0.1211313E+00
         21   -1    0    0  501  502  0.00000000000E+00  0.00000000000E+00  0.38480065408E+03  0.38480065408E+03  0.00000000000E+00 0.  1.
          1   -1    0    0  505    0 -0.00000000000E+00 -0.00000000000E+00 -0.24438531667E+04  0.24438531667E+04  0.00000000000E+00 0.  1.
         21    1    1    2  503  502 -0.70653090380E+02 -0.13416110679E+02  0.31938013816E+03  0.32737673078E+03  0.00000000000E+00 0.  1.
         21    1    1    2  504  503 -0.80369134942E+02  0.13381003770E+02  0.18323114872E+02  0.83510392478E+02  0.00000000000E+00 0. -1.
         21    1    1    2  505  504  0.19477899927E+03 -0.10949217415E+02 -0.23238974203E+04  0.23320716035E+04  0.00000000000E+00 0.  1.
          1    1    1    2  501    0 -0.43756773949E+02  0.10984324324E+02 -0.72858345380E+02  0.85695094018E+02  0.00000000000E+00 0.  1.
<scales pt_clust_3="71.98482" pt_clust_4="14000.00000" pt_clust_5="141.50857" pt_clust_6="45.11442"></scales>
<clustering>
<clus scale="   45.114">  2  6  1 -1</clus>
<clus scale="   71.985">  1  3  2 -1</clus>
<clus scale="  141.509">  2  5  1 -1</clus>
<clus scale="   71.985">  1  3  2 -1</clus>
</clustering>
</event>
<event>
 6    0  0.4796958E+002  0.6402030E+02  0.7546771E-02  0.1381695E+00
          1   -1    0    0  505    0 -0.00000000000E+00  0.00000000000E+00  0.99536237448E+03  0.99536237448E+03  0.00000000000E+00 0.  1.
         21   -1    0    0  503  502  0.00000000000E+00 -0.00000000000E+00 -0.37097208958E+03  0.37097208958E+03  0.00000000000E+00 0.  1.
         21    1    1    2  503  501  0.89561679022E+02 -0.55020162056E+02 -0.32865208059E+03  0.34505173910E+03  0.00000000000E+00 0.  1.
         21    1    1    2  504  502 -0.27055881251E+02  0.52780611311E+02  0.12085829404E+02  0.60530000107E+02  0.00000000000E+00 0.  1.
         21    1    1    2  505  504  0.13243093156E+02 -0.33315335136E+02  0.32312304629E+02  0.48263610536E+02  0.00000000000E+00 0.  1.
          1    1    1    2  501    0 -0.75748890927E+02  0.35554885881E+02  0.90864423145E+03  0.91248911431E+03  0.00000000000E+00 0.  1.
<scales pt_clust_3="64.02030" pt_clust_4="57.95459" pt_clust_5="35.85096" pt_clust_6="14000.00000"></scales>
<clustering>
<clus scale="   35.851">  1  5  2 -1</clus>
<clus scale="   57.955">  2  4  1 -1</clus>
<clus scale="   64.020">  2  3  1 -1</clus>
<clus scale="   57.955">  2  3  1 -1</clus>
</clustering>
</event>
<event>
 6    0  0.4796958E+002  0.1282400E+03  0.7546771E-02  0.1230091E+00
          2   -1    0    0  503    0 -0.00000000000E+00  0.00000000000E+00  0.13594345485E+04  0.13594345485E+04  0.00000000000E+00 0. -1.
         21   -1    0    0  501  502  0.00000000000E+00 -0.00000000000E+00 -0.73666964632E+02  0.73666964632E+02  0.00000000000E+00 0. -1.
         21    1    1    2  503  505  0.14082818745E+03 -0.12268550430E+02  0.84794209482E+03  0.85964463116E+03  0.00000000000E+00 0. -1.
         21    1    1    2  504  502  0.24433585502E+02 -0.30552767647E+02  0.15688990535E+02  0.42149924500E+02  0.00000000000E+00 0. -1.
         21    1    1    2  505  504 -0.12812236258E+03 -0.46969902273E+02  0.47840237327E+02  0.14460359546E+03  0.00000000000E+00 0. -1.
          2    1    1    2  501    0 -0.37139410372E+02  0.89791220350E+02  0.37429626113E+03  0.38670336196E+03  0.00000000000E+00 0. -1.
<scales pt_clust_3="128.24002" pt_clust_4="39.12124" pt_clust_5="14000.00000" pt_clust_6="93.31903"></scales>
<clustering>
<clus scale="   39.121">  2  4  1 -1</clus>
<clus scale="   93.319">  1  6  2 -1</clus>
<clus scale="  128.240">  1  3  2 -1</clus>
<clus scale="   39.121">  2  3  1 -1</clus>
</clustering>
</event>
<event>
 6    0  0.4796958E+002  0.9007816E+02  0.7546771E-02  0.1302663E+00
         21   -1    0    0  504  502  0.00000000000E+00  0.00000000000E+00  0.14787049757E+04  0.14787049757E+04  0.00000000000E+00 0.  1.
          4   -1    0    0  502    0 -0.00000000000E+00 -0.00000000000E+00 -0.14695070786E+03  0.14695070786E+03  0.00000000000E+00 0. -1.
         21    1    1    2  503  501 -0.11516202949E+03 -0.44012873834E+01  0.24971741345E+02  0.11792053355E+03  0.00000000000E+00 0.  1.
         21    1    1    2  504  505 -0.38448636788E+02 -0.45022789261E+02  0.81539395870E+03  0.81754061496E+03  0.00000000000E+00 0. -1.
         21    1    1    2  505  503  0.11974141037E+03  0.54946415506E+02  0.58020727235E+03  0.59497696831E+03  0.00000000000E+00 0.  1.
          4    1    1    2  501    0  0.33869255909E+02 -0.55223388621E+01 -0.88818704589E+02  0.95217566695E+02  0.00000000000E+00 0. -1.
<scales pt_clust_3="14000.00000" pt_clust_4="58.86108" pt_clust_5="90.07816" pt_clust_6="34.31651"></scales>
<clustering>
<clus scale="   34.317">  2  6  1 -1</clus>
<clus scale="   58.861">  1  4  2 -1</clus>
<clus scale="   90.078">  1  5  2 -1</clus>
<clus scale="   58.861">  1  3  2 -1</clus>
</clustering>
</event>
<event>
 6    0  0.4796958E+002  0.1592738E+03  0.7546771E-02  0.1189519E+00
         21   -1    0    0  505  502  0.00000000000E+00  0.00000000000E+00  0.61855284686E+03  0.61855284686E+03  0.00000000000E+00 0.  1.
          1   -1    0    0  504    0 -0.00000000000E+00 -0.00000000000E+00 -0.34241803521E+04  0.34241803521E+04  0.00000000000E+00 0. -1.
         21    1    1    2  503  502 -0.14790381057E+03 -0.61699693541E+02  0.59645077626E+03  0.61760498530E+03  0.00000000000E+00 0.  1.
         21    1    1    2  504  503 -0.52577302467E+01  0.33389136105E+02 -0.12476391903E+03  0.12926141586E+03  0.00000000000E+00 0.  1.
         21    1    1    2  505  501  0.13203884632E+03 -0.25292850739E+02 -0.49430415276E+03  0.51226026653E+03  0.00000000000E+00 0.  1.
          1    1    1    2  501    0  0.21122694494E+02  0.53603408174E+02 -0.27830102097E+04  0.27836065313E+04  0.00000000000E+00 0. -1.
<scales pt_clust_3="14000.00000" pt_clust_4="33.80056" pt_clust_5="159.27379" pt_clust_6="83.47330"></scales>
<clustering>
<clus scale="   33.801">  2  4  1 -1</clus>
<clus scale="   83.473">  2  6  1 -1</clus>
<clus scale="  159.274">  2  5  1 -1</clus>
<clus scale="  159.274">  1  3  2 -1</clus>
</clustering>
</event>
<event>
 6    0  0.4796958E+002  0.1826748E+03  0.7546771E-02  0.1165239E+00
          2   -1    0    0  505    0 -0.00000000000E+00  0.00000000000E+00  0.30899733795E+04  0.30899733795E+04  0.00000000000E+00 0.  1.
         21   -1    0    0  503  502  0.00000000000E+00 -0.00000000000E+00 -0.18469048450E+04  0.18469048450E+04  0.00000000000E+00 0.  1.
         21    1    1    2  503  504  0.67387123782E+02  0.36296450871E+02 -0.61400359171E+02  0.98124721165E+02  0.00000000000E+00 0.  1.
         21    1    1    2  504  501  0.84241538699E+02 -0.12105908041E+03  0.68439935691E+03  0.70011028954E+03  0.00000000000E+00 0.  1.
         21    1    1    2  505  502 -0.11409856375E+03  0.14195863798E+03 -0.17540791611E+04  0.17635091269E+04  0.00000000000E+00 0.  1.
          2    1    1    2  501    0 -0.37530098734E+02 -0.57196008444E+02  0.23741486978E+04  0.23751340870E+04  0.00000000000E+00 0.  1.
<scales pt_clust_3="75.00081" pt_clust_4="182.67484" pt_clust_5="14000.00000" pt_clust_6="68.40973"></scales>
<clustering>
<clus scale="   68.410">  1  6  2 -1</clus>
<clus scale="   75.001">  2  3  1 -1</clus>
<clus scale="  182.675">  1  4  2 -1</clus>
<clus scale="   75.001">  2  3  1 -1</clus>
</clustering>
</event>
<event>
 6    0  0.4796958E+002  0.7852756E+02  0.7546771E-02  0.1333283E+00
         21   -1    0    0  503  502  0.00000000000E+00  0.00000000000E+00  0.64279438876E+02  0.64279438876E+02  0.00000000000E+00 0. -1.
          2   -1    0    0  505    0 -0.00000000000E+00 -0.00000000000E+00 -0.18940700035E+04  0.18940700035E+04  0.00000000000E+00 0. -1.
         21    1    1    2  503  501  0.79144449512E+02 -0.68691963282E+02 -0.42268888131E+02  0.11300039209E+03  0.00000000000E+00 0. -1.
         21    1    1    2  504  502 -0.64745350648E+02 -0.21578067033E+02 -0.35860876632E+02  0.77094590474E+02  0.00000000000E+00 0. -1.
         21    1    1    2  505  504  0.26154372104E+02  0.70299726792E+02 -0.16840948802E+03  0.18435796273E+03  0.00000000000E+00 0. -1.
          2    1    1    2  501    0 -0.40553470968E+02  0.19970303523E+02 -0.15832513118E+04  0.15838964971E+04  0.00000000000E+00 0. -1.
<scales pt_clust_3="78.52756" pt_clust_4="74.32094" pt_clust_5="14000.00000" pt_clust_6="45.20395"></scales>
<clustering>
<clus scale="   45.204">  2  6  1 -1</clus>
<clus scale="   74.321">  1  4  2 -1</clus>
<clus scale="   78.528">  1  3  2 -1</clus>
<clus scale="   74.321">  1  3  2 -1</clus>
</clustering>
</event>
<event>
 6    0  0.4796958E+002  0.9334024E+02  0.7546771E-02  0.1294959E+00
         21   -1    0    0  505  502  0.00000000000E+00  0.00000000000E+00  0.21017857310E+04  0.21017857310E+04  0.00000000000E+00 0.  1.
          1   -1    0    0  504    0 -0.00000000000E+00 -0.00000000000E+00 -0.93536311920E+03  0.93536311920E+03  0.00000000000E+00 0. -1.
         21    1    1    2  503  501  0.34310401183E+02  0.12894892742E+03  0.13317556424E+03  0.18852257271E+03  0.00000000000E+00 0.  1.
         21    1    1    2  504  502  0.32151646886E+02 -0.27194119320E+02  0.62169210845E+03  0.62311662329E+03  0.00000000000E+00 0. -1.
         21    1    1    2  505  503 -0.56063962859E+02 -0.61316278513E+02  0.13167417593E+04  0.13193603430E+04  0.00000000000E+00 0.  1.
          1    1    1    2  501    0 -0.10398085210E+02 -0.40438529589E+02 -0.90518682016E+03  0.90614931123E+03  0.00000000000E+00 0. -1.
<scales pt_clust_3="93.34024" pt_clust_4="42.55547" pt_clust_5="14000.00000" pt_clust_6="41.75398"></scales>
<clustering>
<clus scale="   41.754">  2  6  1 -1</clus>
<clus scale="   42.555">  1  4  2 -1</clus>
<clus scale="   93.340">  2  3  1 -1</clus>
<clus scale="   42.555">  1  3  2 -1</clus>
</clustering>
</event>
<event>
 6    0  0.4796958E+002  0.8725895E+02  0.7546771E-02  0.1309629E+00
         21   -1    0    0  504  502  0.00000000000E+00  0.00000000000E+00  0.91527113512E+02  0.91527113512E+02  0.00000000000E+00 0.  1.
          2   -1    0    0  503    0 -0.00000000000E+00 -0.00000000000E+00 -0.58194131382E+03  0.58194131382E+03  0.00000000000E+00 0. -1.
         21    1    1    2  503  505  0.24946508886E+02 -0.89814985971E+02 -0.19663956515E+03  0.21761474810E+03  0.00000000000E+00 0.  1.
         21    1    1    2  504  501 -0.93114219439E+02  0.91921264517E+01 -0.10653324508E+02  0.94171367057E+02  0.00000000000E+00 0.  1.
         21    1    1    2  505  502  0.59305146566E+02 -0.49786017201E+01  0.61973815728E+01  0.59835561522E+02  0.00000000000E+00 0.  1.
          2    1    1    2  501    0  0.88625639867E+01  0.85601461240E+02 -0.28931869223E+03  0.30184675065E+03  0.00000000000E+00 0. -1.
<scales pt_clust_3="87.25895" pt_clust_4="51.10024" pt_clust_5="59.51375" pt_clust_6="14000.00000"></scales>
<clustering>
<clus scale="   59.514">  1  5  2 -1</clus>
<clus scale="   51.100">  1  4  2 -1</clus>
<clus scale="   87.259">  1  3  2 -1</clus>
<clus scale="   59.514">  1  3  2 -1</clus>
</clustering>
</event>
<event>
 6    0  0.4796958E+002  0.1017731E+03  0.7546771E-02  0.1276611E+00
         -2   -1    0    0    0  501 -0.00000000000E+00  0.00000000000E+00  0.13888875511E+03  0.13888875511E+03  0.00000000000E+00 0.  1.
         21   -1    0    0  504  502  0.00000000000E+00 -0.00000000000E+00 -0.13486434598E+04  0.13486434598E+04  0.00000000000E+00 0.  1.
         21    1    1    2  503  501 -0.59503109990E+02 -0.83514745689E+02 -0.83750106955E+02  0.13239869056E+03  0.00000000000E+00 0. -1.
         21    1    1    2  504  503  0.36945614489E+02  0.11316074838E+03 -0.10510142100E+04  0.10577339944E+04  0.00000000000E+00 0.  1.
         21    1    1    2  505  502 -0.33117402286E+02 -0.10899423549E+02 -0.17661147074E+03  0.18001991936E+03  0.00000000000E+00 0.  1.
         -2    1    1    2    0  505  0.55674897787E+02 -0.18746579138E+02  0.10162108298E+03  0.11737961058E+03  0.00000000000E+00 0.  1.
<scales pt_clust_3="14000.00000" pt_clust_4="101.77314" pt_clust_5="34.86488" pt_clust_6="58.55858"></scales>
<clustering>
<clus scale="   34.865">  2  5  1 -1</clus>
<clus scale="   58.559">  1  6  2 -1</clus>
<clus scale="  101.773">  2  4  1 -1</clus>
<clus scale="   34.865">  2  3  1 -1</clus>
</clustering>
</event>
<event>
 6    0  0.4796958E+002  0.1009353E+03  0.7546771E-02  0.1278341E+00
         21   -1    0    0  503  502  0.00000000000E+00  0.00000000000E+00  0.60821595198E+03  0.60821595198E+03  0.00000000000E+00 0. -1.
          2   -1    0    0  504    0 -0.00000000000E+00 -0.00000000000E+00 -0.18849412964E+04  0.18849412964E+04  0.00000000000E+00 0. -1.
         21    1    1    2  503  501 -0.32058459000E+02  0.50546002053E+02  0.41825852260E+03  0.42251962658E+03  0.00000000000E+00 0. -1.
         21    1    1    2  504  505  0.34292501568E+00 -0.42340263134E+02 -0.86056749155E+03  0.86160850912E+03  0.00000000000E+00 0.  1.
         21    1    1    2  505  502 -0.62723703529E+02 -0.13010071050E+02  0.17956438758E+03  0.19064861452E+03  0.00000000000E+00 0.  1.
          2    1    1    2  501    0  0.94439237514E+02  0.48043321313E+01 -0.10139807631E+04  0.10183804982E+04  0.00000000000E+00 0. -1.
<scales pt_clust_3="59.78042" pt_clust_4="42.34165" pt_clust_5="14000.00000" pt_clust_6="100.93530"></scales>
<clustering>
<clus scale="   42.342">  2  4  1 -1</clus>
<clus scale="   59.780">  1  3  2 -1</clus>
<clus scale="  100.935">  2  6  1 -1</clus>
<clus scale="   59.780">  1  3  2 -1</clus>
</clustering>
</event>
<event>
 6    0  0.4796958E+002  0.7065396E+02  0.7546771E-02  0.1357883E+00
          1   -1    0    0  503    0 -0.00000000000E+00  0.00000000000E+00  0.14818739340E+04  0.14818739340E+04  0.00000000000E+00 0. -1.
         21   -1    0    0  505  502  0.00000000000E+00 -0.00000000000E+00 -0.22573877084E+02  0.22573877084E+02  0.00000000000E+00 0.  1.
         21    1    1    2  503  502 -0.76777789369E+02  0.43435002974E+02  0.14126027456E+03  0.16654096671E+03  0.00000000000E+00 0.  1.
         21    1    1    2  504  501  0.63073822015E+02 -0.54248195746E+02  0.66862743091E+03  0.67378321079E+03  0.00000000000E+00 0.  1.
         21    1    1    2  505  504  0.97528253876E+01 -0.52128141576E+02  0.12298213060E+03  0.13392932910E+03  0.00000000000E+00 0.  1.
          1    1    1    2  501    0  0.39511419667E+01  0.62941334348E+02  0.52643022085E+03  0.53019430449E+03  0.00000000000E+00 0. -1.
<scales pt_clust_3="14000.00000" pt_clust_4="70.65396" pt_clust_5="53.03264" pt_clust_6="57.42440"></scales>
<clustering>
<clus scale="   53.033">  2  5  1 -1</clus>
<clus scale="   57.424">  1  6  2 -1</clus>
<clus scale="   70.654">  1  4  2 -1</clus>
<clus scale="   53.033">  2  3  1 -1</clus>
</clustering>
</event>
<event>
 6    0  0.4796958E+002  0.8022562E+02  0.7546771E-02  0.1328412E+00
          1   -1    0    0  503    0 -0.00000000000E+00  0.00000000000E+00  0.44223289229E+03  0.44223289229E+03  0.00000000000E+00 0.  1.
         21   -1    0    0  505  502  0.00000000000E+00 -0.00000000000E+00 -0.71212839854E+03  0.71212839854E+03  0.00000000000E+00 0. -1.
         21    1    1    2  503  502  0.23006955638E+02 -0.11903979484E+03  0.49358606796E+02  0.13090479299E+03  0.00000000000E+00 0. -1.
         21    1    1    2  504  501  0.71977801567E+01  0.56084889653E+02 -0.25892413548E+03  0.26502647192E+03  0.00000000000E+00 0. -1.
         21    1    1    2  505  504 -0.23977059807E+02  0.22989885916E+02 -0.40753020372E+03  0.40888176922E+03  0.00000000000E+00 0. -1.
          1    1    1    2  501    0 -0.62276759879E+01  0.39965019273E+02  0.34720022616E+03  0.34954825669E+03  0.00000000000E+00 0.  1.
<scales pt_clust_3="14000.00000" pt_clust_4="80.22562" pt_clust_5="33.21798" pt_clust_6="40.54942"></scales>
<clustering>
<clus scale="   33.218">  2  5  1 -1</clus>
<clus scale="   40.549">  1  6  2 -1</clus>
<clus scale="   80.226">  2  4  1 -1</clus>
<clus scale="   33.218">  2  3  1 -1</clus>
</clustering>
</event>
<event>
 6    0  0.4796958E+002  0.7877193E+02  0.7546771E-02  0.1332573E+00
          4   -1    0    0  503    0 -0.00000000000E+00  0.00000000000E+00  0.16202924233E+04  0.16202924233E+04  0.00000000000E+00 0. -1.
         21   -1    0    0  504  502  0.00000000000E+00 -0.00000000000E+00 -0.45474553021E+02  0.45474553021E+02  0.00000000000E+00 0. -1.
         21    1    1    2  503  502  0.39866530553E+02  0.60347052639E+02  0.13394562718E+03  0.15222528720E+03  0.00000000000E+00 0.  1.
         21    1    1    2  504  505  0.49853012142E+02 -0.86370341611E+02  0.51800494592E+02  0.11237637639E+03  0.00000000000E+00 0. -1.
         21    1    1    2  505  501 -0.51219277416E+02 -0.67230630285E+01  0.11475283309E+03  0.12584445422E+03  0.00000000000E+00 0. -1.
          4    1    1    2  501    0 -0.38500265280E+02  0.32746352001E+02  0.12743189154E+04  0.12753208585E+04  0.00000000000E+00 0. -1.
<scales pt_clust_3="78.77193" pt_clust_4="14000.00000" pt_clust_5="64.79485" pt_clust_6="50.54299"></scales>
<clustering>
<clus scale="   50.543">  1  6  2 -1</clus>
<clus scale="   64.795">  1  5  2 -1</clus>
<clus scale="   78.772">  1  3  2 -1</clus>
<clus scale="   78.772">  2  3  1 -1</clus>
</clustering>
</event>
<event>
 6    0  0.4796958E+002  0.9580672E+02  0.7546771E-02  0.1289369E+00
          2   -1    0    0  504    0 -0.00000000000E+00  0.00000000000E+00  0.18101731285E+04  0.18101731285E+04  0.00000000000E+00 0.  1.
         21   -1    0    0  501  502  0.00000000000E+00 -0.00000000000E+00 -0.79671646419E+03  0.79671646419E+03  0.00000000000E+00 0. -1.
         21    1    1    2  503  505 -0.56552580794E+02  0.82088480956E+02 -0.28092815026E+01  0.99722641174E+02  0.00000000000E+00 0. -1.
         21    1    1    2  504  503 -0.40481254178E+02 -0.15073989443E+02  0.17406236033E+03  0.17934230505E+03  0.00000000000E+00 0. -1.
         21    1    1    2  505  502  0.29660115530E+02  0.99916899041E+01 -0.74082849851E+03  0.74148932597E+03  0.00000000000E+00 0. -1.
          2    1    1    2  501    0  0.67373719443E+02 -0.77006181418E+02  0.15830320840E+04  0.15863353205E+04  0.00000000000E+00 0.  1.
<scales pt_clust_3="95.80672" pt_clust_4="41.71029" pt_clust_5="31.29786" pt_clust_6="14000.00000"></scales>
<clustering>
<clus scale="   31.298">  2  5  1 -1</clus>
<clus scale="   41.710">  1  4  2 -1</clus>
<clus scale="   95.807">  2  3  1 -1</clus>
<clus scale="   31.298">  2  3  1 -1</clus>
</clustering>
</event>
<event>
 6    0  0.4796958E+002  0.1440854E+03  0.7546771E-02  0.1207935E+00
         21   -1    0    0  504  502  0.00000000000E+00  0.00000000000E+00  0.31149204458E+03  0.31149204458E+03  0.00000000000E+00 0. -1.
          2   -1    0    0  505    0 -0.00000000000E+00 -0.00000000000E+00 -0.14834733175E+04  0.14834733175E+04  0.00000000000E+00 0.  1.
         21    1    1    2  503  502  0.12563700054E+02 -0.53460670670E+02  0.23241285501E+03  0.23881294990E+03  0.00000000000E+00 0. -1.
         21    1    1    2  504  501 -0.29715853661E+00 -0.10401903525E+03  0.25298196829E+02  0.10705160793E+03  0.00000000000E+00 0. -1.
         21    1    1    2  505  503 -0.19716951176E+02  0.12301460877E+03 -0.40333574985E+03  0.42213869669E+03  0.00000000000E+00 0.  1.
          2    1    1    2  501    0  0.74504096591E+01  0.34465097142E+02 -0.10263565749E+04  0.10269621075E+04  0.00000000000E+00 0.  1.
<scales pt_clust_3="54.69413" pt_clust_4="14000.00000" pt_clust_5="144.08542" pt_clust_6="35.26119"></scales>
<clustering>
<clus scale="   35.261">  2  6  1 -1</clus>
<clus scale="   54.694">  1  3  2 -1</clus>
<clus scale="  144.085">  2  5  1 -1</clus>
<clus scale="   54.694">  1  3  2 -1</clus>
</clustering>
</event>
<event>
 6    0  0.4796958E+002  0.5328746E+02  0.7546771E-02  0.1428376E+00
         -2   -1    0    0    0  501 -0.00000000000E+00  0.00000000000E+00  0.25447271216E+04  0.25447271216E+04  0.00000000000E+00 0.  1.
         21   -1    0    0  504  502  0.00000000000E+00 -0.00000000000E+00 -0.11860054224E+03  0.11860054224E+03  0.00000000000E+00 0.  1.
         21    1    1    2  503  501  0.42043241484E+02 -0.19217286078E+02  0.53907912036E+02  0.71014091692E+02  0.00000000000E+00 0.  1.
         21    1    1    2  504  503  0.34409635843E+02 -0.17055267648E+02 -0.15861474042E+02  0.41551071612E+02  0.00000000000E+00 0.  1.
         21    1    1    2  505  502 -0.11308011100E+03 -0.23004768205E+01 -0.41591750332E+02  0.12050841213E+03  0.00000000000E+00 0.  1.
         -2    1    1    2    0  505  0.36627233678E+02  0.38573030547E+02  0.24296718917E+04  0.24302540884E+04  0.00000000000E+00 0.  1.
<scales pt_clust_3="49.87939" pt_clust_4="38.40449" pt_clust_5="53.28746" pt_clust_6="14000.00000"></scales>
<clustering>
<clus scale="   38.404">  2  4  1 -1</clus>
<clus scale="   49.879">  2  3  1 -1</clus>
<clus scale="   53.287">  2  5  1 -1</clus>
<clus scale="   38.404">  2  3  1 -1</clus>
</clustering>
</event>
<event>
 6    0  0.4796958E+002  0.1560352E+03  0.7546771E-02  0.1193247E+00
          1   -1    0    0  505    0 -0.00000000000E+00  0.00000000000E+00  0.19704526709E+03  0.19704526709E+03  0.00000000000E+00 0.  1.
         21   -1    0    0  504  502  0.00000000000E+00 -0.00000000000E+00 -0.39054786895E+03  0.39054786895E+03  0.00000000000E+00 0. -1.
         21    1    1    2  503  502 -0.18087536054E+02 -0.32266500811E+02 -0.25952130149E+03  0.26214421978E+03  0.00000000000E+00 0. -1.
         21    1    1    2  504  501  0.43717897555E+02  0.10761816927E+03  0.43216412791E+02  0.12393782012E+03  0.00000000000E+00 0.  1.
         21    1    1    2  505  503 -0.41158016127E+02 -0.11652960956E+03 -0.35389840080E+02  0.12855182992E+03  0.00000000000E+00 0.  1.
          1    1    1    2  501    0  0.15527654625E+02  0.41177941101E+02  0.58192126923E+02  0.72959266220E+02  0.00000000000E+00 0.  1.
<scales pt_clust_3="36.99035" pt_clust_4="32.76992" pt_clust_5="146.67150" pt_clust_6="32.76992"></scales>
<clustering>
<clus scale="   32.770">  4  6 -1 -1</clus>
<clus scale="   36.990">  2  3  1 -1</clus>
<clus scale="  146.671">  2  5  1 -1</clus>
<clus scale="   36.990">  2  3  1 -1</clus>
</clustering>
</event>
<event>
 6    0  0.4796958E+002  0.1127330E+03  0.7546771E-02  0.1255591E+00
         21   -1    0    0  504  502  0.00000000000E+00  0.00000000000E+00  0.24232295519E+03  0.24232295519E+03  0.00000000000E+00 0.  1.
          1   -1    0    0  505    0 -0.00000000000E+00 -0.00000000000E+00 -0.23315906711E+04  0.23315906711E+04  0.00000000000E+00 0. -1.
         21    1    1    2  503  501  0.69310863689E+02  0.78519702654E+02 -0.10543627014E+03  0.14861408611E+03  0.00000000000E+00 0.  1.
         21    1    1    2  504  503  0.41500734624E+02  0.12029030594E+02  0.19705723081E+03  0.20173884298E+03  0.00000000000E+00 0.  1.
         21    1    1    2  505  502 -0.14152935793E+02 -0.30923278387E+02  0.53047158915E+01  0.34419394946E+02  0.00000000000E+00 0. -1.
          1    1    1    2  501    0 -0.96658662521E+02 -0.59625454862E+02 -0.21861933925E+04  0.21891413022E+04  0.00000000000E+00 0. -1.
<scales pt_clust_3="112.73297" pt_clust_4="32.80904" pt_clust_5="34.00816" pt_clust_6="14000.00000"></scales>
<clustering>
<clus scale="   34.008">  1  5  2 -1</clus>
<clus scale="   32.809">  1  4  2 -1</clus>
<clus scale="  112.733">  1  3  2 -1</clus>
<clus scale="   34.008">  1  3  2 -1</clus>
</clustering>
</event>
<event>
 6    0  0.4796958E+002  0.9974035E+02  0.7546771E-02  0.1280843E+00
         21   -1    0    0  503  502  0.00000000000E+00  0.00000000000E+00  0.11563057935E+04  0.11563057935E+04  0.00000000000E+00 0. -1.
         -2   -1    0    0    0  501 -0.00000000000E+00 -0.00000000000E+00 -0.19038359547E+03  0.19038359547E+03  0.00000000000E+00 0.  1.
         21    1    1    2  503  504 -0.67026003962E+02  0.74409311193E+02  0.10648822064E+04  0.10695809200E+04  0.00000000000E+00 0. -1.
         21    1    1    2  504  505  0.10392717427E+03 -0.26897510098E+02 -0.23820737748E+01  0.10737787424E+03  0.00000000000E+00 0.  1.
         21    1    1    2  505  501 -0.60227787895E+02 -0.26352230057E+02  0.24793342851E+01  0.65787335880E+02  0.00000000000E+00 0. -1.
         -2    1    1    2    0  502  0.23326617589E+02 -0.21159571039E+02 -0.99057268928E+02  0.10394325886E+03  0.00000000000E+00 0.  1.
<scales pt_clust_3="99.74035" pt_clust_4="14000.00000" pt_clust_5="62.00096" pt_clust_6="31.49379"></scales>
<clustering>
<clus scale="   31.494">  2  6  1 -1</clus>
<clus scale="   62.001">  2  5  1 -1</clus>
<clus scale="   99.740">  1  3  2 -1</clus>
<clus scale="   99.740">  1  3  2 -1</clus>
</clustering>
</event>
<event>
 6    0  0.4796958E+002  0.1091190E+03  0.7546771E-02  0.1262210E+00
          2   -1    0    0  503    0 -0.00000000000E+00  0.00000000000E+00  0.18743049361E+04  0.18743049361E+04  0.00000000000E+00 0. -1.
         21   -1    0    0  504  502  0.00000000000E+00 -0.00000000000E+00 -0.35222364688E+03  0.35222364688E+03  0.00000000000E+00 0.  1.
         21    1    1    2  503  502  0.15763008856E+03 -0.71237023331E+01 -0.27537123465E+03  0.31737565885E+03  0.00000000000E+00 0.  1.
         21    1    1    2  504  505 -0.27210674040E+02  0.25392479091E+02 -0.32542797134E+02  0.49439179013E+02  0.00000000000E+00 0. -1.
         21    1    1    2  505  501 -0.24058192432E+02 -0.41465337031E+02  0.30263587565E+02  0.56692640885E+02  0.00000000000E+00 0. -1.
          2    1    1    2  501    0 -0.10636122209E+03  0.23196560273E+02  0.17997317334E+04  0.18030211042E+04  0.00000000000E+00 0. -1.
<scales pt_clust_3="109.11897" pt_clust_4="37.21826" pt_clust_5="47.61143" pt_clust_6="14000.00000"></scales>
<clustering>
<clus scale="   37.218">  2  4  1 -1</clus>
<clus scale="   47.611">  2  5  1 -1</clus>
<clus scale="  109.119">  2  3  1 -1</clus>
<clus scale="   37.218">  2  3  1 -1</clus>
</clustering>
</event>
<event>
 6    0  0.4796958E+002  0.1232025E+03  0.7546771E-02  0.1237905E+00
         21   -1    0    0  505  502  0.00000000000E+00  0.00000000000E+00  0.48306557548E+02  0.48306557548E+02  0.00000000000E+00 0. -1.
          2   -1    0    0  504    0 -0.00000000000E+00 -0.00000000000E+00 -0.24907290832E+04  0.24907290832E+04  0.00000000000E+00 0. -1.
         21    1    1    2  503  502  0.16740031482E+03  0.42212234243E+02 -0.14776997901E+03  0.22724591265E+03  0.00000000000E+00 0. -1.
         21    1    1    2  504  503 -0.81498196376E+02 -0.39388695125E+02 -0.10924406847E+04  0.10961843252E+04  0.00000000000E+00 0. -1.
         21    1    1    2  505  501 -0.45378147046E+02 -0.10379286453E+02 -0.79417507224E+02  0.92054583103E+02  0.00000000000E+00 0. -1.
          2    1    1    2  501    0 -0.40523971396E+02  0.75557473348E+01 -0.11227943547E+04  0.11235508198E+04  0.00000000000E+00 0. -1.
<scales pt_clust_3="123.20254" pt_clust_4="14000.00000" pt_clust_5="48.93183" pt_clust_6="41.22234"></scales>
<clustering>
<clus scale="   41.222">  2  6  1 -1</clus>
<clus scale="   48.932">  1  5  2 -1</clus>
<clus scale="  123.203">  1  3  2 -1</clus>
<clus scale="   48.932">  1  3  2 -1</clus>
</clustering>
</event>
<event>
 6    0  0.4796958E+002  0.1351102E+03  0.7546771E-02  0.1220064E+00
         21   -1    0    0  504  502  0.00000000000E+00  0.00000000000E+00  0.56049542753E+03  0.56049542753E+03  0.00000000000E+00 0. -1.
          2   -1    0    0  505    0 -0.00000000000E+00 -0.00000000000E+00 -0.29708408248E+04  0.29708408248E+04  0.00000000000E+00 0. -1.
         21    1    1    2  503  502 -0.12568970601E+03 -0.10330519398E+03 -0.50638825454E+03  0.53188243968E+03  0.00000000000E+00 0.  1.
         21    1    1    2  504  501  0.61743082423E+02  0.11991589231E+03  0.53884906351E+03  0.55547308009E+03  0.00000000000E+00 0. -1.
         21    1    1    2  505  503  0.29488805176E+02 -0.17521083393E+02 -0.70628077894E+03  0.70711322763E+03  0.00000000000E+00 0. -1.
          2    1    1    2  501    0  0.34457818407E+02  0.91038507004E+00 -0.17365254273E+04  0.17368675049E+04  0.00000000000E+00 0. -1.
<scales pt_clust_3="135.11023" pt_clust_4="14000.00000" pt_clust_5="34.30128" pt_clust_6="58.43597"></scales>
<clustering>
<clus scale="   34.301">  2  5  1 -1</clus>
<clus scale="   58.436">  2  6  1 -1</clus>
<clus scale="  135.110">  2  3  1 -1</clus>
<clus scale="  135.110">  1  3  2 -1</clus>
</clustering>
</event>
<event>
 6    0  0.4796958E+002  0.7495305E+02  0.7546771E-02  0.1344016E+00
         21   -1    0    0  504  502  0.00000000000E+00  0.00000000000E+00  0.55713838335E+03  0.55713838335E+03  0.00000000000E+00 0.  1.
          2   -1    0    0  505    0 -0.00000000000E+00 -0.00000000000E+00 -0.18907659941E+03  0.18907659941E+03  0.00000000000E+00 0.  1.
         21    1    1    2  503  501  0.75567976195E+02 -0.18740022925E+02 -0.47484179336E+02  0.91194598374E+02  0.00000000000E+00 0.  1.
         21    1    1    2  504  503 -0.40861677008E+02  0.65368128271E+02  0.34298240695E+03  0.35153890300E+03  0.00000000000E+00 0.  1.
         21    1    1    2  505  502  0.36646874390E+02 -0.57068717253E+01  0.17112974110E+03  0.17510268438E+03  0.00000000000E+00 0.  1.
          2    1    1    2  501    0 -0.71353173577E+02 -0.40921233621E+02 -0.98566184781E+02  0.12837879701E+03  0.00000000000E+00 0.  1.
<scales pt_clust_3="74.95305" pt_clust_4="60.70086" pt_clust_5="37.08857" pt_clust_6="14000.00000"></scales>
<clustering>
<clus scale="   37.089">  1  5  2 -1</clus>
<clus scale="   60.701">  1  4  2 -1</clus>
<clus scale="   74.953">  1  3  2 -1</clus>
<clus scale="   37.089">  1  3  2 -1</clus>
</clustering>
</event>
<event>
 6    0  0.4796958E+002  0.1574956E+03  0.7546771E-02  0.1191554E+00
         21   -1    0    0  503  502  0.00000000000E+00  0.00000000000E+00  0.36351292666E+02  0.36351292666E+02  0.00000000000E+00 0.  1.
          2   -1    0    0  504    0 -0.00000000000E+00 -0.00000000000E+00 -0.20274991059E+04  0.20274991059E+04  0.00000000000E+00 0. -1.
         21    1    1    2  503  501 -0.55682816464E+00 -0.31699699105E+02 -0.87568144659E+01  0.32891682543E+02  0.00000000000E+00 0.  1.
         21    1    1    2  504  505 -0.25169167126E+02 -0.70910970439E+02 -0.45077236581E+03  0.45700938555E+03  0.00000000000E+00 0. -1.
         21    1    1    2  505  502 -0.53625467415E+02  0.19051930235E+03 -0.53714323966E+03  0.57244751308E+03  0.00000000000E+00 0.  1.
          2    1    1    2  501    0  0.79351462706E+02 -0.87908632807E+02 -0.99447539325E+03  0.10015018173E+04  0.00000000000E+00 0. -1.
<scales pt_clust_3="31.70459" pt_clust_4="79.11614" pt_clust_5="14000.00000" pt_clust_6="157.49557"></scales>
<clustering>
<clus scale="   31.705">  1  3  2 -1</clus>
<clus scale="   79.116">  2  4  1 -1</clus>
<clus scale="  157.496">  2  6  1 -1</clus>
<clus scale="   31.705">  1  3  2 -1</clus>
</clustering>
</event>
<event>
 6    0  0.4796958E+002  0.9728040E+02  0.7546771E-02  0.1286121E+00
          2   -1    0    0  502    0 -0.00000000000E+00  0.00000000000E+00  0.22647445843E+03  0.22647445843E+03  0.00000000000E+00 0. -1.
         21   -1    0    0  505  502  0.00000000000E+00 -0.00000000000E+00 -0.12759037546E+04  0.12759037546E+04  0.00000000000E+00 0.  1.
         21    1    1    2  503  501 -0.31780970996E+02  0.60661747840E+02 -0.79139606704E+02  0.10465636683E+03  0.00000000000E+00 0. -1.
         21    1    1    2  504  503 -0.22268724942E+02 -0.10696995113E+03 -0.10599216234E+04  0.10655385090E+04  0.00000000000E+00 0.  1.
         21    1    1    2  505  504  0.42311342361E+02 -0.64149388647E+01 -0.11386421448E+03  0.12164070237E+03  0.00000000000E+00 0.  1.
          2    1    1    2  501    0  0.11738353577E+02  0.52723142155E+02  0.20349614838E+03  0.21054263480E+03  0.00000000000E+00 0. -1.
<scales pt_clust_3="97.28040" pt_clust_4="14000.00000" pt_clust_5="42.79487" pt_clust_6="54.02314"></scales>
<clustering>
<clus scale="   42.795">  2  5  1 -1</clus>
<clus scale="   54.023">  1  6  2 -1</clus>
<clus scale="   97.280">  1  3  2 -1</clus>
<clus scale="   42.795">  2  3  1 -1</clus>
</clustering>
</event>
<event>
 6    0  0.4796958E+002  0.7604331E+02  0.7546771E-02  0.1340670E+00
          2   -1    0    0  503    0 -0.00000000000E+00  0.00000000000E+00  0.17314242236E+04  0.17314242236E+04  0.00000000000E+00 0. -1.
         21   -1    0    0  505  502  0.00000000000E+00 -0.00000000000E+00 -0.33137642910E+02  0.33137642910E+02  0.00000000000E+00 0. -1.
         21    1    1    2  503  504 -0.13045762234E+02  0.80924996892E+02  0.63389717302E+03  0.63917499404E+03  0.00000000000E+00 0. -1.
         21    1    1    2  504  502  0.10390269497E+02  0.44497519753E+02 -0.13699577938E+01  0.45715027603E+02  0.00000000000E+00 0. -1.
         21    1    1    2  505  501  0.51410824259E+02 -0.58638418990E+02  0.32103037664E+03  0.33036652336E+03  0.00000000000E+00 0. -1.
          2    1    1    2  501    0 -0.48755331522E+02 -0.66784097654E+02  0.74472898884E+03  0.74930532153E+03  0.00000000000E+00 0. -1.
<scales pt_clust_3="76.04331" pt_clust_4="45.69450" pt_clust_5="67.50300" pt_clust_6="14000.00000"></scales>
<clustering>
<clus scale="   45.694">  2  4  1 -1</clus>
<clus scale="   67.503">  2  5  1 -1</clus>
<clus scale="   76.043">  2  3  1 -1</clus>
<clus scale="   45.694">  2  3  1 -1</clus>
</clustering>
</event>
<event>
 6    0  0.4796958E+002  0.1541576E+03  0.7546771E-02  0.1195455E+00
          2   -1    0    0  505    0 -0.00000000000E+00  0.00000000000E+00  0.20398121357E+04  0.20398121357E+04  0.00000000000E+00 0. -1.
         21   -1    0    0  501  502  0.00000000000E+00 -0.00000000000E+00 -0.44840640490E+03  0.44840640490E+03  0.00000000000E+00 0.  1.
         21    1    1    2  503  502 -0.53522676201E+02 -0.13698586156E+03 -0.41756813048E+03  0.44271090649E+03  0.00000000000E+00 0.  1.
         21    1    1    2  504  503  0.66310906895E+02  0.59158893752E+02  0.16013989525E+03  0.18314392464E+03  0.00000000000E+00 0. -1.
         21    1    1    2  505  504  0.23911418129E+02  0.65454128465E+02  0.17907730141E+03  0.19215795255E+03  0.00000000000E+00 0.  1.
          2    1    1    2  501    0 -0.36699648823E+02  0.12372839344E+02  0.16697566646E+04  0.16702057569E+04  0.00000000000E+00 0. -1.
<scales pt_clust_3="147.13888" pt_clust_4="43.18792" pt_clust_5="43.18792" pt_clust_6="38.72921"></scales>
<clustering>
<clus scale="   38.729">  1  6  2 -1</clus>
<clus scale="   43.188">  4  5 -1 -1</clus>
<clus scale="  147.139">  2  3  1 -1</clus>
<clus scale="  147.139">  2  3  1 -1</clus>
</clustering>
</event>
<event>
 6    0  0.4796958E+002  0.9867133E+02  0.7546771E-02  0.1283115E+00
         21   -1    0    0  504  502  0.00000000000E+00  0.00000000000E+00  0.12508140975E+03  0.12508140975E+03  0.00000000000E+00 0.  1.
          4   -1    0    0  503    0 -0.00000000000E+00 -0.00000000000E+00 -0.26009676759E+03  0.26009676759E+03  0.00000000000E+00 0.  1.
         21    1    1    2  503  502  0.16510051943E+02 -0.26810147128E+02  0.17228643366E+02  0.35891391119E+02  0.00000000000E+00 0. -1.
         21    1    1    2  504  505 -0.70649446104E+02 -0.62425389300E+02  0.47110675849E+02  0.10539302274E+03  0.00000000000E+00 0.  1.
         21    1    1    2  505  501  0.77505677803E+02  0.57176146346E+02 -0.11048390128E+03  0.14657057769E+03  0.00000000000E+00 0.  1.
          4    1    1    2  501    0 -0.23366283643E+02  0.32059390083E+02 -0.88870775781E+02  0.97323185786E+02  0.00000000000E+00 0.  1.
<scales pt_clust_3="31.48596" pt_clust_4="98.67133" pt_clust_5="14000.00000" pt_clust_6="38.32460"></scales>
<clustering>
<clus scale="   31.486">  1  3  2 -1</clus>
<clus scale="   38.325">  2  6  1 -1</clus>
<clus scale="   98.671">  1  4  2 -1</clus>
<clus scale="   31.486">  1  3  2 -1</clus>
</clustering>
</event>
<event>
 6    0  0.4796958E+002  0.1035312E+03  0.7546771E-02  0.1273041E+00
         21   -1    0    0  503  502  0.00000000000E+00  0.00000000000E+00  0.17300528964E+04  0.17300528964E+04  0.00000000000E+00 0.  1.
         -3   -1    0    0    0  501 -0.00000000000E+00 -0.00000000000E+00 -0.32385741480E+02  0.32385741480E+02  0.00000000000E+00 0.  1.
         21    1    1    2  503  505 -0.39650867208E+02 -0.14707578159E+03  0.99099243210E+03  0.10026312768E+04  0.00000000000E+00 0.  1.
         21    1    1    2  504  502  0.55676277857E+02  0.39530384965E+02  0.36771754081E+03  0.37400359500E+03  0.00000000000E+00 0.  1.
         21    1    1    2  505  501  0.12971832114E+02  0.31272034976E+02 -0.32416058511E+01  0.34010536727E+02  0.00000000000E+00 0.  1.
         -3    1    1    2    0  504 -0.28997242763E+02  0.76273361646E+02  0.34219878781E+03  0.35179322927E+03  0.00000000000E+00 0.  1.
<scales pt_clust_3="14000.00000" pt_clust_4="74.94666" pt_clust_5="33.85570" pt_clust_6="103.53118"></scales>
<clustering>
<clus scale="   33.856">  2  5  1 -1</clus>
<clus scale="   74.947">  1  4  2 -1</clus>
<clus scale="  103.531">  2  6  1 -1</clus>
<clus scale="   74.947">  1  3  2 -1</clus>
</clustering>
</event>
<event>
 6    0  0.4796958E+002  0.1094674E+03  0.7546771E-02  0.1261559E+00
         21   -1    0    0  505  502  0.00000000000E+00  0.00000000000E+00  0.16690634822E+04  0.16690634822E+04  0.00000000000E+00 0.  1.
          2   -1    0    0  503    0 -0.00000000000E+00 -0.00000000000E+00 -0.13735181465E+04  0.13735181465E+04  0.00000000000E+00 0.  1.
         21    1    1    2  503  502  0.69050909124E+02 -0.26558836954E+01 -0.11050517333E+03  0.13033217216E+03  0.00000000000E+00 0. -1.
         21    1    1    2  504  501  0.62461090445E+02 -0.13516329348E+03  0.29607632591E+03  0.33140865180E+03  0.00000000000E+00 0.  1.
         21    1    1    2  505  504 -0.48394568538E+02  0.28187860661E+02  0.13409910430E+04  0.13421600378E+04  0.00000000000E+00 0.  1.
          2    1    1    2  501    0 -0.83117431031E+02  0.10963131651E+03 -0.12310168599E+04  0.12386807669E+04  0.00000000000E+00 0.  1.
<scales pt_clust_3="67.60998" pt_clust_4="14000.00000" pt_clust_5="56.00527" pt_clust_6="109.46741"></scales>
<clustering>
<clus scale="   56.005">  1  5  2 -1</clus>
<clus scale="   67.610">  2  3  1 -1</clus>
<clus scale="  109.467">  2  6  1 -1</clus>
<clus scale="   56.005">  1  3  2 -1</clus>
</clustering>
</event>
<event>
 6    0  0.4796958E+002  0.3574284E+03  0.7546771E-02  0.1059607E+00
         21   -1    0    0  503  502  0.00000000000E+00  0.00000000000E+00  0.50812785492E+03  0.50812785492E+03  0.00000000000E+00 0. -1.
          1   -1    0    0  504    0 -0.00000000000E+00 -0.00000000000E+00 -0.78977464414E+03  0.78977464414E+03  0.00000000000E+00 0. -1.
         21    1    1    2  503  505 -0.80755755107E+02  0.15035926687E+03  0.18612680236E+03  0.25253234976E+03  0.00000000000E+00 0. -1.
         21    1    1    2  504  502  0.20752472423E+03 -0.26062875402E+03 -0.18744269356E+03  0.38226773597E+03  0.00000000000E+00 0. -1.
         21    1    1    2  505  501 -0.12581302261E+03  0.14170358702E+03  0.14375405221E+03  0.23785300242E+03  0.00000000000E+00 0. -1.
          1    1    1    2  501    0 -0.95594651305E+00 -0.31434099868E+02 -0.42408495023E+03  0.42524941091E+03  0.00000000000E+00 0. -1.
<scales pt_clust_3="57.63904" pt_clust_4="352.23576" pt_clust_5="57.63904" pt_clust_6="31.44863"></scales>
<clustering>
<clus scale="   31.449">  2  6  1 -1</clus>
<clus scale="   57.639">  3  5 -1 -1</clus>
<clus scale="  352.236">  2  4  1 -1</clus>
<clus scale="  357.428">  1  3  2 -1</clus>
</clustering>
</event>
<event>
 6    0  0.4796958E+002  0.8663837E+02  0.7546771E-02  0.1311203E+00
          2   -1    0    0  505    0 -0.00000000000E+00  0.00000000000E+00  0.66714167010E+03  0.66714167010E+03  0.00000000000E+00 0.  1.
         21   -1    0    0  503  502  0.00000000000E+00 -0.00000000000E+00 -0.11271869237E+04  0.11271869237E+04  0.00000000000E+00 0.  1.
         21    1    1    2  503  504 -0.41920631366E+02 -0.18445146091E+02 -0.65682230361E+03  0.65841711799E+03  0.00000000000E+00 0.  1.
         21    1    1    2  504  501  0.13681219898E+03 -0.21380902300E+02 -0.42675878627E+03  0.44866221418E+03  0.00000000000E+00 0. -1.
         21    1    1    2  505  502 -0.85896227564E+01  0.39165165279E+02 -0.15072585000E+02  0.42835436370E+02  0.00000000000E+00 0. -1.
          2    1    1    2  501    0 -0.86301944858E+02  0.66088311177E+00  0.63860842128E+03  0.64441382526E+03  0.00000000000E+00 0.  1.
<scales pt_clust_3="47.32966" pt_clust_4="86.63837" pt_clust_5="40.09603" pt_clust_6="14000.00000"></scales>
<clustering>
<clus scale="   40.096">  2  5  1 -1</clus>
<clus scale="   47.330">  2  3  1 -1</clus>
<clus scale="   86.638">  2  4  1 -1</clus>
<clus scale="   40.096">  2  3  1 -1</clus>
</clustering>
</event>
<event>
 6    0  0.4796958E+002  0.1024330E+03  0.7546771E-02  0.1275261E+00
          2   -1    0    0  505    0 -0.00000000000E+00  0.00000000000E+00  0.40715209565E+04  0.40715209565E+04  0.00000000000E+00 0.  1.
         21   -1    0    0  503  502  0.00000000000E+00 -0.00000000000E+00 -0.49334883592E+02  0.49334883592E+02  0.00000000000E+00 0.  1.
         21    1    1    2  503  501 -0.56773535127E+02  0.55492048969E+02  0.16081043345E+03  0.17933933561E+03  0.00000000000E+00 0.  1.
         21    1    1    2  504  502 -0.41023328065E+02 -0.92658297055E+02  0.14734378848E+03  0.17882579641E+03  0.00000000000E+00 0.  1.
         21    1    1    2  505  504  0.14685196795E+03 -0.87786768996E+01  0.20136073892E+03  0.24937664854E+03  0.00000000000E+00 0.  1.
          2    1    1    2  501    0 -0.49055104754E+02  0.45944924985E+02  0.35126711120E+04  0.35133140595E+04  0.00000000000E+00 0.  1.
<scales pt_clust_3="14000.00000" pt_clust_4="96.65769" pt_clust_5="102.43297" pt_clust_6="67.21116"></scales>
<clustering>
<clus scale="   67.211">  1  6  2 -1</clus>
<clus scale="   96.658">  2  4  1 -1</clus>
<clus scale="  102.433">  2  5  1 -1</clus>
<clus scale="   96.658">  2  3  1 -1</clus>
</clustering>
</event>
<event>
 6    0  0.4796958E+002  0.1924970E+03  0.7546771E-02  0.1156228E+00
         21   -1    0    0  503  502  0.00000000000E+00  0.00000000000E+00  0.93239142640E+02  0.93239142640E+02  0.00000000000E+00 0. -1.
          2   -1    0    0  502    0 -0.00000000000E+00 -0.00000000000E+00 -0.29353438860E+04  0.29353438860E+04  0.00000000000E+00 0.  1.
         21    1    1    2  503  504 -0.45968928072E+02 -0.56709354647E+02  0.47411262922E+02  0.87045511685E+02  0.00000000000E+00 0. -1.
         21    1    1    2  504  505 -0.22213787499E+02  0.41175164428E+02 -0.57897657476E+02  0.74437794579E+02  0.00000000000E+00 0.  1.
         21    1    1    2  505  501  0.14244554997E+02  0.17430050825E+03 -0.50455540862E+03  0.53400349707E+03  0.00000000000E+00 0.  1.
          2    1    1    2  501    0  0.53938160574E+02 -0.15876631803E+03 -0.23270629401E+04  0.23330962253E+04  0.00000000000E+00 0.  1.
<scales pt_clust_3="73.00064" pt_clust_4="44.35534" pt_clust_5="44.35534" pt_clust_6="172.33986"></scales>
<clustering>
<clus scale="   44.355">  4  5 -1 -1</clus>
<clus scale="   73.001">  1  3  2 -1</clus>
<clus scale="  172.340">  2  6  1 -1</clus>
<clus scale="   73.001">  1  3  2 -1</clus>
</clustering>
</event>
<event>
 6    0  0.4796958E+002  0.1133347E+03  0.7546771E-02  0.1254516E+00
          2   -1    0    0  502    0 -0.00000000000E+00  0.00000000000E+00  0.11050267704E+04  0.11050267704E+04  0.00000000000E+00 0. -1.
         21   -1    0    0  504  502  0.00000000000E+00 -0.00000000000E+00 -0.13502716769E+03  0.13502716769E+03  0.00000000000E+00 0.  1.
         21    1    1    2  503  501  0.21199842366E+02  0.91538206002E+02  0.56293575962E+02  0.10953375356E+03  0.00000000000E+00 0.  1.
         21    1    1    2  504  505 -0.34225858793E+02 -0.22903522789E+02 -0.62182335829E+01  0.41649095971E+02  0.00000000000E+00 0.  1.
         21    1    1    2  505  503  0.30339799848E+02 -0.11922819320E+03 -0.38534659702E+02  0.12892162544E+03  0.00000000000E+00 0.  1.
          2    1    1    2  501    0 -0.17313783421E+02  0.50593509985E+02  0.95845892001E+03  0.95994946309E+03  0.00000000000E+00 0. -1.
<scales pt_clust_3="113.33472" pt_clust_4="41.18229" pt_clust_5="14000.00000" pt_clust_6="53.40365"></scales>
<clustering>
<clus scale="   41.182">  2  4  1 -1</clus>
<clus scale="   53.404">  1  6  2 -1</clus>
<clus scale="  113.335">  1  3  2 -1</clus>
<clus scale="   41.182">  2  3  1 -1</clus>
</clustering>
</event>
<event>
 6    0  0.4796958E+002  0.7896794E+02  0.7546771E-02  0.1332006E+00
          2   -1    0    0  504    0 -0.00000000000E+00  0.00000000000E+00  0.55306407620E+03  0.55306407620E+03  0.00000000000E+00 0. -1.
         21   -1    0    0  505  502  0.00000000000E+00 -0.00000000000E+00 -0.12591530726E+04  0.12591530726E+04  0.00000000000E+00 0.  1.
         21    1    1    2  503  502  0.64158021959E+02  0.49869613443E+02 -0.88008128639E+03  0.88382481340E+03  0.00000000000E+00 0.  1.
         21    1    1    2  504  503  0.15912064538E+02 -0.58118858216E+02 -0.52050400655E+02  0.79625622048E+02  0.00000000000E+00 0.  1.
         21    1    1    2  505  501 -0.49034581271E+02  0.43062008461E+02 -0.30691298796E+03  0.31377429613E+03  0.00000000000E+00 0.  1.
          2    1    1    2  501    0 -0.31035505227E+02 -0.34812763688E+02  0.53295567862E+03  0.53499241721E+03  0.00000000000E+00 0. -1.
<scales pt_clust_3="78.96794" pt_clust_4="14000.00000" pt_clust_5="65.85692" pt_clust_6="46.63830"></scales>
<clustering>
<clus scale="   46.638">  1  6  2 -1</clus>
<clus scale="   65.857">  2  5  1 -1</clus>
<clus scale="   78.968">  2  3  1 -1</clus>
<clus scale="   65.857">  2  3  1 -1</clus>
</clustering>
</event>
<event>
 6    0  0.4796958E+002  0.9968105E+02  0.7546771E-02  0.1280968E+00
          2   -1    0    0  505    0 -0.00000000000E+00  0.00000000000E+00  0.61422122259E+03  0.61422122259E+03  0.00000000000E+00 0. -1.
         21   -1    0    0  504  502  0.00000000000E+00 -0.00000000000E+00 -0.56057681258E+03  0.56057681258E+03  0.00000000000E+00 0. -1.
         21    1    1    2  503  502  0.25441933720E+02  0.79234413769E+02 -0.52754391269E+03  0.53406737790E+03  0.00000000000E+00 0. -1.
         21    1    1    2  504  501  0.35902368755E+02 -0.59870410448E+02  0.19749477437E+03  0.20946988335E+03  0.00000000000E+00 0. -1.
         21    1    1    2  505  503 -0.78079032761E+02  0.22455926323E+02  0.51862180811E+02  0.96386149329E+02  0.00000000000E+00 0. -1.
          2    1    1    2  501    0  0.16734730286E+02 -0.41819929644E+02  0.33183136753E+03  0.33487462458E+03  0.00000000000E+00 0. -1.
<scales pt_clust_3="83.20530" pt_clust_4="44.09328" pt_clust_5="81.24410" pt_clust_6="44.09328"></scales>
<clustering>
<clus scale="   44.093">  4  6 -1 -1</clus>
<clus scale="   81.244">  1  5  2 -1</clus>
<clus scale="   83.205">  2  3  1 -1</clus>
<clus scale="   83.205">  2  3  1 -1</clus>
</clustering>
</event>
<event>
 6    0  0.4796958E+002  0.1682516E+03  0.7546771E-02  0.1179684E+00
          2   -1    0    0  505    0 -0.00000000000E+00  0.00000000000E+00  0.30420112104E+04  0.30420112104E+04  0.00000000000E+00 0. -1.
         21   -1    0    0  501  502  0.00000000000E+00 -0.00000000000E+00 -0.22914689488E+02  0.22914689488E+02  0.00000000000E+00 0. -1.
         21    1    1    2  503  504 -0.40387469324E+02 -0.11382645174E+02  0.16862376498E+03  0.17376618314E+03  0.00000000000E+00 0. -1.
         21    1    1    2  504  502 -0.95070178659E+02 -0.85963070143E+02  0.23194482928E+03  0.26500262664E+03  0.00000000000E+00 0. -1.
         21    1    1    2  505  503  0.89478468495E+02  0.86985821153E+02  0.11275918283E+04  0.11344762054E+04  0.00000000000E+00 0. -1.
          2    1    1    2  501    0  0.45979179488E+02  0.10359894163E+02  0.14909360983E+04  0.14916808847E+04  0.00000000000E+00 0. -1.
<scales pt_clust_3="37.24789" pt_clust_4="37.24789" pt_clust_5="155.14733" pt_clust_6="47.13186"></scales>
<clustering>
<clus scale="   37.248">  3  4 -1 -1</clus>
<clus scale="   47.132">  1  6  2 -1</clus>
<clus scale="  155.147">  1  5  2 -1</clus>
<clus scale="  168.252">  2  3  1 -1</clus>
</clustering>
</event>
<event>
 6    0  0.4796958E+002  0.8615838E+02  0.7546771E-02  0.1312431E+00
          2   -1    0    0  503    0 -0.00000000000E+00  0.00000000000E+00  0.29494902271E+04  0.29494902271E+04  0.00000000000E+00 0.  1.
         21   -1    0    0  505  502  0.00000000000E+00 -0.00000000000E+00 -0.14096622363E+03  0.14096622363E+03  0.00000000000E+00 0. -1.
         21    1    1    2  503  502  0.48132491930E+02 -0.46598736369E+02  0.36927053738E+02  0.76496969276E+02  0.00000000000E+00 0.  1.
         21    1    1    2  504  501  0.40557139553E+02  0.39579946811E+02  0.10972478634E+04  0.10987103019E+04  0.00000000000E+00 0.  1.
         21    1    1    2  505  504 -0.10786154655E+03 -0.18502563904E+02 -0.95418661706E+02  0.14519359179E+03  0.00000000000E+00 0. -1.
          2    1    1    2  501    0  0.19171915068E+02  0.25521353462E+02  0.17697677481E+04  0.17700555878E+04  0.00000000000E+00 0.  1.
<scales pt_clust_3="66.81999" pt_clust_4="14000.00000" pt_clust_5="86.15838" pt_clust_6="31.92024"></scales>
<clustering>
<clus scale="   31.920">  1  6  2 -1</clus>
<clus scale="   66.820">  2  3  1 -1</clus>
<clus scale="   86.158">  2  5  1 -1</clus>
<clus scale="   66.820">  2  3  1 -1</clus>
</clustering>
</event>
<event>
 6    0  0.4796958E+002  0.2345857E+03  0.7546771E-02  0.1123453E+00
          2   -1    0    0  505    0 -0.00000000000E+00  0.00000000000E+00  0.11658584610E+04  0.11658584610E+04  0.00000000000E+00 0. -1.
         21   -1    0    0  503  502  0.00000000000E+00 -0.00000000000E+00 -0.29975939446E+03  0.29975939446E+03  0.00000000000E+00 0.  1.
         21    1    1    2  503  504 -0.86917274117E+01 -0.33796681000E+02 -0.16653569029E+03  0.17015257246E+03  0.00000000000E+00 0.  1.
         21    1    1    2  504  501 -0.11649514470E+03  0.23089149467E+03  0.34846697332E+02  0.26095266499E+03  0.00000000000E+00 0.  1.
         21    1    1    2  505  502  0.39123048391E+02  0.19976377102E+01  0.57796229785E+02  0.69821254996E+02  0.00000000000E+00 0.  1.
          2    1    1    2  501    0  0.86063823720E+02 -0.19909245138E+03  0.93999182970E+03  0.96469136300E+03  0.00000000000E+00 0. -1.
<scales pt_clust_3="34.89644" pt_clust_4="14000.00000" pt_clust_5="38.72801" pt_clust_6="234.58575"></scales>
<clustering>
<clus scale="   34.896">  2  3  1 -1</clus>
<clus scale="   38.728">  1  5  2 -1</clus>
<clus scale="  234.586">  1  6  2 -1</clus>
<clus scale="   34.896">  2  3  1 -1</clus>
</clustering>
</event>
<event>
 6    0  0.4796958E+002  0.8164086E+02  0.7546771E-02  0.1324458E+00
         21   -1    0    0  501  502  0.00000000000E+00  0.00000000000E+00  0.16306256077E+02  0.16306256077E+02  0.00000000000E+00 0. -1.
          2   -1    0    0  503    0 -0.00000000000E+00 -0.00000000000E+00 -0.27571043987E+04  0.27571043987E+04  0.00000000000E+00 0. -1.
         21    1    1    2  503  504  0.61647760765E+02  0.80515552057E+01 -0.28160461249E+03  0.28838590764E+03  0.00000000000E+00 0. -1.
         21    1    1    2  504  505  0.44350577373E+02  0.31403587669E+02 -0.71712438410E+02  0.89976846214E+02  0.00000000000E+00 0. -1.
         21    1    1    2  505  502 -0.39548614223E+02  0.20131683888E+02 -0.16767552021E+03  0.17344871767E+03  0.00000000000E+00 0. -1.
          2    1    1    2  501    0 -0.66449723915E+02 -0.59586826763E+02 -0.22198055715E+04  0.22215991832E+04  0.00000000000E+00 0. -1.
<scales pt_clust_3="81.64086" pt_clust_4="48.35677" pt_clust_5="44.37767" pt_clust_6="14000.00000"></scales>
<clustering>
<clus scale="   44.378">  1  5  2 -1</clus>
<clus scale="   48.357">  1  4  2 -1</clus>
<clus scale="   81.641">  1  3  2 -1</clus>
<clus scale="   44.378">  1  3  2 -1</clus>
</clustering>
</event>
<event>
 6    0  0.4796958E+002  0.6895277E+02  0.7546771E-02  0.1363691E+00
          2   -1    0    0  502    0 -0.00000000000E+00  0.00000000000E+00  0.95701058928E+03  0.95701058928E+03  0.00000000000E+00 0. -1.
         21   -1    0    0  505  502  0.00000000000E+00 -0.00000000000E+00 -0.56434236626E+03  0.56434236626E+03  0.00000000000E+00 0. -1.
         21    1    1    2  503  504 -0.19243210973E+02 -0.82439229104E+02 -0.76073365630E+02  0.11381425492E+03  0.00000000000E+00 0.  1.
         21    1    1    2  504  501 -0.74693010694E+02  0.62588935092E+02  0.36112432232E+03  0.37404170464E+03  0.00000000000E+00 0.  1.
         21    1    1    2  505  503  0.50538372077E+02  0.22089751179E+02 -0.46046428193E+03  0.46375579683E+03  0.00000000000E+00 0. -1.
          2    1    1    2  501    0  0.43397849591E+02 -0.22394571667E+01  0.56808154827E+03  0.56974119915E+03  0.00000000000E+00 0. -1.
<scales pt_clust_3="14000.00000" pt_clust_4="68.95277" pt_clust_5="55.31998" pt_clust_6="43.45559"></scales>
<clustering>
<clus scale="   43.456">  1  6  2 -1</clus>
<clus scale="   55.320">  2  5  1 -1</clus>
<clus scale="   68.953">  1  4  2 -1</clus>
<clus scale="   55.320">  2  3  1 -1</clus>
</clustering>
</event>
<event>
 6    0  0.4796958E+002  0.9169880E+02  0.7546771E-02  0.1298789E+00
         21   -1    0    0  504  502  0.00000000000E+00  0.00000000000E+00  0.10056047501E+03  0.10056047501E+03  0.00000000000E+00 0. -1.
          2   -1    0    0  505    0 -0.00000000000E+00 -0.00000000000E+00 -0.87012284202E+03  0.87012284202E+03  0.00000000000E+00 0. -1.
         21    1    1    2  503  501 -0.45238130059E+02 -0.42712227195E+01 -0.29727792596E+02  0.54299847214E+02  0.00000000000E+00 0. -1.
         21    1    1    2  504  503 -0.44704693692E+02 -0.65965390855E+02  0.16755545239E+02  0.81429053323E+02  0.00000000000E+00 0. -1.
         21    1    1    2  505  502  0.12625705345E+03  0.95731567127E+02 -0.12502646035E+03  0.20183407115E+03  0.00000000000E+00 0. -1.
          2    1    1    2  501    0 -0.36314229698E+02 -0.25494953552E+02 -0.63156365930E+03  0.63312034534E+03  0.00000000000E+00 0. -1.
<scales pt_clust_3="52.39474" pt_clust_4="91.69880" pt_clust_5="14000.00000" pt_clust_6="44.37021"></scales>
<clustering>
<clus scale="   44.370">  2  6  1 -1</clus>
<clus scale="   52.395">  2  3  1 -1</clus>
<clus scale="   91.699">  1  4  2 -1</clus>
<clus scale="   91.699">  1  3  2 -1</clus>
</clustering>
</event>
<event>
 6    0  0.4796958E+002  0.1216314E+03  0.7546771E-02  0.1240430E+00
         21   -1    0    0  503  502  0.00000000000E+00  0.00000000000E+00  0.14966015778E+03  0.14966015778E+03  0.00000000000E+00 0. -1.
          1   -1    0    0  502    0 -0.00000000000E+00 -0.00000000000E+00 -0.11361936236E+04  0.11361936236E+04  0.00000000000E+00 0. -1.
         21    1    1    2  503  504  0.55689811275E+02 -0.10950211419E+03  0.32278425686E+02  0.12701954518E+03  0.00000000000E+00 0. -1.
         21    1    1    2  504  505 -0.31898047359E+02  0.11733159717E+03  0.11439996315E+02  0.12212723953E+03  0.00000000000E+00 0. -1.
         21    1    1    2  505  501 -0.29767337158E+02 -0.37323629179E+02 -0.18964743111E+03  0.19556404522E+03  0.00000000000E+00 0. -1.
          1    1    1    2  501    0  0.59755732420E+01  0.29494146200E+02 -0.84060445669E+03  0.84114295143E+03  0.00000000000E+00 0. -1.
<scales pt_clust_3="121.63135" pt_clust_4="14000.00000" pt_clust_5="31.56626" pt_clust_6="30.09339"></scales>
<clustering>
<clus scale="   30.093">  2  6  1 -1</clus>
<clus scale="   31.566">  2  5  1 -1</clus>
<clus scale="  121.631">  1  3  2 -1</clus>
<clus scale="  121.631">  1  3  2 -1</clus>
</clustering>
</event>
<event>
 6    0  0.4796958E+002  0.1121234E+03  0.7546771E-02  0.1256687E+00
          2   -1    0    0  504    0 -0.00000000000E+00  0.00000000000E+00  0.89185802384E+03  0.89185802384E+03  0.00000000000E+00 0.  1.
         21   -1    0    0  503  502  0.00000000000E+00 -0.00000000000E+00 -0.10436146522E+04  0.10436146522E+04  0.00000000000E+00 0. -1.
         21    1    1    2  503  501 -0.94911835521E+00 -0.30662067286E+02 -0.28630156570E+02  0.41961280499E+02  0.00000000000E+00 0. -1.
         21    1    1    2  504  505  0.42209968276E+02  0.46274411992E+02 -0.17373998958E+01  0.62657969849E+02  0.00000000000E+00 0. -1.
         21    1    1    2  505  502  0.52196395642E+02 -0.70400277704E+02 -0.97070655891E+03  0.97465475238E+03  0.00000000000E+00 0. -1.
          2    1    1    2  501    0 -0.93457245563E+02  0.54787932998E+02  0.84931748704E+03  0.85619867329E+03  0.00000000000E+00 0.  1.
<scales pt_clust_3="30.67675" pt_clust_4="61.89337" pt_clust_5="112.12341" pt_clust_6="14000.00000"></scales>
<clustering>
<clus scale="   30.677">  2  3  1 -1</clus>
<clus scale="   61.893">  1  4  2 -1</clus>
<clus scale="  112.123">  2  5  1 -1</clus>
<clus scale="   30.677">  2  3  1 -1</clus>
</clustering>
</event>
<event>
 6    0  0.4796958E+002  0.1071879E+03  0.7546771E-02  0.1265868E+00
         -4   -1    0    0    0  501 -0.00000000000E+00  0.00000000000E+00  0.18060954279E+03  0.18060954279E+03  0.00000000000E+00 0. -1.
         21   -1    0    0  505  502  0.00000000000E+00 -0.00000000000E+00 -0.94053778266E+03  0.94053778266E+03  0.00000000000E+00 0. -1.
         21    1    1    2  503  504  0.37727259913E+02 -0.71442424371E+02 -0.26794508536E+03  0.27986056334E+03  0.00000000000E+00 0. -1.
         21    1    1    2  504  501 -0.10069722106E+03  0.92474866644E+02 -0.77957458068E+02  0.15738137297E+03  0.00000000000E+00 0. -1.
         21    1    1    2  505  503  0.31537609193E+02 -0.15663087094E+02 -0.54650712471E+03  0.54764038424E+03  0.00000000000E+00 0. -1.
         -4    1    1    2    0  502  0.31432351954E+02 -0.53693551795E+01  0.13248142827E+03  0.13626500490E+03  0.00000000000E+00 0. -1.
<scales pt_clust_3="107.18790" pt_clust_4="14000.00000" pt_clust_5="35.58741" pt_clust_6="31.88766"></scales>
<clustering>
<clus scale="   31.888">  1  6  2 -1</clus>
<clus scale="   35.587">  2  5  1 -1</clus>
<clus scale="  107.188">  2  3  1 -1</clus>
<clus scale="   35.587">  2  3  1 -1</clus>
</clustering>
</event>
<event>
 6    0  0.4796958E+002  0.9789417E+02  0.7546771E-02  0.1284788E+00
         21   -1    0    0  505  502  0.00000000000E+00  0.00000000000E+00  0.22391641500E+04  0.22391641500E+04  0.00000000000E+00 0. -1.
         -3   -1    0    0    0  501 -0.00000000000E+00 -0.00000000000E+00 -0.10753500234E+02  0.10753500234E+02  0.00000000000E+00 0. -1.
         21    1    1    2  503  502 -0.73105134523E+02  0.44526921804E+02  0.94362964784E+03  0.94750404735E+03  0.00000000000E+00 0. -1.
         21    1    1    2  504  501 -0.23877197307E+02 -0.26298146756E+02  0.19151898435E+03  0.19478509810E+03  0.00000000000E+00 0. -1.
         21    1    1    2  505  504  0.10732455898E+03 -0.61521118853E+02  0.93766740857E+03  0.94579256612E+03  0.00000000000E+00 0. -1.
         -3    1    1    2    0  503 -0.10342227154E+02  0.43292343805E+02  0.15559460904E+03  0.16183593871E+03  0.00000000000E+00 0. -1.
<scales pt_clust_3="97.89417" pt_clust_4="35.52060" pt_clust_5="14000.00000" pt_clust_6="38.97159"></scales>
<clustering>
<clus scale="   35.521">  2  4  1 -1</clus>
<clus scale="   38.972">  2  6  1 -1</clus>
<clus scale="   97.894">  1  3  2 -1</clus>
<clus scale="   97.894">  1  3  2 -1</clus>
</clustering>
</event>
<event>
 6    0  0.4796958E+002  0.1053986E+03  0.7546771E-02  0.1269336E+00
         21   -1    0    0  505  502  0.00000000000E+00  0.00000000000E+00  0.42867238107E+03  0.42867238107E+03  0.00000000000E+00 0.  1.
          2   -1    0    0  504    0 -0.00000000000E+00 -0.00000000000E+00 -0.16473388940E+04  0.16473388940E+04  0.00000000000E+00 0.  1.
         21    1    1    2  503  501 -0.34502610892E+02  0.13723874455E+03 -0.36655559241E+03  0.39292226393E+03  0.00000000000E+00 0.  1.
         21    1    1    2  504  502  0.23247025704E+02 -0.28297207746E+02 -0.29322332334E+01  0.36739000558E+02  0.00000000000E+00 0. -1.
         21    1    1    2  505  503 -0.27705786589E+01 -0.73617644764E+02  0.39488891196E+03  0.40170198719E+03  0.00000000000E+00 0.  1.
          2    1    1    2  501    0  0.14026163847E+02 -0.35323892039E+02 -0.12440675993E+04  0.12446480234E+04  0.00000000000E+00 0.  1.
<scales pt_clust_3="14000.00000" pt_clust_4="36.62180" pt_clust_5="105.39864" pt_clust_6="38.03130"></scales>
<clustering>
<clus scale="   36.622">  1  4  2 -1</clus>
<clus scale="   38.031">  2  6  1 -1</clus>
<clus scale="  105.399">  1  5  2 -1</clus>
<clus scale="   36.622">  1  3  2 -1</clus>
</clustering>
</event>
<event>
 6    0  0.4796958E+002  0.7839393E+02  0.7546771E-02  0.1333672E+00
         21   -1    0    0  501  502  0.00000000000E+00  0.00000000000E+00  0.31037765357E+03  0.31037765357E+03  0.00000000000E+00 0. -1.
          1   -1    0    0  503    0 -0.00000000000E+00 -0.00000000000E+00 -0.11210638947E+04  0.11210638947E+04  0.00000000000E+00 0. -1.
         21    1    1    2  503  504  0.35969614645E+02 -0.77980293506E+02 -0.36039759533E+03  0.37048774078E+03  0.00000000000E+00 0.  1.
         21    1    1    2  504  505 -0.21513938328E+02  0.11274172483E+03 -0.16870412832E+02  0.11600929656E+03  0.00000000000E+00 0.  1.
         21    1    1    2  505  502 -0.23201746688E+02 -0.72721484561E+02  0.24950025684E+03  0.26091591275E+03  0.00000000000E+00 0. -1.
          1    1    1    2  501    0  0.87460703709E+01  0.37960053241E+02 -0.68291848977E+03  0.68402859813E+03  0.00000000000E+00 0. -1.
<scales pt_clust_3="63.35888" pt_clust_4="78.39393" pt_clust_5="14000.00000" pt_clust_6="38.95458"></scales>
<clustering>
<clus scale="   38.955">  2  6  1 -1</clus>
<clus scale="   63.359">  2  3  1 -1</clus>
<clus scale="   78.394">  2  4  1 -1</clus>
<clus scale="   78.394">  1  3  2 -1</clus>
</clustering>
</event>
<event>
 6    0  0.4796958E+002  0.9110160E+02  0.7546771E-02  0.1300206E+00
         21   -1    0    0  505  502  0.00000000000E+00  0.00000000000E+00  0.16161234673E+03  0.16161234673E+03  0.00000000000E+00 0. -1.
          2   -1    0    0  504    0 -0.00000000000E+00 -0.00000000000E+00 -0.17554142421E+04  0.17554142421E+04  0.00000000000E+00 0. -1.
         21    1    1    2  503  501  0.68663640292E-01  0.11993328242E+03 -0.45171047021E+02  0.12815779506E+03  0.00000000000E+00 0. -1.
         21    1    1    2  504  502  0.47359090881E-01  0.32091074968E+02  0.67762847965E+02  0.74977615992E+02  0.00000000000E+00 0. -1.
         21    1    1    2  505  503 -0.31923580149E+02 -0.67345510554E+02  0.18262917960E+02  0.76733740517E+02  0.00000000000E+00 0. -1.
          2    1    1    2  501    0  0.31807557418E+02 -0.84678846831E+02 -0.16346566142E+04  0.16371574372E+04  0.00000000000E+00 0. -1.
<scales pt_clust_3="14000.00000" pt_clust_4="32.09111" pt_clust_5="59.69246" pt_clust_6="91.10160"></scales>
<clustering>
<clus scale="   32.091">  1  4  2 -1</clus>
<clus scale="   59.692">  1  5  2 -1</clus>
<clus scale="   91.102">  2  6  1 -1</clus>
<clus scale="   32.091">  1  3  2 -1</clus>
</clustering>
</event>
<event>
 6    0  0.4796958E+002  0.1626348E+03  0.7546771E-02  0.1185754E+00
         21   -1    0    0  504  502  0.00000000000E+00  0.00000000000E+00  0.28655126893E+03  0.28655126893E+03  0.00000000000E+00 0. -1.
          2   -1    0    0  505    0 -0.00000000000E+00 -0.00000000000E+00 -0.64118916207E+03  0.64118916207E+03  0.00000000000E+00 0. -1.
         21    1    1    2  503  501  0.41225652471E+02 -0.11502934782E+03 -0.11397702492E+03  0.16709897514E+03  0.00000000000E+00 0. -1.
         21    1    1    2  504  503 -0.77737011441E+02  0.18741300500E+03 -0.17920378381E+01  0.20290364410E+03  0.00000000000E+00 0. -1.
         21    1    1    2  505  502 -0.13360363804E+02 -0.35434489346E+02  0.15471895674E+03  0.15928608832E+03  0.00000000000E+00 0. -1.
          2    1    1    2  501    0  0.49871722774E+02 -0.36949167831E+02 -0.39358778712E+03  0.39845172344E+03  0.00000000000E+00 0. -1.
<scales pt_clust_3="162.63481" pt_clust_4="14000.00000" pt_clust_5="37.86954" pt_clust_6="62.26617"></scales>
<clustering>
<clus scale="   37.870">  1  5  2 -1</clus>
<clus scale="   62.266">  2  6  1 -1</clus>
<clus scale="  162.635">  2  3  1 -1</clus>
<clus scale="   37.870">  1  3  2 -1</clus>
</clustering>
</event>
<event>
 6    0  0.4796958E+002  0.7291835E+02  0.7546771E-02  0.1350441E+00
          2   -1    0    0  502    0 -0.00000000000E+00  0.00000000000E+00  0.44457243745E+04  0.44457243745E+04  0.00000000000E+00 0.  1.
         21   -1    0    0  504  502  0.00000000000E+00 -0.00000000000E+00 -0.11647239679E+04  0.11647239679E+04  0.00000000000E+00 0.  1.
         21    1    1    2  503  505  0.53529827158E+02  0.35354038679E+02  0.33395900147E+02  0.72323140094E+02  0.00000000000E+00 0.  1.
         21    1    1    2  504  503 -0.17080788339E+02 -0.71482234399E+02 -0.11426510824E+04  0.11450122092E+04  0.00000000000E+00 0.  1.
         21    1    1    2  505  501 -0.64114085332E+02 -0.34689875345E+01  0.81307413622E+03  0.81560541980E+03  0.00000000000E+00 0.  1.
          2    1    1    2  501    0  0.27665046513E+02  0.39597183255E+02  0.35771814526E+04  0.35775075733E+04  0.00000000000E+00 0.  1.
<scales pt_clust_3="14000.00000" pt_clust_4="72.91835" pt_clust_5="50.89466" pt_clust_6="48.30416"></scales>
<clustering>
<clus scale="   48.304">  1  6  2 -1</clus>
<clus scale="   50.895">  1  5  2 -1</clus>
<clus scale="   72.918">  2  4  1 -1</clus>
<clus scale="   72.918">  2  3  1 -1</clus>
</clustering>
</event>
<event>
 6    0  0.4796958E+002  0.9360769E+02  0.7546771E-02  0.1294343E+00
          2   -1    0    0  503    0 -0.00000000000E+00  0.00000000000E+00  0.26004170012E+03  0.26004170012E+03  0.00000000000E+00 0.  1.
         21   -1    0    0  505  502  0.00000000000E+00 -0.00000000000E+00 -0.14758532629E+04  0.14758532629E+04  0.00000000000E+00 0. -1.
         21    1    1    2  503  504 -0.57891242037E+02  0.40346656872E+02  0.16007194798E+02  0.72356609308E+02  0.00000000000E+00 0. -1.
         21    1    1    2  504  502 -0.72413468085E+02 -0.62097783253E+02 -0.22285393951E+03  0.24241230043E+03  0.00000000000E+00 0. -1.
         21    1    1    2  505  501  0.96609608585E+02  0.39387641394E+01 -0.12113401877E+04  0.12151929808E+04  0.00000000000E+00 0. -1.
          2    1    1    2  501    0  0.33695101537E+02  0.17812362241E+02  0.20237536960E+03  0.20593307247E+03  0.00000000000E+00 0.  1.
<scales pt_clust_3="62.76318" pt_clust_4="93.60769" pt_clust_5="14000.00000" pt_clust_6="38.11352"></scales>
<clustering>
<clus scale="   38.114">  1  6  2 -1</clus>
<clus scale="   62.763">  1  3  2 -1</clus>
<clus scale="   93.608">  1  4  2 -1</clus>
<clus scale="   93.608">  2  3  1 -1</clus>
</clustering>
</event>
<event>
 6    0  0.4796958E+002  0.9297404E+02  0.7546771E-02  0.1295805E+00
         21   -1    0    0  504  502  0.00000000000E+00  0.00000000000E+00  0.12409867202E+03  0.12409867202E+03  0.00000000000E+00 0.  1.
          2   -1    0    0  503    0 -0.00000000000E+00 -0.00000000000E+00 -0.16723397420E+04  0.16723397420E+04  0.00000000000E+00 0.  1.
         21    1    1    2  503  505 -0.35677469899E+01 -0.94285962636E+02  0.47303383635E+02  0.10554705904E+03  0.00000000000E+00 0.  1.
         21    1    1    2  504  501  0.14263360520E+01  0.10735395216E+03 -0.31199043909E+03  0.32994687385E+03  0.00000000000E+00 0. -1.
         21    1    1    2  505  502  0.33525581335E+02  0.70699126974E+01  0.30794034769E+02  0.46067568274E+02  0.00000000000E+00 0.  1.
          2    1    1    2  501    0 -0.31384170397E+02 -0.20137902221E+02 -0.13143480493E+04  0.13148769129E+04  0.00000000000E+00 0.  1.
<scales pt_clust_3="92.97404" pt_clust_4="14000.00000" pt_clust_5="34.26293" pt_clust_6="37.19056"></scales>
<clustering>
<clus scale="   34.263">  1  5  2 -1</clus>
<clus scale="   37.191">  2  6  1 -1</clus>
<clus scale="   92.974">  1  3  2 -1</clus>
<clus scale="   34.263">  1  3  2 -1</clus>
</clustering>
</event>
<event>
 6    0  0.4796958E+002  0.1767936E+03  0.7546771E-02  0.1170943E+00
          2   -1    0    0  503    0 -0.00000000000E+00  0.00000000000E+00  0.30267942296E+03  0.30267942296E+03  0.00000000000E+00 0.  1.
         21   -1    0    0  504  502  0.00000000000E+00 -0.00000000000E+00 -0.20370333206E+04  0.20370333206E+04  0.00000000000E+00 0. -1.
         21    1    1    2  503  505  0.81261569800E+02  0.10184578767E+03 -0.13558496793E+02  0.13099557255E+03  0.00000000000E+00 0. -1.
         21    1    1    2  504  501 -0.64496720338E+02  0.13043907996E+03 -0.18566467683E+04  0.18623403026E+04  0.00000000000E+00 0. -1.
         21    1    1    2  505  502  0.26784526328E+02 -0.21468759658E+02 -0.50899553510E+02  0.61392858211E+02  0.00000000000E+00 0.  1.
          2    1    1    2  501    0 -0.43549375790E+02 -0.21081610798E+03  0.18675092103E+03  0.28498401011E+03  0.00000000000E+00 0.  1.
<scales pt_clust_3="14000.00000" pt_clust_4="117.09699" pt_clust_5="34.32664" pt_clust_6="176.79356"></scales>
<clustering>
<clus scale="   34.327">  2  5  1 -1</clus>
<clus scale="  117.097">  2  4  1 -1</clus>
<clus scale="  176.794">  1  6  2 -1</clus>
<clus scale="   34.327">  2  3  1 -1</clus>
</clustering>
</event>
<event>
 6    0  0.4796958E+002  0.1732998E+03  0.7546771E-02  0.1174450E+00
          2   -1    0    0  503    0 -0.00000000000E+00  0.00000000000E+00  0.26796879815E+04  0.26796879815E+04  0.00000000000E+00 0. -1.
         21   -1    0    0  504  502  0.00000000000E+00 -0.00000000000E+00 -0.26459408499E+04  0.26459408499E+04  0.00000000000E+00 0.  1.
         21    1    1    2  503  505  0.14750153194E+02 -0.26989228186E+02  0.39162544844E+03  0.39283135990E+03  0.00000000000E+00 0. -1.
         21    1    1    2  504  501  0.14285973613E+03  0.25019657011E+02 -0.59882564837E+02  0.15691019411E+03  0.00000000000E+00 0. -1.
         21    1    1    2  505  502 -0.17122308825E+03  0.39684304398E+02 -0.25337173014E+04  0.25398062039E+04  0.00000000000E+00 0.  1.
          2    1    1    2  501    0  0.13613198930E+02 -0.37714733222E+02  0.22357215494E+04  0.22360810734E+04  0.00000000000E+00 0. -1.
<scales pt_clust_3="30.75688" pt_clust_4="173.29978" pt_clust_5="14000.00000" pt_clust_6="69.95700"></scales>
<clustering>
<clus scale="   30.757">  1  3  2 -1</clus>
<clus scale="   69.957">  1  6  2 -1</clus>
<clus scale="  173.300">  1  4  2 -1</clus>
<clus scale="  173.300">  2  3  1 -1</clus>
</clustering>
</event>
<event>
 6    0  0.4796958E+002  0.1103657E+03  0.7546771E-02  0.1259894E+00
         21   -1    0    0  501  502  0.00000000000E+00  0.00000000000E+00  0.47323632211E+03  0.47323632211E+03  0.00000000000E+00 0. -1.
          2   -1    0    0  504    0 -0.00000000000E+00 -0.00000000000E+00 -0.62485418339E+03  0.62485418339E+03  0.00000000000E+00 0.  1.
         21    1    1    2  503  502  0.91964662865E+01 -0.73859336815E+02  0.37674986947E+03  0.38403156221E+03  0.00000000000E+00 0. -1.
         21    1    1    2  504  505  0.48257895760E+02 -0.86662731069E+02 -0.87219731983E+01  0.99575731361E+02  0.00000000000E+00 0. -1.
         21    1    1    2  505  503 -0.73577440226E+02  0.10740180660E+03 -0.46729720796E+02  0.13832011631E+03  0.00000000000E+00 0.  1.
          2    1    1    2  501    0  0.16123078180E+02  0.53120261287E+02 -0.47291603676E+03  0.47616309562E+03  0.00000000000E+00 0.  1.
<scales pt_clust_3="73.20318" pt_clust_4="110.36572" pt_clust_5="14000.00000" pt_clust_6="55.51320"></scales>
<clustering>
<clus scale="   55.513">  2  6  1 -1</clus>
<clus scale="   73.203">  1  3  2 -1</clus>
<clus scale="  110.366">  2  4  1 -1</clus>
<clus scale="   73.203">  1  3  2 -1</clus>
</clustering>
</event>
<event>
 6    0  0.4796958E+002  0.1389888E+03  0.7546771E-02  0.1214696E+00
          2   -1    0    0  504    0 -0.00000000000E+00  0.00000000000E+00  0.15836177948E+04  0.15836177948E+04  0.00000000000E+00 0. -1.
         21   -1    0    0  505  502  0.00000000000E+00 -0.00000000000E+00 -0.14408966884E+03  0.14408966884E+03  0.00000000000E+00 0. -1.
         21    1    1    2  503  501  0.89400197093E+02  0.10272494798E+03  0.53579578034E+03  0.55283083164E+03  0.00000000000E+00 0. -1.
         21    1    1    2  504  502  0.68504991495E+02  0.13768951961E+02  0.76865198081E+02  0.10387866275E+03  0.00000000000E+00 0. -1.
         21    1    1    2  505  503 -0.72875607070E+02 -0.15673327419E+03 -0.57103773923E+02  0.18203575017E+03  0.00000000000E+00 0. -1.
          2    1    1    2  501    0 -0.85029581518E+02  0.40239374255E+02  0.88397092142E+03  0.88896221905E+03  0.00000000000E+00 0. -1.
<scales pt_clust_3="14000.00000" pt_clust_4="69.87502" pt_clust_5="138.98881" pt_clust_6="93.00296"></scales>
<clustering>
<clus scale="   69.875">  2  4  1 -1</clus>
<clus scale="   93.003">  1  6  2 -1</clus>
<clus scale="  138.989">  2  5  1 -1</clus>
<clus scale="   69.875">  2  3  1 -1</clus>
</clustering>
</event>
<event>
 6    0  0.4796958E+002  0.1114823E+03  0.7546771E-02  0.1257849E+00
         21   -1    0    0  504  502  0.00000000000E+00  0.00000000000E+00  0.17116598901E+02  0.17116598901E+02  0.00000000000E+00 0. -1.
          2   -1    0    0  505    0 -0.00000000000E+00 -0.00000000000E+00 -0.21600258707E+04  0.21600258707E+04  0.00000000000E+00 0. -1.
         21    1    1    2  503  502  0.54608323729E+02 -0.36369221658E+01 -0.20258704446E+03  0.20984948608E+03  0.00000000000E+00 0. -1.
         21    1    1    2  504  501  0.35263944113E+02  0.91243334941E+02 -0.24259976277E+03  0.26157893039E+03  0.00000000000E+00 0. -1.
         21    1    1    2  505  503 -0.60727927059E+02 -0.96295810151E+02 -0.86795162395E+03  0.87538607808E+03  0.00000000000E+00 0. -1.
          2    1    1    2  501    0 -0.29144340783E+02  0.86893973757E+01 -0.82977084059E+03  0.83032797503E+03  0.00000000000E+00 0. -1.
<scales pt_clust_3="50.14168" pt_clust_4="14000.00000" pt_clust_5="111.48228" pt_clust_6="30.41214"></scales>
<clustering>
<clus scale="   30.412">  2  6  1 -1</clus>
<clus scale="   50.142">  1  3  2 -1</clus>
<clus scale="  111.482">  2  5  1 -1</clus>
<clus scale="   50.142">  1  3  2 -1</clus>
</clustering>
</event>
<event>
 6    0  0.4796958E+002  0.1266001E+03  0.7546771E-02  0.1232590E+00
         21   -1    0    0  505  502  0.00000000000E+00  0.00000000000E+00  0.42434139728E+03  0.42434139728E+03  0.00000000000E+00 0.  1.
          1   -1    0    0  503    0 -0.00000000000E+00 -0.00000000000E+00 -0.44615663250E+03  0.44615663250E+03  0.00000000000E+00 0.  1.
         21    1    1    2  503  504 -0.70041776196E+02 -0.31613545395E+02 -0.71850857447E+02  0.10520367095E+03  0.00000000000E+00 0.  1.
         21    1    1    2  504  502  0.91282088434E+02 -0.41862513536E+02  0.16750182973E+03  0.19529913639E+03  0.00000000000E+00 0.  1.
         21    1    1    2  505  501  0.45735740639E+02  0.44847360953E+02  0.21774012832E+03  0.22696653329E+03  0.00000000000E+00 0.  1.
          1    1    1    2  501    0 -0.66976052877E+02  0.28628697978E+02 -0.33520633582E+03  0.34302868915E+03  0.00000000000E+00 0.  1.
<scales pt_clust_3="71.90390" pt_clust_4="14000.00000" pt_clust_5="64.05501" pt_clust_6="126.60011"></scales>
<clustering>
<clus scale="   64.055">  1  5  2 -1</clus>
<clus scale="   71.904">  2  3  1 -1</clus>
<clus scale="  126.600">  2  6  1 -1</clus>
<clus scale="   64.055">  1  3  2 -1</clus>
</clustering>
</event>
<event>
 6    0  0.4796958E+002  0.1297799E+03  0.7546771E-02  0.1227783E+00
         21   -1    0    0  504  502  0.00000000000E+00  0.00000000000E+00  0.31138619936E+03  0.31138619936E+03  0.00000000000E+00 0. -1.
          2   -1    0    0  505    0 -0.00000000000E+00 -0.00000000000E+00 -0.42828799192E+03  0.42828799192E+03  0.00000000000E+00 0. -1.
         21    1    1    2  503  502  0.65971592840E+02  0.59749446779E+02  0.58562384422E+02  0.10654482776E+03  0.00000000000E+00 0. -1.
         21    1    1    2  504  501 -0.40098561204E+00 -0.37917611432E+02  0.10621615765E+03  0.11278199409E+03  0.00000000000E+00 0. -1.
         21    1    1    2  505  503 -0.15084968898E+03 -0.11132247258E+03  0.25520386845E+02  0.18920785320E+03  0.00000000000E+00 0. -1.
          2    1    1    2  501    0  0.85279081751E+02  0.89490637235E+02 -0.30720072147E+03  0.33113951623E+03  0.00000000000E+00 0. -1.
<scales pt_clust_3="79.29833" pt_clust_4="37.91973" pt_clust_5="14000.00000" pt_clust_6="129.77987"></scales>
<clustering>
<clus scale="   37.920">  1  4  2 -1</clus>
<clus scale="   79.298">  1  3  2 -1</clus>
<clus scale="  129.780">  2  6  1 -1</clus>
<clus scale="   37.920">  1  3  2 -1</clus>
</clustering>
</event>
<event>
 6    0  0.4796958E+002  0.1125693E+03  0.7546771E-02  0.1255885E+00
         21   -1    0    0  504  502  0.00000000000E+00  0.00000000000E+00  0.75850636970E+03  0.75850636970E+03  0.00000000000E+00 0. -1.
         -1   -1    0    0    0  501 -0.00000000000E+00 -0.00000000000E+00 -0.24279569593E+03  0.24279569593E+03  0.00000000000E+00 0. -1.
         21    1    1    2  503  502 -0.38199097347E+02  0.41125113084E+02  0.50690768699E+03  0.51000573437E+03  0.00000000000E+00 0. -1.
         21    1    1    2  504  505  0.64470514893E+02  0.78938282539E+02  0.19685733346E+03  0.22167658757E+03  0.00000000000E+00 0. -1.
         21    1    1    2  505  501 -0.52636823921E+02 -0.45871828557E+02 -0.45871599159E+01  0.69970721904E+02  0.00000000000E+00 0. -1.
         -1    1    1    2    0  503  0.26365406376E+02 -0.74191567066E+02 -0.18346718677E+03  0.19964902178E+03  0.00000000000E+00 0. -1.
<scales pt_clust_3="56.12883" pt_clust_4="112.56929" pt_clust_5="70.43569" pt_clust_6="14000.00000"></scales>
<clustering>
<clus scale="   56.129">  1  3  2 -1</clus>
<clus scale="   70.436">  2  5  1 -1</clus>
<clus scale="  112.569">  1  4  2 -1</clus>
<clus scale="   56.129">  1  3  2 -1</clus>
</clustering>
</event>
<event>
 6    0  0.4796958E+002  0.1832729E+03  0.7546771E-02  0.1164673E+00
         21   -1    0    0  505  502  0.00000000000E+00  0.00000000000E+00  0.14779965963E+04  0.14779965963E+04  0.00000000000E+00 0. -1.
          2   -1    0    0  503    0 -0.00000000000E+00 -0.00000000000E+00 -0.18698415776E+04  0.18698415776E+04  0.00000000000E+00 0.  1.
         21    1    1    2  503  502  0.77417383976E+01 -0.48837892380E+02  0.16478153211E+03  0.17204077299E+03  0.00000000000E+00 0. -1.
         21    1    1    2  504  501 -0.90369732049E+02  0.72141336795E+02  0.20424475106E+03  0.23470615518E+03  0.00000000000E+00 0. -1.
         21    1    1    2  505  504 -0.24672376068E+02  0.12714160276E+03  0.10816251484E+04  0.10893514928E+04  0.00000000000E+00 0. -1.
          2    1    1    2  501    0  0.10730036972E+03 -0.15044504717E+03 -0.18424964128E+04  0.18517397529E+04  0.00000000000E+00 0.  1.
<scales pt_clust_3="49.44769" pt_clust_4="183.27295" pt_clust_5="88.56279" pt_clust_6="14000.00000"></scales>
<clustering>
<clus scale="   49.448">  1  3  2 -1</clus>
<clus scale="   88.563">  1  5  2 -1</clus>
<clus scale="  183.273">  1  4  2 -1</clus>
<clus scale="   49.448">  1  3  2 -1</clus>
</clustering>
</event>
<event>
 6    0  0.4796958E+002  0.1004949E+03  0.7546771E-02  0.1279259E+00
         21   -1    0    0  504  502  0.00000000000E+00  0.00000000000E+00  0.12691905396E+03  0.12691905396E+03  0.00000000000E+00 0.  1.
          1   -1    0    0  505    0 -0.00000000000E+00 -0.00000000000E+00 -0.63521724327E+03  0.63521724327E+03  0.00000000000E+00 0. -1.
         21    1    1    2  503  502 -0.32813135397E+02 -0.53354265560E+02  0.79843651361E+02  0.10148097443E+03  0.00000000000E+00 0.  1.
         21    1    1    2  504  501  0.10479477922E+03  0.32765787685E+02 -0.17612983118E+03  0.20755062040E+03  0.00000000000E+00 0.  1.
         21    1    1    2  505  503 -0.88319921950E+02 -0.12754868211E+02 -0.82569789901E+02  0.12157658278E+03  0.00000000000E+00 0.  1.
          1    1    1    2  501    0  0.16338278127E+02  0.33343346086E+02 -0.32944221958E+03  0.33152811963E+03  0.00000000000E+00 0. -1.
<scales pt_clust_3="61.32482" pt_clust_4="100.49491" pt_clust_5="14000.00000" pt_clust_6="37.13109"></scales>
<clustering>
<clus scale="   37.131">  2  6  1 -1</clus>
<clus scale="   61.325">  1  3  2 -1</clus>
<clus scale="  100.495">  1  4  2 -1</clus>
<clus scale="   61.325">  1  3  2 -1</clus>
</clustering>
</event>
<event>
 6    0  0.4796958E+002  0.8954964E+02  0.7546771E-02  0.1303946E+00
         -4   -1    0    0    0  501 -0.00000000000E+00  0.00000000000E+00  0.15963463997E+04  0.15963463997E+04  0.00000000000E+00 0.  1.
         21   -1    0    0  505  502  0.00000000000E+00 -0.00000000000E+00 -0.11452064052E+03  0.11452064052E+03  0.00000000000E+00 0.  1.
         21    1    1    2  503  504  0.74858777126E+02  0.12886761716E+02  0.27019926946E+02  0.80622463324E+02  0.00000000000E+00 0.  1.
         21    1    1    2  504  502  0.42066716213E+02  0.37231719611E+01 -0.28078845104E+02  0.50713826170E+02  0.00000000000E+00 0.  1.
         21    1    1    2  505  501 -0.46671034746E+02 -0.75428612207E+02 -0.49875414760E+01  0.88839949311E+02  0.00000000000E+00 0.  1.
         -4    1    1    2    0  503 -0.70254458593E+02  0.58818678530E+02  0.14878722188E+04  0.14906908014E+04  0.00000000000E+00 0.  1.
<scales pt_clust_3="89.54964" pt_clust_4="42.23116" pt_clust_5="75.89689" pt_clust_6="14000.00000"></scales>
<clustering>
<clus scale="   42.231">  2  4  1 -1</clus>
<clus scale="   75.897">  2  5  1 -1</clus>
<clus scale="   89.550">  2  3  1 -1</clus>
<clus scale="   42.231">  2  3  1 -1</clus>
</clustering>
</event>
<event>
 6    0  0.4796958E+002  0.7821193E+02  0.7546771E-02  0.1334204E+00
          1   -1    0    0  504    0 -0.00000000000E+00  0.00000000000E+00  0.55099562934E+03  0.55099562934E+03  0.00000000000E+00 0.  1.
         21   -1    0    0  503  502  0.00000000000E+00 -0.00000000000E+00 -0.12801267658E+04  0.12801267658E+04  0.00000000000E+00 0. -1.
         21    1    1    2  503  505  0.61426622218E+02  0.42475342774E+01 -0.95397903305E+02  0.11354308178E+03  0.00000000000E+00 0. -1.
         21    1    1    2  504  502 -0.43819309025E+02 -0.74920782305E+02 -0.10803944746E+04  0.10838752125E+04  0.00000000000E+00 0. -1.
         21    1    1    2  505  501  0.37291551810E+02  0.10056089778E+03 -0.60207070409E+02  0.12299611915E+03  0.00000000000E+00 0. -1.
          1    1    1    2  501    0 -0.54898865003E+02 -0.29887649754E+02  0.50686831189E+03  0.51070798171E+03  0.00000000000E+00 0.  1.
<scales pt_clust_3="61.57330" pt_clust_4="78.21193" pt_clust_5="14000.00000" pt_clust_6="62.41585"></scales>
<clustering>
<clus scale="   61.573">  2  3  1 -1</clus>
<clus scale="   62.416">  1  6  2 -1</clus>
<clus scale="   78.212">  2  4  1 -1</clus>
<clus scale="   61.573">  2  3  1 -1</clus>
</clustering>
</event>
<event>
 6    0  0.4796958E+002  0.9396826E+02  0.7546771E-02  0.1293517E+00
         21   -1    0    0  505  502  0.00000000000E+00  0.00000000000E+00  0.27939725272E+03  0.27939725272E+03  0.00000000000E+00 0. -1.
          2   -1    0    0  504    0 -0.00000000000E+00 -0.00000000000E+00 -0.10112983166E+04  0.10112983166E+04  0.00000000000E+00 0. -1.
         21    1    1    2  503  501 -0.88255885986E+02  0.41209282453E+02 -0.16512156484E+03  0.19170925264E+03  0.00000000000E+00 0. -1.
         21    1    1    2  504  502  0.98704840083E+02 -0.14908183576E+02  0.23336634826E+03  0.25382031419E+03  0.00000000000E+00 0. -1.
         21    1    1    2  505  503 -0.55526563004E+01  0.42362874696E+02 -0.66846231921E+00  0.42730457362E+02  0.00000000000E+00 0. -1.
          2    1    1    2  501    0 -0.48962977962E+01 -0.68663973573E+02 -0.79947738493E+03  0.80243554509E+03  0.00000000000E+00 0. -1.
<scales pt_clust_3="14000.00000" pt_clust_4="93.96826" pt_clust_5="42.72523" pt_clust_6="68.59870"></scales>
<clustering>
<clus scale="   42.725">  1  5  2 -1</clus>
<clus scale="   68.599">  2  6  1 -1</clus>
<clus scale="   93.968">  1  4  2 -1</clus>
<clus scale="   42.725">  1  3  2 -1</clus>
</clustering>
</event>
<event>
 6    0  0.4796958E+002  0.9913177E+02  0.7546771E-02  0.1282132E+00
         21   -1    0    0  505  502  0.00000000000E+00  0.00000000000E+00  0.41666019580E+03  0.41666019580E+03  0.00000000000E+00 0. -1.
          2   -1    0    0  503    0 -0.00000000000E+00 -0.00000000000E+00 -0.54325375447E+03  0.54325375447E+03  0.00000000000E+00 0.  1.
         21    1    1    2  503  502  0.28539012304E+02 -0.67941147347E+02  0.10531376809E+03  0.12853584899E+03  0.00000000000E+00 0. -1.
         21    1    1    2  504  501 -0.29906338071E+02 -0.39635030226E+02 -0.14688589118E+03  0.15505092617E+03  0.00000000000E+00 0. -1.
         21    1    1    2  505  504 -0.15915657242E+02  0.13448057736E+03  0.27940929456E+03  0.31049619598E+03  0.00000000000E+00 0. -1.
          2    1    1    2  501    0  0.17282983010E+02 -0.26904399787E+02 -0.36443073013E+03  0.36583097913E+03  0.00000000000E+00 0.  1.
<scales pt_clust_3="99.13177" pt_clust_4="64.27521" pt_clust_5="14000.00000" pt_clust_6="31.97731"></scales>
<clustering>
<clus scale="   31.977">  2  6  1 -1</clus>
<clus scale="   64.275">  2  4  1 -1</clus>
<clus scale="   99.132">  1  3  2 -1</clus>
<clus scale="   99.132">  1  3  2 -1</clus>
</clustering>
</event>
<event>
 6    0  0.4796958E+002  0.8819032E+02  0.7546771E-02  0.1307294E+00
         21   -1    0    0  505  502  0.00000000000E+00  0.00000000000E+00  0.10038090185E+03  0.10038090185E+03  0.00000000000E+00 0.  1.
          2   -1    0    0  504    0 -0.00000000000E+00 -0.00000000000E+00 -0.10268309611E+04  0.10268309611E+04  0.00000000000E+00 0.  1.
         21    1    1    2  503  501  0.38132706179E+02 -0.73132901457E+02 -0.41724112658E+03  0.42531480372E+03  0.00000000000E+00 0.  1.
         21    1    1    2  504  502 -0.85308986770E+02  0.79071141037E+02  0.47395130863E+02  0.12560321253E+03  0.00000000000E+00 0.  1.
         21    1    1    2  505  503  0.14277507433E+02 -0.26941331102E+02 -0.16285476110E+02  0.34567315085E+02  0.00000000000E+00 0.  1.
          2    1    1    2  501    0  0.32898773157E+02  0.21003091522E+02 -0.54031858740E+03  0.54172653158E+03  0.00000000000E+00 0.  1.
<scales pt_clust_3="88.19032" pt_clust_4="14000.00000" pt_clust_5="30.49070" pt_clust_6="39.01321"></scales>
<clustering>
<clus scale="   30.491">  1  5  2 -1</clus>
<clus scale="   39.013">  2  6  1 -1</clus>
<clus scale="   88.190">  2  3  1 -1</clus>
<clus scale="   30.491">  1  3  2 -1</clus>
</clustering>
</event>
<event>
 6    0  0.4796958E+002  0.9526667E+02  0.7546771E-02  0.1290577E+00
         21   -1    0    0  501  502  0.00000000000E+00  0.00000000000E+00  0.46337016335E+02  0.46337016335E+02  0.00000000000E+00 0. -1.
          1   -1    0    0  505    0 -0.00000000000E+00 -0.00000000000E+00 -0.11389455054E+04  0.11389455054E+04  0.00000000000E+00 0.  1.
         21    1    1    2  503  504 -0.70600991431E+01 -0.12563617993E+03 -0.14601432148E+03  0.19275496565E+03  0.00000000000E+00 0. -1.
         21    1    1    2  504  502  0.46520804831E+01  0.32907652309E+02  0.48140797357E+01  0.33581703308E+02  0.00000000000E+00 0. -1.
         21    1    1    2  505  503 -0.27674747629E+02  0.16018282435E+02 -0.15355141106E+03  0.15684550637E+03  0.00000000000E+00 0. -1.
          1    1    1    2  501    0  0.30082766289E+02  0.76710245180E+02 -0.79785683626E+03  0.80210034641E+03  0.00000000000E+00 0.  1.
<scales pt_clust_3="14000.00000" pt_clust_4="33.41293" pt_clust_5="31.97619" pt_clust_6="95.26667"></scales>
<clustering>
<clus scale="   31.976">  2  5  1 -1</clus>
<clus scale="   33.413">  1  4  2 -1</clus>
<clus scale="   95.267">  2  6  1 -1</clus>
<clus scale="   33.413">  1  3  2 -1</clus>
</clustering>
</event>
<event>
 6    0  0.4796958E+002  0.1087354E+03  0.7546771E-02  0.1262930E+00
         21   -1    0    0  505  502  0.00000000000E+00  0.00000000000E+00  0.10269807998E+03  0.10269807998E+03  0.00000000000E+00 0. -1.
          2   -1    0    0  504    0 -0.00000000000E+00 -0.00000000000E+00 -0.19386155704E+04  0.19386155704E+04  0.00000000000E+00 0. -1.
         21    1    1    2  503  501 -0.99295844677E+02 -0.11995744788E+03 -0.10837151394E+02  0.15609900039E+03  0.00000000000E+00 0. -1.
         21    1    1    2  504  502 -0.17992522694E+02  0.28578506526E+02 -0.42865554334E+02  0.54570300132E+02  0.00000000000E+00 0.  1.
         21    1    1    2  505  503  0.82119475276E+02 -0.10597872099E+02 -0.53529656381E+02  0.98596892573E+02  0.00000000000E+00 0.  1.
          2    1    1    2  501    0  0.35168892095E+02  0.10197681346E+03 -0.17286851283E+04  0.17320474573E+04  0.00000000000E+00 0. -1.
<scales pt_clust_3="108.73545" pt_clust_4="33.77073" pt_clust_5="78.03301" pt_clust_6="14000.00000"></scales>
<clustering>
<clus scale="   33.771">  1  4  2 -1</clus>
<clus scale="   78.033">  1  5  2 -1</clus>
<clus scale="  108.735">  1  3  2 -1</clus>
<clus scale="   33.771">  1  3  2 -1</clus>
</clustering>
</event>
<event>
 6    0  0.4796958E+002  0.1004148E+03  0.7546771E-02  0.1279426E+00
         21   -1    0    0  503  502  0.00000000000E+00  0.00000000000E+00  0.88586788783E+03  0.88586788783E+03  0.00000000000E+00 0. -1.
          1   -1    0    0  504    0 -0.00000000000E+00 -0.00000000000E+00 -0.43647461369E+03  0.43647461369E+03  0.00000000000E+00 0.  1.
         21    1    1    2  503  505 -0.14557568344E+02 -0.43029196531E+02  0.82320987850E+03  0.82446221176E+03  0.00000000000E+00 0. -1.
         21    1    1    2  504  502  0.22435618252E+02  0.12570703900E+03 -0.98113166842E+02  0.16103356833E+03  0.00000000000E+00 0. -1.
         21    1    1    2  505  501  0.21980429661E+02 -0.76592708755E+02 -0.23878923160E+02  0.83185246852E+02  0.00000000000E+00 0. -1.
          1    1    1    2  501    0 -0.29858479570E+02 -0.60851337148E+01 -0.25182451437E+03  0.25366147459E+03  0.00000000000E+00 0.  1.
<scales pt_clust_3="45.47739" pt_clust_4="100.41483" pt_clust_5="14000.00000" pt_clust_6="30.47224"></scales>
<clustering>
<clus scale="   30.472">  2  6  1 -1</clus>
<clus scale="   45.477">  1  3  2 -1</clus>
<clus scale="  100.415">  2  4  1 -1</clus>
<clus scale="   45.477">  1  3  2 -1</clus>
</clustering>
</event>
<event>
 6    0  0.4796958E+002  0.8662472E+02  0.7546771E-02  0.1311238E+00
         21   -1    0    0  503  502  0.00000000000E+00  0.00000000000E+00  0.13351156962E+03  0.13351156962E+03  0.00000000000E+00 0. -1.
          1   -1    0    0  505    0 -0.00000000000E+00 -0.00000000000E+00 -0.41218287719E+03  0.41218287719E+03  0.00000000000E+00 0.  1.
         21    1    1    2  503  501 -0.38443183284E+02  0.45693059375E+02  0.53694153252E+02  0.80304396576E+02  0.00000000000E+00 0. -1.
         21    1    1    2  504  502 -0.30061355249E+01 -0.11073559648E+03 -0.14058007624E+02  0.11166484118E+03  0.00000000000E+00 0. -1.
         21    1    1    2  505  504  0.72384325304E+02  0.65136086963E+02 -0.12753001000E+03  0.16045592486E+03  0.00000000000E+00 0. -1.
          1    1    1    2  501    0 -0.30935006496E+02 -0.93549858825E-01 -0.19077744320E+03  0.19326928419E+03  0.00000000000E+00 0.  1.
<scales pt_clust_3="60.92991" pt_clust_4="14000.00000" pt_clust_5="86.62472" pt_clust_6="30.93515"></scales>
<clustering>
<clus scale="   30.935">  2  6  1 -1</clus>
<clus scale="   60.930">  1  3  2 -1</clus>
<clus scale="   86.625">  2  5  1 -1</clus>
<clus scale="   60.930">  1  3  2 -1</clus>
</clustering>
</event>
<event>
 6    0  0.4796958E+002  0.1531067E+03  0.7546771E-02  0.1196707E+00
          1   -1    0    0  504    0 -0.00000000000E+00  0.00000000000E+00  0.86818191807E+03  0.86818191807E+03  0.00000000000E+00 0.  1.
         21   -1    0    0  501  502  0.00000000000E+00 -0.00000000000E+00 -0.56073341757E+02  0.56073341757E+02  0.00000000000E+00 0.  1.
         21    1    1    2  503  502 -0.77663091857E+02  0.87114595213E+02  0.14465400959E+03  0.18586363557E+03  0.00000000000E+00 0. -1.
         21    1    1    2  504  505  0.40786427611E+02 -0.16483505889E+02  0.77790910964E+02  0.89368140141E+02  0.00000000000E+00 0. -1.
         21    1    1    2  505  503  0.57266514780E+02 -0.12255218782E+03  0.13556200620E+03  0.19150861594E+03  0.00000000000E+00 0.  1.
          1    1    1    2  501    0 -0.20389850534E+02  0.51921098494E+02  0.45410164955E+03  0.45751486818E+03  0.00000000000E+00 0.  1.
<scales pt_clust_3="137.89375" pt_clust_4="37.94317" pt_clust_5="37.94317" pt_clust_6="55.78124"></scales>
<clustering>
<clus scale="   37.943">  4  5 -1 -1</clus>
<clus scale="   55.781">  1  6  2 -1</clus>
<clus scale="  137.894">  2  3  1 -1</clus>
<clus scale="  137.894">  2  3  1 -1</clus>
</clustering>
</event>
<event>
 6    0  0.4796958E+002  0.2289586E+03  0.7546771E-02  0.1127375E+00
         21   -1    0    0  505  502  0.00000000000E+00  0.00000000000E+00  0.25062294426E+03  0.25062294426E+03  0.00000000000E+00 0.  1.
          4   -1    0    0  503    0 -0.00000000000E+00 -0.00000000000E+00 -0.70627643676E+03  0.70627643676E+03  0.00000000000E+00 0. -1.
         21    1    1    2  503  504 -0.48715359157E+02  0.36155674939E+01 -0.41109589251E+02  0.63845570516E+02  0.00000000000E+00 0.  1.
         21    1    1    2  504  502 -0.10257355776E+03 -0.17753917941E+03 -0.16906236194E+02  0.20573603428E+03  0.00000000000E+00 0.  1.
         21    1    1    2  505  501  0.12994486709E+03  0.21698157021E+03  0.32060736465E+02  0.25494030893E+03  0.00000000000E+00 0.  1.
          4    1    1    2  501    0  0.21344049824E+02 -0.43057958293E+02 -0.42969840351E+03  0.43237746729E+03  0.00000000000E+00 0. -1.
<scales pt_clust_3="44.88159" pt_clust_4="14000.00000" pt_clust_5="228.95856" pt_clust_6="48.05784"></scales>
<clustering>
<clus scale="   48.058">  2  6  1 -1</clus>
<clus scale="   44.882">  2  3  1 -1</clus>
<clus scale="  228.959">  2  5  1 -1</clus>
<clus scale="  228.959">  1  3  2 -1</clus>
</clustering>
</event>
<event>
 6    0  0.4796958E+002  0.8237723E+02  0.7546771E-02  0.1322437E+00
         21   -1    0    0  501  502  0.00000000000E+00  0.00000000000E+00  0.12233897918E+03  0.12233897918E+03  0.00000000000E+00 0. -1.
          1   -1    0    0  503    0 -0.00000000000E+00 -0.00000000000E+00 -0.13834672725E+04  0.13834672725E+04  0.00000000000E+00 0.  1.
         21    1    1    2  503  505 -0.71052473049E+02  0.16109602067E+01 -0.28726665159E+03  0.29592765709E+03  0.00000000000E+00 0. -1.
         21    1    1    2  504  502 -0.42972128466E+02  0.38884242321E+02  0.58078739551E+02  0.82047109112E+02  0.00000000000E+00 0. -1.
         21    1    1    2  505  504  0.10300012840E+03 -0.93245796902E+02 -0.55035513411E+02  0.14944133574E+03  0.00000000000E+00 0. -1.
          1    1    1    2  501    0  0.11024473114E+02  0.52750594375E+02 -0.97690486784E+03  0.97839014970E+03  0.00000000000E+00 0.  1.
<scales pt_clust_3="14000.00000" pt_clust_4="58.77317" pt_clust_5="82.37723" pt_clust_6="53.89030"></scales>
<clustering>
<clus scale="   53.890">  2  6  1 -1</clus>
<clus scale="   58.773">  1  4  2 -1</clus>
<clus scale="   82.377">  1  5  2 -1</clus>
<clus scale="   58.773">  1  3  2 -1</clus>
</clustering>
</event>
<event>
 6    0  0.4796958E+002  0.9300075E+02  0.7546771E-02  0.1295743E+00
         21   -1    0    0  503  502  0.00000000000E+00  0.00000000000E+00  0.33312247306E+02  0.33312247306E+02  0.00000000000E+00 0. -1.
          2   -1    0    0  502    0 -0.00000000000E+00 -0.00000000000E+00 -0.19476100560E+04  0.19476100560E+04  0.00000000000E+00 0.  1.
         21    1    1    2  503  505 -0.30952356627E+02  0.18458594840E+02  0.27708540225E+01  0.36144788507E+02  0.00000000000E+00 0. -1.
         21    1    1    2  504  501  0.12515287943E+03  0.57152959330E+02 -0.96064184820E+03  0.97044446750E+03  0.00000000000E+00 0.  1.
         21    1    1    2  505  504 -0.67574611344E+02 -0.14044262452E+02 -0.14994952844E+03  0.16507098620E+03  0.00000000000E+00 0. -1.
          2    1    1    2  501    0 -0.26625911461E+02 -0.61567291718E+02 -0.80647728607E+03  0.80926206109E+03  0.00000000000E+00 0.  1.
<scales pt_clust_3="36.03843" pt_clust_4="14000.00000" pt_clust_5="93.00075" pt_clust_6="66.70692"></scales>
<clustering>
<clus scale="   36.038">  1  3  2 -1</clus>
<clus scale="   66.707">  2  6  1 -1</clus>
<clus scale="   93.001">  1  5  2 -1</clus>
<clus scale="   36.038">  1  3  2 -1</clus>
</clustering>
</event>
<event>
 6    0  0.4796958E+002  0.6762709E+02  0.7546771E-02  0.1368353E+00
         21   -1    0    0  501  502  0.00000000000E+00  0.00000000000E+00  0.14184729569E+03  0.14184729569E+03  0.00000000000E+00 0.  1.
          2   -1    0    0  504    0 -0.00000000000E+00 -0.00000000000E+00 -0.25976522726E+04  0.25976522726E+04  0.00000000000E+00 0. -1.
         21    1    1    2  503  505 -0.91274670162E+02  0.60098532481E+02 -0.92184180317E+02  0.14297140316E+03  0.00000000000E+00 0.  1.
         21    1    1    2  504  503 -0.48306786069E+01 -0.39701643768E+02 -0.16778817781E+03  0.17248892308E+03  0.00000000000E+00 0.  1.
         21    1    1    2  505  502  0.65429659962E+02 -0.18860161227E+01  0.10456478673E+03  0.12336284726E+03  0.00000000000E+00 0.  1.
          2    1    1    2  501    0  0.30675688807E+02 -0.18510872591E+02 -0.23003974055E+04  0.23006763948E+04  0.00000000000E+00 0. -1.
<scales pt_clust_3="14000.00000" pt_clust_4="51.88872" pt_clust_5="67.62709" pt_clust_6="35.82807"></scales>
<clustering>
<clus scale="   35.828">  2  6  1 -1</clus>
<clus scale="   51.889">  2  4  1 -1</clus>
<clus scale="   67.627">  1  5  2 -1</clus>
<clus scale="   67.627">  1  3  2 -1</clus>
</clustering>
</event>
<event>
 6    0  0.4796958E+002  0.1029040E+03  0.7546771E-02  0.1274305E+00
         21   -1    0    0  503  502  0.00000000000E+00  0.00000000000E+00  0.17148385095E+04  0.17148385095E+04  0.00000000000E+00 0.  1.
          2   -1    0    0  504    0 -0.00000000000E+00 -0.00000000000E+00 -0.52940331623E+02  0.52940331623E+02  0.00000000000E+00 0.  1.
         21    1    1    2  503  505  0.14575213378E+02 -0.49364801142E+02  0.12346571320E+04  0.12357295635E+04  0.00000000000E+00 0.  1.
         21    1    1    2  504  502 -0.11281092072E+03 -0.51114040327E+01  0.11834617062E+03  0.16357948033E+03  0.00000000000E+00 0.  1.
         21    1    1    2  505  501  0.79572092611E+02  0.81093481896E+02  0.31546849707E+03  0.33530321110E+03  0.00000000000E+00 0.  1.
          2    1    1    2  501    0  0.18663614731E+02 -0.26617276722E+02 -0.65736218529E+01  0.33166586185E+02  0.00000000000E+00 0.  1.
<scales pt_clust_3="51.97143" pt_clust_4="102.90400" pt_clust_5="14000.00000" pt_clust_6="32.50861"></scales>
<clustering>
<clus scale="   32.509">  2  6  1 -1</clus>
<clus scale="   51.971">  1  3  2 -1</clus>
<clus scale="  102.904">  2  4  1 -1</clus>
<clus scale="   51.971">  1  3  2 -1</clus>
</clustering>
</event>
<event>
 6    0  0.4796958E+002  0.1033118E+03  0.7546771E-02  0.1273482E+00
          2   -1    0    0  505    0 -0.00000000000E+00  0.00000000000E+00  0.59212135609E+03  0.59212135609E+03  0.00000000000E+00 0. -1.
         21   -1    0    0  503  502  0.00000000000E+00 -0.00000000000E+00 -0.30735152283E+03  0.30735152283E+03  0.00000000000E+00 0. -1.
         21    1    1    2  503  504 -0.29061863183E+02  0.79510676422E+02 -0.21499323285E+03  0.23105979687E+03  0.00000000000E+00 0. -1.
         21    1    1    2  504  501  0.46875392932E+02  0.52135923172E+02  0.88713256851E+02  0.11307298037E+03  0.00000000000E+00 0.  1.
         21    1    1    2  505  502 -0.47494217082E+02 -0.16035380477E+03  0.27393550098E+02  0.16946813844E+03  0.00000000000E+00 0.  1.
          2    1    1    2  501    0  0.29680687333E+02  0.28707205174E+02  0.38365625916E+03  0.38587196325E+03  0.00000000000E+00 0. -1.
<scales pt_clust_3="85.31776" pt_clust_4="103.31176" pt_clust_5="14000.00000" pt_clust_6="41.29221"></scales>
<clustering>
<clus scale="   41.292">  1  6  2 -1</clus>
<clus scale="   85.318">  2  3  1 -1</clus>
<clus scale="  103.312">  1  4  2 -1</clus>
<clus scale="   85.318">  2  3  1 -1</clus>
</clustering>
</event>
<event>
 6    0  0.4796958E+002  0.2111581E+03  0.7546771E-02  0.1140652E+00
         21   -1    0    0  504  502  0.00000000000E+00  0.00000000000E+00  0.20003530115E+03  0.20003530115E+03  0.00000000000E+00 0. -1.
          1   -1    0    0  503    0 -0.00000000000E+00 -0.00000000000E+00 -0.15343519309E+04  0.15343519309E+04  0.00000000000E+00 0.  1.
         21    1    1    2  503  505 -0.11769508636E+03  0.74790772882E+02  0.10762163827E+02  0.13986285151E+03  0.00000000000E+00 0. -1.
         21    1    1    2  504  501  0.10415814293E+03 -0.10456804074E+03 -0.85383227076E+03  0.86649462807E+03  0.00000000000E+00 0.  1.
         21    1    1    2  505  502 -0.49879205152E+02  0.31624252424E+02  0.10924966386E+03  0.12419145502E+03  0.00000000000E+00 0. -1.
          1    1    1    2  501    0  0.63416148583E+02 -0.18469845636E+01 -0.60049618673E+03  0.60383829750E+03  0.00000000000E+00 0.  1.
<scales pt_clust_3="192.83512" pt_clust_4="56.40861" pt_clust_5="59.05953" pt_clust_6="56.40861"></scales>
<clustering>
<clus scale="   56.409">  4  6 -1 -1</clus>
<clus scale="   59.060">  1  5  2 -1</clus>
<clus scale="  192.835">  1  3  2 -1</clus>
<clus scale="   59.060">  1  3  2 -1</clus>
</clustering>
</event>
<event>
 6    0  0.4796958E+002  0.1968371E+03  0.7546771E-02  0.1152435E+00
          3   -1    0    0  504    0 -0.00000000000E+00  0.00000000000E+00  0.34532446665E+03  0.34532446665E+03  0.00000000000E+00 0.  1.
         21   -1    0    0  505  502  0.00000000000E+00 -0.00000000000E+00 -0.61228205651E+03  0.61228205651E+03  0.00000000000E+00 0.  1.
         21    1    1    2  503  501 -0.22979610576E+03  0.10380363231E+02 -0.29376722464E+03  0.37311283071E+03  0.00000000000E+00 0.  1.
         21    1    1    2  504  502  0.16381648050E+03 -0.17040981840E+02 -0.13608931953E+03  0.21365050254E+03  0.00000000000E+00 0.  1.
         21    1    1    2  505  503 -0.15576638183E+02 -0.55000658017E+02 -0.85144588558E+02  0.10255391265E+03  0.00000000000E+00 0. -1.
          3    1    1    2  501    0  0.81556263441E+02  0.61661276626E+02  0.24804354286E+03  0.26828927727E+03  0.00000000000E+00 0.  1.
<scales pt_clust_3="196.83712" pt_clust_4="14000.00000" pt_clust_5="57.16384" pt_clust_6="101.35449"></scales>
<clustering>
<clus scale="   57.164">  2  5  1 -1</clus>
<clus scale="  101.354">  1  6  2 -1</clus>
<clus scale="  196.837">  1  3  2 -1</clus>
<clus scale="   57.164">  2  3  1 -1</clus>
</clustering>
</event>
<event>
 6    0  0.4796958E+002  0.7754707E+02  0.7546771E-02  0.1336160E+00
          1   -1    0    0  503    0 -0.00000000000E+00  0.00000000000E+00  0.69210357331E+03  0.69210357331E+03  0.00000000000E+00 0. -1.
         21   -1    0    0  504  502  0.00000000000E+00 -0.00000000000E+00 -0.99828457320E+02  0.99828457320E+02  0.00000000000E+00 0. -1.
         21    1    1    2  503  502  0.17968232711E+02  0.75698843764E+02  0.76599673455E+02  0.10918187719E+03  0.00000000000E+00 0. -1.
         21    1    1    2  504  505 -0.30278373858E+02 -0.23607210944E+02 -0.59475400213E+02  0.70791267559E+02  0.00000000000E+00 0. -1.
         21    1    1    2  505  501  0.33801495125E+02 -0.98326354769E+02  0.14296261620E+03  0.17677364834E+03  0.00000000000E+00 0. -1.
          1    1    1    2  501    0 -0.21491353978E+02  0.46234721950E+02  0.43218822655E+03  0.43518523754E+03  0.00000000000E+00 0. -1.
<scales pt_clust_3="14000.00000" pt_clust_4="38.39375" pt_clust_5="77.54707" pt_clust_6="50.63798"></scales>
<clustering>
<clus scale="   38.394">  2  4  1 -1</clus>
<clus scale="   50.638">  1  6  2 -1</clus>
<clus scale="   77.547">  1  5  2 -1</clus>
<clus scale="   38.394">  2  3  1 -1</clus>
</clustering>
</event>
<event>
 6    0  0.4796958E+002  0.1793279E+03  0.7546771E-02  0.1168455E+00
         21   -1    0    0  503  502  0.00000000000E+00  0.00000000000E+00  0.10684847975E+04  0.10684847975E+04  0.00000000000E+00 0. -1.
          1   -1    0    0  505    0 -0.00000000000E+00 -0.00000000000E+00 -0.17487496796E+04  0.17487496796E+04  0.00000000000E+00 0.  1.
         21    1    1    2  503  501  0.28830591115E+01 -0.15113827041E+03 -0.34913255935E+03  0.38045319398E+03  0.00000000000E+00 0.  1.
         21    1    1    2  504  502 -0.31826562004E+02  0.17713107115E+03  0.10340825837E+04  0.10496261889E+04  0.00000000000E+00 0. -1.
         21    1    1    2  505  504 -0.23056083873E+02 -0.28483292849E+02 -0.21611175231E+02  0.42543200044E+02  0.00000000000E+00 0.  1.
          1    1    1    2  501    0  0.51999586765E+02  0.24904921087E+01 -0.13436037312E+04  0.13446118942E+04  0.00000000000E+00 0.  1.
<scales pt_clust_3="179.32787" pt_clust_4="14000.00000" pt_clust_5="36.64534" pt_clust_6="39.30523"></scales>
<clustering>
<clus scale="   36.645">  2  5  1 -1</clus>
<clus scale="   39.305">  2  6  1 -1</clus>
<clus scale="  179.328">  2  3  1 -1</clus>
<clus scale="  179.328">  1  3  2 -1</clus>
</clustering>
</event>
<event>
 6    0  0.4796958E+002  0.8651831E+02  0.7546771E-02  0.1311509E+00
          2   -1    0    0  503    0 -0.00000000000E+00  0.00000000000E+00  0.41168182644E+03  0.41168182644E+03  0.00000000000E+00 0. -1.
         21   -1    0    0  505  502  0.00000000000E+00 -0.00000000000E+00 -0.18442858541E+03  0.18442858541E+03  0.00000000000E+00 0. -1.
         21    1    1    2  503  504 -0.40553756468E+02 -0.69034285036E+01  0.52134035954E+02  0.66409503790E+02  0.00000000000E+00 0. -1.
         21    1    1    2  504  502 -0.11614199995E+02  0.59754601599E+02  0.26933237552E+02  0.66565015878E+02  0.00000000000E+00 0. -1.
         21    1    1    2  505  501  0.16853661375E+01 -0.94752654703E+02 -0.13917749622E+03  0.16837838782E+03  0.00000000000E+00 0. -1.
          2    1    1    2  501    0  0.50482590325E+02  0.41901481607E+02  0.28736346374E+03  0.29475750436E+03  0.00000000000E+00 0. -1.
<scales pt_clust_3="41.13714" pt_clust_4="14000.00000" pt_clust_5="86.51831" pt_clust_6="39.98804"></scales>
<clustering>
<clus scale="   41.137">  1  3  2 -1</clus>
<clus scale="   39.988">  1  6  2 -1</clus>
<clus scale="   86.518">  2  5  1 -1</clus>
<clus scale="   86.518">  2  3  1 -1</clus>
</clustering>
</event>
<event>
 6    0  0.4796958E+002  0.1904115E+03  0.7546771E-02  0.1158091E+00
         21   -1    0    0  503  502  0.00000000000E+00  0.00000000000E+00  0.95954195652E+02  0.95954195652E+02  0.00000000000E+00 0. -1.
          2   -1    0    0  505    0 -0.00000000000E+00 -0.00000000000E+00 -0.16917701366E+04  0.16917701366E+04  0.00000000000E+00 0. -1.
         21    1    1    2  503  501  0.16527556398E+03  0.78742084168E+02 -0.28515145488E+03  0.33886233206E+03  0.00000000000E+00 0. -1.
         21    1    1    2  504  502  0.13190749269E+02  0.33136021973E+02  0.19911566066E+02  0.40846814829E+02  0.00000000000E+00 0. -1.
         21    1    1    2  505  504 -0.13591284754E+03 -0.16270049120E+03 -0.26038749031E+03  0.33577581371E+03  0.00000000000E+00 0. -1.
          2    1    1    2  501    0 -0.42553465705E+02  0.50822385054E+02 -0.10701885618E+04  0.10722393717E+04  0.00000000000E+00 0. -1.
<scales pt_clust_3="14000.00000" pt_clust_4="35.66499" pt_clust_5="190.41149" pt_clust_6="66.55176"></scales>
<clustering>
<clus scale="   35.665">  1  4  2 -1</clus>
<clus scale="   66.552">  2  6  1 -1</clus>
<clus scale="  190.411">  1  5  2 -1</clus>
<clus scale="   35.665">  1  3  2 -1</clus>
</clustering>
</event>
<event>
 6    0  0.4796958E+002  0.8025656E+02  0.7546771E-02  0.1328325E+00
         21   -1    0    0  504  502  0.00000000000E+00  0.00000000000E+00  0.18445184901E+03  0.18445184901E+03  0.00000000000E+00 0. -1.
          2   -1    0    0  505    0 -0.00000000000E+00 -0.00000000000E+00 -0.76668280711E+03  0.76668280711E+03  0.00000000000E+00 0. -1.
         21    1    1    2  503  502  0.16641252484E+02  0.80011787663E+02  0.12622777678E+03  0.15037376460E+03  0.00000000000E+00 0. -1.
         21    1    1    2  504  501  0.35830617407E+02 -0.24285450286E+02 -0.32360524716E+02  0.54044609345E+02  0.00000000000E+00 0. -1.
         21    1    1    2  505  503 -0.97829030497E+02 -0.27839049091E+02 -0.41443682103E+02  0.10983219313E+03  0.00000000000E+00 0. -1.
          2    1    1    2  501    0  0.45357160606E+02 -0.27887288286E+02 -0.63465452807E+03  0.63688408903E+03  0.00000000000E+00 0. -1.
<scales pt_clust_3="14000.00000" pt_clust_4="43.28529" pt_clust_5="80.25656" pt_clust_6="53.52213"></scales>
<clustering>
<clus scale="   43.285">  1  4  2 -1</clus>
<clus scale="   53.522">  2  6  1 -1</clus>
<clus scale="   80.257">  2  5  1 -1</clus>
<clus scale="   43.285">  1  3  2 -1</clus>
</clustering>
</event>
<event>
 6    0  0.4796958E+002  0.9767986E+02  0.7546771E-02  0.1285252E+00
         21   -1    0    0  505  502  0.00000000000E+00  0.00000000000E+00  0.28071546467E+03  0.28071546467E+03  0.00000000000E+00 0.  1.
          2   -1    0    0  503    0 -0.00000000000E+00 -0.00000000000E+00 -0.31506627753E+03  0.31506627753E+03  0.00000000000E+00 0.  1.
         21    1    1    2  503  504 -0.80304001309E+02 -0.64669105549E+02 -0.32083308045E+02  0.10798224157E+03  0.00000000000E+00 0. -1.
         21    1    1    2  504  502 -0.79094269006E+01  0.37143554266E+02  0.20043758485E+03  0.20400350016E+03  0.00000000000E+00 0.  1.
         21    1    1    2  505  501  0.73292292458E+02  0.55952288491E+02 -0.15067334264E+02  0.93431489782E+02  0.00000000000E+00 0.  1.
          2    1    1    2  501    0  0.14921135752E+02 -0.28426737208E+02 -0.18763775540E+03  0.19036451070E+03  0.00000000000E+00 0.  1.
<scales pt_clust_3="14000.00000" pt_clust_4="37.53936" pt_clust_5="97.67986" pt_clust_6="32.10482"></scales>
<clustering>
<clus scale="   32.105">  2  6  1 -1</clus>
<clus scale="   37.539">  1  4  2 -1</clus>
<clus scale="   97.680">  2  5  1 -1</clus>
<clus scale="   37.539">  1  3  2 -1</clus>
</clustering>
</event>
<event>
 6    0  0.4796958E+002  0.1547005E+03  0.7546771E-02  0.1194813E+00
         21   -1    0    0  505  502  0.00000000000E+00  0.00000000000E+00  0.19647650452E+03  0.19647650452E+03  0.00000000000E+00 0. -1.
          2   -1    0    0  503    0 -0.00000000000E+00 -0.00000000000E+00 -0.17844240387E+04  0.17844240387E+04  0.00000000000E+00 0.  1.
         21    1    1    2  503  504  0.27325496333E+02 -0.15995524442E+03 -0.46268103505E+03  0.49031225068E+03  0.00000000000E+00 0.  1.
         21    1    1    2  504  502 -0.59273072384E+02  0.75640226766E+02  0.13826824225E+03  0.16838303902E+03  0.00000000000E+00 0. -1.
         21    1    1    2  505  501  0.64051474777E+02  0.11887654356E+03 -0.12919086653E+03  0.18688098893E+03  0.00000000000E+00 0.  1.
          2    1    1    2  501    0 -0.32103898726E+02 -0.34561525907E+02 -0.11343438749E+04  0.11353242646E+04  0.00000000000E+00 0.  1.
<scales pt_clust_3="154.70051" pt_clust_4="95.93205" pt_clust_5="14000.00000" pt_clust_6="47.17160"></scales>
<clustering>
<clus scale="   47.172">  2  6  1 -1</clus>
<clus scale="   95.932">  1  4  2 -1</clus>
<clus scale="  154.701">  2  3  1 -1</clus>
<clus scale="   95.932">  1  3  2 -1</clus>
</clustering>
</event>
<event>
 6    0  0.4796958E+002  0.6753917E+02  0.7546771E-02  0.1368667E+00
          2   -1    0    0  504    0 -0.00000000000E+00  0.00000000000E+00  0.19123630590E+04  0.19123630590E+04  0.00000000000E+00 0.  1.
         21   -1    0    0  503  502  0.00000000000E+00 -0.00000000000E+00 -0.14800811944E+02  0.14800811944E+02  0.00000000000E+00 0.  1.
         21    1    1    2  503  501  0.33898310967E+02 -0.67211427877E+02  0.24771843741E+03  0.25890325559E+03  0.00000000000E+00 0.  1.
         21    1    1    2  504  505 -0.61954174966E+02  0.80114604996E+02  0.57801913793E+03  0.58682432937E+03  0.00000000000E+00 0.  1.
         21    1    1    2  505  502 -0.11371328930E+02  0.33022775945E+02  0.74541426328E+02  0.82317890472E+02  0.00000000000E+00 0.  1.
          2    1    1    2  501    0  0.39427192929E+02 -0.45925953064E+02  0.99728324537E+03  0.99911839549E+03  0.00000000000E+00 0.  1.
<scales pt_clust_3="57.59224" pt_clust_4="14000.00000" pt_clust_5="34.92579" pt_clust_6="67.53917"></scales>
<clustering>
<clus scale="   34.926">  2  5  1 -1</clus>
<clus scale="   57.592">  2  3  1 -1</clus>
<clus scale="   67.539">  1  6  2 -1</clus>
<clus scale="   34.926">  2  3  1 -1</clus>
</clustering>
</event>
<event>
 6    0  0.4796958E+002  0.1038731E+03  0.7546771E-02  0.1272356E+00
         21   -1    0    0  504  502  0.00000000000E+00  0.00000000000E+00  0.87727867422E+03  0.87727867422E+03  0.00000000000E+00 0. -1.
          1   -1    0    0  503    0 -0.00000000000E+00 -0.00000000000E+00 -0.69833691193E+02  0.69833691193E+02  0.00000000000E+00 0.  1.
         21    1    1    2  503  505  0.76898670626E+01  0.56533821587E+02  0.44929365208E+02  0.72621311587E+02  0.00000000000E+00 0. -1.
         21    1    1    2  504  501  0.11453065199E+03 -0.26176214367E+02  0.53590239817E+03  0.54862905940E+03  0.00000000000E+00 0. -1.
         21    1    1    2  505  502 -0.89526789070E+02 -0.34130671682E+01  0.25801502909E+03  0.27312716860E+03  0.00000000000E+00 0. -1.
          1    1    1    2  501    0 -0.32693729985E+02 -0.26944540051E+02 -0.31401809447E+02  0.52734825831E+02  0.00000000000E+00 0.  1.
<scales pt_clust_3="43.94956" pt_clust_4="14000.00000" pt_clust_5="103.87307" pt_clust_6="42.36612"></scales>
<clustering>
<clus scale="   42.366">  2  6  1 -1</clus>
<clus scale="   43.950">  2  3  1 -1</clus>
<clus scale="  103.873">  2  5  1 -1</clus>
<clus scale="  103.873">  1  3  2 -1</clus>
</clustering>
</event>
<event>
 6    0  0.4796958E+002  0.2087968E+03  0.7546771E-02  0.1142522E+00
         21   -1    0    0  504  502  0.00000000000E+00  0.00000000000E+00  0.87883606709E+03  0.87883606709E+03  0.00000000000E+00 0. -1.
          2   -1    0    0  503    0 -0.00000000000E+00 -0.00000000000E+00 -0.12127301859E+04  0.12127301859E+04  0.00000000000E+00 0.  1.
         21    1    1    2  503  502  0.42797068990E+02 -0.71210140870E+02 -0.78859607804E+02  0.11454829121E+03  0.00000000000E+00 0. -1.
         21    1    1    2  504  505 -0.51570209560E+02 -0.22882612409E+02  0.50182085336E+03  0.50498244458E+03  0.00000000000E+00 0. -1.
         21    1    1    2  505  501 -0.11867952941E+02  0.22405294857E+03  0.31798381646E+03  0.38917127283E+03  0.00000000000E+00 0. -1.
          2    1    1    2  501    0  0.20641093510E+02 -0.12996019529E+03 -0.10748391808E+04  0.10828642444E+04  0.00000000000E+00 0.  1.
<scales pt_clust_3="82.79348" pt_clust_4="56.41897" pt_clust_5="208.79683" pt_clust_6="14000.00000"></scales>
<clustering>
<clus scale="   56.419">  1  4  2 -1</clus>
<clus scale="   82.793">  2  3  1 -1</clus>
<clus scale="  208.797">  1  5  2 -1</clus>
<clus scale="   56.419">  1  3  2 -1</clus>
</clustering>
</event>
<event>
 6    0  0.4796958E+002  0.6906933E+03  0.7546771E-02  0.9733282E-01
         -2   -1    0    0    0  501 -0.00000000000E+00  0.00000000000E+00  0.31983595013E+03  0.31983595013E+03  0.00000000000E+00 0. -1.
         21   -1    0    0  505  502  0.00000000000E+00 -0.00000000000E+00 -0.20431205234E+04  0.20431205234E+04  0.00000000000E+00 0.  1.
         21    1    1    2  503  502 -0.22976954583E+03 -0.33777485824E+03 -0.10279073552E+04  0.11061100442E+04  0.00000000000E+00 0.  1.
         21    1    1    2  504  501 -0.41656456862E+02  0.49914488953E+02 -0.13246061484E+02  0.66348886582E+02  0.00000000000E+00 0. -1.
         21    1    1    2  505  504  0.50804757801E+03  0.40961614169E+03 -0.28424248605E+03  0.71182267169E+03  0.00000000000E+00 0.  1.
         -2    1    1    2    0  503 -0.23662157532E+03 -0.12175577241E+03 -0.39788867057E+03  0.47867487107E+03  0.00000000000E+00 0. -1.
<scales pt_clust_3="181.62003" pt_clust_4="65.01320" pt_clust_5="653.52687" pt_clust_6="181.62003"></scales>
<clustering>
<clus scale="   65.013">  1  4  2 -1</clus>
<clus scale="  181.620">  3  6 -1 -1</clus>
<clus scale="  653.527">  1  5  2 -1</clus>
<clus scale="  690.693">  2  3  1 -1</clus>
</clustering>
</event>
<event>
 6    0  0.4796958E+002  0.1864794E+03  0.7546771E-02  0.1161676E+00
         21   -1    0    0  504  502  0.00000000000E+00  0.00000000000E+00  0.30090493384E+03  0.30090493384E+03  0.00000000000E+00 0. -1.
          3   -1    0    0  503    0 -0.00000000000E+00 -0.00000000000E+00 -0.32376410851E+04  0.32376410851E+04  0.00000000000E+00 0.  1.
         21    1    1    2  503  505 -0.11741589513E+03  0.16039666580E+03 -0.48689341682E+03  0.52590757950E+03  0.00000000000E+00 0.  1.
         21    1    1    2  504  501  0.59459494351E+02 -0.10653880423E+03  0.51948751220E+02  0.13260701727E+03  0.00000000000E+00 0. -1.
         21    1    1    2  505  502  0.90435079659E+02 -0.30137502886E+02  0.17694750640E+03  0.20099052896E+03  0.00000000000E+00 0. -1.
          3    1    1    2  501    0 -0.32478678882E+02 -0.23720358684E+02 -0.26787389920E+04  0.26790408932E+04  0.00000000000E+00 0.  1.
<scales pt_clust_3="186.47936" pt_clust_4="14000.00000" pt_clust_5="94.82560" pt_clust_6="40.21840"></scales>
<clustering>
<clus scale="   40.218">  2  6  1 -1</clus>
<clus scale="   94.826">  1  5  2 -1</clus>
<clus scale="  186.479">  2  3  1 -1</clus>
<clus scale="   94.826">  1  3  2 -1</clus>
</clustering>
</event>
<event>
 6    0  0.4796958E+002  0.1005438E+03  0.7546771E-02  0.1279157E+00
          1   -1    0    0  503    0 -0.00000000000E+00  0.00000000000E+00  0.13333882647E+04  0.13333882647E+04  0.00000000000E+00 0.  1.
         21   -1    0    0  505  502  0.00000000000E+00 -0.00000000000E+00 -0.23651418515E+03  0.23651418515E+03  0.00000000000E+00 0.  1.
         21    1    1    2  503  504 -0.36837851908E+02 -0.60142336608E+02  0.91286770797E+03  0.91558810621E+03  0.00000000000E+00 0.  1.
         21    1    1    2  504  502  0.12102347781E+03  0.11205285047E+03  0.16118987010E+02  0.16571766720E+03  0.00000000000E+00 0.  1.
         21    1    1    2  505  501 -0.30613972223E+02 -0.68824554028E+02 -0.14889874132E+03  0.16686782104E+03  0.00000000000E+00 0.  1.
          1    1    1    2  501    0 -0.53571653679E+02  0.16914040165E+02  0.31678612591E+03  0.32172885541E+03  0.00000000000E+00 0.  1.
<scales pt_clust_3="100.54380" pt_clust_4="14000.00000" pt_clust_5="75.38379" pt_clust_6="56.17835"></scales>
<clustering>
<clus scale="   56.178">  1  6  2 -1</clus>
<clus scale="   75.384">  2  5  1 -1</clus>
<clus scale="  100.544">  1  3  2 -1</clus>
<clus scale="   75.384">  2  3  1 -1</clus>
</clustering>
</event>
<event>
 6    0  0.4796958E+002  0.1835477E+03  0.7546771E-02  0.1164413E+00
          1   -1    0    0  503    0 -0.00000000000E+00  0.00000000000E+00  0.20628600867E+04  0.20628600867E+04  0.00000000000E+00 0.  1.
         21   -1    0    0  504  502  0.00000000000E+00 -0.00000000000E+00 -0.11431859712E+04  0.11431859712E+04  0.00000000000E+00 0. -1.
         21    1    1    2  503  502  0.15741634521E+02 -0.30643821424E+02 -0.98250841644E+03  0.98311221701E+03  0.00000000000E+00 0. -1.
         21    1    1    2  504  505 -0.64682513570E+01 -0.78677564408E+02 -0.32038244227E+02  0.85196517006E+02  0.00000000000E+00 0.  1.
         21    1    1    2  505  501 -0.57483451373E+02 -0.53870903993E+02 -0.82370431186E+02  0.11397942539E+03  0.00000000000E+00 0. -1.
          1    1    1    2  501    0  0.48210068208E+02  0.16319228983E+03  0.20165912073E+04  0.20237578985E+04  0.00000000000E+00 0.  1.
<scales pt_clust_3="34.45059" pt_clust_4="69.01865" pt_clust_5="69.01865" pt_clust_6="169.60828"></scales>
<clustering>
<clus scale="   34.451">  2  3  1 -1</clus>
<clus scale="   69.019">  4  5 -1 -1</clus>
<clus scale="  169.608">  1  6  2 -1</clus>
<clus scale="   34.451">  2  3  1 -1</clus>
</clustering>
</event>
<event>
 6    0  0.4796958E+002  0.7909412E+02  0.7546771E-02  0.1331642E+00
         21   -1    0    0  503  502  0.00000000000E+00  0.00000000000E+00  0.54632490625E+02  0.54632490625E+02  0.00000000000E+00 0. -1.
          2   -1    0    0  504    0 -0.00000000000E+00 -0.00000000000E+00 -0.20942072373E+04  0.20942072373E+04  0.00000000000E+00 0. -1.
         21    1    1    2  503  505 -0.42443377078E+02 -0.29471938012E+02  0.32633229020E+02  0.61114343850E+02  0.00000000000E+00 0. -1.
         21    1    1    2  504  502 -0.31403441787E+02  0.16153513749E+02 -0.17461068744E+03  0.17814601969E+03  0.00000000000E+00 0.  1.
         21    1    1    2  505  501  0.11876681992E+03  0.22235442786E+02 -0.64960140088E+03  0.66074348461E+03  0.00000000000E+00 0. -1.
          2    1    1    2  501    0 -0.44920001050E+02 -0.89170185229E+01 -0.12479958874E+04  0.12488358798E+04  0.00000000000E+00 0. -1.
<scales pt_clust_3="51.79602" pt_clust_4="35.31448" pt_clust_5="79.09412" pt_clust_6="14000.00000"></scales>
<clustering>
<clus scale="   35.314">  2  4  1 -1</clus>
<clus scale="   51.796">  1  3  2 -1</clus>
<clus scale="   79.094">  1  5  2 -1</clus>
<clus scale="   51.796">  1  3  2 -1</clus>
</clustering>
</event>
<event>
 6    0  0.4796958E+002  0.9776980E+02  0.7546771E-02  0.1285057E+00
         -3   -1    0    0    0  501 -0.00000000000E+00  0.00000000000E+00  0.14803982114E+04  0.14803982114E+04  0.00000000000E+00 0. -1.
         21   -1    0    0  504  502  0.00000000000E+00 -0.00000000000E+00 -0.80628097406E+02  0.80628097406E+02  0.00000000000E+00 0. -1.
         21    1    1    2  503  502  0.39490140393E+02  0.80240333862E+02 -0.18912416235E+02  0.91409309452E+02  0.00000000000E+00 0. -1.
         21    1    1    2  504  505 -0.55549932583E+02 -0.15158038589E+03  0.24978083993E+03  0.29741028293E+03  0.00000000000E+00 0. -1.
         21    1    1    2  505  501  0.93063402131E+01  0.32368515970E+02  0.22800718651E+03  0.23048124847E+03  0.00000000000E+00 0. -1.
         -3    1    1    2    0  503  0.67534519765E+01  0.38971536061E+02  0.94089450378E+03  0.94172546795E+03  0.00000000000E+00 0. -1.
<scales pt_clust_3="14000.00000" pt_clust_4="97.76980" pt_clust_5="33.67980" pt_clust_6="64.80081"></scales>
<clustering>
<clus scale="   33.680">  1  5  2 -1</clus>
<clus scale="   64.801">  1  6  2 -1</clus>
<clus scale="   97.770">  1  4  2 -1</clus>
<clus scale="   97.770">  2  3  1 -1</clus>
</clustering>
</event>
<event>
 6    0  0.4796958E+002  0.1599341E+03  0.7546771E-02  0.1188771E+00
          3   -1    0    0  503    0 -0.00000000000E+00  0.00000000000E+00  0.27592944904E+04  0.27592944904E+04  0.00000000000E+00 0.  1.
         21   -1    0    0  505  502  0.00000000000E+00 -0.00000000000E+00 -0.46995492695E+03  0.46995492695E+03  0.00000000000E+00 0. -1.
         21    1    1    2  503  504  0.18230046359E+03  0.93581443792E+02 -0.82022632023E+02  0.22072303416E+03  0.00000000000E+00 0. -1.
         21    1    1    2  504  502 -0.14212218643E+02 -0.62826691302E+02 -0.24644282196E+03  0.25472189697E+03  0.00000000000E+00 0. -1.
         21    1    1    2  505  501 -0.13516764363E+03  0.30856581314E+02  0.36260354666E+01  0.13869235245E+03  0.00000000000E+00 0.  1.
          3    1    1    2  501    0 -0.32920601317E+02 -0.61611333804E+02  0.26141789819E+04  0.26151121337E+04  0.00000000000E+00 0.  1.
<scales pt_clust_3="14000.00000" pt_clust_4="64.41413" pt_clust_5="159.93414" pt_clust_6="69.98712"></scales>
<clustering>
<clus scale="   64.414">  2  4  1 -1</clus>
<clus scale="   69.987">  1  6  2 -1</clus>
<clus scale="  159.934">  1  5  2 -1</clus>
<clus scale="   64.414">  2  3  1 -1</clus>
</clustering>
</event>
<event>
 6    0  0.4796958E+002  0.2164436E+03  0.7546771E-02  0.1136563E+00
          2   -1    0    0  502    0 -0.00000000000E+00  0.00000000000E+00  0.12823925891E+04  0.12823925891E+04  0.00000000000E+00 0. -1.
         21   -1    0    0  503  502  0.00000000000E+00 -0.00000000000E+00 -0.46756889932E+02  0.46756889932E+02  0.00000000000E+00 0. -1.
         21    1    1    2  503  505  0.28560693005E+02 -0.51053403500E+02  0.49946033273E+02  0.76920539738E+02  0.00000000000E+00 0. -1.
         21    1    1    2  504  501 -0.89224423687E+02  0.94344735302E+02  0.43642682650E+03  0.45533537283E+03  0.00000000000E+00 0. -1.
         21    1    1    2  505  504  0.10616820691E+03 -0.10329736093E+03  0.23956214146E+03  0.28165946204E+03  0.00000000000E+00 0. -1.
          2    1    1    2  501    0 -0.45504476228E+02  0.60006029129E+02  0.50970069795E+03  0.51523410444E+03  0.00000000000E+00 0. -1.
<scales pt_clust_3="33.18555" pt_clust_4="53.15442" pt_clust_5="211.57655" pt_clust_6="53.15442"></scales>
<clustering>
<clus scale="   33.186">  3  5 -1 -1</clus>
<clus scale="   53.154">  4  6 -1 -1</clus>
<clus scale="  211.577">  2  3  1 -1</clus>
<clus scale="  211.577">  2  3  1 -1</clus>
</clustering>
</event>
<event>
 6    0  0.4796958E+002  0.2592163E+03  0.7546771E-02  0.1107615E+00
         21   -1    0    0  501  502  0.00000000000E+00  0.00000000000E+00  0.43937524306E+03  0.43937524306E+03  0.00000000000E+00 0. -1.
         -2   -1    0    0    0  501 -0.00000000000E+00 -0.00000000000E+00 -0.51032118699E+03  0.51032118699E+03  0.00000000000E+00 0. -1.
         21    1    1    2  503  505 -0.61087780397E+02 -0.17810798243E+03 -0.31630135658E+03  0.36810422232E+03  0.00000000000E+00 0. -1.
         21    1    1    2  504  502  0.30526160115E+02  0.79422571181E+01  0.17583748693E+03  0.17864419305E+03  0.00000000000E+00 0.  1.
         21    1    1    2  505  504  0.82706063742E+02  0.22049479708E+03  0.16171717436E+03  0.28567585303E+03  0.00000000000E+00 0. -1.
         -2    1    1    2    0  503 -0.52144443460E+02 -0.50329071775E+02 -0.92199248641E+02  0.11727216166E+03  0.00000000000E+00 0. -1.
<scales pt_clust_3="37.62766" pt_clust_4="31.54245" pt_clust_5="251.95365" pt_clust_6="37.62766"></scales>
<clustering>
<clus scale="   31.542">  1  4  2 -1</clus>
<clus scale="   37.628">  3  6 -1 -1</clus>
<clus scale="  251.954">  1  5  2 -1</clus>
<clus scale="   31.542">  1  3  2 -1</clus>
</clustering>
</event>
<event>
 6    0  0.4796958E+002  0.1264407E+03  0.7546771E-02  0.1232835E+00
          2   -1    0    0  505    0 -0.00000000000E+00  0.00000000000E+00  0.15892153342E+04  0.15892153342E+04  0.00000000000E+00 0.  1.
         21   -1    0    0  504  502  0.00000000000E+00 -0.00000000000E+00 -0.77053319722E+02  0.77053319722E+02  0.00000000000E+00 0.  1.
         21    1    1    2  503  501 -0.81413688399E+02 -0.68960751653E+02  0.33892648932E+02  0.11194858453E+03  0.00000000000E+00 0.  1.
         21    1    1    2  504  503 -0.16450510459E+02 -0.26497083598E+02 -0.24736594454E+02  0.39807208377E+02  0.00000000000E+00 0.  1.
         21    1    1    2  505  502  0.95136286280E+02  0.48456723766E+02  0.54549158176E+03  0.55584173360E+03  0.00000000000E+00 0. -1.
          2    1    1    2  501    0  0.27279125772E+01  0.47001111485E+02  0.95751437825E+03  0.95867112742E+03  0.00000000000E+00 0.  1.
<scales pt_clust_3="126.44067" pt_clust_4="31.18837" pt_clust_5="14000.00000" pt_clust_6="46.72664"></scales>
<clustering>
<clus scale="   31.188">  2  4  1 -1</clus>
<clus scale="   46.727">  1  6  2 -1</clus>
<clus scale="  126.441">  2  3  1 -1</clus>
<clus scale="   31.188">  2  3  1 -1</clus>
</clustering>
</event>
<event>
 6    0  0.4796958E+002  0.8998468E+02  0.7546771E-02  0.1302889E+00
          1   -1    0    0  504    0 -0.00000000000E+00  0.00000000000E+00  0.90004419153E+03  0.90004419153E+03  0.00000000000E+00 0. -1.
         21   -1    0    0  503  502  0.00000000000E+00 -0.00000000000E+00 -0.32596439348E+02  0.32596439348E+02  0.00000000000E+00 0. -1.
         21    1    1    2  503  505  0.52324244443E+02  0.36863422115E+01  0.49067366051E+02  0.71826332822E+02  0.00000000000E+00 0. -1.
         21    1    1    2  504  502 -0.21067683161E+02  0.76017392514E+02  0.15629914554E+03  0.17507688064E+03  0.00000000000E+00 0. -1.
         21    1    1    2  505  501 -0.62304232467E+01 -0.10900561961E+03  0.26248634732E+03  0.28428880704E+03  0.00000000000E+00 0. -1.
          1    1    1    2  501    0 -0.25026138036E+02  0.29301884882E+02  0.39959489328E+03  0.40144861038E+03  0.00000000000E+00 0. -1.
<scales pt_clust_3="49.82354" pt_clust_4="14000.00000" pt_clust_5="89.98468" pt_clust_6="38.53450"></scales>
<clustering>
<clus scale="   38.535">  1  6  2 -1</clus>
<clus scale="   49.824">  2  3  1 -1</clus>
<clus scale="   89.985">  1  5  2 -1</clus>
<clus scale="   49.824">  2  3  1 -1</clus>
</clustering>
</event>
<event>
 6    0  0.4796958E+002  0.7295086E+02  0.7546771E-02  0.1350337E+00
          1   -1    0    0  503    0 -0.00000000000E+00  0.00000000000E+00  0.81641241530E+03  0.81641241530E+03  0.00000000000E+00 0. -1.
         21   -1    0    0  504  502  0.00000000000E+00 -0.00000000000E+00 -0.56089825281E+03  0.56089825281E+03  0.00000000000E+00 0.  1.
         21    1    1    2  503  505  0.40420375171E+00 -0.40233226318E+02  0.49905658824E+02  0.64104997179E+02  0.00000000000E+00 0.  1.
         21    1    1    2  504  501 -0.23687455623E+02 -0.49335865104E+02 -0.50464546673E+03  0.50760434418E+03  0.00000000000E+00 0.  1.
         21    1    1    2  505  502  0.46069737931E+02 -0.19879765395E+02 -0.28992067085E+02  0.57949683166E+02  0.00000000000E+00 0. -1.
          1    1    1    2  501    0 -0.22786486060E+02  0.10944885682E+03  0.73924603748E+03  0.74765164357E+03  0.00000000000E+00 0. -1.
<scales pt_clust_3="40.23526" pt_clust_4="14000.00000" pt_clust_5="50.49181" pt_clust_6="72.95086"></scales>
<clustering>
<clus scale="   40.235">  1  3  2 -1</clus>
<clus scale="   50.492">  2  5  1 -1</clus>
<clus scale="   72.951">  1  6  2 -1</clus>
<clus scale="   50.492">  2  3  1 -1</clus>
</clustering>
</event>
<event>
 6    0  0.4796958E+002  0.9050075E+02  0.7546771E-02  0.1301644E+00
         21   -1    0    0  501  502  0.00000000000E+00  0.00000000000E+00  0.89363790936E+03  0.89363790936E+03  0.00000000000E+00 0. -1.
          2   -1    0    0  503    0 -0.00000000000E+00 -0.00000000000E+00 -0.11181150232E+04  0.11181150232E+04  0.00000000000E+00 0.  1.
         21    1    1    2  503  504  0.96475238955E+02 -0.98786011813E+01 -0.66958538364E+03  0.67657198026E+03  0.00000000000E+00 0.  1.
         21    1    1    2  504  505 -0.22403662790E+02 -0.29783858166E+02  0.17826337651E+03  0.18211763704E+03  0.00000000000E+00 0. -1.
         21    1    1    2  505  502 -0.89109746197E+01 -0.30208684427E+02  0.70444824476E+03  0.70515196918E+03  0.00000000000E+00 0. -1.
          2    1    1    2  501    0 -0.65160601545E+02  0.69871143775E+02 -0.43760335151E+03  0.44791134611E+03  0.00000000000E+00 0.  1.
<scales pt_clust_3="14000.00000" pt_clust_4="66.25902" pt_clust_5="31.49556" pt_clust_6="90.50075"></scales>
<clustering>
<clus scale="   31.496">  1  5  2 -1</clus>
<clus scale="   66.259">  1  4  2 -1</clus>
<clus scale="   90.501">  1  6  2 -1</clus>
<clus scale="   31.496">  1  3  2 -1</clus>
</clustering>
</event>
<event>
 6    0  0.4796958E+002  0.1629097E+03  0.7546771E-02  0.1185450E+00
          2   -1    0    0  503    0 -0.00000000000E+00  0.00000000000E+00  0.20104082694E+03  0.20104082694E+03  0.00000000000E+00 0.  1.
         21   -1    0    0  505  502  0.00000000000E+00 -0.00000000000E+00 -0.49544719029E+03  0.49544719029E+03  0.00000000000E+00 0.  1.
         21    1    1    2  503  502 -0.59563242071E+02 -0.43868597206E+02  0.80365482433E+02  0.10922840470E+03  0.00000000000E+00 0.  1.
         21    1    1    2  504  501  0.40298218032E+02 -0.11362044427E+03 -0.44104924966E+02  0.12836976333E+03  0.00000000000E+00 0.  1.
         21    1    1    2  505  504 -0.72925526526E+01  0.18814496966E+03 -0.36173153283E+03  0.40780070228E+03  0.00000000000E+00 0.  1.
          2    1    1    2  501    0  0.26557576692E+02 -0.30655928183E+02  0.31064612016E+02  0.51089146912E+02  0.00000000000E+00 0.  1.
<scales pt_clust_3="75.95426" pt_clust_4="162.90975" pt_clust_5="14000.00000" pt_clust_6="40.55972"></scales>
<clustering>
<clus scale="   40.560">  1  6  2 -1</clus>
<clus scale="   75.954">  1  3  2 -1</clus>
<clus scale="  162.910">  1  4  2 -1</clus>
<clus scale="  162.910">  2  3  1 -1</clus>
</clustering>
</event>
<event>
 6    0  0.4796958E+002  0.1054639E+03  0.7546771E-02  0.1269208E+00
         21   -1    0    0  505  502  0.00000000000E+00  0.00000000000E+00  0.10292102946E+03  0.10292102946E+03  0.00000000000E+00 0. -1.
          2   -1    0    0  504    0 -0.00000000000E+00 -0.00000000000E+00 -0.16914149706E+04  0.16914149706E+04  0.00000000000E+00 0. -1.
         21    1    1    2  503  502  0.77467280583E+02 -0.70779869385E+02 -0.15977895344E+03  0.19115512923E+03  0.00000000000E+00 0. -1.
         21    1    1    2  504  503 -0.12137650692E+03  0.60961253099E+02 -0.70616375777E+03  0.71910763005E+03  0.00000000000E+00 0. -1.
         21    1    1    2  505  501  0.14569321166E+02  0.38537883210E+02  0.74943863068E+02  0.85522021568E+02  0.00000000000E+00 0. -1.
          2    1    1    2  501    0  0.29339905169E+02 -0.28719266924E+02 -0.79749509300E+03  0.79855121920E+03  0.00000000000E+00 0. -1.
<scales pt_clust_3="14000.00000" pt_clust_4="105.46390" pt_clust_5="41.10291" pt_clust_6="41.05638"></scales>
<clustering>
<clus scale="   41.056">  2  6  1 -1</clus>
<clus scale="   41.103">  1  5  2 -1</clus>
<clus scale="  105.464">  2  4  1 -1</clus>
<clus scale="   41.103">  1  3  2 -1</clus>
</clustering>
</event>
<event>
 6    0  0.4796958E+002  0.1052119E+03  0.7546771E-02  0.1269703E+00
          1   -1    0    0  505    0 -0.00000000000E+00  0.00000000000E+00  0.23149890995E+04  0.23149890995E+04  0.00000000000E+00 0.  1.
         21   -1    0    0  503  502  0.00000000000E+00 -0.00000000000E+00 -0.71610202245E+02  0.71610202245E+02  0.00000000000E+00 0.  1.
         21    1    1    2  503  501 -0.27866736426E+02  0.27042867960E+02  0.59482724479E+02  0.71035668632E+02  0.00000000000E+00 0.  1.
         21    1    1    2  504  502  0.22758661099E+02  0.87043856688E+02 -0.19803564167E+02  0.92123671203E+02  0.00000000000E+00 0.  1.
         21    1    1    2  505  504  0.82958427850E+02 -0.67505450278E+02  0.19676807562E+04  0.19705853559E+04  0.00000000000E+00 0.  1.
          1    1    1    2  501    0 -0.77850352523E+02 -0.46581274370E+02  0.23601898073E+03  0.25285460600E+03  0.00000000000E+00 0.  1.
<scales pt_clust_3="38.83132" pt_clust_4="105.21186" pt_clust_5="14000.00000" pt_clust_6="92.12922"></scales>
<clustering>
<clus scale="   38.831">  2  3  1 -1</clus>
<clus scale="   92.129">  2  6  1 -1</clus>
<clus scale="  105.212">  2  4  1 -1</clus>
<clus scale="   38.831">  2  3  1 -1</clus>
</clustering>
</event>
<event>
 6    0  0.4796958E+002  0.1469000E+03  0.7546771E-02  0.1204335E+00
         -1   -1    0    0    0  501 -0.00000000000E+00  0.00000000000E+00  0.30933773644E+03  0.30933773644E+03  0.00000000000E+00 0.  1.
         21   -1    0    0  504  502  0.00000000000E+00 -0.00000000000E+00 -0.29063363244E+03  0.29063363244E+03  0.00000000000E+00 0. -1.
         21    1    1    2  503  502 -0.60628523202E+02 -0.92150081247E+02 -0.75789167085E+02  0.13383367718E+03  0.00000000000E+00 0. -1.
         21    1    1    2  504  505  0.61157161527E+02  0.33661583345E+02 -0.29404265708E+02  0.75749002905E+02  0.00000000000E+00 0. -1.
         21    1    1    2  505  501  0.58883412490E+02  0.95672750559E+02 -0.10330646185E+03  0.15261964659E+03  0.00000000000E+00 0. -1.
         -1    1    1    2    0  503 -0.59412050814E+02 -0.37184252657E+02  0.22720399865E+03  0.23776904220E+03  0.00000000000E+00 0.  1.
<scales pt_clust_3="134.82072" pt_clust_4="45.98508" pt_clust_5="45.98508" pt_clust_6="70.08895"></scales>
<clustering>
<clus scale="   45.985">  4  5 -1 -1</clus>
<clus scale="   70.089">  1  6  2 -1</clus>
<clus scale="  134.821">  2  3  1 -1</clus>
<clus scale="  134.821">  2  3  1 -1</clus>
</clustering>
</event>
<event>
 6    0  0.4796958E+002  0.5910159E+02  0.7546771E-02  0.1401641E+00
         21   -1    0    0  505  502  0.00000000000E+00  0.00000000000E+00  0.12214842847E+04  0.12214842847E+04  0.00000000000E+00 0. -1.
          3   -1    0    0  503    0 -0.00000000000E+00 -0.00000000000E+00 -0.45113369728E+03  0.45113369728E+03  0.00000000000E+00 0.  1.
         21    1    1    2  503  504 -0.50462388876E+01  0.84402772687E+02 -0.10999105873E+03  0.13873473092E+03  0.00000000000E+00 0.  1.
         21    1    1    2  504  502 -0.62475196049E+02 -0.61441051794E+02  0.10738790960E+04  0.10774481267E+04  0.00000000000E+00 0. -1.
         21    1    1    2  505  501  0.28573918621E+02  0.19118831942E+02  0.12660933716E+03  0.13119421792E+03  0.00000000000E+00 0. -1.
          3    1    1    2  501    0  0.38947516316E+02 -0.42080552835E+02 -0.32014678702E+03  0.32524090640E+03  0.00000000000E+00 0.  1.
<scales pt_clust_3="59.10159" pt_clust_4="54.73400" pt_clust_5="34.38021" pt_clust_6="14000.00000"></scales>
<clustering>
<clus scale="   34.380">  1  5  2 -1</clus>
<clus scale="   54.734">  1  4  2 -1</clus>
<clus scale="   59.102">  1  3  2 -1</clus>
<clus scale="   34.380">  1  3  2 -1</clus>
</clustering>
</event>
<event>
 6    0  0.4796958E+002  0.1015619E+03  0.7546771E-02  0.1277045E+00
         21   -1    0    0  503  502  0.00000000000E+00  0.00000000000E+00  0.13654624145E+04  0.13654624145E+04  0.00000000000E+00 0. -1.
          2   -1    0    0  505    0 -0.00000000000E+00 -0.00000000000E+00 -0.23690689041E+04  0.23690689041E+04  0.00000000000E+00 0. -1.
         21    1    1    2  503  504 -0.79531351024E+02  0.16195704401E+03  0.13197765526E+03  0.22354735827E+03  0.00000000000E+00 0. -1.
         21    1    1    2  504  501  0.31577096369E+02 -0.12828676059E+03 -0.73893791028E+03  0.75065560759E+03  0.00000000000E+00 0. -1.
         21    1    1    2  505  502  0.46392608768E+02 -0.69919090416E+02  0.11801427024E+04  0.11831220357E+04  0.00000000000E+00 0. -1.
          2    1    1    2  501    0  0.15616458877E+01  0.36248807000E+02 -0.15767889370E+04  0.15772063170E+04  0.00000000000E+00 0. -1.
<scales pt_clust_3="101.56194" pt_clust_4="14000.00000" pt_clust_5="83.85522" pt_clust_6="36.28243"></scales>
<clustering>
<clus scale="   36.282">  2  6  1 -1</clus>
<clus scale="   83.855">  1  5  2 -1</clus>
<clus scale="  101.562">  1  3  2 -1</clus>
<clus scale="   83.855">  1  3  2 -1</clus>
</clustering>
</event>
<event>
 6    0  0.4796958E+002  0.8333715E+02  0.7546771E-02  0.1319839E+00
          2   -1    0    0  504    0 -0.00000000000E+00  0.00000000000E+00  0.39363536078E+02  0.39363536078E+02  0.00000000000E+00 0.  1.
         21   -1    0    0  505  502  0.00000000000E+00 -0.00000000000E+00 -0.22114371592E+04  0.22114371592E+04  0.00000000000E+00 0.  1.
         21    1    1    2  503  502 -0.16227676350E+02  0.45875562424E+02 -0.35003670793E+03  0.35340288851E+03  0.00000000000E+00 0. -1.
         21    1    1    2  504  503 -0.26901964353E+02  0.87316820722E+02 -0.49568240752E+02  0.10394687758E+03  0.00000000000E+00 0.  1.
         21    1    1    2  505  501  0.47959033890E+02 -0.60983866544E+02 -0.16453286110E+04  0.16471567439E+04  0.00000000000E+00 0.  1.
          2    1    1    2  501    0 -0.48293931871E+01 -0.72208516602E+02 -0.12714006343E+03  0.14629418524E+03  0.00000000000E+00 0.  1.
<scales pt_clust_3="48.66112" pt_clust_4="14000.00000" pt_clust_5="39.28965" pt_clust_6="83.33715"></scales>
<clustering>
<clus scale="   48.661">  2  3  1 -1</clus>
<clus scale="   39.290">  2  5  1 -1</clus>
<clus scale="   83.337">  2  6  1 -1</clus>
<clus scale="   48.661">  2  3  1 -1</clus>
</clustering>
</event>
<event>
 6    0  0.4796958E+002  0.8262743E+02  0.7546771E-02  0.1321756E+00
         21   -1    0    0  503  502  0.00000000000E+00  0.00000000000E+00  0.43625017317E+03  0.43625017317E+03  0.00000000000E+00 0. -1.
          1   -1    0    0  504    0 -0.00000000000E+00 -0.00000000000E+00 -0.12502857348E+04  0.12502857348E+04  0.00000000000E+00 0. -1.
         21    1    1    2  503  501 -0.10576689970E+03  0.50100143635E+02  0.30622397171E+03  0.32782584143E+03  0.00000000000E+00 0. -1.
         21    1    1    2  504  505  0.59057688731E+01 -0.56653591933E+02 -0.79209288780E+03  0.79413830690E+03  0.00000000000E+00 0. -1.
         21    1    1    2  505  502  0.60471784446E+02  0.19704866704E+02  0.10859032014E+03  0.12584504803E+03  0.00000000000E+00 0. -1.
          1    1    1    2  501    0  0.39389346384E+02 -0.13151418406E+02 -0.43675696565E+03  0.43872671158E+03  0.00000000000E+00 0. -1.
<scales pt_clust_3="82.62743" pt_clust_4="14000.00000" pt_clust_5="63.95617" pt_clust_6="41.52686"></scales>
<clustering>
<clus scale="   41.527">  2  6  1 -1</clus>
<clus scale="   63.956">  1  5  2 -1</clus>
<clus scale="   82.627">  1  3  2 -1</clus>
<clus scale="   63.956">  1  3  2 -1</clus>
</clustering>
</event>
<event>
 6    0  0.4796958E+002  0.9197826E+02  0.7546771E-02  0.1298131E+00
          2   -1    0    0  504    0 -0.00000000000E+00  0.00000000000E+00  0.33748193277E+03  0.33748193277E+03  0.00000000000E+00 0.  1.
         21   -1    0    0  503  502  0.00000000000E+00 -0.00000000000E+00 -0.82009846843E+03  0.82009846843E+03  0.00000000000E+00 0.  1.
         21    1    1    2  503  501 -0.19148397526E+02 -0.55816522638E+02  0.60263416171E+02  0.84343492077E+02  0.00000000000E+00 0. -1.
         21    1    1    2  504  505  0.53490986063E+02  0.12427838178E+03  0.48366508329E+02  0.14368618895E+03  0.00000000000E+00 0. -1.
         21    1    1    2  505  502 -0.34253438112E+02 -0.16361949888E+02 -0.75589918788E+03  0.75685176465E+03  0.00000000000E+00 0.  1.
          2    1    1    2  501    0 -0.89150425548E-01 -0.52099909254E+02  0.16465272771E+03  0.17269895551E+03  0.00000000000E+00 0.  1.
<scales pt_clust_3="14000.00000" pt_clust_4="91.97826" pt_clust_5="37.96066" pt_clust_6="53.18060"></scales>
<clustering>
<clus scale="   37.961">  2  5  1 -1</clus>
<clus scale="   53.181">  1  6  2 -1</clus>
<clus scale="   91.978">  2  4  1 -1</clus>
<clus scale="   37.961">  2  3  1 -1</clus>
</clustering>
</event>
<event>
 6    0  0.4796958E+002  0.1128722E+03  0.7546771E-02  0.1255342E+00
          2   -1    0    0  502    0 -0.00000000000E+00  0.00000000000E+00  0.18587596173E+04  0.18587596173E+04  0.00000000000E+00 0. -1.
         21   -1    0    0  505  502  0.00000000000E+00 -0.00000000000E+00 -0.13383884072E+03  0.13383884072E+03  0.00000000000E+00 0. -1.
         21    1    1    2  503  501 -0.97634101211E+02  0.43914181174E+01  0.50218798168E+03  0.51160968639E+03  0.00000000000E+00 0. -1.
         21    1    1    2  504  503  0.94912603086E+02  0.59160628256E+00 -0.66175743747E+02  0.11570644443E+03  0.00000000000E+00 0. -1.
         21    1    1    2  505  504  0.16666988493E+02 -0.31784037765E+02 -0.29543152500E+02  0.46484528843E+02  0.00000000000E+00 0. -1.
          2    1    1    2  501    0 -0.13945490369E+02  0.26801013365E+02  0.13184516912E+04  0.13187977984E+04  0.00000000000E+00 0. -1.
<scales pt_clust_3="112.87222" pt_clust_4="14000.00000" pt_clust_5="35.41511" pt_clust_6="30.21210"></scales>
<clustering>
<clus scale="   30.212">  1  6  2 -1</clus>
<clus scale="   35.415">  2  5  1 -1</clus>
<clus scale="  112.872">  1  3  2 -1</clus>
<clus scale="   35.415">  2  3  1 -1</clus>
</clustering>
</event>
<event>
 6    0  0.4796958E+002  0.8303204E+02  0.7546771E-02  0.1320661E+00
         21   -1    0    0  504  502  0.00000000000E+00  0.00000000000E+00  0.54493441153E+03  0.54493441153E+03  0.00000000000E+00 0. -1.
          2   -1    0    0  503    0 -0.00000000000E+00 -0.00000000000E+00 -0.66406173451E+03  0.66406173451E+03  0.00000000000E+00 0.  1.
         21    1    1    2  503  502 -0.89493368337E+02 -0.88951190199E+02  0.10481516426E+02  0.12661453076E+03  0.00000000000E+00 0. -1.
         21    1    1    2  504  505  0.35360738284E+02  0.23385003977E+02  0.47162877039E+03  0.47353029183E+03  0.00000000000E+00 0. -1.
         21    1    1    2  505  501  0.38593034134E+02  0.35466830048E+02 -0.22199401939E+03  0.22809792407E+03  0.00000000000E+00 0.  1.
          2    1    1    2  501    0  0.15539595919E+02  0.30099356175E+02 -0.37924359039E+03  0.38075339938E+03  0.00000000000E+00 0.  1.
<scales pt_clust_3="14000.00000" pt_clust_4="42.49286" pt_clust_5="83.03204" pt_clust_6="33.87404"></scales>
<clustering>
<clus scale="   33.874">  2  6  1 -1</clus>
<clus scale="   42.493">  1  4  2 -1</clus>
<clus scale="   83.032">  2  5  1 -1</clus>
<clus scale="   42.493">  1  3  2 -1</clus>
</clustering>
</event>
<event>
 6    0  0.4796958E+002  0.1334213E+03  0.7546771E-02  0.1222466E+00
         21   -1    0    0  504  502  0.00000000000E+00  0.00000000000E+00  0.41739957900E+03  0.41739957900E+03  0.00000000000E+00 0. -1.
         -2   -1    0    0    0  501 -0.00000000000E+00 -0.00000000000E+00 -0.43647963373E+03  0.43647963373E+03  0.00000000000E+00 0.  1.
         21    1    1    2  503  505 -0.41462814540E+02 -0.27859641735E+01 -0.38625145932E+02  0.56734720271E+02  0.00000000000E+00 0.  1.
         21    1    1    2  504  503  0.12734537476E+03 -0.47446337816E+02  0.37670586475E+03  0.40046886019E+03  0.00000000000E+00 0. -1.
         21    1    1    2  505  501 -0.30519843547E+02  0.27154586226E+02 -0.70389918261E+01  0.41453344970E+02  0.00000000000E+00 0. -1.
         -2    1    1    2    0  502 -0.55362716670E+02  0.23077715763E+02 -0.35012178172E+03  0.35522228730E+03  0.00000000000E+00 0.  1.
<scales pt_clust_3="44.99421" pt_clust_4="133.42133" pt_clust_5="40.85135" pt_clust_6="14000.00000"></scales>
<clustering>
<clus scale="   40.851">  2  5  1 -1</clus>
<clus scale="   44.994">  2  3  1 -1</clus>
<clus scale="  133.421">  1  4  2 -1</clus>
<clus scale="  133.421">  1  3  2 -1</clus>
</clustering>
</event>
<event>
 6    0  0.4796958E+002  0.1383830E+03  0.7546771E-02  0.1215522E+00
          2   -1    0    0  505    0 -0.00000000000E+00  0.00000000000E+00  0.29983514697E+04  0.29983514697E+04  0.00000000000E+00 0.  1.
         21   -1    0    0  501  502  0.00000000000E+00 -0.00000000000E+00 -0.21223915341E+02  0.21223915341E+02  0.00000000000E+00 0.  1.
         21    1    1    2  503  502 -0.36803332628E+02  0.99734027239E+01  0.36069296041E+02  0.52487600167E+02  0.00000000000E+00 0.  1.
         21    1    1    2  504  503 -0.26868024163E+02 -0.55475345606E+02  0.22805049094E+03  0.23623384836E+03  0.00000000000E+00 0.  1.
         21    1    1    2  505  504 -0.19543858106E+02 -0.62471421332E+02  0.14340378784E+03  0.15763656695E+03  0.00000000000E+00 0.  1.
          2    1    1    2  501    0  0.83215214896E+02  0.10797336421E+03  0.25696039795E+04  0.25732173695E+04  0.00000000000E+00 0.  1.
<scales pt_clust_3="38.13075" pt_clust_4="32.03963" pt_clust_5="32.03963" pt_clust_6="134.38647"></scales>
<clustering>
<clus scale="   32.040">  4  5 -1 -1</clus>
<clus scale="   38.131">  2  3  1 -1</clus>
<clus scale="  134.386">  1  6  2 -1</clus>
<clus scale="   38.131">  2  3  1 -1</clus>
</clustering>
</event>
<event>
 6    0  0.4796958E+002  0.8181936E+02  0.7546771E-02  0.1323966E+00
         21   -1    0    0  505  502  0.00000000000E+00  0.00000000000E+00  0.86222625999E+02  0.86222625999E+02  0.00000000000E+00 0. -1.
          2   -1    0    0  504    0 -0.00000000000E+00 -0.00000000000E+00 -0.21091080008E+04  0.21091080008E+04  0.00000000000E+00 0. -1.
         21    1    1    2  503  501 -0.76858178348E+02  0.32311283210E+02 -0.60429863636E+03  0.61002298359E+03  0.00000000000E+00 0.  1.
         21    1    1    2  504  502  0.81673203223E+02  0.22642405546E+02 -0.37695897676E+03  0.38636933213E+03  0.00000000000E+00 0.  1.
         21    1    1    2  505  503  0.25764458618E+02 -0.49740286869E+02  0.68437453192E+02  0.88439744827E+02  0.00000000000E+00 0. -1.
          2    1    1    2  501    0 -0.30579483492E+02 -0.52134018878E+01 -0.11100652148E+04  0.11104985662E+04  0.00000000000E+00 0. -1.
<scales pt_clust_3="14000.00000" pt_clust_4="81.81936" pt_clust_5="55.92330" pt_clust_6="31.02071"></scales>
<clustering>
<clus scale="   31.021">  2  6  1 -1</clus>
<clus scale="   55.923">  1  5  2 -1</clus>
<clus scale="   81.819">  2  4  1 -1</clus>
<clus scale="   55.923">  1  3  2 -1</clus>
</clustering>
</event>
<event>
 6    0  0.4796958E+002  0.1381106E+03  0.7546771E-02  0.1215894E+00
         21   -1    0    0  503  502  0.00000000000E+00  0.00000000000E+00  0.29581272784E+03  0.29581272784E+03  0.00000000000E+00 0.  1.
          1   -1    0    0  504    0 -0.00000000000E+00 -0.00000000000E+00 -0.66420757780E+03  0.66420757780E+03  0.00000000000E+00 0.  1.
         21    1    1    2  503  501 -0.79494348474E+02 -0.11064447352E+03  0.22398487517E+03  0.26216554935E+03  0.00000000000E+00 0.  1.
         21    1    1    2  504  505  0.11419997836E+02  0.60996559282E+02 -0.39185678547E+02  0.73392874300E+02  0.00000000000E+00 0.  1.
         21    1    1    2  505  502 -0.12749118147E+02  0.75630886945E+02 -0.13188601774E+02  0.77823584410E+02  0.00000000000E+00 0.  1.
          1    1    1    2  501    0  0.80823468784E+02 -0.25982972704E+02 -0.54000544480E+03  0.54663829759E+03  0.00000000000E+00 0.  1.
<scales pt_clust_3="132.74042" pt_clust_4="34.30539" pt_clust_5="34.30539" pt_clust_6="84.89728"></scales>
<clustering>
<clus scale="   34.305">  4  5 -1 -1</clus>
<clus scale="   84.897">  2  6  1 -1</clus>
<clus scale="  132.740">  1  3  2 -1</clus>
<clus scale="  132.740">  1  3  2 -1</clus>
</clustering>
</event>
<event>
 6    0  0.4796958E+002  0.9101287E+02  0.7546771E-02  0.1300417E+00
         21   -1    0    0  505  502  0.00000000000E+00  0.00000000000E+00  0.15674937266E+04  0.15674937266E+04  0.00000000000E+00 0. -1.
         -1   -1    0    0    0  501 -0.00000000000E+00 -0.00000000000E+00 -0.30717030670E+02  0.30717030670E+02  0.00000000000E+00 0. -1.
         21    1    1    2  503  502 -0.62904451320E+02  0.76600679986E+02  0.94872780072E+03  0.95389154207E+03  0.00000000000E+00 0.  1.
         21    1    1    2  504  501 -0.53009143984E+02 -0.56869567346E+02  0.17442708425E+03  0.19096838680E+03  0.00000000000E+00 0. -1.
         21    1    1    2  505  504  0.11512371249E+02 -0.53242399579E+02  0.25348836262E+03  0.25927521630E+03  0.00000000000E+00 0. -1.
         -1    1    1    2    0  503  0.10440122406E+03  0.33511286939E+02  0.16013344835E+03  0.19407561212E+03  0.00000000000E+00 0. -1.
<scales pt_clust_3="66.46444" pt_clust_4="91.01287" pt_clust_5="54.47282" pt_clust_6="14000.00000"></scales>
<clustering>
<clus scale="   54.473">  1  5  2 -1</clus>
<clus scale="   66.464">  1  3  2 -1</clus>
<clus scale="   91.013">  1  4  2 -1</clus>
<clus scale="   54.473">  1  3  2 -1</clus>
</clustering>
</event>
<event>
 6    0  0.4796958E+002  0.7350066E+02  0.7546771E-02  0.1348578E+00
          2   -1    0    0  505    0 -0.00000000000E+00  0.00000000000E+00  0.27304504267E+04  0.27304504267E+04  0.00000000000E+00 0. -1.
         21   -1    0    0  504  502  0.00000000000E+00 -0.00000000000E+00 -0.55119533413E+02  0.55119533413E+02  0.00000000000E+00 0.  1.
         21    1    1    2  503  502 -0.99677968489E+02  0.44674408161E+02  0.65501796563E+03  0.66406327669E+03  0.00000000000E+00 0.  1.
         21    1    1    2  504  501  0.15859448434E+02 -0.42175174369E+02 -0.38872070436E+02  0.59508867387E+02  0.00000000000E+00 0.  1.
         21    1    1    2  505  503  0.41764807574E+02 -0.24381449730E+02  0.56657867839E+03  0.56863885995E+03  0.00000000000E+00 0. -1.
          2    1    1    2  501    0  0.42053712481E+02  0.21882215938E+02  0.14926063197E+04  0.14933589561E+04  0.00000000000E+00 0. -1.
<scales pt_clust_3="14000.00000" pt_clust_4="45.05849" pt_clust_5="73.50066" pt_clust_6="47.14908"></scales>
<clustering>
<clus scale="   45.058">  2  4  1 -1</clus>
<clus scale="   47.149">  1  6  2 -1</clus>
<clus scale="   73.501">  1  5  2 -1</clus>
<clus scale="   45.058">  2  3  1 -1</clus>
</clustering>
</event>
<event>
 6    0  0.4796958E+002  0.9462683E+02  0.7546771E-02  0.1292019E+00
          2   -1    0    0  505    0 -0.00000000000E+00  0.00000000000E+00  0.74099081665E+03  0.74099081665E+03  0.00000000000E+00 0. -1.
         21   -1    0    0  503  502  0.00000000000E+00 -0.00000000000E+00 -0.32512404010E+03  0.32512404010E+03  0.00000000000E+00 0. -1.
         21    1    1    2  503  504 -0.26826269417E+02 -0.46620802499E+02 -0.27011151353E+03  0.27541491916E+03  0.00000000000E+00 0. -1.
         21    1    1    2  504  501  0.29531821811E+02 -0.69263031221E+02  0.19406627524E+00  0.75296305720E+02  0.00000000000E+00 0. -1.
         21    1    1    2  505  502 -0.28715977261E+02  0.88602947200E+02  0.13899158239E+03  0.16731332756E+03  0.00000000000E+00 0. -1.
          2    1    1    2  501    0  0.26010424867E+02  0.27280886520E+02  0.54679264141E+03  0.54809030430E+03  0.00000000000E+00 0. -1.
<scales pt_clust_3="53.28645" pt_clust_4="94.62683" pt_clust_5="14000.00000" pt_clust_6="37.69335"></scales>
<clustering>
<clus scale="   37.693">  1  6  2 -1</clus>
<clus scale="   53.286">  2  3  1 -1</clus>
<clus scale="   94.627">  2  4  1 -1</clus>
<clus scale="   53.286">  2  3  1 -1</clus>
</clustering>
</event>
<event>
 6    0  0.4796958E+002  0.8786645E+02  0.7546771E-02  0.1308102E+00
          1   -1    0    0  503    0 -0.00000000000E+00  0.00000000000E+00  0.27433525402E+04  0.27433525402E+04  0.00000000000E+00 0. -1.
         21   -1    0    0  504  502  0.00000000000E+00 -0.00000000000E+00 -0.45923501873E+02  0.45923501873E+02  0.00000000000E+00 0.  1.
         21    1    1    2  503  505  0.10287674394E+02 -0.64567315117E+02  0.61448391363E+03  0.61795246947E+03  0.00000000000E+00 0. -1.
         21    1    1    2  504  501 -0.16272760115E+01 -0.41994860693E+02  0.49470464359E+02  0.64911810912E+02  0.00000000000E+00 0. -1.
         21    1    1    2  505  502 -0.54020777494E+02  0.80226652669E+00 -0.13915545327E+02  0.55790056770E+02  0.00000000000E+00 0.  1.
          1    1    1    2  501    0  0.45360379111E+02  0.10575990928E+03  0.20473902057E+04  0.20506217049E+04  0.00000000000E+00 0. -1.
<scales pt_clust_3="14000.00000" pt_clust_4="42.02638" pt_clust_5="66.99140" pt_clust_6="87.86645"></scales>
<clustering>
<clus scale="   42.026">  2  4  1 -1</clus>
<clus scale="   66.991">  2  5  1 -1</clus>
<clus scale="   87.866">  1  6  2 -1</clus>
<clus scale="   42.026">  2  3  1 -1</clus>
</clustering>
</event>
<event>
 6    0  0.4796958E+002  0.7959999E+02  0.7546771E-02  0.1330190E+00
         21   -1    0    0  504  502  0.00000000000E+00  0.00000000000E+00  0.45390270332E+02  0.45390270332E+02  0.00000000000E+00 0.  1.
          2   -1    0    0  503    0 -0.00000000000E+00 -0.00000000000E+00 -0.10577808984E+04  0.10577808984E+04  0.00000000000E+00 0.  1.
         21    1    1    2  503  505  0.10993317280E+01 -0.37951954927E+02  0.12142512937E+02  0.39862263275E+02  0.00000000000E+00 0.  1.
         21    1    1    2  504  501 -0.90173180731E+02  0.63512172702E+02 -0.34207037998E+03  0.35941221941E+03  0.00000000000E+00 0.  1.
         21    1    1    2  505  502  0.29926150397E+02  0.16437522981E+02 -0.24687791588E+02  0.42133759538E+02  0.00000000000E+00 0.  1.
          2    1    1    2  501    0  0.59147698606E+02 -0.41997740756E+02 -0.65777496944E+03  0.66176292650E+03  0.00000000000E+00 0.  1.
<scales pt_clust_3="34.49184" pt_clust_4="79.59999" pt_clust_5="34.14332" pt_clust_6="14000.00000"></scales>
<clustering>
<clus scale="   34.143">  1  5  2 -1</clus>
<clus scale="   34.492">  1  3  2 -1</clus>
<clus scale="   79.600">  1  4  2 -1</clus>
<clus scale="   34.143">  1  3  2 -1</clus>
</clustering>
</event>
<event>
 6    0  0.4796958E+002  0.1585343E+03  0.7546771E-02  0.1190361E+00
         21   -1    0    0  503  502  0.00000000000E+00  0.00000000000E+00  0.60477735207E+03  0.60477735207E+03  0.00000000000E+00 0.  1.
          2   -1    0    0  504    0 -0.00000000000E+00 -0.00000000000E+00 -0.34959609331E+04  0.34959609331E+04  0.00000000000E+00 0. -1.
         21    1    1    2  503  505  0.12145601503E+03 -0.10547241667E+03  0.52339322728E+03  0.54755498777E+03  0.00000000000E+00 0.  1.
         21    1    1    2  504  502 -0.36894425746E+02  0.15857170172E+03 -0.72816654203E+02  0.17834923147E+03  0.00000000000E+00 0.  1.
         21    1    1    2  505  501 -0.15571831647E+03  0.31906595779E+02 -0.39213642568E+03  0.42312787817E+03  0.00000000000E+00 0. -1.
          2    1    1    2  501    0  0.71156727188E+02 -0.85005880824E+02 -0.29496237284E+04  0.29517061878E+04  0.00000000000E+00 0. -1.
<scales pt_clust_3="14000.00000" pt_clust_4="158.53432" pt_clust_5="107.29643" pt_clust_6="110.85702"></scales>
<clustering>
<clus scale="  110.857">  2  6  1 -1</clus>
<clus scale="  107.296">  2  5  1 -1</clus>
<clus scale="  158.534">  2  4  1 -1</clus>
<clus scale="  158.534">  1  3  2 -1</clus>
</clustering>
</event>
<event>
 6    0  0.4796958E+002  0.9289748E+02  0.7546771E-02  0.1295983E+00
          2   -1    0    0  505    0 -0.00000000000E+00  0.00000000000E+00  0.51168021586E+03  0.51168021586E+03  0.00000000000E+00 0. -1.
         21   -1    0    0  503  502  0.00000000000E+00 -0.00000000000E+00 -0.45419742380E+03  0.45419742380E+03  0.00000000000E+00 0. -1.
         21    1    1    2  503  504  0.47805914676E+02  0.23296050697E+01 -0.10731672261E+03  0.11750621894E+03  0.00000000000E+00 0. -1.
         21    1    1    2  504  501 -0.11013750367E+03  0.65918041096E+02 -0.18484507758E+03  0.22504035319E+03  0.00000000000E+00 0. -1.
         21    1    1    2  505  502 -0.23139077569E+02 -0.10169723893E+03 -0.11177178511E+03  0.15287471100E+03  0.00000000000E+00 0. -1.
          2    1    1    2  501    0  0.85470666566E+02  0.33449592768E+02  0.46141637736E+03  0.47045635653E+03  0.00000000000E+00 0. -1.
<scales pt_clust_3="47.86264" pt_clust_4="92.89748" pt_clust_5="14000.00000" pt_clust_6="92.38313"></scales>
<clustering>
<clus scale="   47.863">  2  3  1 -1</clus>
<clus scale="   92.383">  1  6  2 -1</clus>
<clus scale="   92.897">  2  4  1 -1</clus>
<clus scale="   47.863">  2  3  1 -1</clus>
</clustering>
</event>
<event>
 6    0  0.4796958E+002  0.1380482E+03  0.7546771E-02  0.1215980E+00
         21   -1    0    0  504  502  0.00000000000E+00  0.00000000000E+00  0.77959325545E+03  0.77959325545E+03  0.00000000000E+00 0.  1.
          2   -1    0    0  505    0 -0.00000000000E+00 -0.00000000000E+00 -0.63124416455E+03  0.63124416455E+03  0.00000000000E+00 0.  1.
         21    1    1    2  503  502 -0.17660790819E+02 -0.13649091777E+03  0.32666326661E+03  0.35447223293E+03  0.00000000000E+00 0.  1.
         21    1    1    2  504  501 -0.44334857202E+02  0.13783249128E+03  0.41424343733E+03  0.43881773049E+03  0.00000000000E+00 0.  1.
         21    1    1    2  505  503 -0.42181560899E+00 -0.41518056889E+02 -0.32863017363E+02  0.52951911075E+02  0.00000000000E+00 0. -1.
          2    1    1    2  501    0  0.62417463630E+02  0.40176483383E+02 -0.55969459568E+03  0.56459554552E+03  0.00000000000E+00 0.  1.
<scales pt_clust_3="14000.00000" pt_clust_4="138.04816" pt_clust_5="41.52020" pt_clust_6="62.01650"></scales>
<clustering>
<clus scale="   41.520">  2  5  1 -1</clus>
<clus scale="   62.016">  2  6  1 -1</clus>
<clus scale="  138.048">  1  4  2 -1</clus>
<clus scale="  138.048">  1  3  2 -1</clus>
</clustering>
</event>
<event>
 6    0  0.4796958E+002  0.1479713E+03  0.7546771E-02  0.1202988E+00
          1   -1    0    0  504    0 -0.00000000000E+00  0.00000000000E+00  0.36486596137E+03  0.36486596137E+03  0.00000000000E+00 0. -1.
         21   -1    0    0  503  502  0.00000000000E+00 -0.00000000000E+00 -0.34528521131E+03  0.34528521131E+03  0.00000000000E+00 0. -1.
         21    1    1    2  503  501 -0.22399291673E+02 -0.51396363434E+02 -0.10265964273E+03  0.11697143535E+03  0.00000000000E+00 0. -1.
         21    1    1    2  504  505 -0.13609909326E+03 -0.38521969877E+02 -0.43663177022E+02  0.14803168032E+03  0.00000000000E+00 0. -1.
         21    1    1    2  505  502  0.24089890116E+02  0.24244378447E+02 -0.11875483508E+03  0.12357517367E+03  0.00000000000E+00 0. -1.
          1    1    1    2  501    0  0.13440849482E+03  0.65673954863E+02  0.28465840489E+03  0.32157288335E+03  0.00000000000E+00 0. -1.
<scales pt_clust_3="40.91282" pt_clust_4="147.97134" pt_clust_5="34.17766" pt_clust_6="14000.00000"></scales>
<clustering>
<clus scale="   34.178">  2  5  1 -1</clus>
<clus scale="   40.913">  2  3  1 -1</clus>
<clus scale="  147.971">  2  4  1 -1</clus>
<clus scale="   34.178">  2  3  1 -1</clus>
</clustering>
</event>
<event>
 6    0  0.4796958E+002  0.1111510E+03  0.7546771E-02  0.1258453E+00
          2   -1    0    0  503    0 -0.00000000000E+00  0.00000000000E+00  0.28842160457E+04  0.28842160457E+04  0.00000000000E+00 0.  1.
         21   -1    0    0  501  502  0.00000000000E+00 -0.00000000000E+00 -0.10950349746E+03  0.10950349746E+03  0.00000000000E+00 0.  1.
         21    1    1    2  503  504  0.73482368482E+02 -0.10184000363E+03  0.18352871194E+03  0.22238217762E+03  0.00000000000E+00 0. -1.
         21    1    1    2  504  505 -0.12100702734E+02  0.87568250957E+02  0.16779970785E+02  0.89978847525E+02  0.00000000000E+00 0.  1.
         21    1    1    2  505  502 -0.64812317658E+01  0.43332563855E+02 -0.44072287978E+02  0.62145667774E+02  0.00000000000E+00 0.  1.
          2    1    1    2  501    0 -0.54900433982E+02 -0.29060811179E+02  0.26184761535E+04  0.26192128503E+04  0.00000000000E+00 0.  1.
<scales pt_clust_3="111.15104" pt_clust_4="14000.00000" pt_clust_5="43.81458" pt_clust_6="62.02313"></scales>
<clustering>
<clus scale="   43.815">  2  5  1 -1</clus>
<clus scale="   62.023">  1  6  2 -1</clus>
<clus scale="  111.151">  1  3  2 -1</clus>
<clus scale="   43.815">  2  3  1 -1</clus>
</clustering>
</event>
<event>
 6    0  0.4796958E+002  0.1143924E+03  0.7546771E-02  0.1252645E+00
         21   -1    0    0  504  502  0.00000000000E+00  0.00000000000E+00  0.43962489215E+02  0.43962489215E+02  0.00000000000E+00 0.  1.
          1   -1    0    0  503    0 -0.00000000000E+00 -0.00000000000E+00 -0.17033073359E+04  0.17033073359E+04  0.00000000000E+00 0.  1.
         21    1    1    2  503  502  0.53809808541E+02  0.92020290601E+02 -0.86300341460E+02  0.13715311996E+03  0.00000000000E+00 0.  1.
         21    1    1    2  504  505 -0.40380318108E+02  0.13399386623E+02 -0.11126687206E+02  0.43976321135E+02  0.00000000000E+00 0.  1.
         21    1    1    2  505  501  0.98277483204E+01 -0.51245085395E+02 -0.53725337005E+03  0.53978127704E+03  0.00000000000E+00 0.  1.
          1    1    1    2  501    0 -0.23257238753E+02 -0.54174591829E+02 -0.10246644479E+04  0.10263591069E+04  0.00000000000E+00 0.  1.
<scales pt_clust_3="105.69226" pt_clust_4="42.54543" pt_clust_5="41.16642" pt_clust_6="41.16642"></scales>
<clustering>
<clus scale="   41.166">  5  6 -1 -1</clus>
<clus scale="   42.545">  1  4  2 -1</clus>
<clus scale="  105.692">  1  3  2 -1</clus>
<clus scale="   42.545">  1  3  2 -1</clus>
</clustering>
</event>
<event>
 6    0  0.4796958E+002  0.1128532E+03  0.7546771E-02  0.1255376E+00
         21   -1    0    0  503  502  0.00000000000E+00  0.00000000000E+00  0.78957398597E+02  0.78957398597E+02  0.00000000000E+00 0.  1.
          2   -1    0    0  504    0 -0.00000000000E+00 -0.00000000000E+00 -0.22822262571E+04  0.22822262571E+04  0.00000000000E+00 0. -1.
         21    1    1    2  503  501  0.18409184322E+02 -0.44709533347E+02 -0.51529358955E+02  0.70661978983E+02  0.00000000000E+00 0.  1.
         21    1    1    2  504  505  0.76597044723E+02  0.13225759617E+03 -0.43466019143E+03  0.46074793653E+03  0.00000000000E+00 0.  1.
         21    1    1    2  505  502  0.33012920987E+01 -0.74509304689E+02  0.29629290951E+02  0.80252289046E+02  0.00000000000E+00 0.  1.
          2    1    1    2  501    0 -0.98307521144E+02 -0.13038758130E+02 -0.17467085991E+04  0.17495214512E+04  0.00000000000E+00 0. -1.
<scales pt_clust_3="48.35122" pt_clust_4="14000.00000" pt_clust_5="112.85324" pt_clust_6="98.92223"></scales>
<clustering>
<clus scale="   48.351">  1  3  2 -1</clus>
<clus scale="   98.922">  2  6  1 -1</clus>
<clus scale="  112.853">  1  5  2 -1</clus>
<clus scale="   48.351">  1  3  2 -1</clus>
</clustering>
</event>
<event>
 6    0  0.4796958E+002  0.7765934E+02  0.7546771E-02  0.1335828E+00
          3   -1    0    0  505    0 -0.00000000000E+00  0.00000000000E+00  0.10730538430E+04  0.10730538430E+04  0.00000000000E+00 0.  1.
         21   -1    0    0  504  502  0.00000000000E+00 -0.00000000000E+00 -0.32398724976E+02  0.32398724976E+02  0.00000000000E+00 0.  1.
         21    1    1    2  503  502  0.26330643089E+02  0.29197649479E+02  0.65990376902E+02  0.76814942194E+02  0.00000000000E+00 0.  1.
         21    1    1    2  504  501  0.53135775064E+02 -0.53530348839E+02  0.63090890361E+02  0.98332951166E+02  0.00000000000E+00 0.  1.
         21    1    1    2  505  503 -0.30597985076E+02  0.90116137162E+02  0.34698859222E+03  0.35980305446E+03  0.00000000000E+00 0.  1.
          3    1    1    2  501    0 -0.48868433077E+02 -0.65783437802E+02  0.56458525852E+03  0.57050162014E+03  0.00000000000E+00 0.  1.
<scales pt_clust_3="39.31673" pt_clust_4="77.34607" pt_clust_5="14000.00000" pt_clust_6="77.65934"></scales>
<clustering>
<clus scale="   39.317">  2  3  1 -1</clus>
<clus scale="   77.659">  1  6  2 -1</clus>
<clus scale="   77.346">  2  4  1 -1</clus>
<clus scale="   39.317">  2  3  1 -1</clus>
</clustering>
</event>
<event>
 6    0  0.4796958E+002  0.1093538E+03  0.7546771E-02  0.1261771E+00
          2   -1    0    0  504    0 -0.00000000000E+00  0.00000000000E+00  0.56564758501E+03  0.56564758501E+03  0.00000000000E+00 0.  1.
         21   -1    0    0  505  502  0.00000000000E+00 -0.00000000000E+00 -0.75013329959E+02  0.75013329959E+02  0.00000000000E+00 0. -1.
         21    1    1    2  503  502  0.31227895360E+02  0.35688558661E+02 -0.23025105131E+02  0.52716317533E+02  0.00000000000E+00 0. -1.
         21    1    1    2  504  503  0.15289008354E+02 -0.11964668232E+03  0.88379809021E+02  0.14953284927E+03  0.00000000000E+00 0. -1.
         21    1    1    2  505  501 -0.51515391797E+01  0.38647189523E+02  0.98750211416E+02  0.10616848812E+03  0.00000000000E+00 0.  1.
          2    1    1    2  501    0 -0.41365364535E+02  0.45310934141E+02  0.32652933974E+03  0.33224326005E+03  0.00000000000E+00 0.  1.
<scales pt_clust_3="47.42209" pt_clust_4="99.14065" pt_clust_5="36.78577" pt_clust_6="36.78577"></scales>
<clustering>
<clus scale="   36.786">  5  6 -1 -1</clus>
<clus scale="   47.422">  2  3  1 -1</clus>
<clus scale="   99.141">  2  4  1 -1</clus>
<clus scale="   47.422">  2  3  1 -1</clus>
</clustering>
</event>
<event>
 6    0  0.4796958E+002  0.1004901E+03  0.7546771E-02  0.1279269E+00
          2   -1    0    0  505    0 -0.00000000000E+00  0.00000000000E+00  0.21454753234E+04  0.21454753234E+04  0.00000000000E+00 0.  1.
         21   -1    0    0  503  502  0.00000000000E+00 -0.00000000000E+00 -0.18604171978E+03  0.18604171978E+03  0.00000000000E+00 0. -1.
         21    1    1    2  503  504  0.18155508312E+02 -0.36284089834E+02 -0.16825178213E+03  0.17307460774E+03  0.00000000000E+00 0. -1.
         21    1    1    2  504  501  0.36010988899E+02  0.96120755213E+02  0.42310197294E+03  0.43537486194E+03  0.00000000000E+00 0.  1.
         21    1    1    2  505  502 -0.12941930836E+02 -0.94315951440E+02  0.25032338844E+03  0.26781484475E+03  0.00000000000E+00 0. -1.
          2    1    1    2  501    0 -0.41224566375E+02  0.34479286061E+02  0.14542600243E+04  0.14552527287E+04  0.00000000000E+00 0.  1.
<scales pt_clust_3="40.57287" pt_clust_4="14000.00000" pt_clust_5="100.49013" pt_clust_6="52.54456"></scales>
<clustering>
<clus scale="   40.573">  2  3  1 -1</clus>
<clus scale="   52.545">  1  6  2 -1</clus>
<clus scale="  100.490">  1  5  2 -1</clus>
<clus scale="   40.573">  2  3  1 -1</clus>
</clustering>
</event>
<event>
 6    0  0.4796958E+002  0.1792755E+03  0.7546771E-02  0.1168506E+00
         21   -1    0    0  503  502  0.00000000000E+00  0.00000000000E+00  0.38020950674E+03  0.38020950674E+03  0.00000000000E+00 0.  1.
          2   -1    0    0  504    0 -0.00000000000E+00 -0.00000000000E+00 -0.24272418322E+04  0.24272418322E+04  0.00000000000E+00 0. -1.
         21    1    1    2  503  501  0.17779174686E+03  0.10642102179E+03 -0.30123613885E+02  0.20938665489E+03  0.00000000000E+00 0.  1.
         21    1    1    2  504  505 -0.44631714793E+02  0.28400192554E+02 -0.19524910381E+03  0.20228883667E+03  0.00000000000E+00 0. -1.
         21    1    1    2  505  502 -0.10261272793E+03 -0.14304842767E+03  0.25993537603E+03  0.31394047892E+03  0.00000000000E+00 0.  1.
          2    1    1    2  501    0 -0.30547304135E+02  0.82272133201E+01 -0.20815949838E+04  0.20818353684E+04  0.00000000000E+00 0. -1.
<scales pt_clust_3="179.27545" pt_clust_4="70.47831" pt_clust_5="14000.00000" pt_clust_6="31.63582"></scales>
<clustering>
<clus scale="   31.636">  2  6  1 -1</clus>
<clus scale="   70.478">  2  4  1 -1</clus>
<clus scale="  179.275">  2  3  1 -1</clus>
<clus scale="  179.275">  1  3  2 -1</clus>
</clustering>
</event>
<event>
 6    0  0.4796958E+002  0.7617471E+02  0.7546771E-02  0.1340271E+00
         21   -1    0    0  503  502  0.00000000000E+00  0.00000000000E+00  0.39153060573E+02  0.39153060573E+02  0.00000000000E+00 0.  1.
          1   -1    0    0  504    0 -0.00000000000E+00 -0.00000000000E+00 -0.33048936713E+04  0.33048936713E+04  0.00000000000E+00 0.  1.
         21    1    1    2  503  501 -0.58196306493E+02 -0.17879318077E+01 -0.56457056196E+02  0.81101208276E+02  0.00000000000E+00 0.  1.
         21    1    1    2  504  505  0.73096432949E+02 -0.67165462069E+02 -0.55270421061E+03  0.56154806760E+03  0.00000000000E+00 0.  1.
         21    1    1    2  505  502  0.30706269585E+02  0.11128647464E+02  0.97237706834E+01  0.34077463264E+02  0.00000000000E+00 0.  1.
          1    1    1    2  501    0 -0.45606396040E+02  0.57824746413E+02 -0.26663031146E+04  0.26673199927E+04  0.00000000000E+00 0.  1.
<scales pt_clust_3="36.78472" pt_clust_4="14000.00000" pt_clust_5="32.66071" pt_clust_6="76.17471"></scales>
<clustering>
<clus scale="   32.661">  1  5  2 -1</clus>
<clus scale="   36.785">  1  3  2 -1</clus>
<clus scale="   76.175">  2  6  1 -1</clus>
<clus scale="   32.661">  1  3  2 -1</clus>
</clustering>
</event>
<event>
 6    0  0.4796958E+002  0.1228619E+03  0.7546771E-02  0.1238449E+00
         21   -1    0    0  501  502  0.00000000000E+00  0.00000000000E+00  0.18394819025E+03  0.18394819025E+03  0.00000000000E+00 0. -1.
          2   -1    0    0  503    0 -0.00000000000E+00 -0.00000000000E+00 -0.43463515291E+03  0.43463515291E+03  0.00000000000E+00 0. -1.
         21    1    1    2  503  505 -0.70801130578E+02  0.13900970320E+01 -0.18635634663E+03  0.19935751902E+03  0.00000000000E+00 0. -1.
         21    1    1    2  504  502  0.47517514890E+02 -0.23498138356E+02  0.95671140250E+02  0.10937570025E+03  0.00000000000E+00 0. -1.
         21    1    1    2  505  504  0.44912137448E+02 -0.51475493678E+02  0.51058548925E+02  0.85286587210E+02  0.00000000000E+00 0. -1.
          2    1    1    2  501    0 -0.21628521760E+02  0.73583535003E+02 -0.21106030520E+03  0.22456353668E+03  0.00000000000E+00 0. -1.
<scales pt_clust_3="70.81478" pt_clust_4="41.31311" pt_clust_5="41.31311" pt_clust_6="113.55846"></scales>
<clustering>
<clus scale="   41.313">  4  5 -1 -1</clus>
<clus scale="   70.815">  2  3  1 -1</clus>
<clus scale="  113.558">  2  6  1 -1</clus>
<clus scale="  122.862">  1  3  2 -1</clus>
</clustering>
</event>
<event>
 6    0  0.4796958E+002  0.8347219E+02  0.7546771E-02  0.1319477E+00
          2   -1    0    0  502    0 -0.00000000000E+00  0.00000000000E+00  0.10563967686E+04  0.10563967686E+04  0.00000000000E+00 0. -1.
         21   -1    0    0  505  502  0.00000000000E+00 -0.00000000000E+00 -0.50039505396E+03  0.50039505396E+03  0.00000000000E+00 0.  1.
         21    1    1    2  503  501 -0.54548491951E+02 -0.96285409962E+02  0.53023652909E+02  0.12271074082E+03  0.00000000000E+00 0.  1.
         21    1    1    2  504  503  0.37362980467E+01  0.54564606980E+02 -0.34299160152E+03  0.34732476873E+03  0.00000000000E+00 0.  1.
         21    1    1    2  505  504  0.54033088247E+02  0.65530141961E+01 -0.11390022998E+03  0.12623699541E+03  0.00000000000E+00 0.  1.
          2    1    1    2  501    0 -0.32208943424E+01  0.35167788786E+02  0.95986989328E+03  0.96051931764E+03  0.00000000000E+00 0. -1.
<scales pt_clust_3="83.47219" pt_clust_4="14000.00000" pt_clust_5="54.54245" pt_clust_6="35.31498"></scales>
<clustering>
<clus scale="   35.315">  1  6  2 -1</clus>
<clus scale="   54.542">  2  5  1 -1</clus>
<clus scale="   83.472">  1  3  2 -1</clus>
<clus scale="   54.542">  2  3  1 -1</clus>
</clustering>
</event>
<event>
 6    0  0.4796958E+002  0.9220529E+02  0.7546771E-02  0.1297597E+00
          2   -1    0    0  504    0 -0.00000000000E+00  0.00000000000E+00  0.55839879602E+03  0.55839879602E+03  0.00000000000E+00 0.  1.
         21   -1    0    0  503  502  0.00000000000E+00 -0.00000000000E+00 -0.70892601809E+02  0.70892601809E+02  0.00000000000E+00 0.  1.
         21    1    1    2  503  501  0.56908444674E+02  0.54640378662E+00  0.37298524927E+02  0.68044467770E+02  0.00000000000E+00 0.  1.
         21    1    1    2  504  505 -0.13575315448E+03  0.20531552861E+02  0.23628143021E+03  0.27327527857E+03  0.00000000000E+00 0.  1.
         21    1    1    2  505  502  0.15765729346E+02  0.28237779297E+02 -0.21810583904E+02  0.39008101359E+02  0.00000000000E+00 0.  1.
          2    1    1    2  501    0  0.63078980459E+02 -0.49315735945E+02  0.23573682298E+03  0.24896355013E+03  0.00000000000E+00 0.  1.
<scales pt_clust_3="63.89689" pt_clust_4="92.20529" pt_clust_5="32.34085" pt_clust_6="14000.00000"></scales>
<clustering>
<clus scale="   32.341">  2  5  1 -1</clus>
<clus scale="   63.897">  2  3  1 -1</clus>
<clus scale="   92.205">  2  4  1 -1</clus>
<clus scale="   32.341">  2  3  1 -1</clus>
</clustering>
</event>
<event>
 6    0  0.4796958E+002  0.1658204E+03  0.7546771E-02  0.1182278E+00
         21   -1    0    0  505  502  0.00000000000E+00  0.00000000000E+00  0.92192723054E+02  0.92192723054E+02  0.00000000000E+00 0. -1.
          2   -1    0    0  504    0 -0.00000000000E+00 -0.00000000000E+00 -0.50581965745E+04  0.50581965745E+04  0.00000000000E+00 0. -1.
         21    1    1    2  503  501  0.10867340141E+03  0.48332878235E+02 -0.16495124786E+04  0.16537948459E+04  0.00000000000E+00 0.  1.
         21    1    1    2  504  502  0.49610265606E+02 -0.21454892291E+02 -0.24957981263E+03  0.25536556880E+03  0.00000000000E+00 0.  1.
         21    1    1    2  505  503 -0.13126750027E+03 -0.10537599764E+03  0.47965835049E+01  0.16839912327E+03  0.00000000000E+00 0. -1.
          2    1    1    2  501    0 -0.27016166745E+02  0.78498011699E+02 -0.30717081437E+04  0.30728297595E+04  0.00000000000E+00 0. -1.
<scales pt_clust_3="165.82042" pt_clust_4="54.05082" pt_clust_5="14000.00000" pt_clust_6="64.95226"></scales>
<clustering>
<clus scale="   54.051">  2  4  1 -1</clus>
<clus scale="   64.952">  2  6  1 -1</clus>
<clus scale="  165.820">  2  3  1 -1</clus>
<clus scale="  165.820">  1  3  2 -1</clus>
</clustering>
</event>
<event>
 6    0  0.4796958E+002  0.1295529E+03  0.7546771E-02  0.1228121E+00
         21   -1    0    0  501  502  0.00000000000E+00  0.00000000000E+00  0.11276862263E+03  0.11276862263E+03  0.00000000000E+00 0.  1.
          2   -1    0    0  504    0 -0.00000000000E+00 -0.00000000000E+00 -0.23399482061E+04  0.23399482061E+04  0.00000000000E+00 0.  1.
         21    1    1    2  503  505  0.49798237745E+02 -0.48263288448E+02 -0.13153674484E+03  0.14869809930E+03  0.00000000000E+00 0. -1.
         21    1    1    2  504  503 -0.45561108044E+02 -0.65684289468E+01 -0.85550496699E+03  0.85674249770E+03  0.00000000000E+00 0.  1.
         21    1    1    2  505  502  0.14677098142E+02  0.13041957756E+03  0.60351941464E+02  0.14445428432E+03  0.00000000000E+00 0.  1.
          2    1    1    2  501    0 -0.18914227843E+02 -0.75587860161E+02 -0.13004898131E+04  0.13028219474E+04  0.00000000000E+00 0.  1.
<scales pt_clust_3="66.77933" pt_clust_4="46.03215" pt_clust_5="129.55289" pt_clust_6="14000.00000"></scales>
<clustering>
<clus scale="   46.032">  2  4  1 -1</clus>
<clus scale="   66.779">  2  3  1 -1</clus>
<clus scale="  129.553">  1  5  2 -1</clus>
<clus scale="  129.553">  1  3  2 -1</clus>
</clustering>
</event>
<event>
 6    0  0.4796958E+002  0.1430358E+03  0.7546771E-02  0.1209301E+00
         21   -1    0    0  505  502  0.00000000000E+00  0.00000000000E+00  0.40510761654E+02  0.40510761654E+02  0.00000000000E+00 0. -1.
         -2   -1    0    0    0  501 -0.00000000000E+00 -0.00000000000E+00 -0.13161369817E+04  0.13161369817E+04  0.00000000000E+00 0.  1.
         21    1    1    2  503  502 -0.33666909311E+02 -0.19097791968E+02 -0.27910667333E+02  0.47719930758E+02  0.00000000000E+00 0. -1.
         21    1    1    2  504  503 -0.49568834083E+02  0.11920764284E+03 -0.24566934427E+03  0.27752649989E+03  0.00000000000E+00 0.  1.
         21    1    1    2  505  501  0.84125407603E+02 -0.15138190633E+03 -0.55423047257E+03  0.58065909318E+03  0.00000000000E+00 0. -1.
         -2    1    1    2    0  504 -0.88966420890E+00  0.51272055454E+02 -0.44781573587E+03  0.45074221953E+03  0.00000000000E+00 0.  1.
<scales pt_clust_3="38.70641" pt_clust_4="14000.00000" pt_clust_5="143.03579" pt_clust_6="50.42099"></scales>
<clustering>
<clus scale="   38.706">  1  3  2 -1</clus>
<clus scale="   50.421">  2  6  1 -1</clus>
<clus scale="  143.036">  2  5  1 -1</clus>
<clus scale="   38.706">  1  3  2 -1</clus>
</clustering>
</event>
<event>
 6    0  0.4796958E+002  0.1513814E+03  0.7546771E-02  0.1198786E+00
          1   -1    0    0  504    0 -0.00000000000E+00  0.00000000000E+00  0.48200069701E+03  0.48200069701E+03  0.00000000000E+00 0. -1.
         21   -1    0    0  505  502  0.00000000000E+00 -0.00000000000E+00 -0.38603359930E+03  0.38603359930E+03  0.00000000000E+00 0. -1.
         21    1    1    2  503  501 -0.13128811294E+03 -0.31628436150E+02  0.11900098359E+03  0.17999489067E+03  0.00000000000E+00 0. -1.
         21    1    1    2  504  502  0.18717734426E+03 -0.37021210573E+02 -0.42578518997E+02  0.19549644118E+03  0.00000000000E+00 0. -1.
         21    1    1    2  505  503 -0.45796655529E+02  0.10091329058E+03 -0.22227667608E+03  0.24837018058E+03  0.00000000000E+00 0. -1.
          1    1    1    2  501    0 -0.10092575787E+02 -0.32263643858E+02  0.24182130920E+03  0.24417278387E+03  0.00000000000E+00 0. -1.
<scales pt_clust_3="151.38144" pt_clust_4="14000.00000" pt_clust_5="109.44969" pt_clust_6="33.80537"></scales>
<clustering>
<clus scale="   33.805">  1  6  2 -1</clus>
<clus scale="  109.450">  2  5  1 -1</clus>
<clus scale="  151.381">  1  3  2 -1</clus>
<clus scale="  109.450">  2  3  1 -1</clus>
</clustering>
</event>
<event>
 6    0  0.4796958E+002  0.1078627E+03  0.7546771E-02  0.1264580E+00
          2   -1    0    0  504    0 -0.00000000000E+00  0.00000000000E+00  0.82317412432E+03  0.82317412432E+03  0.00000000000E+00 0.  1.
         21   -1    0    0  503  502  0.00000000000E+00 -0.00000000000E+00 -0.55371602635E+03  0.55371602635E+03  0.00000000000E+00 0.  1.
         21    1    1    2  503  501 -0.30651037694E+02  0.28384233830E+02 -0.22139505791E+03  0.22530184755E+03  0.00000000000E+00 0.  1.
         21    1    1    2  504  505  0.27197902791E+02  0.57036008337E+02  0.11696264731E+03  0.13294018591E+03  0.00000000000E+00 0. -1.
         21    1    1    2  505  502 -0.74887314148E+02 -0.56767383580E+02 -0.31295333808E+03  0.32675745971E+03  0.00000000000E+00 0.  1.
          2    1    1    2  501    0  0.78340449051E+02 -0.28652858588E+02  0.68684384665E+03  0.69189065751E+03  0.00000000000E+00 0.  1.
<scales pt_clust_3="41.77500" pt_clust_4="63.49670" pt_clust_5="14000.00000" pt_clust_6="107.86273"></scales>
<clustering>
<clus scale="   41.775">  2  3  1 -1</clus>
<clus scale="   63.497">  1  4  2 -1</clus>
<clus scale="  107.863">  1  6  2 -1</clus>
<clus scale="   41.775">  2  3  1 -1</clus>
</clustering>
</event>
<event>
 6    0  0.4796958E+002  0.9179177E+02  0.7546771E-02  0.1298570E+00
          1   -1    0    0  505    0 -0.00000000000E+00  0.00000000000E+00  0.20621395173E+04  0.20621395173E+04  0.00000000000E+00 0.  1.
         21   -1    0    0  503  502  0.00000000000E+00 -0.00000000000E+00 -0.46901375626E+02  0.46901375626E+02  0.00000000000E+00 0. -1.
         21    1    1    2  503  504 -0.19906594783E+02 -0.26199890516E+02 -0.12092272588E+02  0.35056095551E+02  0.00000000000E+00 0. -1.
         21    1    1    2  504  501 -0.95079380402E+02  0.61755227607E+02  0.17798427039E+03  0.21102653203E+03  0.00000000000E+00 0. -1.
         21    1    1    2  505  502  0.26302132931E+02 -0.16195962484E+02  0.36393708417E+02  0.47734823870E+02  0.00000000000E+00 0.  1.
          1    1    1    2  501    0  0.88683842254E+02 -0.19359374607E+02  0.18129524355E+04  0.18152234415E+04  0.00000000000E+00 0.  1.
<scales pt_clust_3="35.79270" pt_clust_4="91.79177" pt_clust_5="30.88869" pt_clust_6="14000.00000"></scales>
<clustering>
<clus scale="   30.889">  2  5  1 -1</clus>
<clus scale="   35.793">  2  3  1 -1</clus>
<clus scale="   91.792">  2  4  1 -1</clus>
<clus scale="   30.889">  2  3  1 -1</clus>
</clustering>
</event>
<event>
 6    0  0.4796958E+002  0.1388032E+03  0.7546771E-02  0.1214948E+00
         21   -1    0    0  501  502  0.00000000000E+00  0.00000000000E+00  0.45902483816E+03  0.45902483816E+03  0.00000000000E+00 0.  1.
          1   -1    0    0  503    0 -0.00000000000E+00 -0.00000000000E+00 -0.10829601686E+03  0.10829601686E+03  0.00000000000E+00 0.  1.
         21    1    1    2  503  504  0.12596305426E+03 -0.10695376687E+03  0.34959710503E+02  0.16890228135E+03  0.00000000000E+00 0.  1.
         21    1    1    2  504  505 -0.21315837352E+02  0.44415961166E+02  0.14554715671E+03  0.15365909461E+03  0.00000000000E+00 0.  1.
         21    1    1    2  505  502 -0.73935714824E+02  0.36322259822E+02  0.18440045611E+03  0.20196367173E+03  0.00000000000E+00 0.  1.
          1    1    1    2  501    0 -0.30711502082E+02  0.26215545883E+02 -0.14178502025E+02  0.42795807338E+02  0.00000000000E+00 0.  1.
<scales pt_clust_3="131.36107" pt_clust_4="34.67665" pt_clust_5="34.67665" pt_clust_6="40.37885"></scales>
<clustering>
<clus scale="   34.677">  4  5 -1 -1</clus>
<clus scale="   40.379">  2  6  1 -1</clus>
<clus scale="  131.361">  2  3  1 -1</clus>
<clus scale="  138.803">  1  3  2 -1</clus>
</clustering>
</event>
<event>
 6    0  0.4796958E+002  0.1243325E+03  0.7546771E-02  0.1236116E+00
         21   -1    0    0  505  502  0.00000000000E+00  0.00000000000E+00  0.48119199785E+03  0.48119199785E+03  0.00000000000E+00 0.  1.
          2   -1    0    0  504    0 -0.00000000000E+00 -0.00000000000E+00 -0.29979306366E+04  0.29979306366E+04  0.00000000000E+00 0.  1.
         21    1    1    2  503  501  0.47216806787E+02 -0.15559431767E+03 -0.64869935038E+03  0.66876742274E+03  0.00000000000E+00 0.  1.
         21    1    1    2  504  502  0.10834896008E+02  0.54834312230E+02 -0.35417396829E+02  0.66170905747E+02  0.00000000000E+00 0. -1.
         21    1    1    2  505  503 -0.10086516687E+03  0.72578286118E+02  0.44701803306E+03  0.46396822238E+03  0.00000000000E+00 0.  1.
          2    1    1    2  501    0  0.42813464079E+02  0.28181719319E+02 -0.22796399246E+04  0.22802160836E+04  0.00000000000E+00 0.  1.
<scales pt_clust_3="124.33247" pt_clust_4="58.49463" pt_clust_5="14000.00000" pt_clust_6="51.25624"></scales>
<clustering>
<clus scale="   51.256">  2  6  1 -1</clus>
<clus scale="   58.495">  2  4  1 -1</clus>
<clus scale="  124.332">  2  3  1 -1</clus>
<clus scale="  124.332">  1  3  2 -1</clus>
</clustering>
</event>
<event>
 6    0  0.4796958E+002  0.9357498E+02  0.7546771E-02  0.1294418E+00
          1   -1    0    0  503    0 -0.00000000000E+00  0.00000000000E+00  0.14587087109E+04  0.14587087109E+04  0.00000000000E+00 0.  1.
         21   -1    0    0  505  502  0.00000000000E+00 -0.00000000000E+00 -0.60043237536E+03  0.60043237536E+03  0.00000000000E+00 0. -1.
         21    1    1    2  503  502  0.87324799565E+02 -0.29553247396E+01  0.13321705669E+03  0.15931459053E+03  0.00000000000E+00 0. -1.
         21    1    1    2  504  501 -0.92549564969E+02 -0.36125356022E+02  0.27221072250E+03  0.28977429280E+03  0.00000000000E+00 0.  1.
         21    1    1    2  505  504  0.42470929028E+02  0.37885683616E+02 -0.57686441999E+03  0.57966513082E+03  0.00000000000E+00 0. -1.
          1    1    1    2  501    0 -0.37246163624E+02  0.11949971453E+01  0.10297129763E+04  0.10303870721E+04  0.00000000000E+00 0.  1.
<scales pt_clust_3="14000.00000" pt_clust_4="93.57498" pt_clust_5="56.82499" pt_clust_6="37.26533"></scales>
<clustering>
<clus scale="   37.265">  1  6  2 -1</clus>
<clus scale="   56.825">  2  5  1 -1</clus>
<clus scale="   93.575">  2  4  1 -1</clus>
<clus scale="   56.825">  2  3  1 -1</clus>
</clustering>
</event>
<event>
 6    0  0.4796958E+002  0.8658713E+02  0.7546771E-02  0.1311333E+00
          1   -1    0    0  504    0 -0.00000000000E+00  0.00000000000E+00  0.51159105971E+02  0.51159105971E+02  0.00000000000E+00 0.  1.
         21   -1    0    0  503  502  0.00000000000E+00 -0.00000000000E+00 -0.11324949287E+04  0.11324949287E+04  0.00000000000E+00 0.  1.
         21    1    1    2  503  501  0.40235632293E+02 -0.21976275173E+02 -0.39660736535E+03  0.39924837511E+03  0.00000000000E+00 0.  1.
         21    1    1    2  504  505 -0.10067725878E+03 -0.73322843132E+02 -0.43206190545E+03  0.44965502322E+03  0.00000000000E+00 0.  1.
         21    1    1    2  505  502  0.73519288059E+01  0.31247362432E+02 -0.24943752298E+03  0.25149458520E+03  0.00000000000E+00 0.  1.
          1    1    1    2  501    0  0.53089697684E+02  0.64051755873E+02 -0.32290289877E+01  0.83256051184E+02  0.00000000000E+00 0.  1.
<scales pt_clust_3="44.25941" pt_clust_4="14000.00000" pt_clust_5="32.10060" pt_clust_6="86.58713"></scales>
<clustering>
<clus scale="   32.101">  2  5  1 -1</clus>
<clus scale="   44.259">  2  3  1 -1</clus>
<clus scale="   86.587">  1  6  2 -1</clus>
<clus scale="   32.101">  2  3  1 -1</clus>
</clustering>
</event>
<event>
 6    0  0.4796958E+002  0.9113548E+02  0.7546771E-02  0.1300125E+00
         21   -1    0    0  503  502  0.00000000000E+00  0.00000000000E+00  0.77144637094E+03  0.77144637094E+03  0.00000000000E+00 0. -1.
          1   -1    0    0  504    0 -0.00000000000E+00 -0.00000000000E+00 -0.19198606579E+03  0.19198606579E+03  0.00000000000E+00 0.  1.
         21    1    1    2  503  505 -0.75893699109E+02  0.10803131184E+03  0.40987487378E+03  0.43061355072E+03  0.00000000000E+00 0. -1.
         21    1    1    2  504  502  0.98227812792E+01 -0.76843757898E+02  0.33379238736E+03  0.34266427887E+03  0.00000000000E+00 0. -1.
         21    1    1    2  505  501  0.34857491383E+02 -0.38330202890E+02 -0.51749760054E+02  0.73227637028E+02  0.00000000000E+00 0. -1.
          1    1    1    2  501    0  0.31213426447E+02  0.71426489490E+01 -0.11245719593E+03  0.11692697012E+03  0.00000000000E+00 0.  1.
<scales pt_clust_3="91.13548" pt_clust_4="14000.00000" pt_clust_5="68.34426" pt_clust_6="32.02023"></scales>
<clustering>
<clus scale="   32.020">  2  6  1 -1</clus>
<clus scale="   68.344">  2  5  1 -1</clus>
<clus scale="   91.135">  2  3  1 -1</clus>
<clus scale="   91.135">  1  3  2 -1</clus>
</clustering>
</event>
<event>
 6    0  0.4796958E+002  0.1528345E+03  0.7546771E-02  0.1197033E+00
         21   -1    0    0  503  502  0.00000000000E+00  0.00000000000E+00  0.74378520037E+03  0.74378520037E+03  0.00000000000E+00 0.  1.
          2   -1    0    0  505    0 -0.00000000000E+00 -0.00000000000E+00 -0.49564561804E+03  0.49564561804E+03  0.00000000000E+00 0.  1.
         21    1    1    2  503  501 -0.52378960458E+02 -0.12827895821E+03  0.45691332191E+03  0.47746081552E+03  0.00000000000E+00 0.  1.
         21    1    1    2  504  502 -0.98738910684E+02  0.66510548333E+02  0.16382423732E+03  0.20251273110E+03  0.00000000000E+00 0.  1.
         21    1    1    2  505  504  0.10181308213E+03  0.13488780414E+03  0.75955851911E+01  0.16916948990E+03  0.00000000000E+00 0.  1.
          2    1    1    2  501    0  0.49304789010E+02 -0.73119394265E+02 -0.38019356209E+03  0.39028778189E+03  0.00000000000E+00 0.  1.
<scales pt_clust_3="152.83450" pt_clust_4="104.88868" pt_clust_5="14000.00000" pt_clust_6="88.18961"></scales>
<clustering>
<clus scale="   88.190">  2  6  1 -1</clus>
<clus scale="  104.889">  1  4  2 -1</clus>
<clus scale="  152.834">  1  3  2 -1</clus>
<clus scale="  104.889">  1  3  2 -1</clus>
</clustering>
</event>
<event>
 6    0  0.4796958E+002  0.1083058E+03  0.7546771E-02  0.1263740E+00
         21   -1    0    0  503  502  0.00000000000E+00  0.00000000000E+00  0.27043068023E+03  0.27043068023E+03  0.00000000000E+00 0.  1.
         -2   -1    0    0    0  501 -0.00000000000E+00 -0.00000000000E+00 -0.78295536594E+03  0.78295536594E+03  0.00000000000E+00 0.  1.
         21    1    1    2  503  505  0.52348036319E+02 -0.38560799197E+02  0.12315041598E+02  0.66173351061E+02  0.00000000000E+00 0. -1.
         21    1    1    2  504  502 -0.47792780218E+02 -0.66904690814E+01  0.17389628738E+03  0.18046836560E+03  0.00000000000E+00 0.  1.
         21    1    1    2  505  501 -0.65369948998E+02 -0.47713642755E+02  0.16783076178E+02  0.82652849817E+02  0.00000000000E+00 0. -1.
         -2    1    1    2    0  504  0.60814692897E+02  0.92964911033E+02 -0.71551909087E+03  0.72409147969E+03  0.00000000000E+00 0.  1.
<scales pt_clust_3="52.45051" pt_clust_4="48.25880" pt_clust_5="108.30577" pt_clust_6="14000.00000"></scales>
<clustering>
<clus scale="   48.259">  1  4  2 -1</clus>
<clus scale="   52.451">  1  3  2 -1</clus>
<clus scale="  108.306">  1  5  2 -1</clus>
<clus scale="   48.259">  1  3  2 -1</clus>
</clustering>
</event>
<event>
 6    0  0.4796958E+002  0.7820721E+02  0.7546771E-02  0.1334217E+00
         21   -1    0    0  503  502  0.00000000000E+00  0.00000000000E+00  0.22548655937E+03  0.22548655937E+03  0.00000000000E+00 0. -1.
         -1   -1    0    0    0  501 -0.00000000000E+00 -0.00000000000E+00 -0.11643432581E+04  0.11643432581E+04  0.00000000000E+00 0. -1.
         21    1    1    2  503  504  0.20046940238E+02  0.31741594747E+02  0.19963185920E+03  0.20313120847E+03  0.00000000000E+00 0. -1.
         21    1    1    2  504  501  0.66628817976E+02 -0.69296203366E+02 -0.11170483396E+03  0.14737480489E+03  0.00000000000E+00 0. -1.
         21    1    1    2  505  502 -0.67164268490E+02 -0.74380567016E+01 -0.20040515671E+03  0.21149134849E+03  0.00000000000E+00 0. -1.
         -1    1    1    2    0  505 -0.19511489724E+02  0.44992665321E+02 -0.82637856724E+03  0.82783245560E+03  0.00000000000E+00 0. -1.
<scales pt_clust_3="37.54209" pt_clust_4="78.20721" pt_clust_5="14000.00000" pt_clust_6="49.68768"></scales>
<clustering>
<clus scale="   37.542">  1  3  2 -1</clus>
<clus scale="   49.688">  2  6  1 -1</clus>
<clus scale="   78.207">  1  4  2 -1</clus>
<clus scale="   37.542">  1  3  2 -1</clus>
</clustering>
</event>
<event>
 6    0  0.4796958E+002  0.5399720E+02  0.7546771E-02  0.1424902E+00
         21   -1    0    0  504  502  0.00000000000E+00  0.00000000000E+00  0.30288253070E+03  0.30288253070E+03  0.00000000000E+00 0.  1.
          2   -1    0    0  503    0 -0.00000000000E+00 -0.00000000000E+00 -0.59015136662E+03  0.59015136662E+03  0.00000000000E+00 0.  1.
         21    1    1    2  503  505  0.11712987405E+02 -0.50714607889E+02 -0.22621198285E+03  0.23212286986E+03  0.00000000000E+00 0.  1.
         21    1    1    2  504  501  0.20953084574E+02 -0.67495667124E+02 -0.53909113740E+02  0.88886947174E+02  0.00000000000E+00 0.  1.
         21    1    1    2  505  502 -0.36859529714E+02  0.38972793904E+02  0.27435602568E+03  0.27955094781E+03  0.00000000000E+00 0.  1.
          2    1    1    2  501    0  0.41934577339E+01  0.79237481109E+02 -0.28150376501E+03  0.29247313247E+03  0.00000000000E+00 0.  1.
<scales pt_clust_3="52.04964" pt_clust_4="53.99720" pt_clust_5="14000.00000" pt_clust_6="41.19523"></scales>
<clustering>
<clus scale="   52.050">  2  3  1 -1</clus>
<clus scale="   41.195">  2  6  1 -1</clus>
<clus scale="   53.997">  2  4  1 -1</clus>
<clus scale="   53.997">  1  3  2 -1</clus>
</clustering>
</event>
<event>
 6    0  0.4796958E+002  0.1159279E+03  0.7546771E-02  0.1249970E+00
          2   -1    0    0  505    0 -0.00000000000E+00  0.00000000000E+00  0.33957583811E+03  0.33957583811E+03  0.00000000000E+00 0. -1.
         21   -1    0    0  501  502  0.00000000000E+00 -0.00000000000E+00 -0.12500192087E+04  0.12500192087E+04  0.00000000000E+00 0. -1.
         21    1    1    2  503  504  0.31637200075E+02 -0.11922010171E+01 -0.46477695455E+02  0.56236197832E+02  0.00000000000E+00 0. -1.
         21    1    1    2  504  502 -0.10318609631E+03  0.52849487913E+02 -0.94482160734E+03  0.95190772060E+03  0.00000000000E+00 0. -1.
         21    1    1    2  505  503  0.60680073110E+02  0.57828767285E+02 -0.23366308451E+03  0.24824317646E+03  0.00000000000E+00 0.  1.
          2    1    1    2  501    0  0.10868823125E+02 -0.10948605418E+03  0.31451901668E+03  0.33320795194E+03  0.00000000000E+00 0. -1.
<scales pt_clust_3="30.72029" pt_clust_4="104.59744" pt_clust_5="30.72029" pt_clust_6="110.02421"></scales>
<clustering>
<clus scale="   30.720">  3  5 -1 -1</clus>
<clus scale="  110.024">  1  6  2 -1</clus>
<clus scale="  104.597">  2  4  1 -1</clus>
<clus scale="  104.597">  2  3  1 -1</clus>
</clustering>
</event>
<event>
 6    0  0.4796958E+002  0.1076477E+03  0.7546771E-02  0.1264989E+00
         21   -1    0    0  503  502  0.00000000000E+00  0.00000000000E+00  0.15952525186E+04  0.15952525186E+04  0.00000000000E+00 0.  1.
          2   -1    0    0  502    0 -0.00000000000E+00 -0.00000000000E+00 -0.12156952107E+04  0.12156952107E+04  0.00000000000E+00 0. -1.
         21    1    1    2  503  505 -0.60194114586E+02  0.39411625374E+02  0.36635452552E+03  0.37335270993E+03  0.00000000000E+00 0.  1.
         21    1    1    2  504  501  0.81773916315E+02  0.63569601289E+01 -0.85595219852E+02  0.11854925556E+03  0.00000000000E+00 0. -1.
         21    1    1    2  505  504 -0.45931434521E+02 -0.69151381956E+02  0.12072394203E+04  0.12100903388E+04  0.00000000000E+00 0.  1.
          2    1    1    2  501    0  0.24351632792E+02  0.23382796453E+02 -0.11084414181E+04  0.11089554249E+04  0.00000000000E+00 0. -1.
<scales pt_clust_3="71.70933" pt_clust_4="14000.00000" pt_clust_5="107.64772" pt_clust_6="33.76029"></scales>
<clustering>
<clus scale="   33.760">  2  6  1 -1</clus>
<clus scale="   71.709">  1  3  2 -1</clus>
<clus scale="  107.648">  1  5  2 -1</clus>
<clus scale="   71.709">  1  3  2 -1</clus>
</clustering>
</event>
<event>
 6    0  0.4796958E+002  0.9210477E+02  0.7546771E-02  0.1297833E+00
          2   -1    0    0  505    0 -0.00000000000E+00  0.00000000000E+00  0.61236185015E+03  0.61236185015E+03  0.00000000000E+00 0. -1.
         21   -1    0    0  504  502  0.00000000000E+00 -0.00000000000E+00 -0.40500291456E+03  0.40500291456E+03  0.00000000000E+00 0.  1.
         21    1    1    2  503  501 -0.45363101593E+02 -0.68140784138E+02 -0.38060853338E+02  0.90275168269E+02  0.00000000000E+00 0. -1.
         21    1    1    2  504  503  0.82228208678E+02  0.50807501707E+02 -0.31324660872E+03  0.32782055824E+03  0.00000000000E+00 0.  1.
         21    1    1    2  505  502 -0.34485953851E+02  0.49564509265E+02  0.26196600673E+02  0.65819324507E+02  0.00000000000E+00 0. -1.
          2    1    1    2  501    0 -0.23791532341E+01 -0.32231226834E+02  0.53246979698E+03  0.53344971370E+03  0.00000000000E+00 0. -1.
<scales pt_clust_3="92.10477" pt_clust_4="14000.00000" pt_clust_5="47.33264" pt_clust_6="32.31892"></scales>
<clustering>
<clus scale="   32.319">  1  6  2 -1</clus>
<clus scale="   47.333">  1  5  2 -1</clus>
<clus scale="   92.105">  1  3  2 -1</clus>
<clus scale="   92.105">  2  3  1 -1</clus>
</clustering>
</event>
<event>
 6    0  0.4796958E+002  0.1060145E+03  0.7546771E-02  0.1268134E+00
         -1   -1    0    0    0  501 -0.00000000000E+00  0.00000000000E+00  0.18119429361E+03  0.18119429361E+03  0.00000000000E+00 0.  1.
         21   -1    0    0  504  502  0.00000000000E+00 -0.00000000000E+00 -0.16397449031E+04  0.16397449031E+04  0.00000000000E+00 0. -1.
         21    1    1    2  503  505  0.10876563669E+03  0.46360473144E+02 -0.77262905775E+03  0.78162325840E+03  0.00000000000E+00 0. -1.
         21    1    1    2  504  503 -0.23772265220E+02  0.20441436027E+02 -0.75688144294E+03  0.75753052188E+03  0.00000000000E+00 0. -1.
         21    1    1    2  505  501 -0.95222687260E+02 -0.18165967207E+02 -0.78208744858E+02  0.12455508944E+03  0.00000000000E+00 0.  1.
         -1    1    1    2    0  502  0.10229315794E+02 -0.48635941965E+02  0.14916863604E+03  0.15723032701E+03  0.00000000000E+00 0.  1.
<scales pt_clust_3="106.01452" pt_clust_4="31.35240" pt_clust_5="14000.00000" pt_clust_6="49.58640"></scales>
<clustering>
<clus scale="   31.352">  2  4  1 -1</clus>
<clus scale="   49.586">  1  6  2 -1</clus>
<clus scale="  106.015">  2  3  1 -1</clus>
<clus scale="   31.352">  2  3  1 -1</clus>
</clustering>
</event>
<event>
 6    0  0.4796958E+002  0.7657170E+02  0.7546771E-02  0.1339072E+00
         21   -1    0    0  503  502  0.00000000000E+00  0.00000000000E+00  0.96977743409E+03  0.96977743409E+03  0.00000000000E+00 0.  1.
         -4   -1    0    0    0  501 -0.00000000000E+00 -0.00000000000E+00 -0.43759200653E+02  0.43759200653E+02  0.00000000000E+00 0. -1.
         21    1    1    2  503  504 -0.58127992793E+01  0.63894980257E+02  0.19933543361E+03  0.20940623732E+03  0.00000000000E+00 0.  1.
         21    1    1    2  504  501  0.76995080445E+02  0.73004823071E+02  0.13106117928E+03  0.16862674556E+03  0.00000000000E+00 0.  1.
         21    1    1    2  505  502 -0.40090592624E+02 -0.94586018296E+02  0.56593603688E+03  0.57518463845E+03  0.00000000000E+00 0.  1.
         -4    1    1    2    0  505 -0.31091688542E+02 -0.42313785031E+02  0.29685583662E+02  0.60319013399E+02  0.00000000000E+00 0. -1.
<scales pt_clust_3="57.52801" pt_clust_4="76.57170" pt_clust_5="14000.00000" pt_clust_6="52.50857"></scales>
<clustering>
<clus scale="   52.509">  2  6  1 -1</clus>
<clus scale="   57.528">  1  3  2 -1</clus>
<clus scale="   76.572">  2  4  1 -1</clus>
<clus scale="   57.528">  1  3  2 -1</clus>
</clustering>
</event>
<event>
 6    0  0.4796958E+002  0.1225410E+03  0.7546771E-02  0.1238963E+00
         21   -1    0    0  503  502  0.00000000000E+00  0.00000000000E+00  0.30620786965E+02  0.30620786965E+02  0.00000000000E+00 0.  1.
          2   -1    0    0  505    0 -0.00000000000E+00 -0.00000000000E+00 -0.26087419067E+04  0.26087419067E+04  0.00000000000E+00 0.  1.
         21    1    1    2  503  501  0.39277419942E+02 -0.20276666336E+02 -0.54976153949E+03  0.55153568263E+03  0.00000000000E+00 0.  1.
         21    1    1    2  504  502 -0.24687275705E+02 -0.25416140620E+02 -0.35436410801E+01  0.35608976085E+02  0.00000000000E+00 0.  1.
         21    1    1    2  505  504 -0.87929484408E+02  0.47704125535E+02 -0.17989196395E+03  0.20583584847E+03  0.00000000000E+00 0.  1.
          2    1    1    2  501    0  0.73339340170E+02 -0.20113185795E+01 -0.18449239752E+04  0.18463821865E+04  0.00000000000E+00 0.  1.
<scales pt_clust_3="37.38255" pt_clust_4="35.43221" pt_clust_5="112.71288" pt_clust_6="37.38255"></scales>
<clustering>
<clus scale="   35.432">  1  4  2 -1</clus>
<clus scale="   37.383">  3  6 -1 -1</clus>
<clus scale="  112.713">  1  5  2 -1</clus>
<clus scale="   35.432">  1  3  2 -1</clus>
</clustering>
</event>
<event>
 6    0  0.4796958E+002  0.1399760E+03  0.7546771E-02  0.1213361E+00
          2   -1    0    0  504    0 -0.00000000000E+00  0.00000000000E+00  0.50325793479E+03  0.50325793479E+03  0.00000000000E+00 0.  1.
         21   -1    0    0  501  502  0.00000000000E+00 -0.00000000000E+00 -0.94518815761E+02  0.94518815761E+02  0.00000000000E+00 0.  1.
         21    1    1    2  503  505  0.46926272519E+02 -0.12296032912E+03  0.90263168269E+02  0.15958933904E+03  0.00000000000E+00 0.  1.
         21    1    1    2  504  503 -0.41326056954E+02  0.13953564233E+03  0.18728709539E+03  0.23718029969E+03  0.00000000000E+00 0.  1.
         21    1    1    2  505  502  0.29613497350E+02 -0.74550864785E+01 -0.25727040501E+02  0.39930165948E+02  0.00000000000E+00 0.  1.
          2    1    1    2  501    0 -0.35213712915E+02 -0.91202267240E+01  0.15691589587E+03  0.16107694586E+03  0.00000000000E+00 0.  1.
<scales pt_clust_3="14000.00000" pt_clust_4="139.97597" pt_clust_5="30.53748" pt_clust_6="35.47525"></scales>
<clustering>
<clus scale="   30.537">  2  5  1 -1</clus>
<clus scale="   35.475">  1  6  2 -1</clus>
<clus scale="  139.976">  1  4  2 -1</clus>
<clus scale="   30.537">  2  3  1 -1</clus>
</clustering>
</event>
<event>
 6    0  0.4796958E+002  0.1479427E+03  0.7546771E-02  0.1203024E+00
         21   -1    0    0  504  502  0.00000000000E+00  0.00000000000E+00  0.17927419734E+03  0.17927419734E+03  0.00000000000E+00 0.  1.
         -2   -1    0    0    0  501 -0.00000000000E+00 -0.00000000000E+00 -0.95672188568E+03  0.95672188568E+03  0.00000000000E+00 0.  1.
         21    1    1    2  503  502 -0.10646982557E+02 -0.12165962131E+03  0.73130821994E+02  0.14234654482E+03  0.00000000000E+00 0.  1.
         21    1    1    2  504  505  0.34352066265E+02  0.22882257826E+02  0.16913499912E+02  0.44606374647E+02  0.00000000000E+00 0.  1.
         21    1    1    2  505  501  0.85810907177E+02  0.18361783162E+03 -0.28134631461E+03  0.34674885526E+03  0.00000000000E+00 0.  1.
         -2    1    1    2    0  503 -0.10951599089E+03 -0.84840468131E+02 -0.58614569564E+03  0.60229430830E+03  0.00000000000E+00 0.  1.
<scales pt_clust_3="106.02501" pt_clust_4="41.27544" pt_clust_5="147.94269" pt_clust_6="14000.00000"></scales>
<clustering>
<clus scale="   41.275">  1  4  2 -1</clus>
<clus scale="  106.025">  1  3  2 -1</clus>
<clus scale="  147.943">  1  5  2 -1</clus>
<clus scale="   41.275">  1  3  2 -1</clus>
</clustering>
</event>
<event>
 6    0  0.4796958E+002  0.1056771E+03  0.7546771E-02  0.1268791E+00
         21   -1    0    0  503  502  0.00000000000E+00  0.00000000000E+00  0.66829209157E+02  0.66829209157E+02  0.00000000000E+00 0.  1.
          2   -1    0    0  505    0 -0.00000000000E+00 -0.00000000000E+00 -0.10717316465E+04  0.10717316465E+04  0.00000000000E+00 0. -1.
         21    1    1    2  503  504 -0.49792910510E+02 -0.13140378446E+02  0.17407545858E+01  0.51527019216E+02  0.00000000000E+00 0.  1.
         21    1    1    2  504  501 -0.53648009945E+02  0.30892452524E+02 -0.83167594919E+01  0.62462957682E+02  0.00000000000E+00 0.  1.
         21    1    1    2  505  502  0.76931285697E+02  0.39554903929E+02 -0.14450739665E+03  0.16842031003E+03  0.00000000000E+00 0. -1.
          2    1    1    2  501    0  0.26509634757E+02 -0.57306978006E+02 -0.85381903578E+03  0.85615056873E+03  0.00000000000E+00 0. -1.
<scales pt_clust_3="40.12358" pt_clust_4="40.12358" pt_clust_5="96.08501" pt_clust_6="63.14151"></scales>
<clustering>
<clus scale="   40.124">  3  4 -1 -1</clus>
<clus scale="   63.142">  2  6  1 -1</clus>
<clus scale="   96.085">  2  5  1 -1</clus>
<clus scale="  105.677">  1  3  2 -1</clus>
</clustering>
</event>
<event>
 6    0  0.4796958E+002  0.1240289E+03  0.7546771E-02  0.1236595E+00
         21   -1    0    0  504  502  0.00000000000E+00  0.00000000000E+00  0.22621605710E+03  0.22621605710E+03  0.00000000000E+00 0. -1.
          2   -1    0    0  502    0 -0.00000000000E+00 -0.00000000000E+00 -0.46751724500E+03  0.46751724500E+03  0.00000000000E+00 0. -1.
         21    1    1    2  503  505  0.31377268435E+01  0.41819200098E+02  0.24941928685E+02  0.48793346197E+02  0.00000000000E+00 0. -1.
         21    1    1    2  504  503  0.39070174883E+02  0.59120137852E+02  0.13013820450E+03  0.14818104310E+03  0.00000000000E+00 0. -1.
         21    1    1    2  505  501 -0.20048928839E+02 -0.12428972422E+03 -0.30597315753E+02  0.12956114705E+03  0.00000000000E+00 0. -1.
          2    1    1    2  501    0 -0.22158972887E+02  0.23350386267E+02 -0.36578400533E+03  0.36719776575E+03  0.00000000000E+00 0. -1.
<scales pt_clust_3="41.60406" pt_clust_4="41.60406" pt_clust_5="112.26915" pt_clust_6="32.19100"></scales>
<clustering>
<clus scale="   32.191">  2  6  1 -1</clus>
<clus scale="   41.604">  3  4 -1 -1</clus>
<clus scale="  112.269">  2  5  1 -1</clus>
<clus scale="  124.029">  1  3  2 -1</clus>
</clustering>
</event>
<event>
 6    0  0.4796958E+002  0.1358610E+03  0.7546771E-02  0.1219009E+00
          2   -1    0    0  503    0 -0.00000000000E+00  0.00000000000E+00  0.80990159810E+03  0.80990159810E+03  0.00000000000E+00 0.  1.
         21   -1    0    0  505  502  0.00000000000E+00 -0.00000000000E+00 -0.53466804867E+03  0.53466804867E+03  0.00000000000E+00 0.  1.
         21    1    1    2  503  504 -0.18586211395E+03 -0.10860888716E+03  0.29205675899E+03  0.36281919222E+03  0.00000000000E+00 0.  1.
         21    1    1    2  504  502  0.81903019940E+02  0.52738603950E+02 -0.46703269357E+03  0.47708385204E+03  0.00000000000E+00 0.  1.
         21    1    1    2  505  501  0.36843874785E+02  0.69457005277E+01 -0.85451732244E+01  0.38454308607E+02  0.00000000000E+00 0.  1.
          2    1    1    2  501    0  0.67115219225E+02  0.48924582682E+02  0.45875465724E+03  0.46621229390E+03  0.00000000000E+00 0.  1.
<scales pt_clust_3="135.86104" pt_clust_4="14000.00000" pt_clust_5="37.49285" pt_clust_6="83.30172"></scales>
<clustering>
<clus scale="   37.493">  2  5  1 -1</clus>
<clus scale="   83.302">  1  6  2 -1</clus>
<clus scale="  135.861">  1  3  2 -1</clus>
<clus scale="   37.493">  2  3  1 -1</clus>
</clustering>
</event>
<event>
 6    0  0.4796958E+002  0.1154089E+03  0.7546771E-02  0.1250869E+00
          2   -1    0    0  503    0 -0.00000000000E+00  0.00000000000E+00  0.24442416444E+04  0.24442416444E+04  0.00000000000E+00 0.  1.
         21   -1    0    0  505  502  0.00000000000E+00 -0.00000000000E+00 -0.69443567950E+02  0.69443567950E+02  0.00000000000E+00 0.  1.
         21    1    1    2  503  502 -0.10238567283E+03 -0.12238282424E+03  0.72141660094E+02  0.17511367962E+03  0.00000000000E+00 0.  1.
         21    1    1    2  504  501  0.45602046870E+02  0.29825587716E+02  0.64374168845E+03  0.64604370890E+03  0.00000000000E+00 0. -1.
         21    1    1    2  505  504  0.65330980214E+02  0.48141875682E+02  0.83411538685E+02  0.11637552129E+03  0.00000000000E+00 0.  1.
          2    1    1    2  501    0 -0.85473542511E+01  0.44415360841E+02  0.15755031892E+04  0.15761523026E+04  0.00000000000E+00 0.  1.
<scales pt_clust_3="14000.00000" pt_clust_4="74.06676" pt_clust_5="115.40889" pt_clust_6="45.23032"></scales>
<clustering>
<clus scale="   45.230">  1  6  2 -1</clus>
<clus scale="   74.067">  1  4  2 -1</clus>
<clus scale="  115.409">  2  5  1 -1</clus>
<clus scale="  115.409">  2  3  1 -1</clus>
</clustering>
</event>
<event>
 6    0  0.4796958E+002  0.9853646E+02  0.7546771E-02  0.1283404E+00
          2   -1    0    0  505    0 -0.00000000000E+00  0.00000000000E+00  0.29403465047E+04  0.29403465047E+04  0.00000000000E+00 0. -1.
         21   -1    0    0  503  502  0.00000000000E+00 -0.00000000000E+00 -0.44170393421E+02  0.44170393421E+02  0.00000000000E+00 0. -1.
         21    1    1    2  503  504 -0.32788183239E+02  0.81880645929E+02  0.24723267154E+03  0.26249475998E+03  0.00000000000E+00 0.  1.
         21    1    1    2  504  501  0.63990605242E+02 -0.48629270251E+02  0.10616144890E+04  0.10646524910E+04  0.00000000000E+00 0. -1.
         21    1    1    2  505  502 -0.16479625777E+02  0.26646446762E+02 -0.27304218989E+02  0.41558772424E+02  0.00000000000E+00 0. -1.
          2    1    1    2  501    0 -0.14722796226E+02 -0.59897822440E+02  0.16146331698E+04  0.16158108747E+04  0.00000000000E+00 0. -1.
<scales pt_clust_3="98.53646" pt_clust_4="14000.00000" pt_clust_5="31.33067" pt_clust_6="60.36912"></scales>
<clustering>
<clus scale="   31.331">  2  5  1 -1</clus>
<clus scale="   60.369">  1  6  2 -1</clus>
<clus scale="   98.536">  2  3  1 -1</clus>
<clus scale="   31.331">  2  3  1 -1</clus>
</clustering>
</event>
<event>
 6    0  0.4796958E+002  0.1751733E+03  0.7546771E-02  0.1172558E+00
         21   -1    0    0  504  502  0.00000000000E+00  0.00000000000E+00  0.30408281407E+03  0.30408281407E+03  0.00000000000E+00 0.  1.
          2   -1    0    0  503    0 -0.00000000000E+00 -0.00000000000E+00 -0.13873467923E+03  0.13873467923E+03  0.00000000000E+00 0.  1.
         21    1    1    2  503  505  0.15341522708E+03  0.89517311313E+01  0.22942760713E+02  0.15537932829E+03  0.00000000000E+00 0.  1.
         21    1    1    2  504  501 -0.13136819341E+03 -0.15132004134E+02  0.58058265514E+02  0.14442071175E+03  0.00000000000E+00 0.  1.
         21    1    1    2  505  502  0.26631262192E+02 -0.21309541080E+02  0.79972991498E+02  0.86942509948E+02  0.00000000000E+00 0.  1.
          2    1    1    2  501    0 -0.48678295866E+02  0.27489814083E+02  0.43741171120E+01  0.56074943310E+02  0.00000000000E+00 0.  1.
<scales pt_clust_3="164.17805" pt_clust_4="39.65393" pt_clust_5="34.10749" pt_clust_6="39.65393"></scales>
<clustering>
<clus scale="   34.107">  1  5  2 -1</clus>
<clus scale="   39.654">  4  6 -1 -1</clus>
<clus scale="  164.178">  2  3  1 -1</clus>
<clus scale="   34.107">  1  3  2 -1</clus>
</clustering>
</event>
<event>
 6    0  0.4796958E+002  0.1440573E+03  0.7546771E-02  0.1207972E+00
         21   -1    0    0  504  502  0.00000000000E+00  0.00000000000E+00  0.36728032151E+03  0.36728032151E+03  0.00000000000E+00 0. -1.
          1   -1    0    0  503    0 -0.00000000000E+00 -0.00000000000E+00 -0.14013514768E+04  0.14013514768E+04  0.00000000000E+00 0. -1.
         21    1    1    2  503  502  0.10638879246E+02  0.17392009820E+03 -0.11414534736E+04  0.11546763264E+04  0.00000000000E+00 0. -1.
         21    1    1    2  504  505 -0.10649203293E+02 -0.36908415418E+02  0.19930769016E+02  0.43276693646E+02  0.00000000000E+00 0.  1.
         21    1    1    2  505  501  0.82332813261E+00 -0.10693226395E+03  0.31937988728E+03  0.33680662010E+03  0.00000000000E+00 0. -1.
          1    1    1    2  501    0 -0.81300408627E+00 -0.30079418829E+02 -0.23192833798E+03  0.23387215818E+03  0.00000000000E+00 0. -1.
<scales pt_clust_3="144.05727" pt_clust_4="38.70506" pt_clust_5="14000.00000" pt_clust_6="30.09040"></scales>
<clustering>
<clus scale="   30.090">  2  6  1 -1</clus>
<clus scale="   38.705">  1  4  2 -1</clus>
<clus scale="  144.057">  2  3  1 -1</clus>
<clus scale="   38.705">  1  3  2 -1</clus>
</clustering>
</event>
<event>
 6    0  0.4796958E+002  0.8249500E+02  0.7546771E-02  0.1322116E+00
          2   -1    0    0  504    0 -0.00000000000E+00  0.00000000000E+00  0.15851062177E+03  0.15851062177E+03  0.00000000000E+00 0. -1.
         21   -1    0    0  505  502  0.00000000000E+00 -0.00000000000E+00 -0.21547358253E+03  0.21547358253E+03  0.00000000000E+00 0. -1.
         21    1    1    2  503  501  0.66639460207E+02  0.20261533890E+00 -0.57866744002E+02  0.88257683921E+02  0.00000000000E+00 0. -1.
         21    1    1    2  504  502  0.67366045740E+02 -0.17324576569E+02  0.45178557216E+02  0.82942311904E+02  0.00000000000E+00 0. -1.
         21    1    1    2  505  503 -0.30605959620E+02 -0.31875504744E+02 -0.72524825848E+02  0.84927162505E+02  0.00000000000E+00 0. -1.
          2    1    1    2  501    0 -0.10339954633E+03  0.48997465974E+02  0.28250051875E+02  0.11785704596E+03  0.00000000000E+00 0. -1.
<scales pt_clust_3="53.02809" pt_clust_4="82.49500" pt_clust_5="44.19019" pt_clust_6="14000.00000"></scales>
<clustering>
<clus scale="   44.190">  2  5  1 -1</clus>
<clus scale="   53.028">  2  3  1 -1</clus>
<clus scale="   82.495">  1  4  2 -1</clus>
<clus scale="   44.190">  2  3  1 -1</clus>
</clustering>
</event>
<event>
 6    0  0.4796958E+002  0.1093477E+03  0.7546771E-02  0.1261783E+00
          2   -1    0    0  505    0 -0.00000000000E+00  0.00000000000E+00  0.15300303614E+03  0.15300303614E+03  0.00000000000E+00 0.  1.
         21   -1    0    0  503  502  0.00000000000E+00 -0.00000000000E+00 -0.21733074717E+04  0.21733074717E+04  0.00000000000E+00 0.  1.
         21    1    1    2  503  501 -0.10940495561E+03  0.17192295183E+02 -0.71319667403E+02  0.13172514674E+03  0.00000000000E+00 0.  1.
         21    1    1    2  504  502  0.31870043275E+02 -0.35047618093E+02 -0.19268849603E+04  0.19274671684E+04  0.00000000000E+00 0.  1.
         21    1    1    2  505  504  0.10628670285E+03  0.44596918627E+02 -0.11710734060E+03  0.16431639473E+03  0.00000000000E+00 0.  1.
          2    1    1    2  501    0 -0.28751790518E+02 -0.26741595717E+02  0.95007532691E+02  0.10280179798E+03  0.00000000000E+00 0.  1.
<scales pt_clust_3="109.34775" pt_clust_4="47.37409" pt_clust_5="14000.00000" pt_clust_6="39.26549"></scales>
<clustering>
<clus scale="   39.265">  1  6  2 -1</clus>
<clus scale="   47.374">  2  4  1 -1</clus>
<clus scale="  109.348">  2  3  1 -1</clus>
<clus scale="   47.374">  2  3  1 -1</clus>
</clustering>
</event>
<event>
 6    0  0.4796958E+002  0.8985391E+02  0.7546771E-02  0.1303206E+00
         -4   -1    0    0    0  501 -0.00000000000E+00  0.00000000000E+00  0.87843178989E+02  0.87843178989E+02  0.00000000000E+00 0. -1.
         21   -1    0    0  503  502  0.00000000000E+00 -0.00000000000E+00 -0.28759628075E+03  0.28759628075E+03  0.00000000000E+00 0.  1.
         21    1    1    2  503  505 -0.97892495477E+02  0.18053594354E+02 -0.14990176446E+03  0.17994280182E+03  0.00000000000E+00 0.  1.
         21    1    1    2  504  502  0.59074919757E+02 -0.60562489591E+02 -0.49557899444E+02  0.98049205438E+02  0.00000000000E+00 0.  1.
         21    1    1    2  505  501 -0.54486300692E+01  0.47075019560E+02 -0.16361648927E+02  0.50134305538E+02  0.00000000000E+00 0.  1.
         -4    1    1    2    0  504  0.44266205790E+02 -0.45661243232E+01  0.16068211071E+02  0.47313146940E+02  0.00000000000E+00 0. -1.
<scales pt_clust_3="89.85391" pt_clust_4="14000.00000" pt_clust_5="46.37340" pt_clust_6="44.50108"></scales>
<clustering>
<clus scale="   44.501">  1  6  2 -1</clus>
<clus scale="   46.373">  1  5  2 -1</clus>
<clus scale="   89.854">  2  3  1 -1</clus>
<clus scale="   89.854">  2  3  1 -1</clus>
</clustering>
</event>
<event>
 6    0  0.4796958E+002  0.1009356E+03  0.7546771E-02  0.1278341E+00
         21   -1    0    0  505  502  0.00000000000E+00  0.00000000000E+00  0.11738751261E+03  0.11738751261E+03  0.00000000000E+00 0.  1.
          2   -1    0    0  504    0 -0.00000000000E+00 -0.00000000000E+00 -0.21436770475E+04  0.21436770475E+04  0.00000000000E+00 0. -1.
         21    1    1    2  503  502  0.30727215884E+02 -0.94642730283E+02  0.82761809903E+02  0.12942536602E+03  0.00000000000E+00 0.  1.
         21    1    1    2  504  503 -0.32443979168E+02 -0.29563527582E+02 -0.19107573142E+03  0.19605241412E+03  0.00000000000E+00 0. -1.
         21    1    1    2  505  501  0.21947204837E+02  0.17380131900E+03 -0.94252872898E+03  0.95867042473E+03  0.00000000000E+00 0. -1.
          2    1    1    2  501    0 -0.20230441553E+02 -0.49595061131E+02 -0.97544688434E+03  0.97691635519E+03  0.00000000000E+00 0. -1.
<scales pt_clust_3="14000.00000" pt_clust_4="43.89321" pt_clust_5="100.93562" pt_clust_6="74.00484"></scales>
<clustering>
<clus scale="   43.893">  2  4  1 -1</clus>
<clus scale="   74.005">  2  6  1 -1</clus>
<clus scale="  100.936">  2  5  1 -1</clus>
<clus scale="  100.936">  1  3  2 -1</clus>
</clustering>
</event>
<event>
 6    0  0.4796958E+002  0.1910452E+03  0.7546771E-02  0.1157522E+00
         21   -1    0    0  503  502  0.00000000000E+00  0.00000000000E+00  0.25437524986E+03  0.25437524986E+03  0.00000000000E+00 0.  1.
          2   -1    0    0  504    0 -0.00000000000E+00 -0.00000000000E+00 -0.19067336007E+04  0.19067336007E+04  0.00000000000E+00 0.  1.
         21    1    1    2  503  501  0.23784783784E+03 -0.93522827207E+02 -0.19047001564E+03  0.31874274898E+03  0.00000000000E+00 0.  1.
         21    1    1    2  504  505 -0.30185228056E+02 -0.94916833971E+02  0.24908986209E+00  0.99601282169E+02  0.00000000000E+00 0.  1.
         21    1    1    2  505  502 -0.76926874285E+02  0.54411257263E+02  0.11832065282E+03  0.15125510170E+03  0.00000000000E+00 0.  1.
          2    1    1    2  501    0 -0.13073573550E+03  0.13402840391E+03 -0.15804580779E+04  0.15915097178E+04  0.00000000000E+00 0.  1.
<scales pt_clust_3="14000.00000" pt_clust_4="95.36449" pt_clust_5="94.22488" pt_clust_6="191.04520"></scales>
<clustering>
<clus scale="   94.225">  1  5  2 -1</clus>
<clus scale="   95.364">  1  4  2 -1</clus>
<clus scale="  191.045">  2  6  1 -1</clus>
<clus scale="   94.225">  1  3  2 -1</clus>
</clustering>
</event>
<event>
 6    0  0.4796958E+002  0.1137132E+03  0.7546771E-02  0.1253844E+00
         21   -1    0    0  505  502  0.00000000000E+00  0.00000000000E+00  0.20429327497E+03  0.20429327497E+03  0.00000000000E+00 0. -1.
          2   -1    0    0  504    0 -0.00000000000E+00 -0.00000000000E+00 -0.13454555103E+04  0.13454555103E+04  0.00000000000E+00 0. -1.
         21    1    1    2  503  502  0.60081081412E+02 -0.69623058133E+02  0.11193726503E+03  0.14486910599E+03  0.00000000000E+00 0. -1.
         21    1    1    2  504  503  0.30062649727E+02  0.11845594763E+03 -0.41454502026E+03  0.43218416012E+03  0.00000000000E+00 0.  1.
         21    1    1    2  505  501 -0.46382648590E+02 -0.46291455716E+02  0.50394063670E+02  0.82666865283E+02  0.00000000000E+00 0. -1.
          2    1    1    2  501    0 -0.43761082549E+02 -0.25414337849E+01 -0.88894854380E+03  0.89002865389E+03  0.00000000000E+00 0. -1.
<scales pt_clust_3="113.71319" pt_clust_4="14000.00000" pt_clust_5="66.69817" pt_clust_6="43.83482"></scales>
<clustering>
<clus scale="   43.835">  2  6  1 -1</clus>
<clus scale="   66.698">  1  5  2 -1</clus>
<clus scale="  113.713">  1  3  2 -1</clus>
<clus scale="   66.698">  1  3  2 -1</clus>
</clustering>
</event>
<event>
 6    0  0.4796958E+002  0.7629283E+02  0.7546771E-02  0.1339914E+00
         -4   -1    0    0    0  501 -0.00000000000E+00  0.00000000000E+00  0.10563616616E+03  0.10563616616E+03  0.00000000000E+00 0.  1.
         21   -1    0    0  503  502  0.00000000000E+00 -0.00000000000E+00 -0.10327146176E+04  0.10327146176E+04  0.00000000000E+00 0. -1.
         21    1    1    2  503  504 -0.51723559324E+02  0.19525346142E+02 -0.60619630094E+02  0.82044532321E+02  0.00000000000E+00 0.  1.
         21    1    1    2  504  501  0.26147265612E+02  0.67562699331E+02 -0.17337586429E+03  0.18790313504E+03  0.00000000000E+00 0. -1.
         21    1    1    2  505  502  0.58684906572E+02 -0.56189816818E+02 -0.77261829493E+03  0.77687852553E+03  0.00000000000E+00 0. -1.
         -4    1    1    2    0  505 -0.33108612860E+02 -0.30898228655E+02  0.79535337821E+02  0.91524590913E+02  0.00000000000E+00 0.  1.
<scales pt_clust_3="76.29283" pt_clust_4="58.15708" pt_clust_5="14000.00000" pt_clust_6="45.28665"></scales>
<clustering>
<clus scale="   45.287">  1  6  2 -1</clus>
<clus scale="   58.157">  1  4  2 -1</clus>
<clus scale="   76.293">  1  3  2 -1</clus>
<clus scale="   76.293">  2  3  1 -1</clus>
</clustering>
</event>
<event>
 6    0  0.4796958E+002  0.6692506E+02  0.7546771E-02  0.1370873E+00
          2   -1    0    0  503    0 -0.00000000000E+00  0.00000000000E+00  0.23306354082E+04  0.23306354082E+04  0.00000000000E+00 0.  1.
         21   -1    0    0  504  502  0.00000000000E+00 -0.00000000000E+00 -0.12429033220E+03  0.12429033220E+03  0.00000000000E+00 0.  1.
         21    1    1    2  503  505  0.10045461942E+03  0.80331663028E+02  0.15955091977E+04  0.16006854490E+04  0.00000000000E+00 0.  1.
         21    1    1    2  504  501 -0.82071453251E+02 -0.49249361046E+02 -0.62808339377E+02  0.11448192214E+03  0.00000000000E+00 0.  1.
         21    1    1    2  505  502  0.30400432867E+02  0.10298544703E+02 -0.23439925181E+02  0.39745143527E+02  0.00000000000E+00 0.  1.
          2    1    1    2  501    0 -0.48783599032E+02 -0.41380846685E+02  0.69708414285E+03  0.70001322574E+03  0.00000000000E+00 0.  1.
<scales pt_clust_3="66.92506" pt_clust_4="14000.00000" pt_clust_5="32.09745" pt_clust_6="63.49916"></scales>
<clustering>
<clus scale="   32.097">  2  5  1 -1</clus>
<clus scale="   63.499">  1  6  2 -1</clus>
<clus scale="   66.925">  1  3  2 -1</clus>
<clus scale="   32.097">  2  3  1 -1</clus>
</clustering>
</event>
<event>
 6    0  0.4796958E+002  0.7409262E+02  0.7546771E-02  0.1346704E+00
          2   -1    0    0  503    0 -0.00000000000E+00  0.00000000000E+00  0.11093889718E+04  0.11093889718E+04  0.00000000000E+00 0.  1.
         21   -1    0    0  505  502  0.00000000000E+00 -0.00000000000E+00 -0.18898928811E+03  0.18898928811E+03  0.00000000000E+00 0.  1.
         21    1    1    2  503  504 -0.54636541672E+02 -0.10344475309E+03 -0.76872751588E+02  0.13998352962E+03  0.00000000000E+00 0.  1.
         21    1    1    2  504  502 -0.21481773659E+02  0.38485297046E+02 -0.55180672462E+02  0.70622172875E+02  0.00000000000E+00 0. -1.
         21    1    1    2  505  501  0.43915934805E+02 -0.11983259566E+01  0.13135901508E+02  0.45854086223E+02  0.00000000000E+00 0.  1.
          2    1    1    2  501    0  0.32202380526E+02  0.66157782004E+02  0.10393172063E+04  0.10419184712E+04  0.00000000000E+00 0.  1.
<scales pt_clust_3="14000.00000" pt_clust_4="38.44128" pt_clust_5="43.93228" pt_clust_6="74.09262"></scales>
<clustering>
<clus scale="   43.932">  2  5  1 -1</clus>
<clus scale="   38.441">  2  4  1 -1</clus>
<clus scale="   74.093">  1  6  2 -1</clus>
<clus scale="   43.932">  2  3  1 -1</clus>
</clustering>
</event>
<event>
 6    0  0.4796958E+002  0.7567033E+02  0.7546771E-02  0.1341808E+00
          1   -1    0    0  503    0 -0.00000000000E+00  0.00000000000E+00  0.13251413802E+03  0.13251413802E+03  0.00000000000E+00 0. -1.
         21   -1    0    0  505  502  0.00000000000E+00 -0.00000000000E+00 -0.80599404796E+03  0.80599404796E+03  0.00000000000E+00 0. -1.
         21    1    1    2  503  504 -0.49447338440E+02 -0.70452510674E+02  0.93500790581E+01  0.86579556002E+02  0.00000000000E+00 0. -1.
         21    1    1    2  504  502  0.10610396317E+03  0.36569515356E+02 -0.23363961814E+03  0.25919655017E+03  0.00000000000E+00 0. -1.
         21    1    1    2  505  501 -0.39025541135E+02 -0.21949098428E+02 -0.50786908613E+03  0.50983895931E+03  0.00000000000E+00 0. -1.
          1    1    1    2  501    0 -0.17631083597E+02  0.55832093746E+02  0.58678715273E+02  0.82893120504E+02  0.00000000000E+00 0. -1.
<scales pt_clust_3="75.67033" pt_clust_4="14000.00000" pt_clust_5="44.77450" pt_clust_6="58.20320"></scales>
<clustering>
<clus scale="   44.774">  2  5  1 -1</clus>
<clus scale="   58.203">  1  6  2 -1</clus>
<clus scale="   75.670">  1  3  2 -1</clus>
<clus scale="   44.774">  2  3  1 -1</clus>
</clustering>
</event>
<event>
 6    0  0.4796958E+002  0.1243263E+03  0.7546771E-02  0.1236126E+00
         21   -1    0    0  505  502  0.00000000000E+00  0.00000000000E+00  0.66604455315E+03  0.66604455315E+03  0.00000000000E+00 0.  1.
          2   -1    0    0  504    0 -0.00000000000E+00 -0.00000000000E+00 -0.25027033116E+04  0.25027033116E+04  0.00000000000E+00 0.  1.
         21    1    1    2  503  502 -0.73338033786E+02  0.52665712064E+02  0.35051602459E+03  0.36195804719E+03  0.00000000000E+00 0.  1.
         21    1    1    2  504  503  0.15615451385E+02  0.77330384450E+02  0.25371482966E+03  0.26569728164E+03  0.00000000000E+00 0.  1.
         21    1    1    2  505  501  0.28780975228E+02 -0.87593849002E+01  0.43877787163E+02  0.53200860569E+02  0.00000000000E+00 0. -1.
          2    1    1    2  501    0  0.28941607173E+02 -0.12123671161E+03 -0.24847673998E+04  0.24878916753E+04  0.00000000000E+00 0.  1.
<scales pt_clust_3="74.06574" pt_clust_4="14000.00000" pt_clust_5="30.08440" pt_clust_6="124.32627"></scales>
<clustering>
<clus scale="   30.084">  1  5  2 -1</clus>
<clus scale="   74.066">  1  3  2 -1</clus>
<clus scale="  124.326">  2  6  1 -1</clus>
<clus scale="   30.084">  1  3  2 -1</clus>
</clustering>
</event>
<event>
 6    0  0.4796958E+002  0.8982538E+02  0.7546771E-02  0.1303275E+00
         21   -1    0    0  503  502  0.00000000000E+00  0.00000000000E+00  0.84850849628E+03  0.84850849628E+03  0.00000000000E+00 0. -1.
          1   -1    0    0  504    0 -0.00000000000E+00 -0.00000000000E+00 -0.38964249685E+03  0.38964249685E+03  0.00000000000E+00 0.  1.
         21    1    1    2  503  505 -0.42590355718E+02  0.20458831560E+01  0.39601916694E+03  0.39830805242E+03  0.00000000000E+00 0. -1.
         21    1    1    2  504  502  0.39287652435E+02  0.84233384277E+02  0.12135445116E+03  0.15285838373E+03  0.00000000000E+00 0. -1.
         21    1    1    2  505  501  0.54075365897E+02 -0.93780396028E+02  0.30304882916E+03  0.32180351262E+03  0.00000000000E+00 0. -1.
          1    1    1    2  501    0 -0.50772662614E+02  0.75011285955E+01 -0.36155644783E+03  0.36518104437E+03  0.00000000000E+00 0.  1.
<scales pt_clust_3="42.63947" pt_clust_4="14000.00000" pt_clust_5="89.82538" pt_clust_6="51.49416"></scales>
<clustering>
<clus scale="   42.639">  1  3  2 -1</clus>
<clus scale="   51.494">  2  6  1 -1</clus>
<clus scale="   89.825">  1  5  2 -1</clus>
<clus scale="   42.639">  1  3  2 -1</clus>
</clustering>
</event>
<event>
 6    0  0.4796958E+002  0.2329238E+03  0.7546771E-02  0.1124599E+00
          2   -1    0    0  503    0 -0.00000000000E+00  0.00000000000E+00  0.54642444275E+03  0.54642444275E+03  0.00000000000E+00 0.  1.
         21   -1    0    0  505  502  0.00000000000E+00 -0.00000000000E+00 -0.21180169931E+03  0.21180169931E+03  0.00000000000E+00 0. -1.
         21    1    1    2  503  502  0.23661131913E+02 -0.40800620912E+02 -0.10719936108E+03  0.11711636455E+03  0.00000000000E+00 0. -1.
         21    1    1    2  504  501 -0.27958833497E+02  0.32092748646E+02  0.19938548459E+02  0.47001985073E+02  0.00000000000E+00 0.  1.
         21    1    1    2  505  504  0.14282719117E+03 -0.13058420128E+03  0.10211073316E+03  0.21881143021E+03  0.00000000000E+00 0. -1.
          2    1    1    2  501    0 -0.13852948959E+03  0.13929207355E+03  0.31977282290E+03  0.37529636223E+03  0.00000000000E+00 0.  1.
<scales pt_clust_3="47.16503" pt_clust_4="35.57409" pt_clust_5="220.02852" pt_clust_6="35.57409"></scales>
<clustering>
<clus scale="   35.574">  4  6 -1 -1</clus>
<clus scale="   47.165">  2  3  1 -1</clus>
<clus scale="  220.029">  2  5  1 -1</clus>
<clus scale="   47.165">  2  3  1 -1</clus>
</clustering>
</event>
<event>
 6    0  0.4796958E+002  0.4656907E+03  0.7546771E-02  0.1023144E+00
          2   -1    0    0  503    0 -0.00000000000E+00  0.00000000000E+00  0.12010836951E+04  0.12010836951E+04  0.00000000000E+00 0. -1.
         21   -1    0    0  505  502  0.00000000000E+00 -0.00000000000E+00 -0.45573368408E+03  0.45573368408E+03  0.00000000000E+00 0. -1.
         21    1    1    2  503  504  0.32093365749E+02 -0.68332978135E+01  0.42789096707E+02  0.53922025937E+02  0.00000000000E+00 0. -1.
         21    1    1    2  504  502  0.40333445616E+03 -0.27029348161E+03 -0.18657124332E+02  0.48588613689E+03  0.00000000000E+00 0. -1.
         21    1    1    2  505  501 -0.42434400965E+03  0.15195839047E+03  0.72855351284E+02  0.45658196764E+03  0.00000000000E+00 0. -1.
          2    1    1    2  501    0 -0.11083812262E+02  0.12516838896E+03  0.64836268740E+03  0.66042724876E+03  0.00000000000E+00 0. -1.
<scales pt_clust_3="32.81277" pt_clust_4="465.69072" pt_clust_5="14000.00000" pt_clust_6="121.49888"></scales>
<clustering>
<clus scale="   32.813">  1  3  2 -1</clus>
<clus scale="  121.499">  1  6  2 -1</clus>
<clus scale="  465.691">  2  4  1 -1</clus>
<clus scale="  465.691">  2  3  1 -1</clus>
</clustering>
</event>
<event>
 6    0  0.4796958E+002  0.9325473E+02  0.7546771E-02  0.1295156E+00
         21   -1    0    0  505  502  0.00000000000E+00  0.00000000000E+00  0.37182246842E+02  0.37182246842E+02  0.00000000000E+00 0. -1.
          2   -1    0    0  504    0 -0.00000000000E+00 -0.00000000000E+00 -0.17304052255E+04  0.17304052255E+04  0.00000000000E+00 0.  1.
         21    1    1    2  503  502  0.30693649541E+02  0.26600397710E+00  0.15270978779E+02  0.34283723151E+02  0.00000000000E+00 0. -1.
         21    1    1    2  504  503  0.52108495867E+02  0.74538618313E+02 -0.57358450947E+03  0.58074993798E+03  0.00000000000E+00 0.  1.
         21    1    1    2  505  501  0.93901875138E+01 -0.35120567012E+02 -0.44173538560E+02  0.57209539044E+02  0.00000000000E+00 0. -1.
          2    1    1    2  501    0 -0.92192332922E+02 -0.39684055279E+02 -0.10907359094E+04  0.10953442721E+04  0.00000000000E+00 0.  1.
<scales pt_clust_3="30.69480" pt_clust_4="14000.00000" pt_clust_5="43.29912" pt_clust_6="93.25473"></scales>
<clustering>
<clus scale="   30.695">  1  3  2 -1</clus>
<clus scale="   43.299">  1  5  2 -1</clus>
<clus scale="   93.255">  2  6  1 -1</clus>
<clus scale="   30.695">  1  3  2 -1</clus>
</clustering>
</event>
<event>
 6    0  0.4796958E+002  0.8555189E+02  0.7546771E-02  0.1313996E+00
         21   -1    0    0  504  502  0.00000000000E+00  0.00000000000E+00  0.11303124394E+03  0.11303124394E+03  0.00000000000E+00 0.  1.
          1   -1    0    0  505    0 -0.00000000000E+00 -0.00000000000E+00 -0.62940029130E+03  0.62940029130E+03  0.00000000000E+00 0.  1.
         21    1    1    2  503  502 -0.26108494345E+02 -0.61801002939E+02  0.57728574695E+02  0.88507659429E+02  0.00000000000E+00 0.  1.
         21    1    1    2  504  501 -0.78849600390E+01  0.10133796816E+03 -0.11849254816E+03  0.15611547122E+03  0.00000000000E+00 0.  1.
         21    1    1    2  505  503  0.24122124688E+02 -0.68933585056E+02 -0.44471223682E+02  0.85506758703E+02  0.00000000000E+00 0.  1.
          1    1    1    2  501    0  0.98713296960E+01  0.29396619837E+02 -0.41113385021E+03  0.41230164588E+03  0.00000000000E+00 0.  1.
<scales pt_clust_3="64.90382" pt_clust_4="14000.00000" pt_clust_5="85.55189" pt_clust_6="31.00975"></scales>
<clustering>
<clus scale="   31.010">  2  6  1 -1</clus>
<clus scale="   64.904">  1  3  2 -1</clus>
<clus scale="   85.552">  2  5  1 -1</clus>
<clus scale="   64.904">  1  3  2 -1</clus>
</clustering>
</event>
<event>
 6    0  0.4796958E+002  0.7142403E+02  0.7546771E-02  0.1355316E+00
          2   -1    0    0  502    0 -0.00000000000E+00  0.00000000000E+00  0.61186223439E+03  0.61186223439E+03  0.00000000000E+00 0.  1.
         21   -1    0    0  505  502  0.00000000000E+00 -0.00000000000E+00 -0.11352631456E+03  0.11352631456E+03  0.00000000000E+00 0.  1.
         21    1    1    2  503  504  0.25757484255E+02  0.40420405181E+02  0.11626057852E+01  0.47943808801E+02  0.00000000000E+00 0. -1.
         21    1    1    2  504  501  0.91294604137E+01 -0.95890066990E+02  0.13614828532E+03  0.16677711951E+03  0.00000000000E+00 0.  1.
         21    1    1    2  505  503  0.34526040884E+02  0.26732544616E+02 -0.64870097592E+02  0.78197225030E+02  0.00000000000E+00 0.  1.
          2    1    1    2  501    0 -0.69412985553E+02  0.28737117193E+02  0.42589512631E+03  0.43247039561E+03  0.00000000000E+00 0.  1.
<scales pt_clust_3="71.29732" pt_clust_4="14000.00000" pt_clust_5="43.66551" pt_clust_6="71.42403"></scales>
<clustering>
<clus scale="   43.666">  2  5  1 -1</clus>
<clus scale="   71.297">  2  3  1 -1</clus>
<clus scale="   71.424">  1  6  2 -1</clus>
<clus scale="   43.666">  2  3  1 -1</clus>
</clustering>
</event>
<event>
 6    0  0.4796958E+002  0.8121728E+02  0.7546771E-02  0.1325632E+00
          1   -1    0    0  505    0 -0.00000000000E+00  0.00000000000E+00  0.14103456959E+04  0.14103456959E+04  0.00000000000E+00 0. -1.
         21   -1    0    0  504  502  0.00000000000E+00 -0.00000000000E+00 -0.15227099542E+03  0.15227099542E+03  0.00000000000E+00 0. -1.
         21    1    1    2  503  502  0.75831044478E+02  0.41965198242E+02 -0.95006811929E+02  0.12859906486E+03  0.00000000000E+00 0. -1.
         21    1    1    2  504  501  0.21061757465E+02 -0.38099983662E+02  0.11242032581E+02  0.44962091579E+02  0.00000000000E+00 0. -1.
         21    1    1    2  505  503 -0.77014465188E+02  0.30476433036E+02  0.50291740137E+02  0.96898400115E+02  0.00000000000E+00 0. -1.
          1    1    1    2  501    0 -0.19878336755E+02 -0.34341647616E+02  0.12915477397E+04  0.12921571348E+04  0.00000000000E+00 0. -1.
<scales pt_clust_3="14000.00000" pt_clust_4="49.04887" pt_clust_5="81.21728" pt_clust_6="39.67993"></scales>
<clustering>
<clus scale="   39.680">  1  6  2 -1</clus>
<clus scale="   49.049">  1  4  2 -1</clus>
<clus scale="   81.217">  1  5  2 -1</clus>
<clus scale="   81.217">  2  3  1 -1</clus>
</clustering>
</event>
<event>
 6    0  0.4796958E+002  0.1522065E+03  0.7546771E-02  0.1197788E+00
         21   -1    0    0  504  502  0.00000000000E+00  0.00000000000E+00  0.10354446639E+03  0.10354446639E+03  0.00000000000E+00 0.  1.
          1   -1    0    0  503    0 -0.00000000000E+00 -0.00000000000E+00 -0.42906019264E+04  0.42906019264E+04  0.00000000000E+00 0. -1.
         21    1    1    2  503  505 -0.21127812712E+02  0.14818290087E+03 -0.89805186116E+02  0.17455522918E+03  0.00000000000E+00 0.  1.
         21    1    1    2  504  501  0.11648920349E+03 -0.11384804905E+03 -0.19993337963E+03  0.25788460422E+03  0.00000000000E+00 0. -1.
         21    1    1    2  505  502 -0.35692789691E+02  0.28779521431E+02  0.15138906878E+02  0.48284807043E+02  0.00000000000E+00 0.  1.
          1    1    1    2  501    0 -0.59668601090E+02 -0.63114373253E+02 -0.39124578011E+04  0.39134217524E+04  0.00000000000E+00 0. -1.
<scales pt_clust_3="14000.00000" pt_clust_4="152.20651" pt_clust_5="45.85015" pt_clust_6="86.87960"></scales>
<clustering>
<clus scale="   45.850">  1  5  2 -1</clus>
<clus scale="   86.880">  2  6  1 -1</clus>
<clus scale="  152.207">  2  4  1 -1</clus>
<clus scale="   45.850">  1  3  2 -1</clus>
</clustering>
</event>
<event>
 6    0  0.4796958E+002  0.1149033E+03  0.7546771E-02  0.1251750E+00
         -3   -1    0    0    0  501 -0.00000000000E+00  0.00000000000E+00  0.37273837410E+03  0.37273837410E+03  0.00000000000E+00 0.  1.
         21   -1    0    0  504  502  0.00000000000E+00 -0.00000000000E+00 -0.23633159619E+03  0.23633159619E+03  0.00000000000E+00 0.  1.
         21    1    1    2  503  501 -0.13145966104E+03 -0.11552830268E+02  0.15796808722E+02  0.13290842536E+03  0.00000000000E+00 0.  1.
         21    1    1    2  504  503  0.77653518021E+02 -0.43608955353E+02 -0.13313908524E+03  0.16018060391E+03  0.00000000000E+00 0.  1.
         21    1    1    2  505  502  0.43397229076E+02 -0.31940037271E+01 -0.10830719393E+02  0.44842230474E+02  0.00000000000E+00 0. -1.
         -3    1    1    2    0  505  0.10408913939E+02  0.58355789347E+02  0.26457977382E+03  0.27113871054E+03  0.00000000000E+00 0.  1.
<scales pt_clust_3="114.90328" pt_clust_4="14000.00000" pt_clust_5="43.51461" pt_clust_6="59.35115"></scales>
<clustering>
<clus scale="   43.515">  2  5  1 -1</clus>
<clus scale="   59.351">  1  6  2 -1</clus>
<clus scale="  114.903">  1  3  2 -1</clus>
<clus scale="   43.515">  2  3  1 -1</clus>
</clustering>
</event>
<event>
 6    0  0.4796958E+002  0.1194987E+03  0.7546771E-02  0.1243926E+00
         -1   -1    0    0    0  501 -0.00000000000E+00  0.00000000000E+00  0.83456861215E+03  0.83456861215E+03  0.00000000000E+00 0.  1.
         21   -1    0    0  504  502  0.00000000000E+00 -0.00000000000E+00 -0.63891719471E+02  0.63891719471E+02  0.00000000000E+00 0.  1.
         21    1    1    2  503  505  0.51894934720E+02 -0.45571932218E+02  0.30270069903E+03  0.31047962646E+03  0.00000000000E+00 0.  1.
         21    1    1    2  504  501 -0.13369662490E+03  0.49729925044E+02  0.76642106065E+02  0.16193166885E+03  0.00000000000E+00 0.  1.
         21    1    1    2  505  502  0.45112444863E+02  0.13148431098E+02  0.17689651351E+02  0.50208940308E+02  0.00000000000E+00 0.  1.
         -1    1    1    2    0  503  0.36689245321E+02 -0.17306423924E+02  0.37364443623E+03  0.37584009600E+03  0.00000000000E+00 0.  1.
<scales pt_clust_3="32.43575" pt_clust_4="111.75318" pt_clust_5="46.98951" pt_clust_6="32.43575"></scales>
<clustering>
<clus scale="   32.436">  3  6 -1 -1</clus>
<clus scale="   46.990">  2  5  1 -1</clus>
<clus scale="  111.753">  2  4  1 -1</clus>
<clus scale="   46.990">  2  3  1 -1</clus>
</clustering>
</event>
<event>
 6    0  0.4796958E+002  0.9395587E+02  0.7546771E-02  0.1293545E+00
          2   -1    0    0  502    0 -0.00000000000E+00  0.00000000000E+00  0.17651402389E+04  0.17651402389E+04  0.00000000000E+00 0. -1.
         21   -1    0    0  505  502  0.00000000000E+00 -0.00000000000E+00 -0.15047485260E+03  0.15047485260E+03  0.00000000000E+00 0. -1.
         21    1    1    2  503  501  0.71052813466E+01  0.49540238063E+02  0.34947312950E+03  0.35303850846E+03  0.00000000000E+00 0. -1.
         21    1    1    2  504  503  0.57068421155E+02  0.18742817405E+02  0.22916272693E+03  0.23690431256E+03  0.00000000000E+00 0. -1.
         21    1    1    2  505  504 -0.90443641770E+02 -0.33048043535E+02 -0.12835452148E+03  0.16045905616E+03  0.00000000000E+00 0. -1.
          2    1    1    2  501    0  0.26269939268E+02 -0.35235011932E+02  0.11643840513E+04  0.11652132143E+04  0.00000000000E+00 0. -1.
<scales pt_clust_3="36.63031" pt_clust_4="93.95587" pt_clust_5="14000.00000" pt_clust_6="43.95015"></scales>
<clustering>
<clus scale="   43.950">  1  6  2 -1</clus>
<clus scale="   36.630">  1  3  2 -1</clus>
<clus scale="   93.956">  1  4  2 -1</clus>
<clus scale="   93.956">  2  3  1 -1</clus>
</clustering>
</event>
<event>
 6    0  0.4796958E+002  0.1253431E+03  0.7546771E-02  0.1234534E+00
         21   -1    0    0  505  502  0.00000000000E+00  0.00000000000E+00  0.87727000458E+03  0.87727000458E+03  0.00000000000E+00 0. -1.
          1   -1    0    0  504    0 -0.00000000000E+00 -0.00000000000E+00 -0.32338664109E+04  0.32338664109E+04  0.00000000000E+00 0. -1.
         21    1    1    2  503  502  0.42190971593E+02  0.40934751654E+02  0.63211156185E+03  0.63483915963E+03  0.00000000000E+00 0. -1.
         21    1    1    2  504  503 -0.70023876560E+02  0.48829554534E+02 -0.58591727960E+01  0.85568677624E+02  0.00000000000E+00 0. -1.
         21    1    1    2  505  501  0.89926558189E+02  0.19568301879E+02  0.19224926045E+03  0.21314193030E+03  0.00000000000E+00 0. -1.
          1    1    1    2  501    0 -0.62093653223E+02 -0.10933260807E+03 -0.31750980558E+04  0.31775866479E+04  0.00000000000E+00 0. -1.
<scales pt_clust_3="58.78547" pt_clust_4="84.06903" pt_clust_5="14000.00000" pt_clust_6="125.34313"></scales>
<clustering>
<clus scale="   58.785">  1  3  2 -1</clus>
<clus scale="   84.069">  1  4  2 -1</clus>
<clus scale="  125.343">  2  6  1 -1</clus>
<clus scale="   58.785">  1  3  2 -1</clus>
</clustering>
</event>
<event>
 6    0  0.4796958E+002  0.1761495E+03  0.7546771E-02  0.1171582E+00
          1   -1    0    0  504    0 -0.00000000000E+00  0.00000000000E+00  0.38519011565E+03  0.38519011565E+03  0.00000000000E+00 0. -1.
         21   -1    0    0  503  502  0.00000000000E+00 -0.00000000000E+00 -0.12982153412E+04  0.12982153412E+04  0.00000000000E+00 0. -1.
         21    1    1    2  503  501 -0.74469345308E+02 -0.65105593666E+02 -0.10269851498E+04  0.10317378153E+04  0.00000000000E+00 0. -1.
         21    1    1    2  504  505 -0.46248093519E+02 -0.76681142588E+02 -0.20819949073E+03  0.22664049003E+03  0.00000000000E+00 0. -1.
         21    1    1    2  505  502  0.30236281032E+02 -0.11361923864E+02 -0.20984351186E+02  0.38518424153E+02  0.00000000000E+00 0.  1.
          1    1    1    2  501    0  0.90481157795E+02  0.15314866012E+03  0.34314376618E+03  0.38650872730E+03  0.00000000000E+00 0. -1.
<scales pt_clust_3="176.14955" pt_clust_4="88.70644" pt_clust_5="32.30056" pt_clust_6="14000.00000"></scales>
<clustering>
<clus scale="   32.301">  2  5  1 -1</clus>
<clus scale="   88.706">  2  4  1 -1</clus>
<clus scale="  176.150">  2  3  1 -1</clus>
<clus scale="   32.301">  2  3  1 -1</clus>
</clustering>
</event>
<event>
 6    0  0.4796958E+002  0.8048395E+02  0.7546771E-02  0.1327684E+00
         21   -1    0    0  505  502  0.00000000000E+00  0.00000000000E+00  0.20132556244E+03  0.20132556244E+03  0.00000000000E+00 0.  1.
          2   -1    0    0  504    0 -0.00000000000E+00 -0.00000000000E+00 -0.23524652671E+03  0.23524652671E+03  0.00000000000E+00 0.  1.
         21    1    1    2  503  501 -0.19540500751E+02 -0.11818227690E+03 -0.24995847335E+01  0.11981289441E+03  0.00000000000E+00 0.  1.
         21    1    1    2  504  502 -0.30209725161E+02  0.13205783548E+02  0.14960979649E+02  0.36205678083E+02  0.00000000000E+00 0.  1.
         21    1    1    2  505  503  0.43376680455E+02  0.30658859030E+02  0.10170554067E+03  0.11474109572E+03  0.00000000000E+00 0.  1.
          2    1    1    2  501    0  0.63735454576E+01  0.74317634321E+02 -0.14808789986E+03  0.16581242094E+03  0.00000000000E+00 0.  1.
<scales pt_clust_3="14000.00000" pt_clust_4="32.96999" pt_clust_5="46.02678" pt_clust_6="80.48395"></scales>
<clustering>
<clus scale="   32.970">  1  4  2 -1</clus>
<clus scale="   46.027">  1  5  2 -1</clus>
<clus scale="   80.484">  2  6  1 -1</clus>
<clus scale="   32.970">  1  3  2 -1</clus>
</clustering>
</event>
<event>
 6    0  0.4796958E+002  0.7640299E+02  0.7546771E-02  0.1339581E+00
          1   -1    0    0  503    0 -0.00000000000E+00  0.00000000000E+00  0.13854207688E+04  0.13854207688E+04  0.00000000000E+00 0.  1.
         21   -1    0    0  504  502  0.00000000000E+00 -0.00000000000E+00 -0.76417365226E+02  0.76417365226E+02  0.00000000000E+00 0.  1.
         21    1    1    2  503  502  0.95870779320E+01  0.13355675720E+03  0.99742534798E+03  0.10063730145E+04  0.00000000000E+00 0.  1.
         21    1    1    2  504  505  0.42465641849E+02 -0.67252905144E+01 -0.24955244056E+02  0.49712417725E+02  0.00000000000E+00 0.  1.
         21    1    1    2  505  501 -0.63617337168E+02 -0.61403206682E+02  0.31958903371E+02  0.94015375785E+02  0.00000000000E+00 0.  1.
          1    1    1    2  501    0  0.11564617387E+02 -0.65428260004E+02  0.30457439623E+03  0.31173732600E+03  0.00000000000E+00 0.  1.
<scales pt_clust_3="14000.00000" pt_clust_4="42.99489" pt_clust_5="76.40299" pt_clust_6="67.82897"></scales>
<clustering>
<clus scale="   42.995">  2  4  1 -1</clus>
<clus scale="   67.829">  1  6  2 -1</clus>
<clus scale="   76.403">  2  5  1 -1</clus>
<clus scale="   42.995">  2  3  1 -1</clus>
</clustering>
</event>
<event>
 6    0  0.4796958E+002  0.1198562E+03  0.7546771E-02  0.1243334E+00
          2   -1    0    0  503    0 -0.00000000000E+00  0.00000000000E+00  0.22292053679E+03  0.22292053679E+03  0.00000000000E+00 0.  1.
         21   -1    0    0  505  502  0.00000000000E+00 -0.00000000000E+00 -0.11595605144E+04  0.11595605144E+04  0.00000000000E+00 0.  1.
         21    1    1    2  503  502 -0.14072458978E+03  0.97636013221E+02 -0.16748201695E+02  0.17209504208E+03  0.00000000000E+00 0.  1.
         21    1    1    2  504  501  0.62130770162E+02 -0.68706727539E+02 -0.13491299522E+03  0.16365317990E+03  0.00000000000E+00 0.  1.
         21    1    1    2  505  504  0.84947180836E+02 -0.81097831509E+02 -0.90663528637E+03  0.91421027357E+03  0.00000000000E+00 0.  1.
          2    1    1    2  501    0 -0.63533612133E+01  0.52168545828E+02  0.12165650569E+03  0.13252255563E+03  0.00000000000E+00 0.  1.
<scales pt_clust_3="119.85621" pt_clust_4="86.31112" pt_clust_5="14000.00000" pt_clust_6="52.55399"></scales>
<clustering>
<clus scale="   52.554">  1  6  2 -1</clus>
<clus scale="   86.311">  1  4  2 -1</clus>
<clus scale="  119.856">  1  3  2 -1</clus>
<clus scale="  119.856">  2  3  1 -1</clus>
</clustering>
</event>
<event>
 6    0  0.4796958E+002  0.1015405E+03  0.7546771E-02  0.1277089E+00
          2   -1    0    0  503    0 -0.00000000000E+00  0.00000000000E+00  0.25769367969E+04  0.25769367969E+04  0.00000000000E+00 0.  1.
         21   -1    0    0  504  502  0.00000000000E+00 -0.00000000000E+00 -0.18411628193E+03  0.18411628193E+03  0.00000000000E+00 0. -1.
         21    1    1    2  503  502 -0.69122598847E+02 -0.54597216862E+02  0.36195745204E+03  0.37252112268E+03  0.00000000000E+00 0.  1.
         21    1    1    2  504  505 -0.95334819029E+01  0.71916720126E+02 -0.14695401592E+03  0.16388527910E+03  0.00000000000E+00 0. -1.
         21    1    1    2  505  501  0.10739379563E+03 -0.81092743323E+01  0.10112200277E+03  0.14773234959E+03  0.00000000000E+00 0.  1.
          2    1    1    2  501    0 -0.28737714881E+02 -0.92102289320E+01  0.20766950761E+04  0.20769143275E+04  0.00000000000E+00 0.  1.
<scales pt_clust_3="14000.00000" pt_clust_4="72.45698" pt_clust_5="101.54048" pt_clust_6="30.17755"></scales>
<clustering>
<clus scale="   30.178">  1  6  2 -1</clus>
<clus scale="   72.457">  2  4  1 -1</clus>
<clus scale="  101.540">  2  5  1 -1</clus>
<clus scale="   72.457">  2  3  1 -1</clus>
</clustering>
</event>
<event>
 6    0  0.4796958E+002  0.6615381E+02  0.7546771E-02  0.1373683E+00
         21   -1    0    0  503  502  0.00000000000E+00  0.00000000000E+00  0.20668933927E+03  0.20668933927E+03  0.00000000000E+00 0. -1.
          2   -1    0    0  505    0 -0.00000000000E+00 -0.00000000000E+00 -0.12707566344E+04  0.12707566344E+04  0.00000000000E+00 0. -1.
         21    1    1    2  503  504  0.20791220153E+02 -0.55285612124E+02  0.18385298766E+03  0.19310798744E+03  0.00000000000E+00 0. -1.
         21    1    1    2  504  501  0.38716761961E+02  0.77886648169E+02 -0.27143504085E+03  0.28503034754E+03  0.00000000000E+00 0.  1.
         21    1    1    2  505  502  0.13398257394E+02 -0.47746235659E+02 -0.52905039827E+02  0.72513168183E+02  0.00000000000E+00 0. -1.
          2    1    1    2  501    0 -0.72906239508E+02  0.25145199614E+02 -0.92358020214E+03  0.92679447053E+03  0.00000000000E+00 0. -1.
<scales pt_clust_3="59.25510" pt_clust_4="66.15381" pt_clust_5="49.59049" pt_clust_6="14000.00000"></scales>
<clustering>
<clus scale="   49.590">  2  5  1 -1</clus>
<clus scale="   59.255">  1  3  2 -1</clus>
<clus scale="   66.154">  1  4  2 -1</clus>
<clus scale="   59.255">  1  3  2 -1</clus>
</clustering>
</event>
<event>
 6    0  0.4796958E+002  0.2982194E+03  0.7546771E-02  0.1086134E+00
         21   -1    0    0  503  502  0.00000000000E+00  0.00000000000E+00  0.15531840570E+04  0.15531840570E+04  0.00000000000E+00 0. -1.
          1   -1    0    0  504    0 -0.00000000000E+00 -0.00000000000E+00 -0.51021700602E+03  0.51021700602E+03  0.00000000000E+00 0.  1.
         21    1    1    2  503  501 -0.30821609925E+02  0.45528084085E+02  0.25915617214E+02  0.60781553899E+02  0.00000000000E+00 0.  1.
         21    1    1    2  504  505 -0.25359117779E+03 -0.59293748446E+02  0.10542516835E+04  0.10859423770E+04  0.00000000000E+00 0. -1.
         21    1    1    2  505  502 -0.14329175653E+02  0.46499228458E+02  0.39073654782E+03  0.39375443276E+03  0.00000000000E+00 0.  1.
          1    1    1    2  501    0  0.29874196337E+03 -0.32733564097E+02 -0.42793679749E+03  0.52292269939E+03  0.00000000000E+00 0.  1.
<scales pt_clust_3="56.71998" pt_clust_4="14000.00000" pt_clust_5="48.65700" pt_clust_6="298.21937"></scales>
<clustering>
<clus scale="   48.657">  1  5  2 -1</clus>
<clus scale="   56.720">  1  3  2 -1</clus>
<clus scale="  298.219">  2  6  1 -1</clus>
<clus scale="   48.657">  1  3  2 -1</clus>
</clustering>
</event>
<event>
 6    0  0.4796958E+002  0.1043996E+03  0.7546771E-02  0.1271307E+00
         21   -1    0    0  505  502  0.00000000000E+00  0.00000000000E+00  0.29918037797E+03  0.29918037797E+03  0.00000000000E+00 0.  1.
         -4   -1    0    0    0  501 -0.00000000000E+00 -0.00000000000E+00 -0.21727672512E+03  0.21727672512E+03  0.00000000000E+00 0. -1.
         21    1    1    2  503  501 -0.78285559035E+02 -0.85150398732E+01  0.67849600771E+02  0.10394567323E+03  0.00000000000E+00 0.  1.
         21    1    1    2  504  503  0.53904874311E+02  0.88703857972E+00  0.83111956185E+02  0.99066238310E+02  0.00000000000E+00 0.  1.
         21    1    1    2  505  504  0.45730712704E+02 -0.51043486594E+02  0.10676375440E+03  0.12686699674E+03  0.00000000000E+00 0.  1.
         -4    1    1    2    0  502 -0.21350027979E+02  0.58671487887E+02 -0.17582165850E+03  0.18657819482E+03  0.00000000000E+00 0. -1.
<scales pt_clust_3="91.37370" pt_clust_4="44.78936" pt_clust_5="44.78936" pt_clust_6="62.43530"></scales>
<clustering>
<clus scale="   44.789">  4  5 -1 -1</clus>
<clus scale="   62.435">  2  6  1 -1</clus>
<clus scale="   91.374">  2  3  1 -1</clus>
<clus scale="  104.400">  1  3  2 -1</clus>
</clustering>
</event>
<event>
 6    0  0.4796958E+002  0.1484602E+03  0.7546771E-02  0.1202378E+00
         21   -1    0    0  504  502  0.00000000000E+00  0.00000000000E+00  0.43112580848E+04  0.43112580848E+04  0.00000000000E+00 0. -1.
         -4   -1    0    0    0  501 -0.00000000000E+00 -0.00000000000E+00 -0.28812385020E+02  0.28812385020E+02  0.00000000000E+00 0.  1.
         21    1    1    2  503  501  0.65368830223E+02  0.99435355663E+02  0.99306270498E+03  0.10001669910E+04  0.00000000000E+00 0. -1.
         21    1    1    2  504  503  0.10993722716E+02  0.37471788498E+02  0.24013100873E+04  0.24016276007E+04  0.00000000000E+00 0. -1.
         21    1    1    2  505  502 -0.40516915762E+02 -0.18374955053E+03  0.84379891396E+03  0.86452421885E+03  0.00000000000E+00 0. -1.
         -4    1    1    2    0  505 -0.35845637177E+02  0.46842406370E+02  0.44273993482E+02  0.73751659222E+02  0.00000000000E+00 0.  1.
<scales pt_clust_3="14000.00000" pt_clust_4="39.05121" pt_clust_5="148.46023" pt_clust_6="59.70510"></scales>
<clustering>
<clus scale="   39.051">  1  4  2 -1</clus>
<clus scale="   59.705">  2  6  1 -1</clus>
<clus scale="  148.460">  2  5  1 -1</clus>
<clus scale="   39.051">  1  3  2 -1</clus>
</clustering>
</event>
<event>
 6    0  0.4796958E+002  0.6741052E+02  0.7546771E-02  0.1369127E+00
          2   -1    0    0  504    0 -0.00000000000E+00  0.00000000000E+00  0.34557941126E+03  0.34557941126E+03  0.00000000000E+00 0. -1.
         21   -1    0    0  505  502  0.00000000000E+00 -0.00000000000E+00 -0.20582683752E+03  0.20582683752E+03  0.00000000000E+00 0. -1.
         21    1    1    2  503  502  0.26403326658E+02 -0.27097070932E+02 -0.35087752665E+02  0.51599780026E+02  0.00000000000E+00 0.  1.
         21    1    1    2  504  503 -0.75411107383E+02  0.29246470055E+02  0.48233125156E+02  0.94173379941E+02  0.00000000000E+00 0. -1.
         21    1    1    2  505  501  0.28184292094E+02  0.64546465707E+02 -0.12555994598E+03  0.14396492834E+03  0.00000000000E+00 0. -1.
          2    1    1    2  501    0  0.20823488631E+02 -0.66695864831E+02  0.25216714723E+03  0.26166816048E+03  0.00000000000E+00 0. -1.
<scales pt_clust_3="37.83367" pt_clust_4="67.41052" pt_clust_5="65.40942" pt_clust_6="14000.00000"></scales>
<clustering>
<clus scale="   37.834">  2  3  1 -1</clus>
<clus scale="   65.409">  2  5  1 -1</clus>
<clus scale="   67.411">  2  4  1 -1</clus>
<clus scale="   37.834">  2  3  1 -1</clus>
</clustering>
</event>
<event>
 6    0  0.4796958E+002  0.9361613E+02  0.7546771E-02  0.1294324E+00
          2   -1    0    0  505    0 -0.00000000000E+00  0.00000000000E+00  0.67361316146E+03  0.67361316146E+03  0.00000000000E+00 0. -1.
         21   -1    0    0  504  502  0.00000000000E+00 -0.00000000000E+00 -0.38448336378E+03  0.38448336378E+03  0.00000000000E+00 0. -1.
         21    1    1    2  503  502 -0.15685734850E+02 -0.42595252423E+02 -0.90739857021E+02  0.10145994017E+03  0.00000000000E+00 0. -1.
         21    1    1    2  504  501 -0.56872458957E+02  0.38182295201E+02 -0.67249049308E+02  0.95993744002E+02  0.00000000000E+00 0.  1.
         21    1    1    2  505  503  0.13016323655E+03 -0.24508221664E+02 -0.18373831437E+03  0.22650141113E+03  0.00000000000E+00 0. -1.
          2    1    1    2  501    0 -0.57605042741E+02  0.28921178886E+02  0.63085701838E+03  0.63414142995E+03  0.00000000000E+00 0. -1.
<scales pt_clust_3="45.39161" pt_clust_4="93.61613" pt_clust_5="14000.00000" pt_clust_6="64.42905"></scales>
<clustering>
<clus scale="   45.392">  2  3  1 -1</clus>
<clus scale="   64.429">  1  6  2 -1</clus>
<clus scale="   93.616">  2  4  1 -1</clus>
<clus scale="   45.392">  2  3  1 -1</clus>
</clustering>
</event>
<event>
 6    0  0.4796958E+002  0.6796340E+02  0.7546771E-02  0.1367159E+00
         21   -1    0    0  504  502  0.00000000000E+00  0.00000000000E+00  0.27590125364E+02  0.27590125364E+02  0.00000000000E+00 0.  1.
          2   -1    0    0  503    0 -0.00000000000E+00 -0.00000000000E+00 -0.25734020950E+04  0.25734020950E+04  0.00000000000E+00 0.  1.
         21    1    1    2  503  505 -0.63006398922E+02  0.64899441667E+01 -0.94657546630E+03  0.94869227839E+03  0.00000000000E+00 0.  1.
         21    1    1    2  504  501 -0.12931295828E+01  0.80450243610E+02 -0.69462700390E+02  0.10629666329E+03  0.00000000000E+00 0.  1.
         21    1    1    2  505  502  0.27085293717E+02 -0.50110362386E+02 -0.98592513993E+02  0.11386459226E+03  0.00000000000E+00 0.  1.
          2    1    1    2  501    0  0.37214234788E+02 -0.36829825391E+02 -0.14311812889E+04  0.14321386864E+04  0.00000000000E+00 0.  1.
<scales pt_clust_3="40.14224" pt_clust_4="67.96340" pt_clust_5="14000.00000" pt_clust_6="52.35776"></scales>
<clustering>
<clus scale="   52.358">  2  6  1 -1</clus>
<clus scale="   40.142">  2  3  1 -1</clus>
<clus scale="   67.963">  1  4  2 -1</clus>
<clus scale="   67.963">  1  3  2 -1</clus>
</clustering>
</event>
<event>
 6    0  0.4796958E+002  0.9297297E+02  0.7546771E-02  0.1295808E+00
         21   -1    0    0  505  502  0.00000000000E+00  0.00000000000E+00  0.33383461925E+03  0.33383461925E+03  0.00000000000E+00 0.  1.
          1   -1    0    0  504    0 -0.00000000000E+00 -0.00000000000E+00 -0.18225692311E+04  0.18225692311E+04  0.00000000000E+00 0. -1.
         21    1    1    2  503  502  0.35330509756E+01 -0.90554232675E+02  0.27370211009E+03  0.28831475261E+03  0.00000000000E+00 0.  1.
         21    1    1    2  504  503  0.75474927199E+02 -0.50581488018E+02 -0.19185727404E+03  0.21228321923E+03  0.00000000000E+00 0.  1.
         21    1    1    2  505  501 -0.44289802654E+02  0.12340656557E+03 -0.59089906678E+02  0.14381371324E+03  0.00000000000E+00 0.  1.
          1    1    1    2  501    0 -0.34718175521E+02  0.17729155126E+02 -0.15114895412E+04  0.15119921653E+04  0.00000000000E+00 0. -1.
<scales pt_clust_3="92.97297" pt_clust_4="65.75897" pt_clust_5="14000.00000" pt_clust_6="38.98300"></scales>
<clustering>
<clus scale="   38.983">  2  6  1 -1</clus>
<clus scale="   65.759">  2  4  1 -1</clus>
<clus scale="   92.973">  1  3  2 -1</clus>
<clus scale="   92.973">  1  3  2 -1</clus>
</clustering>
</event>
<event>
 6    0  0.4796958E+002  0.8144772E+02  0.7546771E-02  0.1324993E+00
         21   -1    0    0  505  502  0.00000000000E+00  0.00000000000E+00  0.22858844973E+03  0.22858844973E+03  0.00000000000E+00 0.  1.
          2   -1    0    0  503    0 -0.00000000000E+00 -0.00000000000E+00 -0.43907443465E+03  0.43907443465E+03  0.00000000000E+00 0.  1.
         21    1    1    2  503  504  0.76626957699E+02  0.35004316884E+02 -0.21763073416E+03  0.23336694131E+03  0.00000000000E+00 0.  1.
         21    1    1    2  504  502  0.37368620041E+02 -0.78266139594E+02  0.18971222704E+02  0.88780119743E+02  0.00000000000E+00 0.  1.
         21    1    1    2  505  501 -0.35202483500E+02  0.55763946518E+02  0.15068209198E+03  0.16448077522E+03  0.00000000000E+00 0.  1.
          2    1    1    2  501    0 -0.78793094240E+02 -0.12502123808E+02 -0.16250856544E+03  0.18103504810E+03  0.00000000000E+00 0.  1.
<scales pt_clust_3="14000.00000" pt_clust_4="37.50265" pt_clust_5="65.94568" pt_clust_6="81.44772"></scales>
<clustering>
<clus scale="   65.946">  1  5  2 -1</clus>
<clus scale="   37.503">  1  4  2 -1</clus>
<clus scale="   81.448">  1  6  2 -1</clus>
<clus scale="   65.946">  1  3  2 -1</clus>
</clustering>
</event>
<event>
 6    0  0.4796958E+002  0.8374882E+02  0.7546771E-02  0.1318737E+00
          2   -1    0    0  502    0 -0.00000000000E+00  0.00000000000E+00  0.13884582198E+04  0.13884582198E+04  0.00000000000E+00 0. -1.
         21   -1    0    0  504  502  0.00000000000E+00 -0.00000000000E+00 -0.26799417284E+03  0.26799417284E+03  0.00000000000E+00 0. -1.
         21    1    1    2  503  501  0.12797728775E+03 -0.54727473463E+02  0.78876571376E+02  0.15998373681E+03  0.00000000000E+00 0. -1.
         21    1    1    2  504  505 -0.18988319872E+02  0.32797718224E+02 -0.82782006383E+02  0.91044534120E+02  0.00000000000E+00 0. -1.
         21    1    1    2  505  503 -0.40198057715E+02  0.82442126289E+01 -0.13653617169E+03  0.14256920097E+03  0.00000000000E+00 0. -1.
          2    1    1    2  501    0 -0.68790910164E+02  0.13685542610E+02  0.12609056537E+04  0.12628549208E+04  0.00000000000E+00 0. -1.
<scales pt_clust_3="75.67310" pt_clust_4="34.48228" pt_clust_5="34.48228" pt_clust_6="70.13903"></scales>
<clustering>
<clus scale="   34.482">  4  5 -1 -1</clus>
<clus scale="   70.139">  1  6  2 -1</clus>
<clus scale="   75.673">  1  3  2 -1</clus>
<clus scale="   83.749">  2  3  1 -1</clus>
</clustering>
</event>
<event>
 6    0  0.4796958E+002  0.1632675E+03  0.7546771E-02  0.1185056E+00
         -1   -1    0    0    0  501 -0.00000000000E+00  0.00000000000E+00  0.64972540637E+03  0.64972540637E+03  0.00000000000E+00 0.  1.
         21   -1    0    0  501  502  0.00000000000E+00 -0.00000000000E+00 -0.15142825350E+03  0.15142825350E+03  0.00000000000E+00 0.  1.
         21    1    1    2  503  502  0.76593007713E+02 -0.29215313475E+02 -0.83916421461E+01  0.82404144494E+02  0.00000000000E+00 0.  1.
         21    1    1    2  504  505 -0.11343888878E+03  0.59467269594E+02  0.19418196759E+03  0.23261851641E+03  0.00000000000E+00 0. -1.
         21    1    1    2  505  503  0.74886763414E+02 -0.22755224897E+02 -0.67983335748E+02  0.10367044677E+03  0.00000000000E+00 0.  1.
         -1    1    1    2    0  504 -0.38040882343E+02 -0.74967312217E+01  0.38049016318E+03  0.38246055219E+03  0.00000000000E+00 0.  1.
<scales pt_clust_3="55.52517" pt_clust_4="153.33859" pt_clust_5="55.52517" pt_clust_6="38.77254"></scales>
<clustering>
<clus scale="   38.773">  1  6  2 -1</clus>
<clus scale="   55.525">  3  5 -1 -1</clus>
<clus scale="  153.339">  1  4  2 -1</clus>
<clus scale="  163.268">  2  3  1 -1</clus>
</clustering>
</event>
<event>
 6    0  0.4796958E+002  0.7273394E+02  0.7546771E-02  0.1351035E+00
         21   -1    0    0  504  502  0.00000000000E+00  0.00000000000E+00  0.65992072278E+02  0.65992072278E+02  0.00000000000E+00 0. -1.
          3   -1    0    0  505    0 -0.00000000000E+00 -0.00000000000E+00 -0.21897171755E+04  0.21897171755E+04  0.00000000000E+00 0. -1.
         21    1    1    2  503  501 -0.42559003692E+02 -0.71037309324E+02 -0.43452148517E+03  0.44234204999E+03  0.00000000000E+00 0.  1.
         21    1    1    2  504  503  0.59236059455E+02  0.41913551727E+02  0.38620727427E+02  0.82202294038E+02  0.00000000000E+00 0. -1.
         21    1    1    2  505  502 -0.36560680860E+02  0.56154440370E+02 -0.14060085218E+04  0.14076043365E+04  0.00000000000E+00 0. -1.
          3    1    1    2  501    0  0.19883625097E+02 -0.27030682773E+02 -0.32181582361E+03  0.32356056726E+03  0.00000000000E+00 0. -1.
<scales pt_clust_3="72.73394" pt_clust_4="14000.00000" pt_clust_5="41.78902" pt_clust_6="33.55617"></scales>
<clustering>
<clus scale="   33.556">  2  6  1 -1</clus>
<clus scale="   41.789">  2  5  1 -1</clus>
<clus scale="   72.734">  2  3  1 -1</clus>
<clus scale="   72.734">  1  3  2 -1</clus>
</clustering>
</event>
<event>
 6    0  0.4796958E+002  0.1410547E+03  0.7546771E-02  0.1211917E+00
         21   -1    0    0  504  502  0.00000000000E+00  0.00000000000E+00  0.55126962656E+02  0.55126962656E+02  0.00000000000E+00 0.  1.
          2   -1    0    0  503    0 -0.00000000000E+00 -0.00000000000E+00 -0.18768725767E+04  0.18768725767E+04  0.00000000000E+00 0.  1.
         21    1    1    2  503  505  0.43565657309E+02 -0.38264102669E+01 -0.25931271667E+03  0.26297470019E+03  0.00000000000E+00 0. -1.
         21    1    1    2  504  501 -0.86933278068E+02  0.85875858724E+02 -0.49075723199E+02  0.13168327363E+03  0.00000000000E+00 0.  1.
         21    1    1    2  505  502  0.11247982609E+03 -0.61232177816E+02 -0.36679219668E+03  0.38850689366E+03  0.00000000000E+00 0.  1.
          2    1    1    2  501    0 -0.69112205327E+02 -0.20817270640E+02 -0.11465649775E+04  0.11488346718E+04  0.00000000000E+00 0.  1.
<scales pt_clust_3="36.20312" pt_clust_4="126.72147" pt_clust_5="36.20312" pt_clust_6="72.17933"></scales>
<clustering>
<clus scale="   36.203">  3  5 -1 -1</clus>
<clus scale="   72.179">  2  6  1 -1</clus>
<clus scale="  126.721">  1  4  2 -1</clus>
<clus scale="  126.721">  1  3  2 -1</clus>
</clustering>
</event>
<event>
 6    0  0.4796958E+002  0.1155552E+03  0.7546771E-02  0.1250615E+00
          2   -1    0    0  503    0 -0.00000000000E+00  0.00000000000E+00  0.10693008524E+04  0.10693008524E+04  0.00000000000E+00 0. -1.
         21   -1    0    0  501  502  0.00000000000E+00 -0.00000000000E+00 -0.69720948635E+02  0.69720948635E+02  0.00000000000E+00 0. -1.
         21    1    1    2  503  505 -0.45907242093E+02  0.10242743406E+02  0.57344527013E+03  0.57537106853E+03  0.00000000000E+00 0. -1.
         21    1    1    2  504  502  0.10830365901E+03 -0.31364430396E+02  0.19038659869E+02  0.11434981687E+03  0.00000000000E+00 0. -1.
         21    1    1    2  505  504 -0.12385420074E+03  0.31454910998E+02  0.27577236544E+03  0.30394024414E+03  0.00000000000E+00 0. -1.
          2    1    1    2  501    0  0.61457783828E+02 -0.10333224007E+02  0.13132360827E+03  0.14536067144E+03  0.00000000000E+00 0. -1.
<scales pt_clust_3="47.03604" pt_clust_4="115.55518" pt_clust_5="14000.00000" pt_clust_6="49.19533"></scales>
<clustering>
<clus scale="   47.036">  1  3  2 -1</clus>
<clus scale="   49.195">  1  6  2 -1</clus>
<clus scale="  115.555">  2  4  1 -1</clus>
<clus scale="  115.555">  2  3  1 -1</clus>
</clustering>
</event>
<event>
 6    0  0.4796958E+002  0.1993173E+03  0.7546771E-02  0.1150316E+00
         21   -1    0    0  503  502  0.00000000000E+00  0.00000000000E+00  0.89025127519E+03  0.89025127519E+03  0.00000000000E+00 0. -1.
          4   -1    0    0  504    0 -0.00000000000E+00 -0.00000000000E+00 -0.22131835179E+03  0.22131835179E+03  0.00000000000E+00 0. -1.
         21    1    1    2  503  501  0.64162106947E+02  0.29196280286E+02  0.32426421181E+03  0.33183802948E+03  0.00000000000E+00 0. -1.
         21    1    1    2  504  505  0.15614551813E+03 -0.18396460234E+03  0.11556039954E+03  0.26754177933E+03  0.00000000000E+00 0. -1.
         21    1    1    2  505  502 -0.84750982140E+01  0.17349090556E+03  0.24343322400E+03  0.29904958811E+03  0.00000000000E+00 0. -1.
          4    1    1    2  501    0 -0.21183252686E+03 -0.18722583505E+02 -0.14324911955E+02  0.21314023006E+03  0.00000000000E+00 0. -1.
<scales pt_clust_3="70.49254" pt_clust_4="199.31729" pt_clust_5="188.91941" pt_clust_6="14000.00000"></scales>
<clustering>
<clus scale="   70.493">  1  3  2 -1</clus>
<clus scale="  188.919">  1  5  2 -1</clus>
<clus scale="  199.317">  1  4  2 -1</clus>
<clus scale="   70.493">  1  3  2 -1</clus>
</clustering>
</event>
<event>
 6    0  0.4796958E+002  0.1928652E+03  0.7546771E-02  0.1155902E+00
          2   -1    0    0  503    0 -0.00000000000E+00  0.00000000000E+00  0.97391525997E+02  0.97391525997E+02  0.00000000000E+00 0.  1.
         21   -1    0    0  504  502  0.00000000000E+00 -0.00000000000E+00 -0.23809035230E+04  0.23809035230E+04  0.00000000000E+00 0. -1.
         21    1    1    2  503  505  0.50326372109E+02  0.23015149070E+02  0.38624629057E+02  0.67485574653E+02  0.00000000000E+00 0.  1.
         21    1    1    2  504  501  0.85674451547E+02 -0.15778089157E+03 -0.51664108345E+03  0.54694874577E+03  0.00000000000E+00 0.  1.
         21    1    1    2  505  502 -0.39581566214E+02 -0.43526405185E+02 -0.14749106387E+04  0.14760835480E+04  0.00000000000E+00 0. -1.
          2    1    1    2  501    0 -0.96419257442E+02  0.17829214768E+03 -0.33058490391E+03  0.38777718064E+03  0.00000000000E+00 0.  1.
<scales pt_clust_3="55.33932" pt_clust_4="14000.00000" pt_clust_5="58.15999" pt_clust_6="192.86523"></scales>
<clustering>
<clus scale="   55.339">  1  3  2 -1</clus>
<clus scale="   58.160">  2  5  1 -1</clus>
<clus scale="  192.865">  1  6  2 -1</clus>
<clus scale="   58.160">  2  3  1 -1</clus>
</clustering>
</event>
<event>
 6    0  0.4796958E+002  0.2361187E+03  0.7546771E-02  0.1122406E+00
          3   -1    0    0  502    0 -0.00000000000E+00  0.00000000000E+00  0.15105838613E+03  0.15105838613E+03  0.00000000000E+00 0. -1.
         21   -1    0    0  505  502  0.00000000000E+00 -0.00000000000E+00 -0.11288771038E+04  0.11288771038E+04  0.00000000000E+00 0. -1.
         21    1    1    2  503  501 -0.12042013301E+03  0.15685653727E+03 -0.69406897586E+02  0.20957647566E+03  0.00000000000E+00 0. -1.
         21    1    1    2  504  503  0.43041647939E+02 -0.10681524391E+03 -0.38107655654E+03  0.39809725160E+03  0.00000000000E+00 0. -1.
         21    1    1    2  505  504  0.10925927375E+03 -0.49678275597E+02 -0.58992957873E+03  0.60201530531E+03  0.00000000000E+00 0. -1.
          3    1    1    2  501    0 -0.31880788675E+02 -0.36301776278E+00  0.62594315217E+02  0.70246457320E+02  0.00000000000E+00 0. -1.
<scales pt_clust_3="214.62903" pt_clust_4="96.76646" pt_clust_5="96.76646" pt_clust_6="31.88286"></scales>
<clustering>
<clus scale="   31.883">  1  6  2 -1</clus>
<clus scale="   96.766">  4  5 -1 -1</clus>
<clus scale="  214.629">  1  3  2 -1</clus>
<clus scale="  236.119">  2  3  1 -1</clus>
</clustering>
</event>
<event>
 6    0  0.5017090E+002  0.9529606E+02  0.7546771E-02  0.1290511E+00
         21   -1    0    0  505  502  0.00000000000E+00  0.00000000000E+00  0.46909426851E+03  0.46909426851E+03  0.00000000000E+00 0.  1.
          1   -1    0    0  504    0 -0.00000000000E+00 -0.00000000000E+00 -0.16915374331E+04  0.16915374331E+04  0.00000000000E+00 0.  1.
         21    1    1    2  503  502  0.76758922096E+02  0.63718812536E+02  0.37328796734E+03  0.38638830954E+03  0.00000000000E+00 0.  1.
         21    1    1    2  504  503  0.11469525521E+02 -0.61430629606E+02  0.54393406544E+02  0.82848747395E+02  0.00000000000E+00 0.  1.
         21    1    1    2  505  501 -0.45474589863E+02 -0.42732037819E+02 -0.28327921670E+02  0.68530551767E+02  0.00000000000E+00 0.  1.
          1    1    1    2  501    0 -0.42753857755E+02  0.40443854888E+02 -0.16217966168E+04  0.16228640929E+04  0.00000000000E+00 0.  1.
<scales pt_clust_3="95.29606" pt_clust_4="53.18371" pt_clust_5="14000.00000" pt_clust_6="58.85234"></scales>
<clustering>
<clus scale="   58.852">  2  6  1 -1</clus>
<clus scale="   53.184">  2  4  1 -1</clus>
<clus scale="   95.296">  1  3  2 -1</clus>
<clus scale="   95.296">  1  3  2 -1</clus>
</clustering>
</event>
<event>
 6    0  0.4796958E+002  0.8899325E+02  0.7546771E-02  0.1305308E+00
         21   -1    0    0  503  502  0.00000000000E+00  0.00000000000E+00  0.15394164012E+04  0.15394164012E+04  0.00000000000E+00 0. -1.
         -3   -1    0    0    0  501 -0.00000000000E+00 -0.00000000000E+00 -0.35331415300E+03  0.35331415300E+03  0.00000000000E+00 0.  1.
         21    1    1    2  503  504  0.30710151451E+02 -0.25299665678E+01  0.12368213533E+04  0.12372051463E+04  0.00000000000E+00 0. -1.
         21    1    1    2  504  501  0.45805030696E+02 -0.39777406127E+02 -0.15322175532E+02  0.62570855342E+02  0.00000000000E+00 0.  1.
         21    1    1    2  505  502 -0.10719508966E+02 -0.84072299239E+02  0.25541767264E+03  0.26911195973E+03  0.00000000000E+00 0. -1.
         -3    1    1    2    0  505 -0.65795673180E+02  0.12637967193E+03 -0.29081460218E+03  0.32384259282E+03  0.00000000000E+00 0.  1.
<scales pt_clust_3="30.81419" pt_clust_4="62.62305" pt_clust_5="88.99325" pt_clust_6="14000.00000"></scales>
<clustering>
<clus scale="   30.814">  1  3  2 -1</clus>
<clus scale="   62.623">  2  4  1 -1</clus>
<clus scale="   88.993">  1  5  2 -1</clus>
<clus scale="   30.814">  1  3  2 -1</clus>
</clustering>
</event>
<event>
 6    0  0.4796958E+002  0.1163763E+03  0.7546771E-02  0.1249198E+00
         21   -1    0    0  504  502  0.00000000000E+00  0.00000000000E+00  0.45979326043E+03  0.45979326043E+03  0.00000000000E+00 0.  1.
          4   -1    0    0  503    0 -0.00000000000E+00 -0.00000000000E+00 -0.62108147342E+03  0.62108147342E+03  0.00000000000E+00 0.  1.
         21    1    1    2  503  505 -0.49377696360E+01  0.94993583283E+02  0.48454301832E+01  0.95245160652E+02  0.00000000000E+00 0.  1.
         21    1    1    2  504  501  0.40239592765E+02 -0.23796514002E+03  0.27661055553E+03  0.36709676125E+03  0.00000000000E+00 0.  1.
         21    1    1    2  505  502 -0.30065231968E+02  0.29084558293E+02  0.76354400786E+02  0.87062185958E+02  0.00000000000E+00 0.  1.
          4    1    1    2  501    0 -0.52365911606E+01  0.11388699845E+03 -0.51909859949E+03  0.53147062599E+03  0.00000000000E+00 0.  1.
<scales pt_clust_3="99.24480" pt_clust_4="14000.00000" pt_clust_5="41.83097" pt_clust_6="116.37629"></scales>
<clustering>
<clus scale="   41.831">  1  5  2 -1</clus>
<clus scale="   99.245">  1  3  2 -1</clus>
<clus scale="  116.376">  2  6  1 -1</clus>
<clus scale="   41.831">  1  3  2 -1</clus>
</clustering>
</event>
<event>
 6    0  0.4796958E+002  0.9658782E+02  0.7546771E-02  0.1287639E+00
          2   -1    0    0  502    0 -0.00000000000E+00  0.00000000000E+00  0.23058736226E+04  0.23058736226E+04  0.00000000000E+00 0.  1.
         21   -1    0    0  503  502  0.00000000000E+00 -0.00000000000E+00 -0.37352052562E+02  0.37352052562E+02  0.00000000000E+00 0.  1.
         21    1    1    2  503  505  0.60968813972E+00  0.41321903024E+02 -0.77754482074E+01  0.42051503944E+02  0.00000000000E+00 0.  1.
         21    1    1    2  504  501  0.24539223727E+02 -0.12941246806E+03  0.11507520879E+04  0.11582660006E+04  0.00000000000E+00 0.  1.
         21    1    1    2  505  504 -0.99092059677E+01  0.61475687791E+02  0.10625335320E+03  0.12315529878E+03  0.00000000000E+00 0.  1.
          2    1    1    2  501    0 -0.15239705899E+02  0.26614877246E+02  0.10192915771E+04  0.10197528718E+04  0.00000000000E+00 0.  1.
<scales pt_clust_3="41.67848" pt_clust_4="96.58782" pt_clust_5="14000.00000" pt_clust_6="30.66921"></scales>
<clustering>
<clus scale="   30.669">  1  6  2 -1</clus>
<clus scale="   41.678">  2  3  1 -1</clus>
<clus scale="   96.588">  1  4  2 -1</clus>
<clus scale="   41.678">  2  3  1 -1</clus>
</clustering>
</event>
<event>
 6    0  0.4796958E+002  0.1147742E+03  0.7546771E-02  0.1251976E+00
          2   -1    0    0  505    0 -0.00000000000E+00  0.00000000000E+00  0.53683539110E+03  0.53683539110E+03  0.00000000000E+00 0.  1.
         21   -1    0    0  501  502  0.00000000000E+00 -0.00000000000E+00 -0.53384765260E+03  0.53384765260E+03  0.00000000000E+00 0. -1.
         21    1    1    2  503  504 -0.56699914938E+02  0.19159544391E+02 -0.95052397677E+01  0.60599654110E+02  0.00000000000E+00 0.  1.
         21    1    1    2  504  502  0.11458535771E+03  0.18453455278E+02 -0.48830573143E+03  0.50190917660E+03  0.00000000000E+00 0. -1.
         21    1    1    2  505  503 -0.32259925336E+01 -0.31011464642E+02  0.18752273868E+03  0.19009706860E+03  0.00000000000E+00 0.  1.
          2    1    1    2  501    0 -0.54659450243E+02 -0.66015350265E+01  0.31327597102E+03  0.31807714439E+03  0.00000000000E+00 0.  1.
<scales pt_clust_3="59.38712" pt_clust_4="114.77415" pt_clust_5="31.17881" pt_clust_6="14000.00000"></scales>
<clustering>
<clus scale="   31.179">  1  5  2 -1</clus>
<clus scale="   59.387">  1  3  2 -1</clus>
<clus scale="  114.774">  2  4  1 -1</clus>
<clus scale="  114.774">  2  3  1 -1</clus>
</clustering>
</event>
<event>
 6    0  0.4796958E+002  0.1278946E+03  0.7546771E-02  0.1230614E+00
         21   -1    0    0  504  502  0.00000000000E+00  0.00000000000E+00  0.10272930326E+02  0.10272930326E+02  0.00000000000E+00 0.  1.
          2   -1    0    0  503    0 -0.00000000000E+00 -0.00000000000E+00 -0.33196882672E+04  0.33196882672E+04  0.00000000000E+00 0. -1.
         21    1    1    2  503  505  0.51278887377E+02 -0.73712160120E+02 -0.64283726449E+03  0.64907838930E+03  0.00000000000E+00 0.  1.
         21    1    1    2  504  501 -0.52531069904E+02  0.68510078697E+02 -0.16215468303E+04  0.16238433628E+04  0.00000000000E+00 0. -1.
         21    1    1    2  505  502 -0.43267365088E+01 -0.52859298711E+02 -0.13357669670E+03  0.14372042308E+03  0.00000000000E+00 0.  1.
          2    1    1    2  501    0  0.55789190357E+01  0.58061380133E+02 -0.91145454545E+03  0.91331902237E+03  0.00000000000E+00 0. -1.
<scales pt_clust_3="116.12436" pt_clust_4="44.05153" pt_clust_5="53.03608" pt_clust_6="44.05153"></scales>
<clustering>
<clus scale="   44.052">  4  6 -1 -1</clus>
<clus scale="   53.036">  1  5  2 -1</clus>
<clus scale="  116.124">  1  3  2 -1</clus>
<clus scale="   53.036">  1  3  2 -1</clus>
</clustering>
</event>
<event>
 6    0  0.4796958E+002  0.4086601E+03  0.7546771E-02  0.1040822E+00
         21   -1    0    0  503  502  0.00000000000E+00  0.00000000000E+00  0.14717025160E+03  0.14717025160E+03  0.00000000000E+00 0.  1.
          2   -1    0    0  504    0 -0.00000000000E+00 -0.00000000000E+00 -0.22468362342E+04  0.22468362342E+04  0.00000000000E+00 0.  1.
         21    1    1    2  503  505  0.43276208814E+02 -0.23668031563E+01  0.34965517371E+02  0.55686797461E+02  0.00000000000E+00 0.  1.
         21    1    1    2  504  502  0.33605203800E+03  0.71705091541E+02 -0.29807627709E+03  0.45488686435E+03  0.00000000000E+00 0.  1.
         21    1    1    2  505  501 -0.17084680947E+03 -0.63201631391E+02 -0.53232169770E+03  0.56262729081E+03  0.00000000000E+00 0. -1.
          2    1    1    2  501    0 -0.20848143734E+03 -0.61366569934E+01 -0.13042335252E+04  0.13208055332E+04  0.00000000000E+00 0.  1.
<scales pt_clust_3="43.34088" pt_clust_4="375.92115" pt_clust_5="148.59189" pt_clust_6="148.59189"></scales>
<clustering>
<clus scale="   43.341">  1  3  2 -1</clus>
<clus scale="  148.592">  5  6 -1 -1</clus>
<clus scale="  375.921">  1  4  2 -1</clus>
<clus scale="   43.341">  1  3  2 -1</clus>
</clustering>
</event>
<event>
 6    0  0.4796958E+002  0.6160342E+02  0.7546771E-02  0.1391223E+00
          2   -1    0    0  503    0 -0.00000000000E+00  0.00000000000E+00  0.38809407003E+04  0.38809407003E+04  0.00000000000E+00 0. -1.
         21   -1    0    0  505  502  0.00000000000E+00 -0.00000000000E+00 -0.23420967136E+02  0.23420967136E+02  0.00000000000E+00 0. -1.
         21    1    1    2  503  504  0.37068224350E+02  0.23878573699E+02  0.12106584729E+03  0.12884556228E+03  0.00000000000E+00 0. -1.
         21    1    1    2  504  502 -0.21819233205E+02  0.25982284898E+02  0.51527583068E+02  0.61694812448E+02  0.00000000000E+00 0.  1.
         21    1    1    2  505  501 -0.13340428899E+02 -0.11052951027E+03  0.20429770768E+03  0.23266347596E+03  0.00000000000E+00 0. -1.
          2    1    1    2  501    0 -0.19085622462E+01  0.60668651672E+02  0.34806285952E+04  0.34811578168E+04  0.00000000000E+00 0. -1.
<scales pt_clust_3="43.77349" pt_clust_4="33.92872" pt_clust_5="61.60342" pt_clust_6="14000.00000"></scales>
<clustering>
<clus scale="   33.929">  2  4  1 -1</clus>
<clus scale="   43.773">  2  3  1 -1</clus>
<clus scale="   61.603">  2  5  1 -1</clus>
<clus scale="   33.929">  2  3  1 -1</clus>
</clustering>
</event>
<event>
 6    0  0.4796958E+002  0.6509631E+02  0.7546771E-02  0.1377610E+00
          2   -1    0    0  504    0 -0.00000000000E+00  0.00000000000E+00  0.12596746740E+04  0.12596746740E+04  0.00000000000E+00 0. -1.
         21   -1    0    0  501  502  0.00000000000E+00 -0.00000000000E+00 -0.33131136274E+04  0.33131136274E+04  0.00000000000E+00 0.  1.
         21    1    1    2  503  502  0.43027773395E+02  0.31933757490E+02 -0.29120200107E+04  0.29125129522E+04  0.00000000000E+00 0.  1.
         21    1    1    2  504  505  0.70389636214E+02 -0.61207150387E+02  0.48642804280E+02  0.10520046841E+03  0.00000000000E+00 0.  1.
         21    1    1    2  505  503 -0.97257516578E+02 -0.22630481224E+01 -0.36594624360E+03  0.37865657148E+03  0.00000000000E+00 0.  1.
          2    1    1    2  501    0 -0.16159893031E+02  0.31536441020E+02  0.11758844966E+04  0.11764183093E+04  0.00000000000E+00 0. -1.
<scales pt_clust_3="53.60042" pt_clust_4="65.09631" pt_clust_5="14000.00000" pt_clust_6="35.43571"></scales>
<clustering>
<clus scale="   35.436">  1  6  2 -1</clus>
<clus scale="   53.600">  2  3  1 -1</clus>
<clus scale="   65.096">  1  4  2 -1</clus>
<clus scale="   53.600">  2  3  1 -1</clus>
</clustering>
</event>
<event>
 6    0  0.4796958E+002  0.2222996E+03  0.7546771E-02  0.1132180E+00
          1   -1    0    0  505    0 -0.00000000000E+00  0.00000000000E+00  0.19420655336E+04  0.19420655336E+04  0.00000000000E+00 0.  1.
         21   -1    0    0  504  502  0.00000000000E+00 -0.00000000000E+00 -0.25825318434E+03  0.25825318434E+03  0.00000000000E+00 0. -1.
         21    1    1    2  503  501  0.13840578820E+03 -0.10769026868E+03 -0.14924428902E+03  0.23027638607E+03  0.00000000000E+00 0. -1.
         21    1    1    2  504  503  0.14116118676E+02 -0.47780963352E+02 -0.44517589736E+02  0.66813928647E+02  0.00000000000E+00 0. -1.
         21    1    1    2  505  502 -0.67455494692E+02  0.73394439727E+02  0.22099530291E+03  0.24243743823E+03  0.00000000000E+00 0. -1.
          1    1    1    2  501    0 -0.85066412187E+02  0.82076792306E+02  0.16565789251E+04  0.16607909649E+04  0.00000000000E+00 0.  1.
<scales pt_clust_3="30.54859" pt_clust_4="30.54859" pt_clust_5="99.68444" pt_clust_6="214.78449"></scales>
<clustering>
<clus scale="   30.549">  3  4 -1 -1</clus>
<clus scale="   99.684">  1  5  2 -1</clus>
<clus scale="  214.784">  1  6  2 -1</clus>
<clus scale="  222.300">  2  3  1 -1</clus>
</clustering>
</event>
<event>
 6    0  0.4796958E+002  0.3577334E+03  0.7546771E-02  0.1059485E+00
         21   -1    0    0  503  502  0.00000000000E+00  0.00000000000E+00  0.91687068334E+03  0.91687068334E+03  0.00000000000E+00 0.  1.
          2   -1    0    0  504    0 -0.00000000000E+00 -0.00000000000E+00 -0.94465895358E+03  0.94465895358E+03  0.00000000000E+00 0. -1.
         21    1    1    2  503  505  0.44735241881E+02  0.10893952951E+03  0.18784867645E+03  0.22171194871E+03  0.00000000000E+00 0.  1.
         21    1    1    2  504  502  0.34782216303E+03 -0.29507197140E+01  0.53989938078E+03  0.64224629638E+03  0.00000000000E+00 0.  1.
         21    1    1    2  505  501 -0.28466753842E+03  0.85317374712E+02 -0.11199062376E+03  0.31757922109E+03  0.00000000000E+00 0. -1.
          2    1    1    2  501    0 -0.10788986649E+03 -0.19130618451E+03 -0.64354570370E+03  0.67999217075E+03  0.00000000000E+00 0. -1.
<scales pt_clust_3="117.76699" pt_clust_4="14000.00000" pt_clust_5="357.73342" pt_clust_6="216.64176"></scales>
<clustering>
<clus scale="  117.767">  1  3  2 -1</clus>
<clus scale="  216.642">  2  6  1 -1</clus>
<clus scale="  357.733">  2  5  1 -1</clus>
<clus scale="  117.767">  1  3  2 -1</clus>
</clustering>
</event>
<event>
 6    0  0.4796958E+002  0.9122325E+02  0.7546771E-02  0.1299916E+00
          2   -1    0    0  503    0 -0.00000000000E+00  0.00000000000E+00  0.17093261539E+04  0.17093261539E+04  0.00000000000E+00 0.  1.
         21   -1    0    0  504  502  0.00000000000E+00 -0.00000000000E+00 -0.95722338073E+02  0.95722338073E+02  0.00000000000E+00 0.  1.
         21    1    1    2  503  505  0.44160106403E+01 -0.35006466418E+02  0.17192888789E+03  0.17551209739E+03  0.00000000000E+00 0.  1.
         21    1    1    2  504  501  0.56575845424E+02  0.13305143294E+03  0.47614781320E+03  0.49761455978E+03  0.00000000000E+00 0.  1.
         21    1    1    2  505  502 -0.55937898309E+02 -0.41978145755E+02 -0.67596819949E+02  0.97265324014E+02  0.00000000000E+00 0.  1.
          2    1    1    2  501    0 -0.50539577543E+01 -0.56066820763E+02  0.10331239347E+04  0.10346565108E+04  0.00000000000E+00 0.  1.
<scales pt_clust_3="35.28390" pt_clust_4="91.22325" pt_clust_5="70.10669" pt_clust_6="14000.00000"></scales>
<clustering>
<clus scale="   35.284">  1  3  2 -1</clus>
<clus scale="   70.107">  2  5  1 -1</clus>
<clus scale="   91.223">  2  4  1 -1</clus>
<clus scale="   70.107">  2  3  1 -1</clus>
</clustering>
</event>
<event>
 6    0  0.4796958E+002  0.6786760E+02  0.7546771E-02  0.1367498E+00
          2   -1    0    0  504    0 -0.00000000000E+00  0.00000000000E+00  0.30213629756E+03  0.30213629756E+03  0.00000000000E+00 0. -1.
         21   -1    0    0  503  502  0.00000000000E+00 -0.00000000000E+00 -0.11556698079E+03  0.11556698079E+03  0.00000000000E+00 0.  1.
         21    1    1    2  503  501  0.81645145150E+01 -0.57778989242E+02 -0.45746766895E+02  0.74147404381E+02  0.00000000000E+00 0.  1.
         21    1    1    2  504  505 -0.97469609198E+02  0.25957866429E+02  0.15363388403E+03  0.18378657695E+03  0.00000000000E+00 0. -1.
         21    1    1    2  505  502  0.53079841191E+02  0.27162398849E+02 -0.13046509422E+02  0.61036684545E+02  0.00000000000E+00 0. -1.
          2    1    1    2  501    0  0.36225253492E+02  0.46587239632E+01  0.91728709057E+02  0.98732612468E+02  0.00000000000E+00 0. -1.
<scales pt_clust_3="58.43803" pt_clust_4="14000.00000" pt_clust_5="67.86760" pt_clust_6="36.52359"></scales>
<clustering>
<clus scale="   36.524">  1  6  2 -1</clus>
<clus scale="   58.438">  2  3  1 -1</clus>
<clus scale="   67.868">  2  5  1 -1</clus>
<clus scale="   58.438">  2  3  1 -1</clus>
</clustering>
</event>
<event>
 6    0  0.4796958E+002  0.3473087E+03  0.7546771E-02  0.1063725E+00
         21   -1    0    0  505  502  0.00000000000E+00  0.00000000000E+00  0.25239566845E+04  0.25239566845E+04  0.00000000000E+00 0. -1.
          2   -1    0    0  503    0 -0.00000000000E+00 -0.00000000000E+00 -0.64504942699E+03  0.64504942699E+03  0.00000000000E+00 0. -1.
         21    1    1    2  503  502 -0.17830460920E+03 -0.20758210246E+03  0.44105706319E+03  0.51905124594E+03  0.00000000000E+00 0. -1.
         21    1    1    2  504  501  0.17247027886E+03  0.25226354526E+03 -0.13079411315E+03  0.33240035107E+03  0.00000000000E+00 0. -1.
         21    1    1    2  505  504 -0.39892153849E+02 -0.11967983860E+03  0.19358666882E+04  0.19399728045E+04  0.00000000000E+00 0.  1.
          2    1    1    2  501    0  0.45726484195E+02  0.74998395792E+02 -0.36722238078E+03  0.37758170993E+03  0.00000000000E+00 0. -1.
<scales pt_clust_3="347.30872" pt_clust_4="14000.00000" pt_clust_5="125.50871" pt_clust_6="87.83889"></scales>
<clustering>
<clus scale="   87.839">  2  6  1 -1</clus>
<clus scale="  125.509">  1  5  2 -1</clus>
<clus scale="  347.309">  1  3  2 -1</clus>
<clus scale="  125.509">  1  3  2 -1</clus>
</clustering>
</event>
<event>
 6    0  0.4796958E+002  0.1139506E+03  0.7546771E-02  0.1253424E+00
         -4   -1    0    0    0  501 -0.00000000000E+00  0.00000000000E+00  0.72809506802E+03  0.72809506802E+03  0.00000000000E+00 0. -1.
         21   -1    0    0  503  502  0.00000000000E+00 -0.00000000000E+00 -0.55929079350E+02  0.55929079350E+02  0.00000000000E+00 0.  1.
         21    1    1    2  503  501 -0.26966291980E+02 -0.10831305091E+03  0.35553624955E+02  0.11714503040E+03  0.00000000000E+00 0.  1.
         21    1    1    2  504  505  0.12088599142E+02  0.54512015639E+02  0.85163471358E+02  0.10183570559E+03  0.00000000000E+00 0. -1.
         21    1    1    2  505  502  0.40143774873E+02  0.30903808607E+02  0.98055030047E+02  0.11036918485E+03  0.00000000000E+00 0. -1.
         -4    1    1    2    0  504 -0.25266082035E+02  0.22897226662E+02  0.45339386231E+03  0.45467422653E+03  0.00000000000E+00 0. -1.
<scales pt_clust_3="107.45664" pt_clust_4="33.94197" pt_clust_5="33.94197" pt_clust_6="34.09777"></scales>
<clustering>
<clus scale="   34.098">  1  6  2 -1</clus>
<clus scale="   33.942">  4  5 -1 -1</clus>
<clus scale="  107.457">  2  3  1 -1</clus>
<clus scale="  107.457">  2  3  1 -1</clus>
</clustering>
</event>
<event>
 6    0  0.4796958E+002  0.1999418E+03  0.7546771E-02  0.1149788E+00
         21   -1    0    0  505  502  0.00000000000E+00  0.00000000000E+00  0.36662194471E+03  0.36662194471E+03  0.00000000000E+00 0.  1.
          1   -1    0    0  504    0 -0.00000000000E+00 -0.00000000000E+00 -0.14020251295E+04  0.14020251295E+04  0.00000000000E+00 0. -1.
         21    1    1    2  503  502 -0.62295698826E+02  0.11327536126E+01  0.12845950249E+03  0.14277212965E+03  0.00000000000E+00 0.  1.
         21    1    1    2  504  503 -0.26627868031E+03 -0.58599583968E+02  0.43710341299E+02  0.27613192637E+03  0.00000000000E+00 0.  1.
         21    1    1    2  505  501  0.13773403542E+03  0.11478281640E+02 -0.12634714668E+02  0.13878779297E+03  0.00000000000E+00 0. -1.
          1    1    1    2  501    0  0.19084034371E+03  0.45988548715E+02 -0.11949383140E+04  0.12109552253E+04  0.00000000000E+00 0. -1.
<scales pt_clust_3="62.30600" pt_clust_4="199.94184" pt_clust_5="121.29822" pt_clust_6="14000.00000"></scales>
<clustering>
<clus scale="   62.306">  1  3  2 -1</clus>
<clus scale="  121.298">  1  5  2 -1</clus>
<clus scale="  199.942">  1  4  2 -1</clus>
<clus scale="   62.306">  1  3  2 -1</clus>
</clustering>
</event>
<event>
 6    0  0.4796958E+002  0.1266345E+03  0.7546771E-02  0.1232537E+00
          1   -1    0    0  504    0 -0.00000000000E+00  0.00000000000E+00  0.13314988182E+04  0.13314988182E+04  0.00000000000E+00 0. -1.
         21   -1    0    0  505  502  0.00000000000E+00 -0.00000000000E+00 -0.70175316144E+02  0.70175316144E+02  0.00000000000E+00 0. -1.
         21    1    1    2  503  501 -0.84977284716E+02  0.12060464324E+03  0.82319396141E+02  0.16894703865E+03  0.00000000000E+00 0. -1.
         21    1    1    2  504  502  0.15013878529E+02  0.34602444886E+02  0.58914725918E+02  0.69954918844E+02  0.00000000000E+00 0. -1.
         21    1    1    2  505  503  0.15788016440E+02 -0.10742786494E+03  0.12712914688E+03  0.16718800081E+03  0.00000000000E+00 0. -1.
          1    1    1    2  501    0  0.54175389747E+02 -0.47779223186E+02  0.99296023312E+03  0.99558417604E+03  0.00000000000E+00 0. -1.
<scales pt_clust_3="14000.00000" pt_clust_4="37.71930" pt_clust_5="126.63448" pt_clust_6="72.00227"></scales>
<clustering>
<clus scale="   37.719">  2  4  1 -1</clus>
<clus scale="   72.002">  1  6  2 -1</clus>
<clus scale="  126.634">  2  5  1 -1</clus>
<clus scale="   37.719">  2  3  1 -1</clus>
</clustering>
</event>
<event>
 6    0  0.4796958E+002  0.2026313E+03  0.7546771E-02  0.1147538E+00
          2   -1    0    0  504    0 -0.00000000000E+00  0.00000000000E+00  0.24302430565E+04  0.24302430565E+04  0.00000000000E+00 0.  1.
         21   -1    0    0  505  502  0.00000000000E+00 -0.00000000000E+00 -0.23554639333E+02  0.23554639333E+02  0.00000000000E+00 0. -1.
         21    1    1    2  503  502 -0.18706732976E+02 -0.48996743468E+02  0.94037892588E+02  0.10767426792E+03  0.00000000000E+00 0. -1.
         21    1    1    2  504  503 -0.16926532661E+03  0.79774436184E+02  0.98431339748E+03  0.10019419025E+04  0.00000000000E+00 0. -1.
         21    1    1    2  505  501  0.12773214339E+03  0.28868577535E+01  0.65705888913E+03  0.66936553406E+03  0.00000000000E+00 0.  1.
          2    1    1    2  501    0  0.60239916195E+02 -0.33664550470E+02  0.67127823799E+03  0.67481599141E+03  0.00000000000E+00 0.  1.
<scales pt_clust_3="52.44638" pt_clust_4="187.07158" pt_clust_5="59.04351" pt_clust_6="59.04351"></scales>
<clustering>
<clus scale="   52.446">  2  3  1 -1</clus>
<clus scale="   59.044">  5  6 -1 -1</clus>
<clus scale="  187.072">  2  4  1 -1</clus>
<clus scale="   52.446">  2  3  1 -1</clus>
</clustering>
</event>
<event>
 6    0  0.4796958E+002  0.1095750E+03  0.7546771E-02  0.1261359E+00
         21   -1    0    0  505  502  0.00000000000E+00  0.00000000000E+00  0.25247499566E+04  0.25247499566E+04  0.00000000000E+00 0.  1.
         -2   -1    0    0    0  501 -0.00000000000E+00 -0.00000000000E+00 -0.53804420170E+02  0.53804420170E+02  0.00000000000E+00 0. -1.
         21    1    1    2  503  501 -0.57362257163E+01  0.43474512796E+02  0.68426393588E+03  0.68566761006E+03  0.00000000000E+00 0.  1.
         21    1    1    2  504  502  0.22534372130E+02 -0.11687302816E+03  0.11585217196E+04  0.11646199712E+04  0.00000000000E+00 0.  1.
         21    1    1    2  505  503 -0.47209840518E+02  0.32432290173E+02  0.66364967988E+03  0.66611674659E+03  0.00000000000E+00 0.  1.
         -2    1    1    2    0  504  0.30411694105E+02  0.40966225189E+02 -0.35489798936E+02  0.62150048858E+02  0.00000000000E+00 0. -1.
<scales pt_clust_3="37.98601" pt_clust_4="100.60799" pt_clust_5="37.98601" pt_clust_6="51.02061"></scales>
<clustering>
<clus scale="   37.986">  3  5 -1 -1</clus>
<clus scale="   51.021">  2  6  1 -1</clus>
<clus scale="  100.608">  2  4  1 -1</clus>
<clus scale="  109.575">  1  3  2 -1</clus>
</clustering>
</event>
<event>
 6    0  0.4796958E+002  0.1054833E+03  0.7546771E-02  0.1269170E+00
          4   -1    0    0  505    0 -0.00000000000E+00  0.00000000000E+00  0.21075514818E+03  0.21075514818E+03  0.00000000000E+00 0. -1.
         21   -1    0    0  504  502  0.00000000000E+00 -0.00000000000E+00 -0.20213158163E+04  0.20213158163E+04  0.00000000000E+00 0. -1.
         21    1    1    2  503  502  0.37340645160E+02 -0.10979891745E+02 -0.15727570397E+04  0.15732385666E+04  0.00000000000E+00 0. -1.
         21    1    1    2  504  501 -0.11365216308E+03  0.88625674582E+02 -0.40448205644E+03  0.42939149776E+03  0.00000000000E+00 0.  1.
         21    1    1    2  505  503  0.30254473472E+02 -0.66269084460E+02  0.20384488650E+02  0.75646890867E+02  0.00000000000E+00 0.  1.
          4    1    1    2  501    0  0.46057044444E+02 -0.11376698376E+02  0.14629393928E+03  0.15379400924E+03  0.00000000000E+00 0. -1.
<scales pt_clust_3="38.92148" pt_clust_4="105.48329" pt_clust_5="14000.00000" pt_clust_6="47.76659"></scales>
<clustering>
<clus scale="   38.921">  2  3  1 -1</clus>
<clus scale="   47.767">  1  6  2 -1</clus>
<clus scale="  105.483">  2  4  1 -1</clus>
<clus scale="   38.921">  2  3  1 -1</clus>
</clustering>
</event>
<event>
 6    0  0.4796958E+002  0.1091141E+03  0.7546771E-02  0.1262219E+00
          1   -1    0    0  504    0 -0.00000000000E+00  0.00000000000E+00  0.13947346454E+04  0.13947346454E+04  0.00000000000E+00 0.  1.
         21   -1    0    0  505  502  0.00000000000E+00 -0.00000000000E+00 -0.31113849301E+03  0.31113849301E+03  0.00000000000E+00 0.  1.
         21    1    1    2  503  501  0.61046079899E+02 -0.14665104434E+03 -0.49688142747E+02  0.16643937097E+03  0.00000000000E+00 0.  1.
         21    1    1    2  504  502 -0.81276572893E+02  0.62029129600E+02 -0.15220445634E+03  0.18335673085E+03  0.00000000000E+00 0.  1.
         21    1    1    2  505  503  0.39307041307E+02  0.13683432033E+02 -0.21623248174E+02  0.46902501747E+02  0.00000000000E+00 0.  1.
          1    1    1    2  501    0 -0.19076548313E+02  0.70938482710E+02  0.13071119997E+04  0.13091745348E+04  0.00000000000E+00 0.  1.
<scales pt_clust_3="14000.00000" pt_clust_4="109.11411" pt_clust_5="41.62067" pt_clust_6="73.47008"></scales>
<clustering>
<clus scale="   41.621">  2  5  1 -1</clus>
<clus scale="   73.470">  1  6  2 -1</clus>
<clus scale="  109.114">  2  4  1 -1</clus>
<clus scale="   41.621">  2  3  1 -1</clus>
</clustering>
</event>
<event>
 6    0  0.4796958E+002  0.7558148E+02  0.7546771E-02  0.1342080E+00
          1   -1    0    0  503    0 -0.00000000000E+00  0.00000000000E+00  0.51872076541E+03  0.51872076541E+03  0.00000000000E+00 0. -1.
         21   -1    0    0  504  502  0.00000000000E+00 -0.00000000000E+00 -0.40346403303E+03  0.40346403303E+03  0.00000000000E+00 0. -1.
         21    1    1    2  503  502 -0.69712848983E+02  0.15952338584E+02  0.19398151462E+02  0.74098898101E+02  0.00000000000E+00 0.  1.
         21    1    1    2  504  505 -0.68744421378E+02 -0.29172871907E+02 -0.32942246152E+03  0.33778100906E+03  0.00000000000E+00 0. -1.
         21    1    1    2  505  501  0.87781003984E+02  0.12443477860E+02  0.69671727261E+01  0.88931919453E+02  0.00000000000E+00 0.  1.
          1    1    1    2  501    0  0.50676266377E+02  0.77705546336E+00  0.41831386971E+03  0.42137297182E+03  0.00000000000E+00 0. -1.
<scales pt_clust_3="48.57687" pt_clust_4="75.58148" pt_clust_5="14000.00000" pt_clust_6="50.68222"></scales>
<clustering>
<clus scale="   50.682">  1  6  2 -1</clus>
<clus scale="   48.577">  1  3  2 -1</clus>
<clus scale="   75.581">  2  4  1 -1</clus>
<clus scale="   75.581">  2  3  1 -1</clus>
</clustering>
</event>
<event>
 6    0  0.4796958E+002  0.1240538E+03  0.7546771E-02  0.1236555E+00
          2   -1    0    0  504    0 -0.00000000000E+00  0.00000000000E+00  0.25958281159E+04  0.25958281159E+04  0.00000000000E+00 0. -1.
         21   -1    0    0  503  502  0.00000000000E+00 -0.00000000000E+00 -0.83083135419E+02  0.83083135419E+02  0.00000000000E+00 0.  1.
         21    1    1    2  503  501  0.91186436022E+02 -0.29581494546E+02  0.20561611597E+03  0.22686563883E+03  0.00000000000E+00 0.  1.
         21    1    1    2  504  505 -0.16021794663E+03 -0.66387813277E+02  0.22360404806E+03  0.28297685857E+03  0.00000000000E+00 0.  1.
         21    1    1    2  505  502  0.11617406329E+02  0.43383127398E+02 -0.30064678920E+02  0.54045765710E+02  0.00000000000E+00 0.  1.
          2    1    1    2  501    0  0.57414104280E+02  0.52586180425E+02  0.21135894953E+04  0.21150229882E+04  0.00000000000E+00 0. -1.
<scales pt_clust_3="124.05384" pt_clust_4="14000.00000" pt_clust_5="44.91169" pt_clust_6="78.51952"></scales>
<clustering>
<clus scale="   44.912">  2  5  1 -1</clus>
<clus scale="   78.520">  1  6  2 -1</clus>
<clus scale="  124.054">  1  3  2 -1</clus>
<clus scale="   44.912">  2  3  1 -1</clus>
</clustering>
</event>
<event>
 6    0  0.4796958E+002  0.8722391E+02  0.7546771E-02  0.1309717E+00
          2   -1    0    0  505    0 -0.00000000000E+00  0.00000000000E+00  0.15506286533E+04  0.15506286533E+04  0.00000000000E+00 0. -1.
         21   -1    0    0  503  502  0.00000000000E+00 -0.00000000000E+00 -0.13392877305E+03  0.13392877305E+03  0.00000000000E+00 0.  1.
         21    1    1    2  503  501 -0.22786433511E+02 -0.25559272142E+02  0.11212663309E+02  0.36030844607E+02  0.00000000000E+00 0.  1.
         21    1    1    2  504  502 -0.49480535410E+02  0.67292648575E+02 -0.58258398799E+02  0.10183646188E+03  0.00000000000E+00 0.  1.
         21    1    1    2  505  504  0.40207175648E+02 -0.96768366490E+02  0.26571561926E+02  0.10810541906E+03  0.00000000000E+00 0.  1.
          2    1    1    2  501    0  0.32059793274E+02  0.55034990057E+02  0.14371740538E+04  0.14385847008E+04  0.00000000000E+00 0. -1.
<scales pt_clust_3="34.24176" pt_clust_4="14000.00000" pt_clust_5="87.22391" pt_clust_6="63.49733"></scales>
<clustering>
<clus scale="   34.242">  2  3  1 -1</clus>
<clus scale="   63.497">  1  6  2 -1</clus>
<clus scale="   87.224">  1  5  2 -1</clus>
<clus scale="   34.242">  2  3  1 -1</clus>
</clustering>
</event>
<event>
 6    0  0.4796958E+002  0.2704162E+03  0.7546771E-02  0.1101042E+00
          2   -1    0    0  503    0 -0.00000000000E+00  0.00000000000E+00  0.65361050899E+03  0.65361050899E+03  0.00000000000E+00 0. -1.
         21   -1    0    0  505  502  0.00000000000E+00 -0.00000000000E+00 -0.26308881802E+03  0.26308881802E+03  0.00000000000E+00 0. -1.
         21    1    1    2  503  502  0.11394733874E+03  0.27933404966E+03  0.28878619301E+03  0.41762300293E+03  0.00000000000E+00 0. -1.
         21    1    1    2  504  501 -0.11591327027E+03 -0.23434253550E+03 -0.25915486807E+02  0.26272404272E+03  0.00000000000E+00 0. -1.
         21    1    1    2  505  504  0.69783175982E+02 -0.22575716970E+02 -0.16767522069E+02  0.75236323961E+02  0.00000000000E+00 0. -1.
          2    1    1    2  501    0 -0.67817244456E+02 -0.22415797188E+02  0.14441850683E+03  0.16111595739E+03  0.00000000000E+00 0. -1.
<scales pt_clust_3="14000.00000" pt_clust_4="270.41617" pt_clust_5="70.02384" pt_clust_6="71.42581"></scales>
<clustering>
<clus scale="   71.426">  1  6  2 -1</clus>
<clus scale="   70.024">  2  5  1 -1</clus>
<clus scale="  270.416">  2  4  1 -1</clus>
<clus scale="   70.024">  2  3  1 -1</clus>
</clustering>
</event>
<event>
 6    0  0.4796958E+002  0.9247147E+02  0.7546771E-02  0.1296975E+00
         -4   -1    0    0    0  501 -0.00000000000E+00  0.00000000000E+00  0.46047444490E+03  0.46047444490E+03  0.00000000000E+00 0. -1.
         21   -1    0    0  504  502  0.00000000000E+00 -0.00000000000E+00 -0.53608892761E+03  0.53608892761E+03  0.00000000000E+00 0. -1.
         21    1    1    2  503  502  0.12461275513E+03 -0.64355150639E+01 -0.27558131608E+03  0.30251415895E+03  0.00000000000E+00 0. -1.
         21    1    1    2  504  501 -0.31688663409E+02  0.30659437754E+02 -0.22649217988E+03  0.23074418749E+03  0.00000000000E+00 0. -1.
         21    1    1    2  505  503 -0.58982634393E+02 -0.28158666624E+02  0.42797126976E+02  0.78124616756E+02  0.00000000000E+00 0.  1.
         -4    1    1    2    0  505 -0.33941457325E+02  0.39347439339E+01  0.38366188628E+03  0.38518040931E+03  0.00000000000E+00 0. -1.
<scales pt_clust_3="92.47147" pt_clust_4="44.85490" pt_clust_5="14000.00000" pt_clust_6="34.16877"></scales>
<clustering>
<clus scale="   34.169">  1  6  2 -1</clus>
<clus scale="   44.855">  2  4  1 -1</clus>
<clus scale="   92.471">  2  3  1 -1</clus>
<clus scale="   44.855">  2  3  1 -1</clus>
</clustering>
</event>
<event>
 6    0  0.4796958E+002  0.1354433E+03  0.7546771E-02  0.1219595E+00
         21   -1    0    0  504  502  0.00000000000E+00  0.00000000000E+00  0.11776437111E+03  0.11776437111E+03  0.00000000000E+00 0. -1.
          2   -1    0    0  503    0 -0.00000000000E+00 -0.00000000000E+00 -0.42258262456E+03  0.42258262456E+03  0.00000000000E+00 0. -1.
         21    1    1    2  503  505 -0.18507919644E+02  0.80686684365E+02 -0.14625652099E+03  0.16805907907E+03  0.00000000000E+00 0. -1.
         21    1    1    2  504  501 -0.39315708604E+02 -0.12950938411E+02  0.35073570773E+01  0.41542187020E+02  0.00000000000E+00 0. -1.
         21    1    1    2  505  502 -0.30455452497E-01 -0.16930842514E+03 -0.76000077523E+02  0.18558382347E+03  0.00000000000E+00 0. -1.
          2    1    1    2  501    0  0.57854083701E+02  0.10157267918E+03 -0.86069012010E+02  0.14516190611E+03  0.00000000000E+00 0. -1.
<scales pt_clust_3="82.47843" pt_clust_4="41.39386" pt_clust_5="135.44334" pt_clust_6="14000.00000"></scales>
<clustering>
<clus scale="   41.394">  1  4  2 -1</clus>
<clus scale="   82.478">  2  3  1 -1</clus>
<clus scale="  135.443">  2  5  1 -1</clus>
<clus scale="   41.394">  1  3  2 -1</clus>
</clustering>
</event>
<event>
 6    0  0.4796958E+002  0.8622906E+02  0.7546771E-02  0.1312249E+00
         21   -1    0    0  505  502  0.00000000000E+00  0.00000000000E+00  0.36468861692E+02  0.36468861692E+02  0.00000000000E+00 0.  1.
          2   -1    0    0  504    0 -0.00000000000E+00 -0.00000000000E+00 -0.16984344428E+04  0.16984344428E+04  0.00000000000E+00 0.  1.
         21    1    1    2  503  501 -0.15745191234E+02  0.10504560563E+03 -0.15781984293E+03  0.19023562530E+03  0.00000000000E+00 0.  1.
         21    1    1    2  504  502  0.40624817391E+02 -0.68967680665E+02 -0.92503807424E+02  0.12232690282E+03  0.00000000000E+00 0.  1.
         21    1    1    2  505  503  0.31944022593E+02  0.30408111787E+02 -0.12183169827E+03  0.12956865572E+03  0.00000000000E+00 0.  1.
          2    1    1    2  501    0 -0.56823648751E+02 -0.66486036752E+02 -0.12898102325E+04  0.12927721207E+04  0.00000000000E+00 0.  1.
<scales pt_clust_3="14000.00000" pt_clust_4="77.99046" pt_clust_5="44.10299" pt_clust_6="86.22906"></scales>
<clustering>
<clus scale="   44.103">  1  5  2 -1</clus>
<clus scale="   77.990">  1  4  2 -1</clus>
<clus scale="   86.229">  2  6  1 -1</clus>
<clus scale="   44.103">  1  3  2 -1</clus>
</clustering>
</event>
<event>
 6    0  0.4796958E+002  0.1711458E+03  0.7546771E-02  0.1176658E+00
          2   -1    0    0  503    0 -0.00000000000E+00  0.00000000000E+00  0.16484799263E+04  0.16484799263E+04  0.00000000000E+00 0. -1.
         21   -1    0    0  505  502  0.00000000000E+00 -0.00000000000E+00 -0.10962550504E+04  0.10962550504E+04  0.00000000000E+00 0.  1.
         21    1    1    2  503  502  0.17294360433E+02  0.31928737972E+02 -0.62655543240E+03  0.62760676309E+03  0.00000000000E+00 0.  1.
         21    1    1    2  504  501  0.53521417153E+02 -0.19666363725E+03 -0.10097733498E+03  0.22745889846E+03  0.00000000000E+00 0.  1.
         21    1    1    2  505  504 -0.39014052023E+02  0.13933314621E+03 -0.28751375428E+03  0.32186950895E+03  0.00000000000E+00 0.  1.
          2    1    1    2  501    0 -0.31801725563E+02  0.25401753060E+02  0.15672713976E+04  0.15677998063E+04  0.00000000000E+00 0. -1.
<scales pt_clust_3="36.31170" pt_clust_4="171.14581" pt_clust_5="14000.00000" pt_clust_6="40.70495"></scales>
<clustering>
<clus scale="   36.312">  2  3  1 -1</clus>
<clus scale="   40.705">  1  6  2 -1</clus>
<clus scale="  171.146">  1  4  2 -1</clus>
<clus scale="   36.312">  2  3  1 -1</clus>
</clustering>
</event>
<event>
 6    0  0.4796958E+002  0.1058303E+03  0.7546771E-02  0.1268492E+00
         21   -1    0    0  504  502  0.00000000000E+00  0.00000000000E+00  0.38506439775E+03  0.38506439775E+03  0.00000000000E+00 0.  1.
         -1   -1    0    0    0  501 -0.00000000000E+00 -0.00000000000E+00 -0.23515142253E+03  0.23515142253E+03  0.00000000000E+00 0. -1.
         21    1    1    2  503  502 -0.33546466792E+02  0.12189433373E+03  0.24743938989E+03  0.27786659695E+03  0.00000000000E+00 0.  1.
         21    1    1    2  504  505 -0.22295301534E+02 -0.30458470767E+02  0.10065792475E+03  0.10750263591E+03  0.00000000000E+00 0.  1.
         21    1    1    2  505  501 -0.22408204092E+01 -0.35096383763E+02 -0.23403952683E+02  0.42243608162E+02  0.00000000000E+00 0. -1.
         -1    1    1    2    0  503  0.58082588736E+02 -0.56339479198E+02 -0.17478038674E+03  0.19260297926E+03  0.00000000000E+00 0. -1.
<scales pt_clust_3="14000.00000" pt_clust_4="38.24927" pt_clust_5="35.16785" pt_clust_6="105.83026"></scales>
<clustering>
<clus scale="   35.168">  2  5  1 -1</clus>
<clus scale="   38.249">  1  4  2 -1</clus>
<clus scale="  105.830">  2  6  1 -1</clus>
<clus scale="   38.249">  1  3  2 -1</clus>
</clustering>
</event>
<event>
 6    0  0.4796958E+002  0.1556497E+03  0.7546771E-02  0.1193698E+00
         21   -1    0    0  503  502  0.00000000000E+00  0.00000000000E+00  0.52969166197E+03  0.52969166197E+03  0.00000000000E+00 0. -1.
          2   -1    0    0  504    0 -0.00000000000E+00 -0.00000000000E+00 -0.11467063886E+04  0.11467063886E+04  0.00000000000E+00 0.  1.
         21    1    1    2  503  501  0.52107952432E+02  0.75648284099E+02 -0.17314670707E+02  0.93475662156E+02  0.00000000000E+00 0.  1.
         21    1    1    2  504  505 -0.42543308789E+02  0.79502921803E+02 -0.38777211961E+03  0.39811790270E+03  0.00000000000E+00 0. -1.
         21    1    1    2  505  502  0.61149551723E+02 -0.14547359490E+03  0.47173339323E+03  0.49742761159E+03  0.00000000000E+00 0. -1.
          2    1    1    2  501    0 -0.70714195366E+02 -0.96776110011E+01 -0.68366132951E+03  0.68737687410E+03  0.00000000000E+00 0.  1.
<scales pt_clust_3="86.31535" pt_clust_4="155.64971" pt_clust_5="14000.00000" pt_clust_6="71.37334"></scales>
<clustering>
<clus scale="   71.373">  2  6  1 -1</clus>
<clus scale="   86.315">  2  3  1 -1</clus>
<clus scale="  155.650">  2  4  1 -1</clus>
<clus scale="  155.650">  1  3  2 -1</clus>
</clustering>
</event>
<event>
 6    0  0.4796958E+002  0.7887927E+02  0.7546771E-02  0.1332262E+00
         -1   -1    0    0    0  501 -0.00000000000E+00  0.00000000000E+00  0.20778065843E+03  0.20778065843E+03  0.00000000000E+00 0. -1.
         21   -1    0    0  503  502  0.00000000000E+00 -0.00000000000E+00 -0.23033457957E+03  0.23033457957E+03  0.00000000000E+00 0. -1.
         21    1    1    2  503  504  0.33251024619E+02  0.91554316021E+01 -0.15236777649E+03  0.15622225155E+03  0.00000000000E+00 0. -1.
         21    1    1    2  504  505 -0.59073800976E+01 -0.10463628736E+03  0.35457805172E+02  0.11063862671E+03  0.00000000000E+00 0. -1.
         21    1    1    2  505  501  0.36831332932E+02  0.50576606420E+02  0.56324110702E+02  0.84183998770E+02  0.00000000000E+00 0. -1.
         -1    1    1    2    0  502 -0.64174977453E+02  0.44904249339E+02  0.38031939477E+02  0.87070360974E+02  0.00000000000E+00 0. -1.
<scales pt_clust_3="34.48844" pt_clust_4="78.87927" pt_clust_5="67.62263" pt_clust_6="14000.00000"></scales>
<clustering>
<clus scale="   34.488">  2  3  1 -1</clus>
<clus scale="   67.623">  1  5  2 -1</clus>
<clus scale="   78.879">  1  4  2 -1</clus>
<clus scale="   34.488">  2  3  1 -1</clus>
</clustering>
</event>
<event>
 6    0  0.4796958E+002  0.9589941E+02  0.7546771E-02  0.1289163E+00
         21   -1    0    0  503  502  0.00000000000E+00  0.00000000000E+00  0.12761512041E+04  0.12761512041E+04  0.00000000000E+00 0.  1.
          1   -1    0    0  505    0 -0.00000000000E+00 -0.00000000000E+00 -0.35171689712E+03  0.35171689712E+03  0.00000000000E+00 0. -1.
         21    1    1    2  503  504 -0.90642163632E+02  0.47663077629E+02  0.65202753137E+03  0.66002096365E+03  0.00000000000E+00 0.  1.
         21    1    1    2  504  501  0.89593587134E+01 -0.11149062919E+03  0.37982291999E+03  0.39594934153E+03  0.00000000000E+00 0.  1.
         21    1    1    2  505  502  0.25837834138E+02  0.32441425201E+02  0.22732743372E+03  0.23107964398E+03  0.00000000000E+00 0.  1.
          1    1    1    2  501    0  0.55844970781E+02  0.31386126363E+02 -0.33474357810E+03  0.34081815206E+03  0.00000000000E+00 0. -1.
<scales pt_clust_3="95.89941" pt_clust_4="14000.00000" pt_clust_5="41.47336" pt_clust_6="64.17199"></scales>
<clustering>
<clus scale="   41.473">  1  5  2 -1</clus>
<clus scale="   64.172">  2  6  1 -1</clus>
<clus scale="   95.899">  1  3  2 -1</clus>
<clus scale="   41.473">  1  3  2 -1</clus>
</clustering>
</event>
<event>
 6    0  0.4796958E+002  0.1681313E+03  0.7546771E-02  0.1179811E+00
          2   -1    0    0  504    0 -0.00000000000E+00  0.00000000000E+00  0.35230444025E+03  0.35230444025E+03  0.00000000000E+00 0. -1.
         21   -1    0    0  505  502  0.00000000000E+00 -0.00000000000E+00 -0.56943489527E+03  0.56943489527E+03  0.00000000000E+00 0. -1.
         21    1    1    2  503  501  0.81965230354E+02 -0.28336275609E+02 -0.15054202411E+02  0.88022000162E+02  0.00000000000E+00 0. -1.
         21    1    1    2  504  502  0.12487504716E+03  0.73517470950E+02  0.75215635997E+02  0.16326661580E+03  0.00000000000E+00 0. -1.
         21    1    1    2  505  503 -0.14280368501E+03 -0.94474193182E+02 -0.44907402655E+03  0.48060976577E+03  0.00000000000E+00 0. -1.
          2    1    1    2  501    0 -0.64036592500E+02  0.49292997840E+02  0.17178213794E+03  0.18984095378E+03  0.00000000000E+00 0. -1.
<scales pt_clust_3="70.63442" pt_clust_4="168.13132" pt_clust_5="14000.00000" pt_clust_6="80.81142"></scales>
<clustering>
<clus scale="   80.811">  1  6  2 -1</clus>
<clus scale="   70.634">  1  3  2 -1</clus>
<clus scale="  168.131">  1  4  2 -1</clus>
<clus scale="  168.131">  2  3  1 -1</clus>
</clustering>
</event>
<event>
 6    0  0.1817470E+003  0.1234259E+03  0.7546771E-02  0.1237550E+00
         21   -1    0    0  504  502  0.00000000000E+00  0.00000000000E+00  0.10576404167E+04  0.10576404167E+04  0.00000000000E+00 0.  1.
          1   -1    0    0  503    0 -0.00000000000E+00 -0.00000000000E+00 -0.13114227407E+04  0.13114227407E+04  0.00000000000E+00 0. -1.
         21    1    1    2  503  505  0.91398101193E+02  0.13462365358E+02 -0.37977831625E+03  0.39085344782E+03  0.00000000000E+00 0. -1.
         21    1    1    2  504  501 -0.15609040523E+02  0.46335138743E+02  0.36274970153E+03  0.36602996215E+03  0.00000000000E+00 0.  1.
         21    1    1    2  505  502 -0.10473854461E+03 -0.76697813617E+02  0.68127802600E+03  0.69353620385E+03  0.00000000000E+00 0.  1.
          1    1    1    2  501    0  0.28949483944E+02  0.16900309517E+02 -0.91803173530E+03  0.91864354354E+03  0.00000000000E+00 0. -1.
<scales pt_clust_3="123.42586" pt_clust_4="48.92209" pt_clust_5="14000.00000" pt_clust_6="33.52153"></scales>
<clustering>
<clus scale="   33.522">  2  6  1 -1</clus>
<clus scale="   48.922">  1  4  2 -1</clus>
<clus scale="  123.426">  2  3  1 -1</clus>
<clus scale="   48.922">  1  3  2 -1</clus>
</clustering>
</event>
<event>
 6    0  0.4796958E+002  0.7876867E+02  0.7546771E-02  0.1332583E+00
         21   -1    0    0  503  502  0.00000000000E+00  0.00000000000E+00  0.68802426485E+02  0.68802426485E+02  0.00000000000E+00 0. -1.
         -1   -1    0    0    0  501 -0.00000000000E+00 -0.00000000000E+00 -0.12592299370E+04  0.12592299370E+04  0.00000000000E+00 0.  1.
         21    1    1    2  503  501  0.58328247638E+02  0.80160789532E+02 -0.16933276013E+03  0.19621804276E+03  0.00000000000E+00 0.  1.
         21    1    1    2  504  505 -0.87855725774E+01 -0.62901058052E+02 -0.30679067356E+03  0.31329578160E+03  0.00000000000E+00 0.  1.
         21    1    1    2  505  502 -0.68737778529E+02  0.10283601086E+02  0.28381717913E+02  0.75074340224E+02  0.00000000000E+00 0. -1.
         -1    1    1    2    0  504  0.19195103469E+02 -0.27543332566E+02 -0.74268579475E+03  0.74344419891E+03  0.00000000000E+00 0.  1.
<scales pt_clust_3="14000.00000" pt_clust_4="78.76867" pt_clust_5="68.46869" pt_clust_6="33.57212"></scales>
<clustering>
<clus scale="   33.572">  2  6  1 -1</clus>
<clus scale="   68.469">  1  5  2 -1</clus>
<clus scale="   78.769">  2  4  1 -1</clus>
<clus scale="   68.469">  1  3  2 -1</clus>
</clustering>
</event>
<event>
 6    0  0.4796958E+002  0.9741562E+02  0.7546771E-02  0.1285826E+00
          2   -1    0    0  503    0 -0.00000000000E+00  0.00000000000E+00  0.55425047592E+03  0.55425047592E+03  0.00000000000E+00 0.  1.
         21   -1    0    0  505  502  0.00000000000E+00 -0.00000000000E+00 -0.58744929563E+03  0.58744929563E+03  0.00000000000E+00 0.  1.
         21    1    1    2  503  504 -0.44486293569E+02 -0.91271634259E+02  0.15128446530E+03  0.18219915197E+03  0.00000000000E+00 0. -1.
         21    1    1    2  504  502 -0.64175724320E+02  0.24093603408E+02 -0.51321495667E+03  0.51777274655E+03  0.00000000000E+00 0.  1.
         21    1    1    2  505  501  0.33905163883E+02  0.35132506272E+01 -0.44352737036E+02  0.55938076035E+02  0.00000000000E+00 0. -1.
          2    1    1    2  501    0  0.74756854006E+02  0.63664780224E+02  0.37308440870E+03  0.38578979701E+03  0.00000000000E+00 0.  1.
<scales pt_clust_3="97.41562" pt_clust_4="41.90234" pt_clust_5="34.08670" pt_clust_6="14000.00000"></scales>
<clustering>
<clus scale="   34.087">  2  5  1 -1</clus>
<clus scale="   41.902">  2  4  1 -1</clus>
<clus scale="   97.416">  2  3  1 -1</clus>
<clus scale="   34.087">  2  3  1 -1</clus>
</clustering>
</event>
<event>
 6    0  0.4796958E+002  0.7950645E+02  0.7546771E-02  0.1330458E+00
          1   -1    0    0  503    0 -0.00000000000E+00  0.00000000000E+00  0.88292800450E+02  0.88292800450E+02  0.00000000000E+00 0.  1.
         21   -1    0    0  505  502  0.00000000000E+00 -0.00000000000E+00 -0.11657395761E+04  0.11657395761E+04  0.00000000000E+00 0. -1.
         21    1    1    2  503  504  0.26380293672E+02  0.32112092463E+02 -0.39097514227E+02  0.57058934404E+02  0.00000000000E+00 0.  1.
         21    1    1    2  504  502 -0.69577773667E+02  0.72016434802E+02 -0.82178495399E+03  0.82786348155E+03  0.00000000000E+00 0. -1.
         21    1    1    2  505  501 -0.13840707240E+02 -0.80507743586E+02 -0.27330996245E+03  0.28525672215E+03  0.00000000000E+00 0. -1.
          1    1    1    2  501    0  0.57038187236E+02 -0.23620783680E+02  0.56745655059E+02  0.83853238416E+02  0.00000000000E+00 0.  1.
<scales pt_clust_3="41.55847" pt_clust_4="14000.00000" pt_clust_5="78.98381" pt_clust_6="79.50645"></scales>
<clustering>
<clus scale="   41.558">  1  3  2 -1</clus>
<clus scale="   78.984">  2  5  1 -1</clus>
<clus scale="   79.506">  1  6  2 -1</clus>
<clus scale="   78.984">  2  3  1 -1</clus>
</clustering>
</event>
<event>
 6    0  0.4796958E+002  0.7151184E+02  0.7546771E-02  0.1355026E+00
          2   -1    0    0  505    0 -0.00000000000E+00  0.00000000000E+00  0.99621581248E+03  0.99621581248E+03  0.00000000000E+00 0.  1.
         21   -1    0    0  503  502  0.00000000000E+00 -0.00000000000E+00 -0.50857426212E+03  0.50857426212E+03  0.00000000000E+00 0.  1.
         21    1    1    2  503  504 -0.25488515817E+02  0.16208644861E+02 -0.55970598909E+02  0.63601042043E+02  0.00000000000E+00 0.  1.
         21    1    1    2  504  501  0.91055689570E+02 -0.10138461626E+03 -0.13219674882E+03  0.18985773468E+03  0.00000000000E+00 0.  1.
         21    1    1    2  505  502 -0.26219174794E+02  0.26080695116E+02 -0.28525819604E+03  0.28764541747E+03  0.00000000000E+00 0.  1.
          2    1    1    2  501    0 -0.39347998960E+02  0.59095276279E+02  0.96106709412E+03  0.96368588041E+03  0.00000000000E+00 0.  1.
<scales pt_clust_3="30.20570" pt_clust_4="14000.00000" pt_clust_5="55.96518" pt_clust_6="71.51184"></scales>
<clustering>
<clus scale="   30.206">  2  3  1 -1</clus>
<clus scale="   55.965">  2  5  1 -1</clus>
<clus scale="   71.512">  1  6  2 -1</clus>
<clus scale="   30.206">  2  3  1 -1</clus>
</clustering>
</event>
<event>
 6    0  0.4796958E+002  0.7127776E+02  0.7546771E-02  0.1355801E+00
          1   -1    0    0  503    0 -0.00000000000E+00  0.00000000000E+00  0.35562148023E+04  0.35562148023E+04  0.00000000000E+00 0. -1.
         21   -1    0    0  504  502  0.00000000000E+00 -0.00000000000E+00 -0.17694690628E+03  0.17694690628E+03  0.00000000000E+00 0. -1.
         21    1    1    2  503  505 -0.71812648831E+02 -0.48730805333E+02  0.22012538149E+04  0.22029639365E+04  0.00000000000E+00 0. -1.
         21    1    1    2  504  501  0.40478851227E+00 -0.63398921871E+02  0.79189974778E+01  0.63892860863E+02  0.00000000000E+00 0. -1.
         21    1    1    2  505  502  0.70649105279E+02  0.67336996606E+02 -0.13159854471E+03  0.16384060595E+03  0.00000000000E+00 0. -1.
          1    1    1    2  501    0  0.75875503974E+00  0.44792730599E+02  0.13016936283E+04  0.13024643052E+04  0.00000000000E+00 0. -1.
<scales pt_clust_3="71.27776" pt_clust_4="62.68681" pt_clust_5="14000.00000" pt_clust_6="44.79916"></scales>
<clustering>
<clus scale="   44.799">  1  6  2 -1</clus>
<clus scale="   62.687">  2  4  1 -1</clus>
<clus scale="   71.278">  1  3  2 -1</clus>
<clus scale="   62.687">  2  3  1 -1</clus>
</clustering>
</event>
<event>
 6    0  0.4796958E+002  0.1586542E+03  0.7546771E-02  0.1190225E+00
          2   -1    0    0  504    0 -0.00000000000E+00  0.00000000000E+00  0.28244536726E+04  0.28244536726E+04  0.00000000000E+00 0. -1.
         21   -1    0    0  505  502  0.00000000000E+00 -0.00000000000E+00 -0.35143623942E+02  0.35143623942E+02  0.00000000000E+00 0. -1.
         21    1    1    2  503  501  0.19367310731E+03  0.10029228583E+03  0.17083615102E+04  0.17222272976E+04  0.00000000000E+00 0. -1.
         21    1    1    2  504  502 -0.10783567134E+03 -0.18526377048E+02  0.10481182067E+03  0.15151658791E+03  0.00000000000E+00 0. -1.
         21    1    1    2  505  503 -0.32899848707E+02 -0.53466466961E+02  0.27145189998E+03  0.27861657729E+03  0.00000000000E+00 0. -1.
          2    1    1    2  501    0 -0.52937587263E+02 -0.28299441820E+02  0.70468481781E+03  0.70723683374E+03  0.00000000000E+00 0. -1.
<scales pt_clust_3="158.65417" pt_clust_4="14000.00000" pt_clust_5="69.61956" pt_clust_6="60.02705"></scales>
<clustering>
<clus scale="   60.027">  1  6  2 -1</clus>
<clus scale="   69.620">  2  5  1 -1</clus>
<clus scale="  158.654">  1  3  2 -1</clus>
<clus scale="   69.620">  2  3  1 -1</clus>
</clustering>
</event>
<event>
 6    0  0.4796958E+002  0.7550811E+02  0.7546771E-02  0.1342305E+00
         21   -1    0    0  505  502  0.00000000000E+00  0.00000000000E+00  0.32804182025E+03  0.32804182025E+03  0.00000000000E+00 0.  1.
          2   -1    0    0  503    0 -0.00000000000E+00 -0.00000000000E+00 -0.30110481100E+04  0.30110481100E+04  0.00000000000E+00 0. -1.
         21    1    1    2  503  502 -0.71409501716E+02  0.66807856881E+01  0.26068041503E+03  0.27036684082E+03  0.00000000000E+00 0.  1.
         21    1    1    2  504  501 -0.55994141476E+02 -0.28686206396E+02 -0.52996922451E+03  0.53369056695E+03  0.00000000000E+00 0.  1.
         21    1    1    2  505  504  0.13523640883E+03 -0.29139887331E+02 -0.18864334433E+02  0.13962049427E+03  0.00000000000E+00 0.  1.
          2    1    1    2  501    0 -0.78327656401E+01  0.51145308039E+02 -0.23948531459E+04  0.23954120283E+04  0.00000000000E+00 0. -1.
<scales pt_clust_3="14000.00000" pt_clust_4="64.63776" pt_clust_5="75.50811" pt_clust_6="51.74162"></scales>
<clustering>
<clus scale="   51.742">  2  6  1 -1</clus>
<clus scale="   64.638">  2  4  1 -1</clus>
<clus scale="   75.508">  2  5  1 -1</clus>
<clus scale="   75.508">  1  3  2 -1</clus>
</clustering>
</event>
<event>
 6    0  0.4796958E+002  0.9190901E+02  0.7546771E-02  0.1298294E+00
          1   -1    0    0  504    0 -0.00000000000E+00  0.00000000000E+00  0.14473072764E+03  0.14473072764E+03  0.00000000000E+00 0.  1.
         21   -1    0    0  505  502  0.00000000000E+00 -0.00000000000E+00 -0.33286995277E+04  0.33286995277E+04  0.00000000000E+00 0. -1.
         21    1    1    2  503  502  0.78748545428E+02  0.13142395096E+02 -0.46433651274E+03  0.47115013852E+03  0.00000000000E+00 0.  1.
         21    1    1    2  504  503 -0.55881739169E+02  0.59340872078E+02 -0.18794763085E+03  0.20486195306E+03  0.00000000000E+00 0.  1.
         21    1    1    2  505  501 -0.63490563327E+02 -0.76862062662E+02 -0.26604543319E+04  0.26623215584E+04  0.00000000000E+00 0. -1.
          1    1    1    2  501    0  0.40623757068E+02  0.43787954883E+01  0.12876967538E+03  0.13509660539E+03  0.00000000000E+00 0.  1.
<scales pt_clust_3="91.90901" pt_clust_4="68.67478" pt_clust_5="14000.00000" pt_clust_6="40.85907"></scales>
<clustering>
<clus scale="   40.859">  1  6  2 -1</clus>
<clus scale="   68.675">  1  4  2 -1</clus>
<clus scale="   91.909">  1  3  2 -1</clus>
<clus scale="   91.909">  2  3  1 -1</clus>
</clustering>
</event>
<event>
 6    0  0.4796958E+002  0.9723025E+02  0.7546771E-02  0.1286231E+00
         21   -1    0    0  501  502  0.00000000000E+00  0.00000000000E+00  0.65301044199E+03  0.65301044199E+03  0.00000000000E+00 0. -1.
          2   -1    0    0  503    0 -0.00000000000E+00 -0.00000000000E+00 -0.11422646665E+04  0.11422646665E+04  0.00000000000E+00 0. -1.
         21    1    1    2  503  504 -0.47532107127E+02 -0.51642766509E+02 -0.11727297232E+03  0.13667196705E+03  0.00000000000E+00 0.  1.
         21    1    1    2  504  505  0.55639369297E+02 -0.21236643439E+02  0.20704365764E+03  0.21543864697E+03  0.00000000000E+00 0.  1.
         21    1    1    2  505  502  0.44398327810E+02  0.18937764722E+02  0.42931435897E+03  0.43201929270E+03  0.00000000000E+00 0. -1.
          2    1    1    2  501    0 -0.52505589981E+02  0.53941645226E+02 -0.10083392688E+04  0.10111452018E+04  0.00000000000E+00 0. -1.
<scales pt_clust_3="68.27341" pt_clust_4="14000.00000" pt_clust_5="48.26852" pt_clust_6="97.23025"></scales>
<clustering>
<clus scale="   48.269">  1  5  2 -1</clus>
<clus scale="   68.273">  2  3  1 -1</clus>
<clus scale="   97.230">  2  6  1 -1</clus>
<clus scale="   48.269">  1  3  2 -1</clus>
</clustering>
</event>
<event>
 6    0  0.4796958E+002  0.9264344E+02  0.7546771E-02  0.1296574E+00
          2   -1    0    0  503    0 -0.00000000000E+00  0.00000000000E+00  0.72119464180E+03  0.72119464180E+03  0.00000000000E+00 0. -1.
         21   -1    0    0  501  502  0.00000000000E+00 -0.00000000000E+00 -0.35300436921E+03  0.35300436921E+03  0.00000000000E+00 0.  1.
         21    1    1    2  503  505  0.15479702349E+02  0.29282418750E+02  0.13519555045E+03  0.13919381486E+03  0.00000000000E+00 0. -1.
         21    1    1    2  504  502  0.40701716400E+02  0.16712573876E+02 -0.26198031744E+03  0.26564944301E+03  0.00000000000E+00 0.  1.
         21    1    1    2  505  504  0.36695896510E+02 -0.70881201404E+02 -0.63915499567E+02  0.10225421565E+03  0.00000000000E+00 0.  1.
          2    1    1    2  501    0 -0.92877315259E+02  0.24886208777E+02  0.55889053915E+03  0.56710153750E+03  0.00000000000E+00 0. -1.
<scales pt_clust_3="33.12222" pt_clust_4="44.07929" pt_clust_5="92.64344" pt_clust_6="14000.00000"></scales>
<clustering>
<clus scale="   33.122">  1  3  2 -1</clus>
<clus scale="   44.079">  2  4  1 -1</clus>
<clus scale="   92.643">  2  5  1 -1</clus>
<clus scale="   44.079">  2  3  1 -1</clus>
</clustering>
</event>
<event>
 6    0  0.4796958E+002  0.8702586E+02  0.7546771E-02  0.1310218E+00
         21   -1    0    0  505  502  0.00000000000E+00  0.00000000000E+00  0.10203244455E+03  0.10203244455E+03  0.00000000000E+00 0. -1.
         -4   -1    0    0    0  501 -0.00000000000E+00 -0.00000000000E+00 -0.45013161664E+03  0.45013161664E+03  0.00000000000E+00 0. -1.
         21    1    1    2  503  502  0.60676247020E+02 -0.58158864391E+02  0.22533819196E+02  0.87016282771E+02  0.00000000000E+00 0. -1.
         21    1    1    2  504  501 -0.84515123414E+02 -0.31129512147E+02 -0.19648914257E+03  0.21614771745E+03  0.00000000000E+00 0. -1.
         21    1    1    2  505  504 -0.39557768642E+02  0.28749966686E+02  0.54011235725E+01  0.49199083124E+02  0.00000000000E+00 0.  1.
         -4    1    1    2    0  503  0.63396645036E+02  0.60538409851E+02 -0.17954497229E+03  0.19980097784E+03  0.00000000000E+00 0. -1.
<scales pt_clust_3="48.77693" pt_clust_4="87.02586" pt_clust_5="48.90171" pt_clust_6="14000.00000"></scales>
<clustering>
<clus scale="   48.902">  1  5  2 -1</clus>
<clus scale="   48.777">  1  3  2 -1</clus>
<clus scale="   87.026">  2  4  1 -1</clus>
<clus scale="   48.902">  1  3  2 -1</clus>
</clustering>
</event>
<event>
 6    0  0.4796958E+002  0.1001450E+03  0.7546771E-02  0.1279991E+00
          2   -1    0    0  503    0 -0.00000000000E+00  0.00000000000E+00  0.16321549144E+04  0.16321549144E+04  0.00000000000E+00 0.  1.
         21   -1    0    0  505  502  0.00000000000E+00 -0.00000000000E+00 -0.77533499624E+02  0.77533499624E+02  0.00000000000E+00 0. -1.
         21    1    1    2  503  504  0.25242710370E+02  0.24863761380E+02  0.86313962778E+02  0.93303275544E+02  0.00000000000E+00 0.  1.
         21    1    1    2  504  502  0.84988720224E+02  0.44153954262E+02 -0.12954153811E+02  0.96646077744E+02  0.00000000000E+00 0. -1.
         21    1    1    2  505  501 -0.11633132849E+03 -0.36761787684E+02  0.17648303274E+03  0.21454758882E+03  0.00000000000E+00 0.  1.
          2    1    1    2  501    0  0.60998978909E+01 -0.32255927959E+02  0.13047785731E+04  0.13051914719E+04  0.00000000000E+00 0.  1.
<scales pt_clust_3="31.31829" pt_clust_4="14000.00000" pt_clust_5="100.14503" pt_clust_6="32.82764"></scales>
<clustering>
<clus scale="   32.828">  1  6  2 -1</clus>
<clus scale="   31.318">  1  3  2 -1</clus>
<clus scale="  100.145">  1  5  2 -1</clus>
<clus scale="  100.145">  2  3  1 -1</clus>
</clustering>
</event>
<event>
 6    0  0.4796958E+002  0.1103786E+03  0.7546771E-02  0.1259870E+00
         21   -1    0    0  505  502  0.00000000000E+00  0.00000000000E+00  0.78814399072E+03  0.78814399072E+03  0.00000000000E+00 0. -1.
          2   -1    0    0  503    0 -0.00000000000E+00 -0.00000000000E+00 -0.13418309667E+04  0.13418309667E+04  0.00000000000E+00 0. -1.
         21    1    1    2  503  504 -0.10722883220E+03  0.75790638407E+02 -0.78921046817E+02  0.15320174593E+03  0.00000000000E+00 0. -1.
         21    1    1    2  504  502  0.68133611574E+02 -0.59747414914E+02  0.73157755662E+03  0.73716868081E+03  0.00000000000E+00 0. -1.
         21    1    1    2  505  501 -0.10006574042E+02 -0.32662111527E+02 -0.20778407006E+01  0.34223712181E+02  0.00000000000E+00 0. -1.
          2    1    1    2  501    0  0.49101794673E+02  0.16618888034E+02 -0.12042656451E+04  0.12053808185E+04  0.00000000000E+00 0. -1.
<scales pt_clust_3="110.37865" pt_clust_4="14000.00000" pt_clust_5="34.16058" pt_clust_6="51.82355"></scales>
<clustering>
<clus scale="   34.161">  1  5  2 -1</clus>
<clus scale="   51.824">  2  6  1 -1</clus>
<clus scale="  110.379">  2  3  1 -1</clus>
<clus scale="   34.161">  1  3  2 -1</clus>
</clustering>
</event>
<event>
 6    0  0.4796958E+002  0.8877643E+02  0.7546771E-02  0.1305842E+00
          2   -1    0    0  504    0 -0.00000000000E+00  0.00000000000E+00  0.17051429261E+04  0.17051429261E+04  0.00000000000E+00 0.  1.
         21   -1    0    0  505  502  0.00000000000E+00 -0.00000000000E+00 -0.54078054538E+02  0.54078054538E+02  0.00000000000E+00 0. -1.
         21    1    1    2  503  502  0.12505251515E+03  0.20345332455E+02  0.53179547290E+02  0.13740497934E+03  0.00000000000E+00 0. -1.
         21    1    1    2  504  503 -0.50063022075E+02 -0.83739149242E+01  0.14156548589E+04  0.14165645443E+04  0.00000000000E+00 0.  1.
         21    1    1    2  505  501 -0.39695527934E+02  0.45122523062E+01  0.35521146206E+02  0.53458836375E+02  0.00000000000E+00 0. -1.
          2    1    1    2  501    0 -0.35293965138E+02 -0.16483669837E+02  0.14670931916E+03  0.15179262062E+03  0.00000000000E+00 0.  1.
<scales pt_clust_3="88.77643" pt_clust_4="14000.00000" pt_clust_5="40.90483" pt_clust_6="38.95350"></scales>
<clustering>
<clus scale="   38.954">  1  6  2 -1</clus>
<clus scale="   40.905">  2  5  1 -1</clus>
<clus scale="   88.776">  2  3  1 -1</clus>
<clus scale="   40.905">  2  3  1 -1</clus>
</clustering>
</event>
<event>
 6    0  0.4796958E+002  0.1605169E+03  0.7546771E-02  0.1188114E+00
         21   -1    0    0  505  502  0.00000000000E+00  0.00000000000E+00  0.30643848891E+03  0.30643848891E+03  0.00000000000E+00 0. -1.
          1   -1    0    0  503    0 -0.00000000000E+00 -0.00000000000E+00 -0.67904679913E+03  0.67904679913E+03  0.00000000000E+00 0.  1.
         21    1    1    2  503  502  0.19355112554E+03 -0.93442257669E+02 -0.39808357788E+03  0.45239808653E+03  0.00000000000E+00 0.  1.
         21    1    1    2  504  501 -0.40250009281E+02  0.12263463312E+03 -0.74137535172E+02  0.14884787741E+03  0.00000000000E+00 0.  1.
         21    1    1    2  505  504 -0.11423218038E+03 -0.25566632444E+02  0.22458039401E+03  0.25325678096E+03  0.00000000000E+00 0. -1.
          1    1    1    2  501    0 -0.39068935879E+02 -0.36257430050E+01 -0.12496759118E+03  0.13098254314E+03  0.00000000000E+00 0.  1.
<scales pt_clust_3="160.51690" pt_clust_4="14000.00000" pt_clust_5="118.07095" pt_clust_6="39.23682"></scales>
<clustering>
<clus scale="   39.237">  2  6  1 -1</clus>
<clus scale="  118.071">  1  5  2 -1</clus>
<clus scale="  160.517">  2  3  1 -1</clus>
<clus scale="  118.071">  1  3  2 -1</clus>
</clustering>
</event>
<event>
 6    0  0.4796958E+002  0.8727322E+02  0.7546771E-02  0.1309593E+00
         21   -1    0    0  501  502  0.00000000000E+00  0.00000000000E+00  0.13082230897E+03  0.13082230897E+03  0.00000000000E+00 0.  1.
          1   -1    0    0  503    0 -0.00000000000E+00 -0.00000000000E+00 -0.91502637780E+03  0.91502637780E+03  0.00000000000E+00 0. -1.
         21    1    1    2  503  505  0.31228746070E+02 -0.14525726019E+02 -0.48127959988E+02  0.59182191833E+02  0.00000000000E+00 0. -1.
         21    1    1    2  504  502  0.61459648221E+02 -0.61776182266E+02  0.95956745007E+02  0.12961975917E+03  0.00000000000E+00 0.  1.
         21    1    1    2  505  504 -0.46932361076E+02 -0.98220936803E+01 -0.51198168018E+02  0.70145366552E+02  0.00000000000E+00 0.  1.
          1    1    1    2  501    0 -0.45756033215E+02  0.86124001965E+02 -0.78083468583E+03  0.78690136922E+03  0.00000000000E+00 0. -1.
<scales pt_clust_3="34.44171" pt_clust_4="14000.00000" pt_clust_5="46.02864" pt_clust_6="87.27322"></scales>
<clustering>
<clus scale="   34.442">  2  3  1 -1</clus>
<clus scale="   46.029">  2  5  1 -1</clus>
<clus scale="   87.273">  2  6  1 -1</clus>
<clus scale="   87.273">  1  3  2 -1</clus>
</clustering>
</event>
<event>
 6    0  0.4796958E+002  0.2199195E+03  0.7546771E-02  0.1133943E+00
         21   -1    0    0  504  502  0.00000000000E+00  0.00000000000E+00  0.18161025184E+03  0.18161025184E+03  0.00000000000E+00 0. -1.
          2   -1    0    0  503    0 -0.00000000000E+00 -0.00000000000E+00 -0.94731583759E+03  0.94731583759E+03  0.00000000000E+00 0. -1.
         21    1    1    2  503  502  0.24244931422E+03  0.31402476254E+01 -0.56360419595E+02  0.24893378240E+03  0.00000000000E+00 0. -1.
         21    1    1    2  504  505 -0.26524563332E+02 -0.27458037165E+02  0.37011005428E+02  0.53172462683E+02  0.00000000000E+00 0.  1.
         21    1    1    2  505  501 -0.19961149027E+03  0.53406862920E+02 -0.22921439773E+03  0.30860375918E+03  0.00000000000E+00 0. -1.
          2    1    1    2  501    0 -0.16313260621E+02 -0.29089073380E+02 -0.51714177386E+03  0.51821608517E+03  0.00000000000E+00 0. -1.
<scales pt_clust_3="14000.00000" pt_clust_4="38.78417" pt_clust_5="219.91953" pt_clust_6="33.35111"></scales>
<clustering>
<clus scale="   33.351">  2  6  1 -1</clus>
<clus scale="   38.784">  1  4  2 -1</clus>
<clus scale="  219.920">  2  5  1 -1</clus>
<clus scale="   38.784">  1  3  2 -1</clus>
</clustering>
</event>
<event>
 6    0  0.4796958E+002  0.8869149E+02  0.7546771E-02  0.1306052E+00
          1   -1    0    0  503    0 -0.00000000000E+00  0.00000000000E+00  0.13415347046E+03  0.13415347046E+03  0.00000000000E+00 0. -1.
         21   -1    0    0  504  502  0.00000000000E+00 -0.00000000000E+00 -0.16623103671E+04  0.16623103671E+04  0.00000000000E+00 0. -1.
         21    1    1    2  503  505  0.56061610254E+02  0.40701970550E+01 -0.42771535760E+03  0.43139297372E+03  0.00000000000E+00 0. -1.
         21    1    1    2  504  501 -0.74641078774E+02 -0.83686300512E+02 -0.32915614106E+02  0.11686798187E+03  0.00000000000E+00 0.  1.
         21    1    1    2  505  502  0.34549412701E+02 -0.10405542650E+02 -0.11343715909E+04  0.11349453042E+04  0.00000000000E+00 0. -1.
          1    1    1    2  501    0 -0.15969944181E+02  0.90021646106E+02  0.66845665917E+02  0.11325757783E+03  0.00000000000E+00 0. -1.
<scales pt_clust_3="84.30276" pt_clust_4="88.69149" pt_clust_5="36.08237" pt_clust_6="14000.00000"></scales>
<clustering>
<clus scale="   36.082">  2  5  1 -1</clus>
<clus scale="   84.303">  2  3  1 -1</clus>
<clus scale="   88.691">  2  4  1 -1</clus>
<clus scale="   36.082">  2  3  1 -1</clus>
</clustering>
</event>
<event>
 6    0  0.4796958E+002  0.1279985E+03  0.7546771E-02  0.1230456E+00
         21   -1    0    0  505  502  0.00000000000E+00  0.00000000000E+00  0.29059155930E+03  0.29059155930E+03  0.00000000000E+00 0.  1.
          1   -1    0    0  504    0 -0.00000000000E+00 -0.00000000000E+00 -0.18265700583E+04  0.18265700583E+04  0.00000000000E+00 0.  1.
         21    1    1    2  503  502 -0.35834907038E+02 -0.24369797419E+02  0.15587606823E+03  0.16178805962E+03  0.00000000000E+00 0.  1.
         21    1    1    2  504  503 -0.86133233347E+02  0.74090956155E+02  0.68063710607E+02  0.13244271355E+03  0.00000000000E+00 0.  1.
         21    1    1    2  505  501  0.89917757064E+02 -0.12478949439E+03 -0.16368379584E+03  0.22461078773E+03  0.00000000000E+00 0. -1.
          1    1    1    2  501    0  0.32050383321E+02  0.75068335653E+02 -0.15962344820E+04  0.15983200567E+04  0.00000000000E+00 0.  1.
<scales pt_clust_3="43.33622" pt_clust_4="14000.00000" pt_clust_5="127.99850" pt_clust_6="81.33550"></scales>
<clustering>
<clus scale="   43.336">  1  3  2 -1</clus>
<clus scale="   81.335">  2  6  1 -1</clus>
<clus scale="  127.998">  2  5  1 -1</clus>
<clus scale="   43.336">  1  3  2 -1</clus>
</clustering>
</event>
<event>
 6    0  0.4796958E+002  0.7622701E+02  0.7546771E-02  0.1340113E+00
         21   -1    0    0  503  502  0.00000000000E+00  0.00000000000E+00  0.30666439290E+03  0.30666439290E+03  0.00000000000E+00 0. -1.
          1   -1    0    0  505    0 -0.00000000000E+00 -0.00000000000E+00 -0.19724881575E+04  0.19724881575E+04  0.00000000000E+00 0.  1.
         21    1    1    2  503  501 -0.42606777827E+02 -0.20047102533E+02 -0.16277302179E+02  0.49821425140E+02  0.00000000000E+00 0.  1.
         21    1    1    2  504  502  0.31182279749E+02  0.70790330359E+02  0.27482897674E+03  0.28550756890E+03  0.00000000000E+00 0. -1.
         21    1    1    2  505  504  0.66681276154E+02  0.51466586731E+01 -0.11719836264E+03  0.13493827067E+03  0.00000000000E+00 0. -1.
          1    1    1    2  501    0 -0.55256778076E+02 -0.55889886499E+02 -0.18071770765E+04  0.18088852857E+04  0.00000000000E+00 0.  1.
<scales pt_clust_3="47.08741" pt_clust_4="52.37823" pt_clust_5="14000.00000" pt_clust_6="76.22701"></scales>
<clustering>
<clus scale="   47.087">  1  3  2 -1</clus>
<clus scale="   52.378">  1  4  2 -1</clus>
<clus scale="   76.227">  2  6  1 -1</clus>
<clus scale="   47.087">  1  3  2 -1</clus>
</clustering>
</event>
<event>
 6    0  0.4796958E+002  0.1069462E+03  0.7546771E-02  0.1266332E+00
          2   -1    0    0  503    0 -0.00000000000E+00  0.00000000000E+00  0.10616436491E+04  0.10616436491E+04  0.00000000000E+00 0.  1.
         21   -1    0    0  504  502  0.00000000000E+00 -0.00000000000E+00 -0.24747961574E+03  0.24747961574E+03  0.00000000000E+00 0. -1.
         21    1    1    2  503  505  0.24341687229E+02 -0.25810951699E+02  0.28349921451E+02  0.45414105860E+02  0.00000000000E+00 0. -1.
         21    1    1    2  504  501 -0.73552336526E+02 -0.66102447128E+02 -0.15583433707E+03  0.18456386519E+03  0.00000000000E+00 0. -1.
         21    1    1    2  505  502 -0.30994807890E+02  0.37021045887E+02 -0.57612245554E+02  0.75169187786E+02  0.00000000000E+00 0. -1.
          2    1    1    2  501    0  0.80205457186E+02  0.54892352940E+02  0.99926069450E+03  0.10039761060E+04  0.00000000000E+00 0.  1.
<scales pt_clust_3="35.47849" pt_clust_4="14000.00000" pt_clust_5="47.97949" pt_clust_6="106.94623"></scales>
<clustering>
<clus scale="   35.478">  1  3  2 -1</clus>
<clus scale="   47.979">  2  5  1 -1</clus>
<clus scale="  106.946">  1  6  2 -1</clus>
<clus scale="   47.979">  2  3  1 -1</clus>
</clustering>
</event>
<event>
 6    0  0.4796958E+002  0.2221594E+03  0.7546771E-02  0.1132283E+00
          2   -1    0    0  503    0 -0.00000000000E+00  0.00000000000E+00  0.48790430173E+03  0.48790430173E+03  0.00000000000E+00 0.  1.
         21   -1    0    0  504  502  0.00000000000E+00 -0.00000000000E+00 -0.98697534911E+03  0.98697534911E+03  0.00000000000E+00 0. -1.
         21    1    1    2  503  505  0.16202633258E+03  0.14904402069E+03  0.38785202789E+03  0.44597740760E+03  0.00000000000E+00 0.  1.
         21    1    1    2  504  501 -0.29445678877E+02 -0.70561329169E+01 -0.35822042178E+02  0.46904751594E+02  0.00000000000E+00 0.  1.
         21    1    1    2  505  502 -0.82654478848E+02 -0.18669424628E+03 -0.88404859471E+03  0.90731936069E+03  0.00000000000E+00 0. -1.
          2    1    1    2  501    0 -0.49926174851E+02  0.44706358507E+02  0.32947561620E+02  0.74678130955E+02  0.00000000000E+00 0.  1.
<scales pt_clust_3="14000.00000" pt_clust_4="30.27932" pt_clust_5="222.15945" pt_clust_6="67.39943"></scales>
<clustering>
<clus scale="   30.279">  2  4  1 -1</clus>
<clus scale="   67.399">  1  6  2 -1</clus>
<clus scale="  222.159">  2  5  1 -1</clus>
<clus scale="   30.279">  2  3  1 -1</clus>
</clustering>
</event>
<event>
 6    0  0.4796958E+002  0.1294895E+03  0.7546771E-02  0.1228215E+00
         21   -1    0    0  503  502  0.00000000000E+00  0.00000000000E+00  0.96746823689E+03  0.96746823689E+03  0.00000000000E+00 0. -1.
          2   -1    0    0  505    0 -0.00000000000E+00 -0.00000000000E+00 -0.74670751578E+02  0.74670751578E+02  0.00000000000E+00 0.  1.
         21    1    1    2  503  504  0.15406151917E+02  0.47266080385E+02  0.11514190005E+03  0.12541566496E+03  0.00000000000E+00 0. -1.
         21    1    1    2  504  501 -0.13597637927E+02  0.72338098244E+02  0.99437068910E+02  0.12371510372E+03  0.00000000000E+00 0. -1.
         21    1    1    2  505  502  0.57584698175E+02 -0.11338948804E+03  0.71276272233E+03  0.72401924822E+03  0.00000000000E+00 0. -1.
          2    1    1    2  501    0 -0.59393212165E+02 -0.62146905893E+01 -0.34544205973E+02  0.68988971558E+02  0.00000000000E+00 0.  1.
<scales pt_clust_3="34.02007" pt_clust_4="34.02007" pt_clust_5="122.69461" pt_clust_6="59.71747"></scales>
<clustering>
<clus scale="   34.020">  3  4 -1 -1</clus>
<clus scale="   59.717">  2  6  1 -1</clus>
<clus scale="  122.695">  1  5  2 -1</clus>
<clus scale="  122.695">  1  3  2 -1</clus>
</clustering>
</event>
<event>
 6    0  0.4796958E+002  0.1657038E+03  0.7546771E-02  0.1182404E+00
         21   -1    0    0  503  502  0.00000000000E+00  0.00000000000E+00  0.29880018283E+03  0.29880018283E+03  0.00000000000E+00 0.  1.
          2   -1    0    0  505    0 -0.00000000000E+00 -0.00000000000E+00 -0.88623348128E+03  0.88623348128E+03  0.00000000000E+00 0.  1.
         21    1    1    2  503  501 -0.29731383446E+02  0.42994810479E+02  0.16095146632E+03  0.16922731280E+03  0.00000000000E+00 0.  1.
         21    1    1    2  504  502  0.19085920847E+03 -0.45570459613E+02  0.92408367860E+01  0.19644158753E+03  0.00000000000E+00 0.  1.
         21    1    1    2  505  504 -0.29027967505E+02 -0.11223164308E+03 -0.45729054840E+03  0.47175545600E+03  0.00000000000E+00 0. -1.
          2    1    1    2  501    0 -0.13209985752E+03  0.11480729222E+03 -0.30033505315E+03  0.34760930778E+03  0.00000000000E+00 0.  1.
<scales pt_clust_3="52.27341" pt_clust_4="165.70379" pt_clust_5="114.09606" pt_clust_6="14000.00000"></scales>
<clustering>
<clus scale="   52.273">  1  3  2 -1</clus>
<clus scale="  114.096">  2  5  1 -1</clus>
<clus scale="  165.704">  1  4  2 -1</clus>
<clus scale="   52.273">  1  3  2 -1</clus>
</clustering>
</event>
<event>
 6    0  0.4796958E+002  0.8753386E+02  0.7546771E-02  0.1308936E+00
          3   -1    0    0  504    0 -0.00000000000E+00  0.00000000000E+00  0.34286534217E+02  0.34286534217E+02  0.00000000000E+00 0. -1.
         21   -1    0    0  503  502  0.00000000000E+00 -0.00000000000E+00 -0.81145512921E+03  0.81145512921E+03  0.00000000000E+00 0. -1.
         21    1    1    2  503  501 -0.56829941158E+02  0.65789145609E+02 -0.40032664295E+03  0.40965750932E+03  0.00000000000E+00 0. -1.
         21    1    1    2  504  505 -0.18644403552E+02 -0.41738349798E+02 -0.50823045617E+02  0.68357044944E+02  0.00000000000E+00 0. -1.
         21    1    1    2  505  502 -0.24165514049E+02 -0.23832152674E+02 -0.21856810476E+03  0.22118761265E+03  0.00000000000E+00 0. -1.
          3    1    1    2  501    0  0.99639858759E+02 -0.21864313624E+00 -0.10745080166E+03  0.14653949651E+03  0.00000000000E+00 0. -1.
<scales pt_clust_3="14000.00000" pt_clust_4="48.91378" pt_clust_5="33.94029" pt_clust_6="87.53386"></scales>
<clustering>
<clus scale="   33.940">  2  5  1 -1</clus>
<clus scale="   48.914">  1  4  2 -1</clus>
<clus scale="   87.534">  1  6  2 -1</clus>
<clus scale="   33.940">  2  3  1 -1</clus>
</clustering>
</event>
<event>
 6    0  0.4796958E+002  0.2061889E+03  0.7546771E-02  0.1144620E+00
         21   -1    0    0  503  502  0.00000000000E+00  0.00000000000E+00  0.92007925664E+02  0.92007925664E+02  0.00000000000E+00 0.  1.
          2   -1    0    0  505    0 -0.00000000000E+00 -0.00000000000E+00 -0.18926928875E+04  0.18926928875E+04  0.00000000000E+00 0.  1.
         21    1    1    2  503  501  0.76080413462E+02 -0.10855190392E+03 -0.46690637115E+03  0.48535894406E+03  0.00000000000E+00 0. -1.
         21    1    1    2  504  502 -0.68018478380E+02  0.73490001499E+02 -0.25723355226E+00  0.10013670601E+03  0.00000000000E+00 0.  1.
         21    1    1    2  505  504 -0.95145335525E+02  0.66081936679E+02 -0.76574869172E+02  0.13886384633E+03  0.00000000000E+00 0.  1.
          2    1    1    2  501    0  0.87083400443E+02 -0.31020034256E+02 -0.12569464880E+04  0.12603413168E+04  0.00000000000E+00 0.  1.
<scales pt_clust_3="193.38695" pt_clust_4="66.49657" pt_clust_5="66.49657" pt_clust_6="92.44329"></scales>
<clustering>
<clus scale="   66.497">  4  5 -1 -1</clus>
<clus scale="   92.443">  2  6  1 -1</clus>
<clus scale="  193.387">  2  3  1 -1</clus>
<clus scale="  206.189">  1  3  2 -1</clus>
</clustering>
</event>
<event>
 6    0  0.4796958E+002  0.8375660E+02  0.7546771E-02  0.1318717E+00
         -1   -1    0    0    0  501 -0.00000000000E+00  0.00000000000E+00  0.17587007836E+04  0.17587007836E+04  0.00000000000E+00 0.  1.
         21   -1    0    0  503  502  0.00000000000E+00 -0.00000000000E+00 -0.73638260258E+02  0.73638260258E+02  0.00000000000E+00 0.  1.
         21    1    1    2  503  501 -0.34471641266E+02 -0.41931557367E+00  0.41496251219E+02  0.53948204255E+02  0.00000000000E+00 0.  1.
         21    1    1    2  504  505  0.10653036797E+03 -0.25090162167E+02  0.29194825810E+02  0.11327212098E+03  0.00000000000E+00 0.  1.
         21    1    1    2  505  502  0.10284800548E+02  0.38089307592E+02 -0.82946893672E+01  0.40315931676E+02  0.00000000000E+00 0.  1.
         -1    1    1    2    0  504 -0.82343527246E+02 -0.12579829852E+02  0.16226661357E+04  0.16248027869E+04  0.00000000000E+00 0.  1.
<scales pt_clust_3="34.47419" pt_clust_4="83.75660" pt_clust_5="37.99865" pt_clust_6="14000.00000"></scales>
<clustering>
<clus scale="   34.474">  2  3  1 -1</clus>
<clus scale="   37.999">  2  5  1 -1</clus>
<clus scale="   83.757">  2  4  1 -1</clus>
<clus scale="   34.474">  2  3  1 -1</clus>
</clustering>
</event>
<event>
 6    0  0.4796958E+002  0.1376356E+03  0.7546771E-02  0.1216546E+00
         21   -1    0    0  501  502  0.00000000000E+00  0.00000000000E+00  0.31208252428E+03  0.31208252428E+03  0.00000000000E+00 0.  1.
          2   -1    0    0  505    0 -0.00000000000E+00 -0.00000000000E+00 -0.38309613608E+03  0.38309613608E+03  0.00000000000E+00 0. -1.
         21    1    1    2  503  504 -0.48765197334E+02 -0.39274762170E+02  0.85912806543E+02  0.10630880369E+03  0.00000000000E+00 0.  1.
         21    1    1    2  504  502 -0.11705034035E+02 -0.70898582450E+02  0.17473664683E+03  0.18893520731E+03  0.00000000000E+00 0.  1.
         21    1    1    2  505  503  0.84477703448E+02  0.86644036505E+02 -0.77815871049E+02  0.14387140518E+03  0.00000000000E+00 0.  1.
          2    1    1    2  501    0 -0.24007472080E+02  0.23529308115E+02 -0.25384719412E+03  0.25606324418E+03  0.00000000000E+00 0. -1.
<scales pt_clust_3="55.28574" pt_clust_4="55.28574" pt_clust_5="124.52905" pt_clust_6="33.61528"></scales>
<clustering>
<clus scale="   33.615">  2  6  1 -1</clus>
<clus scale="   55.286">  3  4 -1 -1</clus>
<clus scale="  124.529">  2  5  1 -1</clus>
<clus scale="  137.636">  1  3  2 -1</clus>
</clustering>
</event>
<event>
 6    0  0.4796958E+002  0.1459828E+03  0.7546771E-02  0.1205498E+00
         21   -1    0    0  504  502  0.00000000000E+00  0.00000000000E+00  0.61747341448E+03  0.61747341448E+03  0.00000000000E+00 0.  1.
          3   -1    0    0  503    0 -0.00000000000E+00 -0.00000000000E+00 -0.10114852897E+04  0.10114852897E+04  0.00000000000E+00 0. -1.
         21    1    1    2  503  502 -0.81887270155E+02  0.54090388646E+02 -0.21553297683E+03  0.23682432151E+03  0.00000000000E+00 0.  1.
         21    1    1    2  504  505  0.13802521958E+03 -0.53701686279E+02  0.56180880347E+03  0.58100255077E+03  0.00000000000E+00 0.  1.
         21    1    1    2  505  501 -0.65954874501E+02  0.30085717685E+02 -0.23819715223E+01  0.72531852778E+02  0.00000000000E+00 0.  1.
          3    1    1    2  501    0  0.98169250805E+01 -0.30474420052E+02 -0.73790573032E+03  0.73859997911E+03  0.00000000000E+00 0. -1.
<scales pt_clust_3="14000.00000" pt_clust_4="145.98279" pt_clust_5="69.61006" pt_clust_6="32.01659"></scales>
<clustering>
<clus scale="   32.017">  2  6  1 -1</clus>
<clus scale="   69.610">  2  5  1 -1</clus>
<clus scale="  145.983">  1  4  2 -1</clus>
<clus scale="  145.983">  1  3  2 -1</clus>
</clustering>
</event>
<event>
 6    0  0.4796958E+002  0.7779841E+02  0.7546771E-02  0.1335418E+00
          2   -1    0    0  504    0 -0.00000000000E+00  0.00000000000E+00  0.10000094183E+04  0.10000094183E+04  0.00000000000E+00 0.  1.
         21   -1    0    0  505  502  0.00000000000E+00 -0.00000000000E+00 -0.10717740822E+03  0.10717740822E+03  0.00000000000E+00 0. -1.
         21    1    1    2  503  501  0.40584626548E+02  0.61171194088E+02  0.10639309418E+02  0.74176962752E+02  0.00000000000E+00 0. -1.
         21    1    1    2  504  502 -0.51694921422E+02 -0.69778398227E+02 -0.31585648757E+02  0.92406942203E+02  0.00000000000E+00 0. -1.
         21    1    1    2  505  503 -0.24157502619E+02  0.37236582043E+02  0.25551954197E+02  0.51215723546E+02  0.00000000000E+00 0. -1.
          2    1    1    2  501    0  0.35267797493E+02 -0.28629377904E+02  0.88822639524E+03  0.88938719803E+03  0.00000000000E+00 0.  1.
<scales pt_clust_3="77.79841" pt_clust_4="14000.00000" pt_clust_5="44.38635" pt_clust_6="45.16563"></scales>
<clustering>
<clus scale="   44.386">  2  5  1 -1</clus>
<clus scale="   45.166">  1  6  2 -1</clus>
<clus scale="   77.798">  1  3  2 -1</clus>
<clus scale="   44.386">  2  3  1 -1</clus>
</clustering>
</event>
<event>
 6    0  0.4796958E+002  0.7282907E+02  0.7546771E-02  0.1350729E+00
          1   -1    0    0  503    0 -0.00000000000E+00  0.00000000000E+00  0.41707410186E+04  0.41707410186E+04  0.00000000000E+00 0. -1.
         21   -1    0    0  505  502  0.00000000000E+00 -0.00000000000E+00 -0.12621857567E+03  0.12621857567E+03  0.00000000000E+00 0.  1.
         21    1    1    2  503  504  0.75622880855E+02 -0.22815886845E+02  0.48315539058E+02  0.92594687298E+02  0.00000000000E+00 0.  1.
         21    1    1    2  504  502 -0.31169582757E+02  0.28487041548E+02  0.74740212038E+02  0.85843775085E+02  0.00000000000E+00 0.  1.
         21    1    1    2  505  501 -0.36633820754E+02  0.66771981403E+02 -0.83428059623E+02  0.11296360235E+03  0.00000000000E+00 0.  1.
          1    1    1    2  501    0 -0.78194773439E+01 -0.72443136106E+02  0.40048947515E+04  0.40055575295E+04  0.00000000000E+00 0. -1.
<scales pt_clust_3="72.08291" pt_clust_4="42.22623" pt_clust_5="72.82907" pt_clust_6="14000.00000"></scales>
<clustering>
<clus scale="   42.226">  2  4  1 -1</clus>
<clus scale="   72.083">  2  3  1 -1</clus>
<clus scale="   72.829">  2  5  1 -1</clus>
<clus scale="   42.226">  2  3  1 -1</clus>
</clustering>
</event>
<event>
 6    0  0.4796958E+002  0.1199969E+03  0.7546771E-02  0.1243102E+00
         -1   -1    0    0    0  501 -0.00000000000E+00  0.00000000000E+00  0.50285997516E+03  0.50285997516E+03  0.00000000000E+00 0. -1.
         21   -1    0    0  503  502  0.00000000000E+00 -0.00000000000E+00 -0.64733154911E+03  0.64733154911E+03  0.00000000000E+00 0.  1.
         21    1    1    2  503  505  0.18211950036E+02  0.62811148322E+02 -0.15428521813E+03  0.16757339888E+03  0.00000000000E+00 0. -1.
         21    1    1    2  504  502 -0.32734868340E+02  0.73120374542E+02 -0.42163851048E+03  0.42918200603E+03  0.00000000000E+00 0.  1.
         21    1    1    2  505  501  0.48572522172E+02 -0.95747414699E+02 -0.10940432438E+02  0.10791918455E+03  0.00000000000E+00 0. -1.
         -1    1    1    2    0  504 -0.34049603868E+02 -0.40184108166E+02  0.44239258710E+03  0.44551693480E+03  0.00000000000E+00 0. -1.
<scales pt_clust_3="60.02449" pt_clust_4="14000.00000" pt_clust_5="119.99686" pt_clust_6="52.67009"></scales>
<clustering>
<clus scale="   52.670">  1  6  2 -1</clus>
<clus scale="   60.024">  2  3  1 -1</clus>
<clus scale="  119.997">  1  5  2 -1</clus>
<clus scale="   60.024">  2  3  1 -1</clus>
</clustering>
</event>
<event>
 6    0  0.4796958E+002  0.6510008E+02  0.7546771E-02  0.1377595E+00
         21   -1    0    0  505  502  0.00000000000E+00  0.00000000000E+00  0.56673123974E+03  0.56673123974E+03  0.00000000000E+00 0.  1.
          2   -1    0    0  503    0 -0.00000000000E+00 -0.00000000000E+00 -0.20408066321E+04  0.20408066321E+04  0.00000000000E+00 0. -1.
         21    1    1    2  503  504 -0.14352125930E+02  0.11967572333E+03 -0.86653941458E+03  0.87488217452E+03  0.00000000000E+00 0. -1.
         21    1    1    2  504  502  0.35734461441E+02 -0.54302806425E+02  0.54868266526E+03  0.55252005727E+03  0.00000000000E+00 0.  1.
         21    1    1    2  505  501 -0.11328335460E+02 -0.35412508771E+02 -0.17699992375E+02  0.41178473646E+02  0.00000000000E+00 0.  1.
          2    1    1    2  501    0 -0.10054000051E+02 -0.29960408136E+02 -0.11385186506E+04  0.11389571664E+04  0.00000000000E+00 0. -1.
<scales pt_clust_3="65.10008" pt_clust_4="14000.00000" pt_clust_5="38.21158" pt_clust_6="31.60236"></scales>
<clustering>
<clus scale="   31.602">  2  6  1 -1</clus>
<clus scale="   38.212">  2  5  1 -1</clus>
<clus scale="   65.100">  2  3  1 -1</clus>
<clus scale="   65.100">  1  3  2 -1</clus>
</clustering>
</event>
<event>
 6    0  0.4796958E+002  0.1003145E+03  0.7546771E-02  0.1279636E+00
          2   -1    0    0  503    0 -0.00000000000E+00  0.00000000000E+00  0.50425833423E+03  0.50425833423E+03  0.00000000000E+00 0.  1.
         21   -1    0    0  504  502  0.00000000000E+00 -0.00000000000E+00 -0.29596471070E+03  0.29596471070E+03  0.00000000000E+00 0.  1.
         21    1    1    2  503  505  0.63922257224E+02  0.23629271701E+02  0.85163721075E+02  0.10907454716E+03  0.00000000000E+00 0.  1.
         21    1    1    2  504  501  0.62100796627E+02 -0.33427177967E+02 -0.50230018339E+02  0.86584871144E+02  0.00000000000E+00 0.  1.
         21    1    1    2  505  502 -0.12902712732E+03  0.44711784982E+02 -0.19305956270E+03  0.23647227755E+03  0.00000000000E+00 0.  1.
          2    1    1    2  501    0  0.30040734686E+01 -0.34913878716E+02  0.36641948349E+03  0.36809134908E+03  0.00000000000E+00 0.  1.
<scales pt_clust_3="66.06130" pt_clust_4="14000.00000" pt_clust_5="100.31452" pt_clust_6="35.04288"></scales>
<clustering>
<clus scale="   35.043">  1  6  2 -1</clus>
<clus scale="   66.061">  1  3  2 -1</clus>
<clus scale="  100.315">  1  5  2 -1</clus>
<clus scale="  100.315">  2  3  1 -1</clus>
</clustering>
</event>
<event>
 6    0  0.4796958E+002  0.1232869E+03  0.7546771E-02  0.1237771E+00
          2   -1    0    0  503    0 -0.00000000000E+00  0.00000000000E+00  0.31027324308E+04  0.31027324308E+04  0.00000000000E+00 0.  1.
         21   -1    0    0  504  502  0.00000000000E+00 -0.00000000000E+00 -0.62075075972E+02  0.62075075972E+02  0.00000000000E+00 0.  1.
         21    1    1    2  503  502  0.91552170113E+02  0.79674068525E+02  0.31878372569E+02  0.12548301752E+03  0.00000000000E+00 0.  1.
         21    1    1    2  504  505 -0.13385798333E+03 -0.52373848976E+02  0.53413936932E+03  0.55314179522E+03  0.00000000000E+00 0. -1.
         21    1    1    2  505  501  0.51341838418E+02 -0.59119514115E+02  0.26574964667E+03  0.27704507941E+03  0.00000000000E+00 0. -1.
          2    1    1    2  501    0 -0.90360251967E+01  0.31819294566E+02  0.22088899663E+04  0.22091376147E+04  0.00000000000E+00 0.  1.
<scales pt_clust_3="123.28689" pt_clust_4="14000.00000" pt_clust_5="69.33783" pt_clust_6="33.07744"></scales>
<clustering>
<clus scale="   33.077">  1  6  2 -1</clus>
<clus scale="   69.338">  1  5  2 -1</clus>
<clus scale="  123.287">  2  3  1 -1</clus>
<clus scale="  123.287">  2  3  1 -1</clus>
</clustering>
</event>
<event>
 6    0  0.4796958E+002  0.8014418E+02  0.7546771E-02  0.1328643E+00
         21   -1    0    0  501  502  0.00000000000E+00  0.00000000000E+00  0.26407845321E+03  0.26407845321E+03  0.00000000000E+00 0. -1.
          3   -1    0    0  503    0 -0.00000000000E+00 -0.00000000000E+00 -0.20482257464E+04  0.20482257464E+04  0.00000000000E+00 0.  1.
         21    1    1    2  503  504  0.21040830608E+02 -0.55341016222E+02 -0.19351152867E+03  0.20236614430E+03  0.00000000000E+00 0.  1.
         21    1    1    2  504  505 -0.74459953595E+02 -0.52824763867E+02  0.88046953646E+02  0.12683456317E+03  0.00000000000E+00 0. -1.
         21    1    1    2  505  502  0.41026058366E+02  0.22576730851E+02  0.14756108097E+03  0.15481317404E+03  0.00000000000E+00 0. -1.
          3    1    1    2  501    0  0.12393064621E+02  0.85589049239E+02 -0.18262437991E+04  0.18282903181E+04  0.00000000000E+00 0.  1.
<scales pt_clust_3="80.14418" pt_clust_4="47.28927" pt_clust_5="46.82784" pt_clust_6="14000.00000"></scales>
<clustering>
<clus scale="   46.828">  1  5  2 -1</clus>
<clus scale="   47.289">  1  4  2 -1</clus>
<clus scale="   80.144">  1  3  2 -1</clus>
<clus scale="   46.828">  1  3  2 -1</clus>
</clustering>
</event>
<event>
 6    0  0.4796958E+002  0.1018563E+03  0.7546771E-02  0.1276440E+00
         21   -1    0    0  504  502  0.00000000000E+00  0.00000000000E+00  0.37857186678E+03  0.37857186678E+03  0.00000000000E+00 0. -1.
          1   -1    0    0  503    0 -0.00000000000E+00 -0.00000000000E+00 -0.12565971972E+04  0.12565971972E+04  0.00000000000E+00 0. -1.
         21    1    1    2  503  505  0.46378527722E+02 -0.15795369341E+02 -0.82411229438E+02  0.95875295378E+02  0.00000000000E+00 0. -1.
         21    1    1    2  504  501  0.23454900426E+02  0.27640100598E+02  0.11275676140E+03  0.11844068033E+03  0.00000000000E+00 0. -1.
         21    1    1    2  505  502 -0.11885591263E+03 -0.61987329895E+02  0.23756417315E+03  0.27277443685E+03  0.00000000000E+00 0. -1.
          1    1    1    2  501    0  0.49022484484E+02  0.50142598638E+02 -0.11459350356E+04  0.11480786515E+04  0.00000000000E+00 0. -1.
<scales pt_clust_3="49.34232" pt_clust_4="36.25062" pt_clust_5="101.85630" pt_clust_6="14000.00000"></scales>
<clustering>
<clus scale="   36.251">  1  4  2 -1</clus>
<clus scale="   49.342">  2  3  1 -1</clus>
<clus scale="  101.856">  1  5  2 -1</clus>
<clus scale="   36.251">  1  3  2 -1</clus>
</clustering>
</event>
<event>
 6    0  0.4796958E+002  0.9325031E+02  0.7546771E-02  0.1295166E+00
          2   -1    0    0  503    0 -0.00000000000E+00  0.00000000000E+00  0.21152711343E+03  0.21152711343E+03  0.00000000000E+00 0. -1.
         21   -1    0    0  504  502  0.00000000000E+00 -0.00000000000E+00 -0.49981633981E+03  0.49981633981E+03  0.00000000000E+00 0. -1.
         21    1    1    2  503  502  0.50410733947E+02  0.80772645028E+01 -0.11676661269E+03  0.12743989226E+03  0.00000000000E+00 0.  1.
         21    1    1    2  504  505 -0.37788464480E+02  0.12036088968E+02 -0.31060061168E+03  0.31312230112E+03  0.00000000000E+00 0. -1.
         21    1    1    2  505  501  0.53917002386E+02  0.51865942080E+02 -0.25654812891E+02  0.79090381961E+02  0.00000000000E+00 0.  1.
          2    1    1    2  501    0 -0.66539271854E+02 -0.71979295552E+02  0.16473281088E+03  0.19169087790E+03  0.00000000000E+00 0. -1.
<scales pt_clust_3="30.35668" pt_clust_4="39.65899" pt_clust_5="93.25031" pt_clust_6="14000.00000"></scales>
<clustering>
<clus scale="   39.659">  2  4  1 -1</clus>
<clus scale="   30.357">  2  3  1 -1</clus>
<clus scale="   93.250">  2  5  1 -1</clus>
<clus scale="   39.659">  2  3  1 -1</clus>
</clustering>
</event>
<event>
 6    0  0.4796958E+002  0.2073172E+03  0.7546771E-02  0.1143708E+00
          1   -1    0    0  503    0 -0.00000000000E+00  0.00000000000E+00  0.26139027994E+04  0.26139027994E+04  0.00000000000E+00 0.  1.
         21   -1    0    0  505  502  0.00000000000E+00 -0.00000000000E+00 -0.83899567175E+02  0.83899567175E+02  0.00000000000E+00 0.  1.
         21    1    1    2  503  504  0.18464498775E+03  0.47504680257E+02  0.74527749544E+03  0.76927824054E+03  0.00000000000E+00 0.  1.
         21    1    1    2  504  502 -0.21703963268E+03 -0.96119453223E+02  0.31948428667E+03  0.39801427219E+03  0.00000000000E+00 0.  1.
         21    1    1    2  505  501  0.46735762445E+02 -0.19745743407E+02 -0.11577497365E+02  0.52040026126E+02  0.00000000000E+00 0.  1.
          1    1    1    2  501    0 -0.14341117518E+02  0.68360516372E+02  0.14768189475E+04  0.14784698277E+04  0.00000000000E+00 0.  1.
<scales pt_clust_3="207.31717" pt_clust_4="14000.00000" pt_clust_5="50.73584" pt_clust_6="69.39347"></scales>
<clustering>
<clus scale="   50.736">  2  5  1 -1</clus>
<clus scale="   69.393">  1  6  2 -1</clus>
<clus scale="  207.317">  1  3  2 -1</clus>
<clus scale="   50.736">  2  3  1 -1</clus>
</clustering>
</event>
<event>
 6    0  0.4796958E+002  0.8230862E+02  0.7546771E-02  0.1322625E+00
         21   -1    0    0  504  502  0.00000000000E+00  0.00000000000E+00  0.63127060427E+03  0.63127060427E+03  0.00000000000E+00 0.  1.
          2   -1    0    0  502    0 -0.00000000000E+00 -0.00000000000E+00 -0.10128615935E+04  0.10128615935E+04  0.00000000000E+00 0. -1.
         21    1    1    2  503  505 -0.69924258243E+02 -0.53194745012E+02  0.21534509701E+03  0.23257814513E+03  0.00000000000E+00 0.  1.
         21    1    1    2  504  503  0.71118917869E+02 -0.20648752355E+02  0.37889673696E+03  0.38606606783E+03  0.00000000000E+00 0.  1.
         21    1    1    2  505  501  0.76807232856E+02  0.94616477784E+02 -0.13935948369E+03  0.18512885939E+03  0.00000000000E+00 0.  1.
          2    1    1    2  501    0 -0.78001892482E+02 -0.20772980416E+02 -0.83647333947E+03  0.84035912537E+03  0.00000000000E+00 0. -1.
<scales pt_clust_3="72.02515" pt_clust_4="74.05587" pt_clust_5="14000.00000" pt_clust_6="82.30862"></scales>
<clustering>
<clus scale="   74.056">  1  4  2 -1</clus>
<clus scale="   72.025">  1  3  2 -1</clus>
<clus scale="   82.309">  2  6  1 -1</clus>
<clus scale="   74.056">  1  3  2 -1</clus>
</clustering>
</event>
<event>
 6    0  0.4796958E+002  0.8243555E+02  0.7546771E-02  0.1322278E+00
          1   -1    0    0  504    0 -0.00000000000E+00  0.00000000000E+00  0.82604595756E+03  0.82604595756E+03  0.00000000000E+00 0.  1.
         21   -1    0    0  503  502  0.00000000000E+00 -0.00000000000E+00 -0.94614321266E+02  0.94614321266E+02  0.00000000000E+00 0. -1.
         21    1    1    2  503  505  0.51016484781E+02 -0.15224942169E+01 -0.28017764291E+02  0.58223662062E+02  0.00000000000E+00 0. -1.
         21    1    1    2  504  502 -0.15076330407E+02 -0.39365001318E+02 -0.11301197575E+02  0.43641908000E+02  0.00000000000E+00 0. -1.
         21    1    1    2  505  501 -0.10563696254E+03 -0.84378583309E+00  0.10797002452E+03  0.15105431481E+03  0.00000000000E+00 0. -1.
          1    1    1    2  501    0  0.69696808168E+02  0.41731281368E+02  0.66278057364E+03  0.66774039395E+03  0.00000000000E+00 0.  1.
<scales pt_clust_3="49.26402" pt_clust_4="42.15328" pt_clust_5="82.43555" pt_clust_6="14000.00000"></scales>
<clustering>
<clus scale="   42.153">  2  4  1 -1</clus>
<clus scale="   49.264">  2  3  1 -1</clus>
<clus scale="   82.436">  2  5  1 -1</clus>
<clus scale="   42.153">  2  3  1 -1</clus>
</clustering>
</event>
<event>
 6    0  0.4796958E+002  0.1130993E+03  0.7546771E-02  0.1254936E+00
          4   -1    0    0  503    0 -0.00000000000E+00  0.00000000000E+00  0.17430348045E+03  0.17430348045E+03  0.00000000000E+00 0.  1.
         21   -1    0    0  504  502  0.00000000000E+00 -0.00000000000E+00 -0.16928761032E+03  0.16928761032E+03  0.00000000000E+00 0. -1.
         21    1    1    2  503  502  0.44718603182E+02 -0.60001949132E+02  0.35784579142E+02  0.82948920877E+02  0.00000000000E+00 0.  1.
         21    1    1    2  504  505 -0.68155908663E+02  0.26046808432E+02 -0.85387015282E+02  0.11231476525E+03  0.00000000000E+00 0. -1.
         21    1    1    2  505  501 -0.44421917607E+02 -0.51059950976E+01 -0.11137147160E+02  0.46080516454E+02  0.00000000000E+00 0.  1.
          4    1    1    2  501    0  0.67859223087E+02  0.39061135798E+02  0.65755453427E+02  0.10224688818E+03  0.00000000000E+00 0.  1.
<scales pt_clust_3="74.83306" pt_clust_4="40.37393" pt_clust_5="40.37393" pt_clust_6="100.65577"></scales>
<clustering>
<clus scale="   40.374">  4  5 -1 -1</clus>
<clus scale="   74.833">  1  3  2 -1</clus>
<clus scale="  100.656">  1  6  2 -1</clus>
<clus scale="  113.099">  2  3  1 -1</clus>
</clustering>
</event>
<event>
 6    0  0.4796958E+002  0.1444214E+03  0.7546771E-02  0.1207501E+00
         21   -1    0    0  504  502  0.00000000000E+00  0.00000000000E+00  0.48599361369E+03  0.48599361369E+03  0.00000000000E+00 0.  1.
          2   -1    0    0  505    0 -0.00000000000E+00 -0.00000000000E+00 -0.16784718928E+04  0.16784718928E+04  0.00000000000E+00 0. -1.
         21    1    1    2  503  502 -0.12339402556E+03  0.37051126511E+02  0.36878588519E+03  0.39064293240E+03  0.00000000000E+00 0.  1.
         21    1    1    2  504  501  0.46290423122E+02  0.10274758142E+03 -0.82812190245E+03  0.83575460159E+03  0.00000000000E+00 0. -1.
         21    1    1    2  505  503  0.48865507563E+02 -0.16666765809E+03  0.28002018453E+02  0.17592628888E+03  0.00000000000E+00 0.  1.
          2    1    1    2  501    0  0.28238094879E+02  0.26868950152E+02 -0.76114428026E+03  0.76214168359E+03  0.00000000000E+00 0. -1.
<scales pt_clust_3="128.60697" pt_clust_4="14000.00000" pt_clust_5="144.42138" pt_clust_6="38.97859"></scales>
<clustering>
<clus scale="   38.979">  2  6  1 -1</clus>
<clus scale="  128.607">  1  3  2 -1</clus>
<clus scale="  144.421">  1  5  2 -1</clus>
<clus scale="  128.607">  1  3  2 -1</clus>
</clustering>
</event>
<event>
 6    0  0.4796958E+002  0.6824669E+02  0.7546771E-02  0.1366159E+00
         21   -1    0    0  504  502  0.00000000000E+00  0.00000000000E+00  0.11461431945E+03  0.11461431945E+03  0.00000000000E+00 0.  1.
          1   -1    0    0  503    0 -0.00000000000E+00 -0.00000000000E+00 -0.92960640920E+03  0.92960640920E+03  0.00000000000E+00 0. -1.
         21    1    1    2  503  502  0.78155855114E+02  0.31751478260E+02 -0.64540166480E+01  0.84605841354E+02  0.00000000000E+00 0.  1.
         21    1    1    2  504  505 -0.41175403014E+02 -0.12537227633E+02  0.56883080394E+02  0.71332185759E+02  0.00000000000E+00 0.  1.
         21    1    1    2  505  501 -0.22803539345E+02  0.51161087013E+02 -0.70108607569E+02  0.89736698659E+02  0.00000000000E+00 0.  1.
          1    1    1    2  501    0 -0.14176912755E+02 -0.70375337640E+02 -0.79531254592E+03  0.79854600287E+03  0.00000000000E+00 0. -1.
<scales pt_clust_3="51.28262" pt_clust_4="43.04179" pt_clust_5="68.24669" pt_clust_6="14000.00000"></scales>
<clustering>
<clus scale="   43.042">  1  4  2 -1</clus>
<clus scale="   51.283">  1  3  2 -1</clus>
<clus scale="   68.247">  1  5  2 -1</clus>
<clus scale="   43.042">  1  3  2 -1</clus>
</clustering>
</event>
<event>
 6    0  0.4796958E+002  0.6989285E+02  0.7546771E-02  0.1360458E+00
          4   -1    0    0  505    0 -0.00000000000E+00  0.00000000000E+00  0.16871232225E+03  0.16871232225E+03  0.00000000000E+00 0.  1.
         21   -1    0    0  503  502  0.00000000000E+00 -0.00000000000E+00 -0.47326028150E+03  0.47326028150E+03  0.00000000000E+00 0.  1.
         21    1    1    2  503  501 -0.48195392910E+02 -0.41044998602E+02 -0.95729518021E+02  0.11476771510E+03  0.00000000000E+00 0.  1.
         21    1    1    2  504  502 -0.28210290361E+01 -0.50305396917E+02 -0.18639884233E+03  0.19308837247E+03  0.00000000000E+00 0.  1.
         21    1    1    2  505  504  0.79957315470E+01  0.10097427420E+03 -0.16015533959E+03  0.18949793817E+03  0.00000000000E+00 0.  1.
          4    1    1    2  501    0  0.43020690399E+02 -0.96238786798E+01  0.13773574068E+03  0.14461857800E+03  0.00000000000E+00 0.  1.
<scales pt_clust_3="69.89285" pt_clust_4="51.53058" pt_clust_5="14000.00000" pt_clust_6="44.08400"></scales>
<clustering>
<clus scale="   44.084">  1  6  2 -1</clus>
<clus scale="   51.531">  2  4  1 -1</clus>
<clus scale="   69.893">  1  3  2 -1</clus>
<clus scale="   51.531">  2  3  1 -1</clus>
</clustering>
</event>
<event>
 6    0  0.4796958E+002  0.7152440E+02  0.7546771E-02  0.1354985E+00
         21   -1    0    0  505  502  0.00000000000E+00  0.00000000000E+00  0.45861159146E+03  0.45861159146E+03  0.00000000000E+00 0.  1.
         -1   -1    0    0    0  501 -0.00000000000E+00 -0.00000000000E+00 -0.85905023783E+03  0.85905023783E+03  0.00000000000E+00 0.  1.
         21    1    1    2  503  502 -0.57879442464E+02  0.66490062020E+02  0.22098988162E+03  0.23792327752E+03  0.00000000000E+00 0.  1.
         21    1    1    2  504  503  0.64368123585E+02 -0.27324092168E+02 -0.10458849206E+03  0.12581181987E+03  0.00000000000E+00 0.  1.
         21    1    1    2  505  501  0.21599467322E+01 -0.68127316710E+02  0.21290816169E+03  0.22355286168E+03  0.00000000000E+00 0. -1.
         -1    1    1    2    0  504 -0.86486278537E+01  0.28961346858E+02 -0.72974819761E+03  0.73037387021E+03  0.00000000000E+00 0.  1.
<scales pt_clust_3="14000.00000" pt_clust_4="56.66282" pt_clust_5="71.52440" pt_clust_6="30.22513"></scales>
<clustering>
<clus scale="   30.225">  2  6  1 -1</clus>
<clus scale="   56.663">  2  4  1 -1</clus>
<clus scale="   71.524">  1  5  2 -1</clus>
<clus scale="   71.524">  1  3  2 -1</clus>
</clustering>
</event>
<event>
 6    0  0.4796958E+002  0.9067185E+02  0.7546771E-02  0.1301233E+00
         21   -1    0    0  501  502  0.00000000000E+00  0.00000000000E+00  0.62599179205E+02  0.62599179205E+02  0.00000000000E+00 0. -1.
          1   -1    0    0  503    0 -0.00000000000E+00 -0.00000000000E+00 -0.31981525611E+04  0.31981525611E+04  0.00000000000E+00 0. -1.
         21    1    1    2  503  504  0.12274644889E+03  0.11606960002E+03 -0.70177344693E+03  0.72182048570E+03  0.00000000000E+00 0. -1.
         21    1    1    2  504  505 -0.20235514810E+02 -0.62639465303E+02 -0.82340385580E+02  0.10541877333E+03  0.00000000000E+00 0. -1.
         21    1    1    2  505  502 -0.33068619539E+02 -0.46017347328E+01  0.33362959133E+02  0.47199540282E+02  0.00000000000E+00 0. -1.
          1    1    1    2  501    0 -0.69442314544E+02 -0.48828399985E+02 -0.23848025085E+04  0.23863129410E+04  0.00000000000E+00 0. -1.
<scales pt_clust_3="14000.00000" pt_clust_4="74.97469" pt_clust_5="33.38727" pt_clust_6="90.67185"></scales>
<clustering>
<clus scale="   33.387">  1  5  2 -1</clus>
<clus scale="   74.975">  1  4  2 -1</clus>
<clus scale="   90.672">  2  6  1 -1</clus>
<clus scale="   33.387">  1  3  2 -1</clus>
</clustering>
</event>
<event>
 6    0  0.4796958E+002  0.1185966E+03  0.7546771E-02  0.1245430E+00
         21   -1    0    0  505  502  0.00000000000E+00  0.00000000000E+00  0.34162618440E+04  0.34162618440E+04  0.00000000000E+00 0.  1.
          1   -1    0    0  504    0 -0.00000000000E+00 -0.00000000000E+00 -0.10732348735E+03  0.10732348735E+03  0.00000000000E+00 0.  1.
         21    1    1    2  503  501 -0.33984803264E+02  0.14728510987E+03  0.38063404317E+03  0.40954870926E+03  0.00000000000E+00 0.  1.
         21    1    1    2  504  502  0.89998125950E+02 -0.80753746696E+02  0.22910581316E+04  0.22942467594E+04  0.00000000000E+00 0.  1.
         21    1    1    2  505  503 -0.35171826017E+02 -0.20091499358E+02  0.72080791170E+03  0.72194513036E+03  0.00000000000E+00 0. -1.
          1    1    1    2  501    0 -0.20841496668E+02 -0.46439863818E+02 -0.83561729907E+02  0.97844732305E+02  0.00000000000E+00 0.  1.
<scales pt_clust_3="14000.00000" pt_clust_4="118.59655" pt_clust_5="40.50587" pt_clust_6="50.98893"></scales>
<clustering>
<clus scale="   40.506">  1  5  2 -1</clus>
<clus scale="   50.989">  2  6  1 -1</clus>
<clus scale="  118.597">  1  4  2 -1</clus>
<clus scale="   40.506">  1  3  2 -1</clus>
</clustering>
</event>
<event>
 6    0  0.4796958E+002  0.6585948E+02  0.7546771E-02  0.1374767E+00
         21   -1    0    0  504  502  0.00000000000E+00  0.00000000000E+00  0.19387002447E+04  0.19387002447E+04  0.00000000000E+00 0.  1.
          2   -1    0    0  503    0 -0.00000000000E+00 -0.00000000000E+00 -0.26014744075E+04  0.26014744075E+04  0.00000000000E+00 0.  1.
         21    1    1    2  503  502 -0.51182528193E+02  0.41341927646E+02  0.19252860014E+04  0.19264098716E+04  0.00000000000E+00 0.  1.
         21    1    1    2  504  505  0.76073526701E+02 -0.45063122608E+02 -0.17418448832E+03  0.19534099021E+03  0.00000000000E+00 0. -1.
         21    1    1    2  505  501 -0.62858574587E+02  0.11789253934E+02 -0.48993199388E+03  0.49408860090E+03  0.00000000000E+00 0. -1.
          2    1    1    2  501    0  0.37967576079E+02 -0.80680589725E+01 -0.19239436820E+04  0.19243351896E+04  0.00000000000E+00 0.  1.
<scales pt_clust_3="65.85948" pt_clust_4="14000.00000" pt_clust_5="35.77394" pt_clust_6="38.81534"></scales>
<clustering>
<clus scale="   38.815">  2  6  1 -1</clus>
<clus scale="   35.774">  2  5  1 -1</clus>
<clus scale="   65.859">  1  3  2 -1</clus>
<clus scale="   65.859">  1  3  2 -1</clus>
</clustering>
</event>
<event>
 6    0  0.4796958E+002  0.9433794E+02  0.7546771E-02  0.1292674E+00
          2   -1    0    0  504    0 -0.00000000000E+00  0.00000000000E+00  0.78470857774E+02  0.78470857774E+02  0.00000000000E+00 0. -1.
         21   -1    0    0  503  502  0.00000000000E+00 -0.00000000000E+00 -0.57208201046E+03  0.57208201046E+03  0.00000000000E+00 0. -1.
         21    1    1    2  503  505 -0.21615665500E+01  0.32125573857E+02 -0.14915785610E+03  0.15259354803E+03  0.00000000000E+00 0. -1.
         21    1    1    2  504  502 -0.67690179236E+02  0.55659043202E+01 -0.20683945833E+03  0.21770507844E+03  0.00000000000E+00 0.  1.
         21    1    1    2  505  501  0.31233828935E+02 -0.12098818292E+03 -0.14097217545E+03  0.18837952842E+03  0.00000000000E+00 0. -1.
          2    1    1    2  501    0  0.38617916850E+02  0.83296704741E+02  0.33583371983E+01  0.91874713340E+02  0.00000000000E+00 0. -1.
<scales pt_clust_3="32.19821" pt_clust_4="72.13839" pt_clust_5="94.33794" pt_clust_6="14000.00000"></scales>
<clustering>
<clus scale="   32.198">  2  3  1 -1</clus>
<clus scale="   72.138">  2  4  1 -1</clus>
<clus scale="   94.338">  2  5  1 -1</clus>
<clus scale="   32.198">  2  3  1 -1</clus>
</clustering>
</event>
<event>
 6    0  0.4796958E+002  0.1464380E+03  0.7546771E-02  0.1204920E+00
          1   -1    0    0  504    0 -0.00000000000E+00  0.00000000000E+00  0.68909931330E+03  0.68909931330E+03  0.00000000000E+00 0. -1.
         21   -1    0    0  503  502  0.00000000000E+00 -0.00000000000E+00 -0.11011706395E+04  0.11011706395E+04  0.00000000000E+00 0. -1.
         21    1    1    2  503  505  0.72785712000E+02 -0.16548819726E+02 -0.61226213232E+03  0.61679538097E+03  0.00000000000E+00 0. -1.
         21    1    1    2  504  502  0.92720222913E+02 -0.32580078378E+02 -0.17885771337E+03  0.20407984436E+03  0.00000000000E+00 0. -1.
         21    1    1    2  505  501 -0.64128903059E+02  0.15776328083E+03 -0.26137508812E+03  0.31195946158E+03  0.00000000000E+00 0. -1.
          1    1    1    2  501    0 -0.10137703185E+03 -0.10863438272E+03  0.64042360759E+03  0.65743526590E+03  0.00000000000E+00 0. -1.
<scales pt_clust_3="74.64331" pt_clust_4="127.49828" pt_clust_5="146.43798" pt_clust_6="14000.00000"></scales>
<clustering>
<clus scale="   74.643">  2  3  1 -1</clus>
<clus scale="  127.498">  2  4  1 -1</clus>
<clus scale="  146.438">  2  5  1 -1</clus>
<clus scale="   74.643">  2  3  1 -1</clus>
</clustering>
</event>
<event>
 6    0  0.6542274E+002  0.8863873E+02  0.7546771E-02  0.1306182E+00
         21   -1    0    0  504  502  0.00000000000E+00  0.00000000000E+00  0.85505856570E+03  0.85505856570E+03  0.00000000000E+00 0. -1.
          2   -1    0    0  503    0 -0.00000000000E+00 -0.00000000000E+00 -0.18260562310E+04  0.18260562310E+04  0.00000000000E+00 0. -1.
         21    1    1    2  503  502 -0.29751206898E+02 -0.26621113294E+02  0.10484637309E+01  0.39936415226E+02  0.00000000000E+00 0. -1.
         21    1    1    2  504  505  0.59584244101E+02 -0.60618781323E+02  0.76979641642E+03  0.77447494571E+03  0.00000000000E+00 0. -1.
         21    1    1    2  505  501  0.17887553480E+02  0.93207198898E+02  0.25843124489E+02  0.98363680184E+02  0.00000000000E+00 0. -1.
          2    1    1    2  501    0 -0.47720590683E+02 -0.59673042814E+01 -0.17676856700E+04  0.17683397556E+04  0.00000000000E+00 0. -1.
<scales pt_clust_3="39.92265" pt_clust_4="14000.00000" pt_clust_5="88.63873" pt_clust_6="48.10510"></scales>
<clustering>
<clus scale="   39.923">  1  3  2 -1</clus>
<clus scale="   48.105">  2  6  1 -1</clus>
<clus scale="   88.639">  2  5  1 -1</clus>
<clus scale="   39.923">  1  3  2 -1</clus>
</clustering>
</event>
<event>
 6    0  0.4796958E+002  0.1518006E+03  0.7546771E-02  0.1198278E+00
         -4   -1    0    0    0  501 -0.00000000000E+00  0.00000000000E+00  0.12942802086E+03  0.12942802086E+03  0.00000000000E+00 0.  1.
         21   -1    0    0  504  502  0.00000000000E+00 -0.00000000000E+00 -0.12367969884E+04  0.12367969884E+04  0.00000000000E+00 0. -1.
         21    1    1    2  503  502  0.93368085138E+02 -0.62533438995E+02  0.58314846883E+02  0.12660431147E+03  0.00000000000E+00 0.  1.
         21    1    1    2  504  505 -0.21884098377E+02  0.24859810696E+02 -0.15098468968E+03  0.15457457898E+03  0.00000000000E+00 0. -1.
         21    1    1    2  505  501 -0.10858632294E+03  0.24340623432E+02 -0.10348179692E+04  0.10407841683E+04  0.00000000000E+00 0. -1.
         -4    1    1    2    0  503  0.37102336175E+02  0.13333004867E+02  0.20118844433E+02  0.44261950587E+02  0.00000000000E+00 0.  1.
<scales pt_clust_3="35.54006" pt_clust_4="31.39336" pt_clust_5="150.84624" pt_clust_6="35.54006"></scales>
<clustering>
<clus scale="   31.393">  4  5 -1 -1</clus>
<clus scale="   35.540">  3  6 -1 -1</clus>
<clus scale="  150.846">  2  4  1 -1</clus>
<clus scale="  150.846">  2  3  1 -1</clus>
</clustering>
</event>
<event>
 6    0  0.4796958E+002  0.2154850E+03  0.7546771E-02  0.1137295E+00
          2   -1    0    0  505    0 -0.00000000000E+00  0.00000000000E+00  0.17529620537E+04  0.17529620537E+04  0.00000000000E+00 0.  1.
         21   -1    0    0  501  502  0.00000000000E+00 -0.00000000000E+00 -0.11525372238E+03  0.11525372238E+03  0.00000000000E+00 0. -1.
         21    1    1    2  503  504 -0.41245438304E+02  0.25627727554E+03  0.19785557457E+03  0.32638329695E+03  0.00000000000E+00 0. -1.
         21    1    1    2  504  502  0.27031708821E+02 -0.67417665064E+02  0.21359417714E+02  0.75710498411E+02  0.00000000000E+00 0.  1.
         21    1    1    2  505  503 -0.39432416964E+02 -0.22308354569E+03  0.54357960687E+03  0.58889725154E+03  0.00000000000E+00 0.  1.
          2    1    1    2  501    0  0.53646146448E+02  0.34223935220E+02  0.87491373219E+03  0.87722472921E+03  0.00000000000E+00 0.  1.
<scales pt_clust_3="215.48502" pt_clust_4="72.06507" pt_clust_5="14000.00000" pt_clust_6="63.63322"></scales>
<clustering>
<clus scale="   63.633">  1  6  2 -1</clus>
<clus scale="   72.065">  2  4  1 -1</clus>
<clus scale="  215.485">  2  3  1 -1</clus>
<clus scale="   72.065">  2  3  1 -1</clus>
</clustering>
</event>
<event>
 6    0  0.4796958E+002  0.2400200E+03  0.7546771E-02  0.1119780E+00
         -1   -1    0    0    0  501 -0.00000000000E+00  0.00000000000E+00  0.18233932289E+04  0.18233932289E+04  0.00000000000E+00 0. -1.
         21   -1    0    0  505  502  0.00000000000E+00 -0.00000000000E+00 -0.22136484454E+03  0.22136484454E+03  0.00000000000E+00 0.  1.
         21    1    1    2  503  502 -0.26647634018E+02  0.18221404181E+02 -0.11208286179E+03  0.11663911812E+03  0.00000000000E+00 0.  1.
         21    1    1    2  504  503 -0.20935928077E+03  0.79352121399E+02  0.37650438239E+02  0.22703661184E+03  0.00000000000E+00 0. -1.
         21    1    1    2  505  501  0.98977698885E+02 -0.35477199722E+02  0.33252114792E+03  0.34874852027E+03  0.00000000000E+00 0. -1.
         -1    1    1    2    0  504  0.13702921590E+03 -0.62096325857E+02  0.13439396600E+04  0.13523338232E+04  0.00000000000E+00 0. -1.
<scales pt_clust_3="32.28182" pt_clust_4="240.01996" pt_clust_5="102.77737" pt_clust_6="14000.00000"></scales>
<clustering>
<clus scale="   32.282">  2  3  1 -1</clus>
<clus scale="  102.777">  1  5  2 -1</clus>
<clus scale="  240.020">  2  4  1 -1</clus>
<clus scale="   32.282">  2  3  1 -1</clus>
</clustering>
</event>
<event>
 6    0  0.4796958E+002  0.1131807E+03  0.7546771E-02  0.1254791E+00
         21   -1    0    0  504  502  0.00000000000E+00  0.00000000000E+00  0.47926192350E+02  0.47926192350E+02  0.00000000000E+00 0. -1.
          2   -1    0    0  505    0 -0.00000000000E+00 -0.00000000000E+00 -0.14901365736E+04  0.14901365736E+04  0.00000000000E+00 0. -1.
         21    1    1    2  503  502 -0.12692342617E+02  0.28217366155E+02  0.21145693584E+01  0.31012686395E+02  0.00000000000E+00 0.  1.
         21    1    1    2  504  501  0.90901488589E+02  0.27629932606E+02 -0.28030743193E+03  0.29597086039E+03  0.00000000000E+00 0.  1.
         21    1    1    2  505  503 -0.94665652584E+02 -0.92215381461E+02 -0.16562446524E+03  0.21188847501E+03  0.00000000000E+00 0. -1.
          2    1    1    2  501    0  0.16456506612E+02  0.36368082699E+02 -0.99839305343E+03  0.99919074415E+03  0.00000000000E+00 0. -1.
<scales pt_clust_3="30.94051" pt_clust_4="14000.00000" pt_clust_5="113.18070" pt_clust_6="40.17957"></scales>
<clustering>
<clus scale="   30.941">  1  3  2 -1</clus>
<clus scale="   40.180">  2  6  1 -1</clus>
<clus scale="  113.181">  1  5  2 -1</clus>
<clus scale="   30.941">  1  3  2 -1</clus>
</clustering>
</event>
<event>
 6    0  0.4796958E+002  0.7135742E+02  0.7546771E-02  0.1355537E+00
         21   -1    0    0  503  502  0.00000000000E+00  0.00000000000E+00  0.13158500070E+04  0.13158500070E+04  0.00000000000E+00 0. -1.
          2   -1    0    0  505    0 -0.00000000000E+00 -0.00000000000E+00 -0.18818496609E+03  0.18818496609E+03  0.00000000000E+00 0. -1.
         21    1    1    2  503  501  0.66483866385E+02  0.46181346618E+01  0.11240804312E+03  0.13067899531E+03  0.00000000000E+00 0. -1.
         21    1    1    2  504  502 -0.50472727761E+02  0.48001874130E+02  0.10663373762E+04  0.10686098802E+04  0.00000000000E+00 0. -1.
         21    1    1    2  505  504 -0.62924185594E+02 -0.10222716280E+03  0.88649865807E+02  0.14922682284E+03  0.00000000000E+00 0. -1.
          2    1    1    2  501    0  0.46913046970E+02  0.49607154008E+02 -0.13973024416E+03  0.15551927481E+03  0.00000000000E+00 0. -1.
<scales pt_clust_3="66.64407" pt_clust_4="52.89241" pt_clust_5="14000.00000" pt_clust_6="71.35742"></scales>
<clustering>
<clus scale="   66.644">  1  3  2 -1</clus>
<clus scale="   52.892">  1  4  2 -1</clus>
<clus scale="   71.357">  2  6  1 -1</clus>
<clus scale="   66.644">  1  3  2 -1</clus>
</clustering>
</event>
<event>
 6    0  0.4796958E+002  0.1210358E+03  0.7546771E-02  0.1241398E+00
         21   -1    0    0  501  502  0.00000000000E+00  0.00000000000E+00  0.14866166775E+03  0.14866166775E+03  0.00000000000E+00 0. -1.
          1   -1    0    0  503    0 -0.00000000000E+00 -0.00000000000E+00 -0.34688169887E+03  0.34688169887E+03  0.00000000000E+00 0. -1.
         21    1    1    2  503  505  0.25080105301E+01 -0.71334967361E+02 -0.74829722882E+02  0.10341399863E+03  0.00000000000E+00 0. -1.
         21    1    1    2  504  502 -0.28337548268E+02 -0.10869114256E+02  0.41125963201E+02  0.51112612296E+02  0.00000000000E+00 0. -1.
         21    1    1    2  505  504 -0.51058930663E+02  0.12297348205E+03  0.22222728996E+02  0.13499385680E+03  0.00000000000E+00 0. -1.
          1    1    1    2  501    0  0.76888468401E+02 -0.40769400437E+02 -0.18673900044E+03  0.20602289890E+03  0.00000000000E+00 0. -1.
<scales pt_clust_3="72.86414" pt_clust_4="30.35052" pt_clust_5="14000.00000" pt_clust_6="121.03577"></scales>
<clustering>
<clus scale="   30.351">  1  4  2 -1</clus>
<clus scale="   72.864">  2  3  1 -1</clus>
<clus scale="  121.036">  2  6  1 -1</clus>
<clus scale="   30.351">  1  3  2 -1</clus>
</clustering>
</event>
<event>
 6    0  0.4796958E+002  0.1972436E+03  0.7546771E-02  0.1152086E+00
         21   -1    0    0  504  502  0.00000000000E+00  0.00000000000E+00  0.35128951316E+03  0.35128951316E+03  0.00000000000E+00 0.  1.
          2   -1    0    0  503    0 -0.00000000000E+00 -0.00000000000E+00 -0.25357175806E+04  0.25357175806E+04  0.00000000000E+00 0.  1.
         21    1    1    2  503  502 -0.10945520479E+02  0.29152549213E+02  0.13329589990E+03  0.13688488768E+03  0.00000000000E+00 0.  1.
         21    1    1    2  504  505  0.11083950900E+02 -0.18252772181E+03 -0.11541655003E+02  0.18322781720E+03  0.00000000000E+00 0.  1.
         21    1    1    2  505  501  0.68069717467E+02  0.20920479731E+03  0.36110081674E+02  0.22294409984E+03  0.00000000000E+00 0.  1.
          2    1    1    2  501    0 -0.68208147888E+02 -0.55829624715E+02 -0.23422923940E+04  0.23439502890E+04  0.00000000000E+00 0.  1.
<scales pt_clust_3="31.13961" pt_clust_4="197.24363" pt_clust_5="14000.00000" pt_clust_6="88.10537"></scales>
<clustering>
<clus scale="   31.140">  1  3  2 -1</clus>
<clus scale="   88.105">  2  6  1 -1</clus>
<clus scale="  197.244">  1  4  2 -1</clus>
<clus scale="   31.140">  1  3  2 -1</clus>
</clustering>
</event>
<event>
 6    0  0.4796958E+002  0.1289988E+03  0.7546771E-02  0.1228949E+00
         21   -1    0    0  504  502  0.00000000000E+00  0.00000000000E+00  0.55410392979E+02  0.55410392979E+02  0.00000000000E+00 0. -1.
         -3   -1    0    0    0  501 -0.00000000000E+00 -0.00000000000E+00 -0.61004500182E+03  0.61004500182E+03  0.00000000000E+00 0. -1.
         21    1    1    2  503  502 -0.29498643704E+02  0.52541064921E+02 -0.41184420995E+02  0.72985546624E+02  0.00000000000E+00 0. -1.
         21    1    1    2  504  501  0.62279573317E+02 -0.11359002500E+03 -0.14058348531E+03  0.19116787223E+03  0.00000000000E+00 0. -1.
         21    1    1    2  505  503 -0.59907157655E+02  0.21043863204E+02 -0.69616916437E+02  0.94224342774E+02  0.00000000000E+00 0. -1.
         -3    1    1    2    0  505  0.27126228042E+02  0.40005096874E+02 -0.30324978609E+03  0.30707763316E+03  0.00000000000E+00 0. -1.
<scales pt_clust_3="46.45456" pt_clust_4="119.86082" pt_clust_5="46.45456" pt_clust_6="48.33467"></scales>
<clustering>
<clus scale="   46.455">  3  5 -1 -1</clus>
<clus scale="   48.335">  2  6  1 -1</clus>
<clus scale="  119.861">  2  4  1 -1</clus>
<clus scale="  128.999">  1  3  2 -1</clus>
</clustering>
</event>
<event>
 6    0  0.4796958E+002  0.7067714E+02  0.7546771E-02  0.1357805E+00
         21   -1    0    0  505  502  0.00000000000E+00  0.00000000000E+00  0.37181356169E+02  0.37181356169E+02  0.00000000000E+00 0.  1.
          1   -1    0    0  503    0 -0.00000000000E+00 -0.00000000000E+00 -0.19343762024E+04  0.19343762024E+04  0.00000000000E+00 0. -1.
         21    1    1    2  503  504  0.19146011690E+02 -0.57709386186E+02 -0.25727064555E+03  0.26435795445E+03  0.00000000000E+00 0.  1.
         21    1    1    2  504  502 -0.77423927135E+01 -0.59054395088E+02 -0.64231770295E+01  0.59905120210E+02  0.00000000000E+00 0.  1.
         21    1    1    2  505  501  0.53539902429E+02  0.87181651960E+01 -0.17163227493E+03  0.18000045932E+03  0.00000000000E+00 0.  1.
          1    1    1    2  501    0 -0.64943521405E+02  0.10804561608E+03 -0.14618687487E+04  0.14672940246E+04  0.00000000000E+00 0. -1.
<scales pt_clust_3="61.99184" pt_clust_4="70.67714" pt_clust_5="54.24507" pt_clust_6="14000.00000"></scales>
<clustering>
<clus scale="   54.245">  1  5  2 -1</clus>
<clus scale="   61.992">  2  3  1 -1</clus>
<clus scale="   70.677">  1  4  2 -1</clus>
<clus scale="   54.245">  1  3  2 -1</clus>
</clustering>
</event>
<event>
 6    0  0.4796958E+002  0.1385620E+03  0.7546771E-02  0.1215277E+00
         21   -1    0    0  505  502  0.00000000000E+00  0.00000000000E+00  0.43406699724E+02  0.43406699724E+02  0.00000000000E+00 0.  1.
          2   -1    0    0  504    0 -0.00000000000E+00 -0.00000000000E+00 -0.13552214679E+04  0.13552214679E+04  0.00000000000E+00 0.  1.
         21    1    1    2  503  502 -0.10732416704E+03  0.10181625412E+03 -0.15436123297E+03  0.21380462268E+03  0.00000000000E+00 0.  1.
         21    1    1    2  504  503  0.68379729674E+02 -0.42656398740E+02 -0.26521109968E+03  0.27718636903E+03  0.00000000000E+00 0. -1.
         21    1    1    2  505  501  0.23463927722E+02  0.34752168189E+02 -0.84763348200E+02  0.94567934820E+02  0.00000000000E+00 0.  1.
          2    1    1    2  501    0  0.15480509643E+02 -0.93912023567E+02 -0.80747908728E+03  0.81306924105E+03  0.00000000000E+00 0.  1.
<scales pt_clust_3="138.56202" pt_clust_4="81.09152" pt_clust_5="41.93172" pt_clust_6="14000.00000"></scales>
<clustering>
<clus scale="   41.932">  1  5  2 -1</clus>
<clus scale="   81.092">  2  4  1 -1</clus>
<clus scale="  138.562">  1  3  2 -1</clus>
<clus scale="   41.932">  1  3  2 -1</clus>
</clustering>
</event>
<event>
 6    0  0.4796958E+002  0.6940520E+02  0.7546771E-02  0.1362127E+00
         21   -1    0    0  505  502  0.00000000000E+00  0.00000000000E+00  0.29007802553E+03  0.29007802553E+03  0.00000000000E+00 0.  1.
         -3   -1    0    0    0  501 -0.00000000000E+00 -0.00000000000E+00 -0.15916036850E+03  0.15916036850E+03  0.00000000000E+00 0.  1.
         21    1    1    2  503  502 -0.78386829744E+02 -0.45097882205E+02  0.10524807073E+03  0.13876408198E+03  0.00000000000E+00 0.  1.
         21    1    1    2  504  503  0.56128490243E+02 -0.38967987834E+02 -0.21703855206E+01  0.68363894462E+02  0.00000000000E+00 0.  1.
         21    1    1    2  505  501  0.34613244770E+02  0.86272227187E+01  0.11836678196E+03  0.12362524320E+03  0.00000000000E+00 0.  1.
         -3    1    1    2    0  504 -0.12354905269E+02  0.75438647320E+02 -0.90526810141E+02  0.11848517438E+03  0.00000000000E+00 0.  1.
<scales pt_clust_3="66.05890" pt_clust_4="14000.00000" pt_clust_5="35.67220" pt_clust_6="69.40520"></scales>
<clustering>
<clus scale="   35.672">  1  5  2 -1</clus>
<clus scale="   66.059">  1  3  2 -1</clus>
<clus scale="   69.405">  2  6  1 -1</clus>
<clus scale="   35.672">  1  3  2 -1</clus>
</clustering>
</event>
<event>
 6    0  0.4796958E+002  0.1018525E+03  0.7546771E-02  0.1276448E+00
          2   -1    0    0  503    0 -0.00000000000E+00  0.00000000000E+00  0.24478959351E+04  0.24478959351E+04  0.00000000000E+00 0.  1.
         21   -1    0    0  504  502  0.00000000000E+00 -0.00000000000E+00 -0.31901696520E+03  0.31901696520E+03  0.00000000000E+00 0.  1.
         21    1    1    2  503  505 -0.61210998967E+01 -0.12497390288E+03  0.47983444618E+03  0.49588006615E+03  0.00000000000E+00 0. -1.
         21    1    1    2  504  501 -0.30908413642E+02 -0.20090327610E+02 -0.58533392012E+02  0.69174484297E+02  0.00000000000E+00 0. -1.
         21    1    1    2  505  502 -0.47887618184E+02  0.83683972491E+02 -0.23627149627E+03  0.25518709054E+03  0.00000000000E+00 0.  1.
          2    1    1    2  501    0  0.84917131723E+02  0.61380257999E+02  0.19438494120E+04  0.19466712594E+04  0.00000000000E+00 0.  1.
<scales pt_clust_3="14000.00000" pt_clust_4="36.86396" pt_clust_5="100.84250" pt_clust_6="101.85246"></scales>
<clustering>
<clus scale="   36.864">  2  4  1 -1</clus>
<clus scale="  100.842">  2  5  1 -1</clus>
<clus scale="  101.852">  1  6  2 -1</clus>
<clus scale="   36.864">  2  3  1 -1</clus>
</clustering>
</event>
<event>
 6    0  0.4796958E+002  0.1477297E+03  0.7546771E-02  0.1203291E+00
          2   -1    0    0  504    0 -0.00000000000E+00  0.00000000000E+00  0.10006548726E+04  0.10006548726E+04  0.00000000000E+00 0.  1.
         21   -1    0    0  505  502  0.00000000000E+00 -0.00000000000E+00 -0.28923833471E+03  0.28923833471E+03  0.00000000000E+00 0.  1.
         21    1    1    2  503  501 -0.51881948089E+02  0.29099580640E+02  0.23498378951E+02  0.63958548641E+02  0.00000000000E+00 0. -1.
         21    1    1    2  504  502  0.10256995569E+03  0.85499411783E+02  0.38257034774E+03  0.40520465964E+03  0.00000000000E+00 0. -1.
         21    1    1    2  505  503 -0.42537809849E+02 -0.14352912337E+03 -0.23549735864E+03  0.27905031884E+03  0.00000000000E+00 0.  1.
          2    1    1    2  501    0 -0.81501977546E+01  0.28930130944E+02  0.54084516986E+03  0.54167968022E+03  0.00000000000E+00 0.  1.
<scales pt_clust_3="61.54247" pt_clust_4="14000.00000" pt_clust_5="147.72974" pt_clust_6="30.05625"></scales>
<clustering>
<clus scale="   30.056">  1  6  2 -1</clus>
<clus scale="   61.542">  1  3  2 -1</clus>
<clus scale="  147.730">  2  5  1 -1</clus>
<clus scale="  147.730">  2  3  1 -1</clus>
</clustering>
</event>
<event>
 6    0  0.4796958E+002  0.9243094E+02  0.7546771E-02  0.1297069E+00
         21   -1    0    0  505  502  0.00000000000E+00  0.00000000000E+00  0.80403542053E+02  0.80403542053E+02  0.00000000000E+00 0. -1.
          1   -1    0    0  503    0 -0.00000000000E+00 -0.00000000000E+00 -0.18372473703E+04  0.18372473703E+04  0.00000000000E+00 0.  1.
         21    1    1    2  503  504  0.51918429250E+02 -0.89634842539E+02 -0.52580265609E+03  0.53590891152E+03  0.00000000000E+00 0.  1.
         21    1    1    2  504  502  0.24814646046E+02  0.71042009555E+02  0.44753699079E+02  0.87553568524E+02  0.00000000000E+00 0. -1.
         21    1    1    2  505  501 -0.44259884784E+02  0.20692302503E+02 -0.57480221878E+02  0.75439278172E+02  0.00000000000E+00 0. -1.
          1    1    1    2  501    0 -0.32473190513E+02 -0.20994695201E+01 -0.12183146493E+04  0.12187491541E+04  0.00000000000E+00 0.  1.
<scales pt_clust_3="14000.00000" pt_clust_4="92.43094" pt_clust_5="51.94961" pt_clust_6="32.54099"></scales>
<clustering>
<clus scale="   32.541">  2  6  1 -1</clus>
<clus scale="   51.950">  1  5  2 -1</clus>
<clus scale="   92.431">  1  4  2 -1</clus>
<clus scale="   51.950">  1  3  2 -1</clus>
</clustering>
</event>
<event>
 6    0  0.4796958E+002  0.9437642E+02  0.7546771E-02  0.1292587E+00
         21   -1    0    0  504  502  0.00000000000E+00  0.00000000000E+00  0.29962178882E+03  0.29962178882E+03  0.00000000000E+00 0.  1.
          2   -1    0    0  505    0 -0.00000000000E+00 -0.00000000000E+00 -0.35970559660E+04  0.35970559660E+04  0.00000000000E+00 0.  1.
         21    1    1    2  503  501  0.12599317908E+03  0.25641040493E+02 -0.64869872559E+02  0.14401334833E+03  0.00000000000E+00 0.  1.
         21    1    1    2  504  503 -0.36790473739E+02 -0.34813296177E+02  0.23854271724E+03  0.24386088760E+03  0.00000000000E+00 0.  1.
         21    1    1    2  505  502 -0.37604040282E+02 -0.23188302909E+02 -0.76803870900E+01  0.44841382485E+02  0.00000000000E+00 0.  1.
          2    1    1    2  501    0 -0.51598665060E+02  0.32360558593E+02 -0.34634266348E+04  0.34639621364E+04  0.00000000000E+00 0.  1.
<scales pt_clust_3="94.37642" pt_clust_4="14000.00000" pt_clust_5="44.17874" pt_clust_6="60.92534"></scales>
<clustering>
<clus scale="   44.179">  1  5  2 -1</clus>
<clus scale="   60.925">  2  6  1 -1</clus>
<clus scale="   94.376">  2  3  1 -1</clus>
<clus scale="   44.179">  1  3  2 -1</clus>
</clustering>
</event>
<event>
 6    0  0.4796958E+002  0.8942807E+02  0.7546771E-02  0.1304243E+00
         -3   -1    0    0    0  501 -0.00000000000E+00  0.00000000000E+00  0.46463743481E+03  0.46463743481E+03  0.00000000000E+00 0.  1.
         21   -1    0    0  501  502  0.00000000000E+00 -0.00000000000E+00 -0.10986139054E+03  0.10986139054E+03  0.00000000000E+00 0. -1.
         21    1    1    2  503  502  0.71989123044E+02 -0.34590995679E+02  0.12076753101E+02  0.80776350401E+02  0.00000000000E+00 0.  1.
         21    1    1    2  504  503 -0.35164033685E+02  0.10919934930E+03 -0.21527488402E+02  0.11672377611E+03  0.00000000000E+00 0. -1.
         21    1    1    2  505  504 -0.22422992635E+02 -0.46823165854E+02  0.11964623644E+03  0.13042400605E+03  0.00000000000E+00 0. -1.
         -3    1    1    2    0  505 -0.14402096724E+02 -0.27785187766E+02  0.24458054313E+03  0.24657469279E+03  0.00000000000E+00 0.  1.
<scales pt_clust_3="89.42807" pt_clust_4="14000.00000" pt_clust_5="69.77181" pt_clust_6="31.29596"></scales>
<clustering>
<clus scale="   31.296">  1  6  2 -1</clus>
<clus scale="   69.772">  1  5  2 -1</clus>
<clus scale="   89.428">  2  3  1 -1</clus>
<clus scale="   89.428">  2  3  1 -1</clus>
</clustering>
</event>
<event>
 6    0  0.4796958E+002  0.1438093E+03  0.7546771E-02  0.1208293E+00
          1   -1    0    0  505    0 -0.00000000000E+00  0.00000000000E+00  0.78185029075E+03  0.78185029075E+03  0.00000000000E+00 0. -1.
         21   -1    0    0  504  502  0.00000000000E+00 -0.00000000000E+00 -0.70146284620E+03  0.70146284620E+03  0.00000000000E+00 0.  1.
         21    1    1    2  503  501  0.10436427895E+03  0.70224561850E+02 -0.16526892196E+03  0.20769498880E+03  0.00000000000E+00 0. -1.
         21    1    1    2  504  503 -0.20664246969E+02 -0.21968290052E+02 -0.45050890434E+03  0.45151731945E+03  0.00000000000E+00 0.  1.
         21    1    1    2  505  502  0.56584548353E+02 -0.12555034399E+02 -0.42189753301E+02  0.71689715334E+02  0.00000000000E+00 0. -1.
          1    1    1    2  501    0 -0.14028458034E+03 -0.35701237399E+02  0.73835502415E+03  0.75241111336E+03  0.00000000000E+00 0. -1.
<scales pt_clust_3="143.80931" pt_clust_4="30.15986" pt_clust_5="54.77406" pt_clust_6="14000.00000"></scales>
<clustering>
<clus scale="   30.160">  2  4  1 -1</clus>
<clus scale="   54.774">  2  5  1 -1</clus>
<clus scale="  143.809">  2  3  1 -1</clus>
<clus scale="   30.160">  2  3  1 -1</clus>
</clustering>
</event>
<event>
 6    0  0.4796958E+002  0.1223086E+03  0.7546771E-02  0.1239336E+00
         21   -1    0    0  505  502  0.00000000000E+00  0.00000000000E+00  0.25996509975E+03  0.25996509975E+03  0.00000000000E+00 0. -1.
          1   -1    0    0  504    0 -0.00000000000E+00 -0.00000000000E+00 -0.20677497330E+03  0.20677497330E+03  0.00000000000E+00 0.  1.
         21    1    1    2  503  502  0.30797306823E+02 -0.36181257005E+02  0.34990536819E+02  0.59007585384E+02  0.00000000000E+00 0.  1.
         21    1    1    2  504  503 -0.46587283765E+02  0.12262299879E+03 -0.41273805785E+02  0.13751473334E+03  0.00000000000E+00 0.  1.
         21    1    1    2  505  501 -0.39685793500E+02  0.16127732216E+02  0.12798940924E+03  0.13496797705E+03  0.00000000000E+00 0. -1.
          1    1    1    2  501    0  0.55475770442E+02 -0.10256947400E+03 -0.68516013828E+02  0.13524977728E+03  0.00000000000E+00 0.  1.
<scales pt_clust_3="34.38098" pt_clust_4="14000.00000" pt_clust_5="42.83767" pt_clust_6="122.30857"></scales>
<clustering>
<clus scale="   42.838">  1  5  2 -1</clus>
<clus scale="   34.381">  1  3  2 -1</clus>
<clus scale="  122.309">  2  6  1 -1</clus>
<clus scale="   42.838">  1  3  2 -1</clus>
</clustering>
</event>
<event>
 6    0  0.4796958E+002  0.7873783E+02  0.7546771E-02  0.1332672E+00
         21   -1    0    0  503  502  0.00000000000E+00  0.00000000000E+00  0.42397889289E+02  0.42397889289E+02  0.00000000000E+00 0.  1.
          2   -1    0    0  505    0 -0.00000000000E+00 -0.00000000000E+00 -0.24855152277E+04  0.24855152277E+04  0.00000000000E+00 0. -1.
         21    1    1    2  503  504 -0.21799399986E+02 -0.79241075550E+02 -0.12517844123E+02  0.83132775219E+02  0.00000000000E+00 0.  1.
         21    1    1    2  504  501  0.66282364698E+02  0.76961346367E+01 -0.72311286879E+03  0.72618510269E+03  0.00000000000E+00 0. -1.
         21    1    1    2  505  502 -0.52778192248E+02  0.24272755409E+02 -0.15759969793E+03  0.16796538042E+03  0.00000000000E+00 0. -1.
          2    1    1    2  501    0  0.82952275365E+01  0.47272185505E+02 -0.15498869275E+04  0.15506298586E+04  0.00000000000E+00 0. -1.
<scales pt_clust_3="14000.00000" pt_clust_4="78.73783" pt_clust_5="60.75776" pt_clust_6="47.99448"></scales>
<clustering>
<clus scale="   47.994">  2  6  1 -1</clus>
<clus scale="   60.758">  2  5  1 -1</clus>
<clus scale="   78.738">  2  4  1 -1</clus>
<clus scale="   78.738">  1  3  2 -1</clus>
</clustering>
</event>
<event>
 6    0  0.4796958E+002  0.1430650E+03  0.7546771E-02  0.1209263E+00
         21   -1    0    0  505  502  0.00000000000E+00  0.00000000000E+00  0.13881409313E+04  0.13881409313E+04  0.00000000000E+00 0.  1.
          2   -1    0    0  503    0 -0.00000000000E+00 -0.00000000000E+00 -0.15659369150E+04  0.15659369150E+04  0.00000000000E+00 0. -1.
         21    1    1    2  503  504  0.11250074584E+03  0.10475503048E+03 -0.95807583710E+02  0.18113289961E+03  0.00000000000E+00 0.  1.
         21    1    1    2  504  502  0.45774267670E+02  0.44399120774E+01  0.25940031797E+02  0.52800394407E+02  0.00000000000E+00 0.  1.
         21    1    1    2  505  501 -0.24589622061E+02 -0.58307571745E+02  0.13017199475E+04  0.13032571673E+04  0.00000000000E+00 0.  1.
          2    1    1    2  501    0 -0.13368539145E+03 -0.50887370815E+02 -0.14096483793E+04  0.14168873849E+04  0.00000000000E+00 0. -1.
<scales pt_clust_3="143.06496" pt_clust_4="45.98909" pt_clust_5="57.47058" pt_clust_6="14000.00000"></scales>
<clustering>
<clus scale="   45.989">  1  4  2 -1</clus>
<clus scale="   57.471">  1  5  2 -1</clus>
<clus scale="  143.065">  1  3  2 -1</clus>
<clus scale="   45.989">  1  3  2 -1</clus>
</clustering>
</event>
<event>
 6    0  0.4796958E+002  0.1275473E+03  0.7546771E-02  0.1231141E+00
          1   -1    0    0  503    0 -0.00000000000E+00  0.00000000000E+00  0.15473719231E+04  0.15473719231E+04  0.00000000000E+00 0. -1.
         21   -1    0    0  501  502  0.00000000000E+00 -0.00000000000E+00 -0.13463841977E+03  0.13463841977E+03  0.00000000000E+00 0.  1.
         21    1    1    2  503  504  0.14190124116E+03 -0.53091084048E+02  0.79486101535E+03  0.80917158821E+03  0.00000000000E+00 0. -1.
         21    1    1    2  504  505 -0.14029124179E+03  0.78872062318E+02  0.22231587189E+03  0.27445724919E+03  0.00000000000E+00 0.  1.
         21    1    1    2  505  502  0.42617522102E+02 -0.29938268319E+02 -0.93652114987E+02  0.10716002866E+03  0.00000000000E+00 0.  1.
          1    1    1    2  501    0 -0.44227521469E+02  0.41572900487E+01  0.48920873109E+03  0.49122147682E+03  0.00000000000E+00 0. -1.
<scales pt_clust_3="14000.00000" pt_clust_4="127.54730" pt_clust_5="51.83589" pt_clust_6="44.42248"></scales>
<clustering>
<clus scale="   44.422">  1  6  2 -1</clus>
<clus scale="   51.836">  2  5  1 -1</clus>
<clus scale="  127.547">  2  4  1 -1</clus>
<clus scale="   51.836">  2  3  1 -1</clus>
</clustering>
</event>
<event>
 6    0  0.4796958E+002  0.6587406E+02  0.7546771E-02  0.1374713E+00
          3   -1    0    0  504    0 -0.00000000000E+00  0.00000000000E+00  0.15236609669E+04  0.15236609669E+04  0.00000000000E+00 0.  1.
         21   -1    0    0  503  502  0.00000000000E+00 -0.00000000000E+00 -0.59011098930E+02  0.59011098930E+02  0.00000000000E+00 0. -1.
         21    1    1    2  503  501  0.21094304626E+02 -0.65213100947E+02 -0.77276054634E+01  0.68974155370E+02  0.00000000000E+00 0. -1.
         21    1    1    2  504  505  0.66184311360E+02  0.49290132780E+02  0.23372429149E+03  0.24786473064E+03  0.00000000000E+00 0.  1.
         21    1    1    2  505  502 -0.61886209655E+02  0.35995861932E+02  0.82524722625E+02  0.10925170418E+03  0.00000000000E+00 0. -1.
          3    1    1    2  501    0 -0.25392406331E+02 -0.20072893764E+02  0.11561284593E+04  0.11565814756E+04  0.00000000000E+00 0.  1.
<scales pt_clust_3="14000.00000" pt_clust_4="61.31430" pt_clust_5="65.87406" pt_clust_6="32.36812"></scales>
<clustering>
<clus scale="   32.368">  1  6  2 -1</clus>
<clus scale="   61.314">  1  4  2 -1</clus>
<clus scale="   65.874">  1  5  2 -1</clus>
<clus scale="   65.874">  2  3  1 -1</clus>
</clustering>
</event>
<event>
 6    0  0.4796958E+002  0.1383351E+03  0.7546771E-02  0.1215587E+00
          2   -1    0    0  505    0 -0.00000000000E+00  0.00000000000E+00  0.10751442618E+04  0.10751442618E+04  0.00000000000E+00 0. -1.
         21   -1    0    0  503  502  0.00000000000E+00 -0.00000000000E+00 -0.46331626486E+03  0.46331626486E+03  0.00000000000E+00 0. -1.
         21    1    1    2  503  501 -0.34639079512E+02 -0.44179803313E+01  0.13194954227E+02  0.37329494996E+02  0.00000000000E+00 0.  1.
         21    1    1    2  504  502 -0.14899678500E+02  0.11227155478E+03 -0.38033244005E+03  0.39683707915E+03  0.00000000000E+00 0. -1.
         21    1    1    2  505  504 -0.13453403247E+02 -0.22394182020E+03  0.16200204627E+03  0.27672295873E+03  0.00000000000E+00 0.  1.
          2    1    1    2  501    0  0.62992161259E+02  0.11608824576E+03  0.81696343647E+03  0.82757099376E+03  0.00000000000E+00 0. -1.
<scales pt_clust_3="34.91968" pt_clust_4="117.32752" pt_clust_5="138.33508" pt_clust_6="14000.00000"></scales>
<clustering>
<clus scale="   34.920">  2  3  1 -1</clus>
<clus scale="  117.328">  2  4  1 -1</clus>
<clus scale="  138.335">  2  5  1 -1</clus>
<clus scale="   34.920">  2  3  1 -1</clus>
</clustering>
</event>
<event>
 6    0  0.4796958E+002  0.1307072E+03  0.7546771E-02  0.1226410E+00
          2   -1    0    0  504    0 -0.00000000000E+00  0.00000000000E+00  0.16086434491E+04  0.16086434491E+04  0.00000000000E+00 0.  1.
         21   -1    0    0  505  502  0.00000000000E+00 -0.00000000000E+00 -0.19704593752E+03  0.19704593752E+03  0.00000000000E+00 0. -1.
         21    1    1    2  503  502  0.41022832709E+02  0.99806804908E+02 -0.33952890626E+02  0.11312413488E+03  0.00000000000E+00 0.  1.
         21    1    1    2  504  503  0.74517924535E+02 -0.10125596183E+03  0.27603471158E+03  0.30331642369E+03  0.00000000000E+00 0. -1.
         21    1    1    2  505  501 -0.58644945119E+02  0.50204760087E+02 -0.95058025645E+02  0.12245724055E+03  0.00000000000E+00 0. -1.
          2    1    1    2  501    0 -0.56895812125E+02 -0.48755603161E+02  0.12645737163E+04  0.12667915875E+04  0.00000000000E+00 0.  1.
<scales pt_clust_3="14000.00000" pt_clust_4="130.70719" pt_clust_5="77.71563" pt_clust_6="74.92825"></scales>
<clustering>
<clus scale="   74.928">  1  6  2 -1</clus>
<clus scale="   77.716">  2  5  1 -1</clus>
<clus scale="  130.707">  1  4  2 -1</clus>
<clus scale="   77.716">  2  3  1 -1</clus>
</clustering>
</event>
<event>
 6    0  0.4796958E+002  0.8443254E+02  0.7546771E-02  0.1316923E+00
         21   -1    0    0  503  502  0.00000000000E+00  0.00000000000E+00  0.52065947583E+02  0.52065947583E+02  0.00000000000E+00 0.  1.
          2   -1    0    0  505    0 -0.00000000000E+00 -0.00000000000E+00 -0.20225673465E+04  0.20225673465E+04  0.00000000000E+00 0.  1.
         21    1    1    2  503  501 -0.98750344579E+02  0.38009171505E+02 -0.84469081170E+02  0.13539332829E+03  0.00000000000E+00 0.  1.
         21    1    1    2  504  502  0.58389561015E+02  0.39194128147E+02 -0.26000677926E+02  0.74977034946E+02  0.00000000000E+00 0.  1.
         21    1    1    2  505  504  0.33747774309E+02  0.27165986083E+01 -0.98010611816E+03  0.98069072344E+03  0.00000000000E+00 0.  1.
          2    1    1    2  501    0  0.66130092554E+01 -0.79919898260E+02 -0.87992552165E+03  0.88357220739E+03  0.00000000000E+00 0.  1.
<scales pt_clust_3="84.43254" pt_clust_4="71.75970" pt_clust_5="33.85694" pt_clust_6="14000.00000"></scales>
<clustering>
<clus scale="   33.857">  2  5  1 -1</clus>
<clus scale="   71.760">  1  4  2 -1</clus>
<clus scale="   84.433">  1  3  2 -1</clus>
<clus scale="   71.760">  1  3  2 -1</clus>
</clustering>
</event>
<event>
 6    0  0.4796958E+002  0.1272819E+03  0.7546771E-02  0.1231546E+00
         -2   -1    0    0    0  501 -0.00000000000E+00  0.00000000000E+00  0.22844028738E+03  0.22844028738E+03  0.00000000000E+00 0.  1.
         21   -1    0    0  503  502  0.00000000000E+00 -0.00000000000E+00 -0.44010452409E+03  0.44010452409E+03  0.00000000000E+00 0.  1.
         21    1    1    2  503  504 -0.89836188756E+02  0.60985226555E+02 -0.12187929438E+03  0.16323082144E+03  0.00000000000E+00 0.  1.
         21    1    1    2  504  505  0.49625878286E+02 -0.16312383233E+03 -0.23264381687E+03  0.28843588195E+03  0.00000000000E+00 0.  1.
         21    1    1    2  505  501 -0.36335095250E+02  0.45888196242E+02  0.92234911721E+02  0.10923939144E+03  0.00000000000E+00 0.  1.
         -2    1    1    2    0  502  0.76545405720E+02  0.56250409534E+02  0.50623962815E+02  0.10763871664E+03  0.00000000000E+00 0.  1.
<scales pt_clust_3="14000.00000" pt_clust_4="127.28186" pt_clust_5="58.53175" pt_clust_6="100.45316"></scales>
<clustering>
<clus scale="   58.532">  1  5  2 -1</clus>
<clus scale="  100.453">  1  6  2 -1</clus>
<clus scale="  127.282">  1  4  2 -1</clus>
<clus scale="  127.282">  2  3  1 -1</clus>
</clustering>
</event>
<event>
 6    0  0.4796958E+002  0.8080604E+02  0.7546771E-02  0.1326779E+00
          2   -1    0    0  505    0 -0.00000000000E+00  0.00000000000E+00  0.32690364173E+04  0.32690364173E+04  0.00000000000E+00 0. -1.
         21   -1    0    0  504  502  0.00000000000E+00 -0.00000000000E+00 -0.93609604668E+02  0.93609604668E+02  0.00000000000E+00 0. -1.
         21    1    1    2  503  502  0.29659195275E+02 -0.12007135910E+02 -0.77362235338E+02  0.83718305248E+02  0.00000000000E+00 0. -1.
         21    1    1    2  504  501 -0.35687442006E+02 -0.10854295671E+03  0.81675857078E+03  0.82471190723E+03  0.00000000000E+00 0.  1.
         21    1    1    2  505  503 -0.24712583869E+02  0.82375252903E+02  0.20072884924E+03  0.21837688754E+03  0.00000000000E+00 0.  1.
          2    1    1    2  501    0  0.30740830600E+02  0.38174839721E+02  0.22353016279E+04  0.22358389219E+04  0.00000000000E+00 0. -1.
<scales pt_clust_3="31.99749" pt_clust_4="80.80604" pt_clust_5="14000.00000" pt_clust_6="49.20761"></scales>
<clustering>
<clus scale="   31.997">  2  3  1 -1</clus>
<clus scale="   49.208">  1  6  2 -1</clus>
<clus scale="   80.806">  1  4  2 -1</clus>
<clus scale="   31.997">  2  3  1 -1</clus>
</clustering>
</event>
<event>
 6    0  0.4796958E+002  0.9124267E+02  0.7546771E-02  0.1299870E+00
         21   -1    0    0  505  502  0.00000000000E+00  0.00000000000E+00  0.28002564154E+03  0.28002564154E+03  0.00000000000E+00 0. -1.
          2   -1    0    0  503    0 -0.00000000000E+00 -0.00000000000E+00 -0.72955327897E+03  0.72955327897E+03  0.00000000000E+00 0.  1.
         21    1    1    2  503  504  0.48990427500E+02 -0.92248014254E+02 -0.11638872916E+03  0.15638444423E+03  0.00000000000E+00 0. -1.
         21    1    1    2  504  502  0.40904829200E+02  0.57741086547E+02  0.22354257430E+03  0.23447498939E+03  0.00000000000E+00 0. -1.
         21    1    1    2  505  501 -0.29917774730E+02  0.37094548555E+02  0.10144220667E+02  0.48723546569E+02  0.00000000000E+00 0.  1.
          2    1    1    2  501    0 -0.59977481970E+02 -0.25876208481E+01 -0.56682570324E+03  0.56999594031E+03  0.00000000000E+00 0.  1.
<scales pt_clust_3="91.24267" pt_clust_4="14000.00000" pt_clust_5="47.65584" pt_clust_6="60.21272"></scales>
<clustering>
<clus scale="   47.656">  1  5  2 -1</clus>
<clus scale="   60.213">  2  6  1 -1</clus>
<clus scale="   91.243">  2  3  1 -1</clus>
<clus scale="   47.656">  1  3  2 -1</clus>
</clustering>
</event>
<event>
 6    0  0.4796958E+002  0.7407225E+02  0.7546771E-02  0.1346768E+00
          2   -1    0    0  504    0 -0.00000000000E+00  0.00000000000E+00  0.14923085841E+04  0.14923085841E+04  0.00000000000E+00 0. -1.
         21   -1    0    0  503  502  0.00000000000E+00 -0.00000000000E+00 -0.37804358803E+02  0.37804358803E+02  0.00000000000E+00 0. -1.
         21    1    1    2  503  501  0.83530113773E+02 -0.49047340946E+02  0.33743792526E+03  0.35106591257E+03  0.00000000000E+00 0. -1.
         21    1    1    2  504  505 -0.54881026211E+02  0.34936900673E+02  0.96647018619E+02  0.11650390669E+03  0.00000000000E+00 0. -1.
         21    1    1    2  505  502  0.29573237121E+02 -0.24894877134E+02 -0.10517674949E+01  0.38670886674E+02  0.00000000000E+00 0. -1.
          2    1    1    2  501    0 -0.58222324683E+02  0.39005317407E+02  0.10214710489E+04  0.10238722370E+04  0.00000000000E+00 0. -1.
<scales pt_clust_3="74.07225" pt_clust_4="43.94767" pt_clust_5="38.65658" pt_clust_6="14000.00000"></scales>
<clustering>
<clus scale="   38.657">  2  5  1 -1</clus>
<clus scale="   43.948">  2  4  1 -1</clus>
<clus scale="   74.072">  2  3  1 -1</clus>
<clus scale="   38.657">  2  3  1 -1</clus>
</clustering>
</event>
<event>
 6    0  0.4796958E+002  0.7761825E+02  0.7546771E-02  0.1335950E+00
         21   -1    0    0  504  502  0.00000000000E+00  0.00000000000E+00  0.45180842808E+03  0.45180842808E+03  0.00000000000E+00 0. -1.
          2   -1    0    0  503    0 -0.00000000000E+00 -0.00000000000E+00 -0.14545146902E+04  0.14545146902E+04  0.00000000000E+00 0.  1.
         21    1    1    2  503  502  0.30593044306E+02 -0.58456376804E+02  0.14483220093E+02  0.67548841687E+02  0.00000000000E+00 0. -1.
         21    1    1    2  504  505 -0.55841135626E+02 -0.54659617786E+02  0.39389549681E+03  0.40157137429E+03  0.00000000000E+00 0. -1.
         21    1    1    2  505  501 -0.13273404025E+02  0.90952269903E+02 -0.15408582517E+03  0.17941833846E+03  0.00000000000E+00 0. -1.
          2    1    1    2  501    0  0.38521495346E+02  0.22163724687E+02 -0.12569991539E+04  0.12577845639E+04  0.00000000000E+00 0.  1.
<scales pt_clust_3="66.01013" pt_clust_4="77.61825" pt_clust_5="14000.00000" pt_clust_6="44.44251"></scales>
<clustering>
<clus scale="   44.443">  2  6  1 -1</clus>
<clus scale="   66.010">  2  3  1 -1</clus>
<clus scale="   77.618">  1  4  2 -1</clus>
<clus scale="   77.618">  1  3  2 -1</clus>
</clustering>
</event>
<event>
 6    0  0.4796958E+002  0.8774584E+02  0.7546771E-02  0.1308404E+00
          2   -1    0    0  502    0 -0.00000000000E+00  0.00000000000E+00  0.51585594096E+03  0.51585594096E+03  0.00000000000E+00 0. -1.
         21   -1    0    0  503  502  0.00000000000E+00 -0.00000000000E+00 -0.44292004301E+02  0.44292004301E+02  0.00000000000E+00 0. -1.
         21    1    1    2  503  505  0.32819056858E+02 -0.13124079403E+01  0.18454380522E+01  0.32897090286E+02  0.00000000000E+00 0. -1.
         21    1    1    2  504  501  0.73006764691E+02 -0.30445682075E+02  0.23797750654E+03  0.25077922734E+03  0.00000000000E+00 0. -1.
         21    1    1    2  505  504 -0.90165318366E+02  0.60476107073E+02  0.12877321645E+03  0.16843302953E+03  0.00000000000E+00 0. -1.
          2    1    1    2  501    0 -0.15660503183E+02 -0.28718017058E+02  0.10296777563E+03  0.10803859811E+03  0.00000000000E+00 0. -1.
<scales pt_clust_3="32.25534" pt_clust_4="14000.00000" pt_clust_5="87.74584" pt_clust_6="32.71049"></scales>
<clustering>
<clus scale="   32.710">  1  6  2 -1</clus>
<clus scale="   32.255">  2  3  1 -1</clus>
<clus scale="   87.746">  2  5  1 -1</clus>
<clus scale="   32.255">  2  3  1 -1</clus>
</clustering>
</event>
<event>
 6    0  0.4796958E+002  0.9340614E+02  0.7546771E-02  0.1294807E+00
         21   -1    0    0  503  502  0.00000000000E+00  0.00000000000E+00  0.29309848879E+03  0.29309848879E+03  0.00000000000E+00 0. -1.
          1   -1    0    0  505    0 -0.00000000000E+00 -0.00000000000E+00 -0.17700254876E+04  0.17700254876E+04  0.00000000000E+00 0. -1.
         21    1    1    2  503  504  0.43342224439E+02  0.21857739404E+02 -0.15069429920E+01  0.48565214591E+02  0.00000000000E+00 0. -1.
         21    1    1    2  504  501 -0.12336368494E+03 -0.21907362240E+02 -0.63711130443E+03  0.64931451971E+03  0.00000000000E+00 0. -1.
         21    1    1    2  505  502  0.76711329240E+00  0.41742157749E+02  0.25997989251E+03  0.26331073032E+03  0.00000000000E+00 0. -1.
          1    1    1    2  501    0  0.79254347207E+02 -0.41692534912E+02 -0.10982886439E+04  0.11019335118E+04  0.00000000000E+00 0. -1.
<scales pt_clust_3="68.89489" pt_clust_4="93.40614" pt_clust_5="41.74921" pt_clust_6="14000.00000"></scales>
<clustering>
<clus scale="   41.749">  1  5  2 -1</clus>
<clus scale="   68.895">  1  3  2 -1</clus>
<clus scale="   93.406">  1  4  2 -1</clus>
<clus scale="   41.749">  1  3  2 -1</clus>
</clustering>
</event>
<event>
 6    0  0.4796958E+002  0.9142138E+02  0.7546771E-02  0.1299446E+00
          2   -1    0    0  503    0 -0.00000000000E+00  0.00000000000E+00  0.24797053545E+04  0.24797053545E+04  0.00000000000E+00 0.  1.
         21   -1    0    0  504  502  0.00000000000E+00 -0.00000000000E+00 -0.10574400746E+03  0.10574400746E+03  0.00000000000E+00 0. -1.
         21    1    1    2  503  505 -0.41603708407E+02  0.16184034192E+03  0.14472888580E+04  0.14569036356E+04  0.00000000000E+00 0.  1.
         21    1    1    2  504  501 -0.47867931304E+02 -0.66851823532E+02  0.27838836426E+03  0.29027674125E+03  0.00000000000E+00 0.  1.
         21    1    1    2  505  502  0.25837882407E+02 -0.86511986127E+02 -0.71782893473E+02  0.11534601730E+03  0.00000000000E+00 0. -1.
          2    1    1    2  501    0  0.63633757304E+02 -0.84765322630E+01  0.72006701822E+03  0.72292296782E+03  0.00000000000E+00 0.  1.
<scales pt_clust_3="14000.00000" pt_clust_4="77.88695" pt_clust_5="91.42138" pt_clust_6="64.19585"></scales>
<clustering>
<clus scale="   64.196">  1  6  2 -1</clus>
<clus scale="   77.887">  1  4  2 -1</clus>
<clus scale="   91.421">  2  5  1 -1</clus>
<clus scale="   91.421">  2  3  1 -1</clus>
</clustering>
</event>
<event>
 6    0  0.4796958E+002  0.6665119E+02  0.7546771E-02  0.1371866E+00
         -2   -1    0    0    0  501 -0.00000000000E+00  0.00000000000E+00  0.64666025504E+03  0.64666025504E+03  0.00000000000E+00 0.  1.
         21   -1    0    0  505  502  0.00000000000E+00 -0.00000000000E+00 -0.24469876065E+03  0.24469876065E+03  0.00000000000E+00 0.  1.
         21    1    1    2  503  502 -0.57590426346E+02 -0.24929385545E+02 -0.14243373622E+03  0.15564543258E+03  0.00000000000E+00 0.  1.
         21    1    1    2  504  501 -0.20990343697E+02  0.86706498230E+02 -0.42636363071E+02  0.98876037642E+02  0.00000000000E+00 0. -1.
         21    1    1    2  505  504  0.13760062428E+02 -0.50953187765E+02  0.71694118079E+01  0.53263187354E+02  0.00000000000E+00 0. -1.
         -2    1    1    2    0  503  0.64820707616E+02 -0.10823924920E+02  0.57986218187E+03  0.58357435812E+03  0.00000000000E+00 0.  1.
<scales pt_clust_3="14000.00000" pt_clust_4="66.65119" pt_clust_5="52.77847" pt_clust_6="65.90335"></scales>
<clustering>
<clus scale="   52.778">  2  5  1 -1</clus>
<clus scale="   65.903">  1  6  2 -1</clus>
<clus scale="   66.651">  1  4  2 -1</clus>
<clus scale="   52.778">  2  3  1 -1</clus>
</clustering>
</event>
<event>
 6    0  0.4796958E+002  0.1227531E+03  0.7546771E-02  0.1238623E+00
          1   -1    0    0  503    0 -0.00000000000E+00  0.00000000000E+00  0.95223826306E+03  0.95223826306E+03  0.00000000000E+00 0.  1.
         21   -1    0    0  504  502  0.00000000000E+00 -0.00000000000E+00 -0.20637090647E+03  0.20637090647E+03  0.00000000000E+00 0.  1.
         21    1    1    2  503  505  0.15635828519E+03 -0.90175681644E+01  0.85843898219E+00  0.15662045460E+03  0.00000000000E+00 0.  1.
         21    1    1    2  504  501 -0.90768529686E+02  0.36280547551E+02 -0.34494293664E+02  0.10365838320E+03  0.00000000000E+00 0.  1.
         21    1    1    2  505  502 -0.34970547907E+02 -0.14235235160E+02 -0.53048908224E+02  0.65113499405E+02  0.00000000000E+00 0. -1.
          1    1    1    2  501    0 -0.30619207594E+02 -0.13027744227E+02  0.83255211949E+03  0.83321683232E+03  0.00000000000E+00 0.  1.
<scales pt_clust_3="122.75306" pt_clust_4="14000.00000" pt_clust_5="39.43846" pt_clust_6="33.27549"></scales>
<clustering>
<clus scale="   33.275">  1  6  2 -1</clus>
<clus scale="   39.438">  2  5  1 -1</clus>
<clus scale="  122.753">  1  3  2 -1</clus>
<clus scale="   39.438">  2  3  1 -1</clus>
</clustering>
</event>
<event>
 6    0  0.4796958E+002  0.1350603E+03  0.7546771E-02  0.1220135E+00
          1   -1    0    0  502    0 -0.00000000000E+00  0.00000000000E+00  0.29531497671E+04  0.29531497671E+04  0.00000000000E+00 0.  1.
         21   -1    0    0  504  502  0.00000000000E+00 -0.00000000000E+00 -0.25885435726E+02  0.25885435726E+02  0.00000000000E+00 0.  1.
         21    1    1    2  503  501 -0.64897800222E+02  0.51009591598E+01  0.83020094793E+03  0.83274927691E+03  0.00000000000E+00 0.  1.
         21    1    1    2  504  505  0.28277358707E+02  0.12993385948E+02 -0.16401698055E+01  0.31162914671E+02  0.00000000000E+00 0.  1.
         21    1    1    2  505  503  0.10303501295E+03 -0.22128876186E+02  0.35901770772E+03  0.37416522489E+03  0.00000000000E+00 0.  1.
          1    1    1    2  501    0 -0.66414571440E+02  0.40345310781E+01  0.17396858455E+04  0.17409577863E+04  0.00000000000E+00 0.  1.
<scales pt_clust_3="46.98688" pt_clust_4="31.11972" pt_clust_5="126.16565" pt_clust_6="46.98688"></scales>
<clustering>
<clus scale="   31.120">  2  4  1 -1</clus>
<clus scale="   46.987">  3  6 -1 -1</clus>
<clus scale="  126.166">  2  5  1 -1</clus>
<clus scale="   31.120">  2  3  1 -1</clus>
</clustering>
</event>
<event>
 6    0  0.4796958E+002  0.8249763E+02  0.7546771E-02  0.1322109E+00
         21   -1    0    0  503  502  0.00000000000E+00  0.00000000000E+00  0.35116492321E+03  0.35116492321E+03  0.00000000000E+00 0.  1.
          2   -1    0    0  505    0 -0.00000000000E+00 -0.00000000000E+00 -0.69453052073E+03  0.69453052073E+03  0.00000000000E+00 0. -1.
         21    1    1    2  503  504 -0.38691191879E+02  0.96912676006E+01 -0.61964762634E+01  0.40364902017E+02  0.00000000000E+00 0. -1.
         21    1    1    2  504  501  0.59376075986E+02  0.11641734268E+03  0.26065717390E+03  0.29158305572E+03  0.00000000000E+00 0.  1.
         21    1    1    2  505  502 -0.36523726341E+02 -0.45347595187E+02  0.39994116476E+02  0.70639339803E+02  0.00000000000E+00 0.  1.
          2    1    1    2  501    0  0.15838842235E+02 -0.80761015088E+02 -0.63782041163E+03  0.64310814640E+03  0.00000000000E+00 0. -1.
<scales pt_clust_3="39.88645" pt_clust_4="14000.00000" pt_clust_5="61.28983" pt_clust_6="82.49763"></scales>
<clustering>
<clus scale="   39.886">  1  3  2 -1</clus>
<clus scale="   61.290">  1  5  2 -1</clus>
<clus scale="   82.498">  2  6  1 -1</clus>
<clus scale="   39.886">  1  3  2 -1</clus>
</clustering>
</event>
<event>
 6    0  0.4796958E+002  0.8665374E+02  0.7546771E-02  0.1311164E+00
         21   -1    0    0  505  502  0.00000000000E+00  0.00000000000E+00  0.48675960351E+02  0.48675960351E+02  0.00000000000E+00 0.  1.
          2   -1    0    0  503    0 -0.00000000000E+00 -0.00000000000E+00 -0.15942274828E+04  0.15942274828E+04  0.00000000000E+00 0. -1.
         21    1    1    2  503  502 -0.44244259435E+02  0.46245633945E+02 -0.32434710087E+03  0.33060135359E+03  0.00000000000E+00 0. -1.
         21    1    1    2  504  501  0.81474781324E+02 -0.22010390228E+02 -0.11322496478E+03  0.14121788102E+03  0.00000000000E+00 0.  1.
         21    1    1    2  505  504  0.13477318757E+02  0.35337986532E+02  0.18352667907E+02  0.42038456588E+02  0.00000000000E+00 0.  1.
          2    1    1    2  501    0 -0.50707840645E+02 -0.59573230249E+02 -0.11263321247E+04  0.11290457519E+04  0.00000000000E+00 0. -1.
<scales pt_clust_3="66.99578" pt_clust_4="86.65374" pt_clust_5="37.82078" pt_clust_6="14000.00000"></scales>
<clustering>
<clus scale="   37.821">  1  5  2 -1</clus>
<clus scale="   66.996">  2  3  1 -1</clus>
<clus scale="   86.654">  1  4  2 -1</clus>
<clus scale="   37.821">  1  3  2 -1</clus>
</clustering>
</event>
<event>
 6    0  0.4796958E+002  0.5846358E+02  0.7546771E-02  0.1404395E+00
          2   -1    0    0  505    0 -0.00000000000E+00  0.00000000000E+00  0.13661282830E+04  0.13661282830E+04  0.00000000000E+00 0.  1.
         21   -1    0    0  504  502  0.00000000000E+00 -0.00000000000E+00 -0.19363932073E+03  0.19363932073E+03  0.00000000000E+00 0. -1.
         21    1    1    2  503  501 -0.39925438015E+02 -0.73845149241E+02  0.45676836735E+03  0.46441844071E+03  0.00000000000E+00 0.  1.
         21    1    1    2  504  503  0.46979610431E+02 -0.24768774308E+02 -0.19496074173E+02  0.56574489703E+02  0.00000000000E+00 0. -1.
         21    1    1    2  505  502 -0.56132286588E+02  0.73388560958E+02 -0.13676451233E+03  0.16504922390E+03  0.00000000000E+00 0. -1.
          2    1    1    2  501    0  0.49078114172E+02  0.25225362590E+02  0.87198118138E+03  0.87372544938E+03  0.00000000000E+00 0.  1.
<scales pt_clust_3="58.46358" pt_clust_4="53.10910" pt_clust_5="50.48653" pt_clust_6="14000.00000"></scales>
<clustering>
<clus scale="   53.109">  2  4  1 -1</clus>
<clus scale="   50.487">  2  5  1 -1</clus>
<clus scale="   58.464">  2  3  1 -1</clus>
<clus scale="   53.109">  2  3  1 -1</clus>
</clustering>
</event>
<event>
 6    0  0.4796958E+002  0.6813764E+02  0.7546771E-02  0.1366543E+00
         21   -1    0    0  505  502  0.00000000000E+00  0.00000000000E+00  0.52652871906E+02  0.52652871906E+02  0.00000000000E+00 0.  1.
          2   -1    0    0  502    0 -0.00000000000E+00 -0.00000000000E+00 -0.24906025457E+04  0.24906025457E+04  0.00000000000E+00 0.  1.
         21    1    1    2  503  501  0.82380315628E+02  0.43544896359E+02 -0.10197577290E+04  0.10240061037E+04  0.00000000000E+00 0. -1.
         21    1    1    2  504  503 -0.43269923768E+02  0.59238368604E+02 -0.67319899567E+02  0.99566256811E+02  0.00000000000E+00 0.  1.
         21    1    1    2  505  504 -0.21154121905E+02 -0.39168772121E+02  0.18867533854E+02  0.48349492415E+02  0.00000000000E+00 0.  1.
          2    1    1    2  501    0 -0.17956269955E+02 -0.63614492842E+02 -0.13697395791E+04  0.13713335648E+04  0.00000000000E+00 0.  1.
<scales pt_clust_3="68.13764" pt_clust_4="66.50521" pt_clust_5="44.51617" pt_clust_6="14000.00000"></scales>
<clustering>
<clus scale="   44.516">  1  5  2 -1</clus>
<clus scale="   66.505">  1  4  2 -1</clus>
<clus scale="   68.138">  1  3  2 -1</clus>
<clus scale="   44.516">  1  3  2 -1</clus>
</clustering>
</event>
<event>
 6    0  0.4796958E+002  0.1975720E+03  0.7546771E-02  0.1151804E+00
          1   -1    0    0  505    0 -0.00000000000E+00  0.00000000000E+00  0.28506334227E+04  0.28506334227E+04  0.00000000000E+00 0.  1.
         21   -1    0    0  503  502  0.00000000000E+00 -0.00000000000E+00 -0.14000189920E+03  0.14000189920E+03  0.00000000000E+00 0. -1.
         21    1    1    2  503  501  0.17497285183E+03  0.23240016362E+03  0.30955545558E+03  0.42479396772E+03  0.00000000000E+00 0. -1.
         21    1    1    2  504  502 -0.57660197642E+02 -0.82145597626E+02 -0.42441074170E+02  0.10896716193E+03  0.00000000000E+00 0.  1.
         21    1    1    2  505  504 -0.13492242324E+03 -0.10773513021E+03  0.11846448669E+04  0.11971609663E+04  0.00000000000E+00 0.  1.
          1    1    1    2  501    0  0.17609769053E+02 -0.42519435785E+02  0.12588722752E+04  0.12597132259E+04  0.00000000000E+00 0.  1.
<scales pt_clust_3="197.57201" pt_clust_4="100.88157" pt_clust_5="14000.00000" pt_clust_6="46.02180"></scales>
<clustering>
<clus scale="   46.022">  1  6  2 -1</clus>
<clus scale="  100.882">  2  4  1 -1</clus>
<clus scale="  197.572">  2  3  1 -1</clus>
<clus scale="  100.882">  2  3  1 -1</clus>
</clustering>
</event>
<event>
 6    0  0.4796958E+002  0.1518726E+03  0.7546771E-02  0.1198191E+00
          2   -1    0    0  503    0 -0.00000000000E+00  0.00000000000E+00  0.31403258215E+03  0.31403258215E+03  0.00000000000E+00 0. -1.
         21   -1    0    0  504  502  0.00000000000E+00 -0.00000000000E+00 -0.38264602236E+03  0.38264602236E+03  0.00000000000E+00 0.  1.
         21    1    1    2  503  505 -0.40828509680E+02 -0.12066064602E+03 -0.15241573217E+03  0.19863663840E+03  0.00000000000E+00 0.  1.
         21    1    1    2  504  501  0.92863121985E+02  0.14182987031E+03  0.22535465125E+02  0.17101789008E+03  0.00000000000E+00 0.  1.
         21    1    1    2  505  502 -0.20902104437E+02 -0.26210559627E+02 -0.12944825970E+03  0.13371889674E+03  0.00000000000E+00 0. -1.
          2    1    1    2  501    0 -0.31132507868E+02  0.50413353348E+01  0.19071508654E+03  0.19330517930E+03  0.00000000000E+00 0. -1.
<scales pt_clust_3="14000.00000" pt_clust_4="151.87258" pt_clust_5="33.79861" pt_clust_6="31.53804"></scales>
<clustering>
<clus scale="   31.538">  1  6  2 -1</clus>
<clus scale="   33.799">  2  5  1 -1</clus>
<clus scale="  151.873">  1  4  2 -1</clus>
<clus scale="   33.799">  2  3  1 -1</clus>
</clustering>
</event>
<event>
 6    0  0.4796958E+002  0.8431031E+02  0.7546771E-02  0.1317246E+00
          2   -1    0    0  504    0 -0.00000000000E+00  0.00000000000E+00  0.10711353850E+04  0.10711353850E+04  0.00000000000E+00 0.  1.
         21   -1    0    0  505  502  0.00000000000E+00 -0.00000000000E+00 -0.25395349835E+03  0.25395349835E+03  0.00000000000E+00 0.  1.
         21    1    1    2  503  501  0.60534978612E+02  0.12075442533E+03  0.27651511699E+03  0.30774457721E+03  0.00000000000E+00 0.  1.
         21    1    1    2  504  502 -0.42656472381E+02 -0.24740359617E+02 -0.79738036921E+01  0.49952393089E+02  0.00000000000E+00 0.  1.
         21    1    1    2  505  503 -0.18637668459E+02 -0.44669124850E+02 -0.20569382312E+03  0.21131171825E+03  0.00000000000E+00 0.  1.
          2    1    1    2  501    0  0.75916222847E+00 -0.51344940867E+02  0.75433439650E+03  0.75608019484E+03  0.00000000000E+00 0.  1.
<scales pt_clust_3="84.31031" pt_clust_4="14000.00000" pt_clust_5="48.40138" pt_clust_6="52.20437"></scales>
<clustering>
<clus scale="   48.401">  2  5  1 -1</clus>
<clus scale="   52.204">  1  6  2 -1</clus>
<clus scale="   84.310">  1  3  2 -1</clus>
<clus scale="   48.401">  2  3  1 -1</clus>
</clustering>
</event>
<event>
 6    0  0.4796958E+002  0.1138867E+03  0.7546771E-02  0.1253537E+00
          1   -1    0    0  504    0 -0.00000000000E+00  0.00000000000E+00  0.16612552346E+03  0.16612552346E+03  0.00000000000E+00 0.  1.
         21   -1    0    0  503  502  0.00000000000E+00 -0.00000000000E+00 -0.82370047988E+03  0.82370047988E+03  0.00000000000E+00 0.  1.
         21    1    1    2  503  501 -0.17269836685E+03 -0.56062052883E+02 -0.23116473621E+03  0.29394695942E+03  0.00000000000E+00 0.  1.
         21    1    1    2  504  505  0.15275689297E+02  0.73343801684E+02  0.29645376754E+02  0.80569896933E+02  0.00000000000E+00 0.  1.
         21    1    1    2  505  502  0.10382387627E+03 -0.16879361725E+02 -0.52076592456E+03  0.53128284211E+03  0.00000000000E+00 0.  1.
          1    1    1    2  501    0  0.53598801284E+02 -0.40238707462E+00  0.64710327596E+02  0.84026304881E+02  0.00000000000E+00 0.  1.
<scales pt_clust_3="14000.00000" pt_clust_4="87.16051" pt_clust_5="113.88669" pt_clust_6="53.60031"></scales>
<clustering>
<clus scale="   53.600">  1  6  2 -1</clus>
<clus scale="   87.161">  1  4  2 -1</clus>
<clus scale="  113.887">  2  5  1 -1</clus>
<clus scale="  113.887">  2  3  1 -1</clus>
</clustering>
</event>
<event>
 6    0  0.4796958E+002  0.1436492E+03  0.7546771E-02  0.1208501E+00
          1   -1    0    0  503    0 -0.00000000000E+00  0.00000000000E+00  0.12576477451E+04  0.12576477451E+04  0.00000000000E+00 0. -1.
         21   -1    0    0  505  502  0.00000000000E+00 -0.00000000000E+00 -0.14028568452E+03  0.14028568452E+03  0.00000000000E+00 0. -1.
         21    1    1    2  503  502 -0.14476869619E+03 -0.69768103769E+02 -0.47465458026E+02  0.16756650443E+03  0.00000000000E+00 0. -1.
         21    1    1    2  504  501  0.67051656834E+01  0.49792859279E+02  0.81788674849E+02  0.95987892026E+02  0.00000000000E+00 0.  1.
         21    1    1    2  505  504  0.11554389291E+03 -0.14527830218E+01  0.10588075548E+03  0.15672662871E+03  0.00000000000E+00 0. -1.
          1    1    1    2  501    0  0.22519637600E+02  0.21428027512E+02  0.97715808832E+03  0.97765240450E+03  0.00000000000E+00 0. -1.
<scales pt_clust_3="14000.00000" pt_clust_4="58.25922" pt_clust_5="143.64920" pt_clust_6="31.08528"></scales>
<clustering>
<clus scale="   31.085">  1  6  2 -1</clus>
<clus scale="   58.259">  1  4  2 -1</clus>
<clus scale="  143.649">  1  5  2 -1</clus>
<clus scale="  143.649">  2  3  1 -1</clus>
</clustering>
</event>
<event>
 6    0  0.4796958E+002  0.5691491E+02  0.7546771E-02  0.1411254E+00
         21   -1    0    0  504  502  0.00000000000E+00  0.00000000000E+00  0.85533761029E+01  0.85533761029E+01  0.00000000000E+00 0.  1.
          1   -1    0    0  503    0 -0.00000000000E+00 -0.00000000000E+00 -0.38318273793E+04  0.38318273793E+04  0.00000000000E+00 0.  1.
         21    1    1    2  503  505  0.26617754788E+02  0.74345083635E+02 -0.12176472423E+04  0.12202051069E+04  0.00000000000E+00 0.  1.
         21    1    1    2  504  501 -0.78698778449E+02 -0.14163051191E+02 -0.43283667177E+03  0.44016096394E+03  0.00000000000E+00 0.  1.
         21    1    1    2  505  502  0.41224336972E+02 -0.94600822426E+01 -0.13296168800E+03  0.13952687767E+03  0.00000000000E+00 0.  1.
          1    1    1    2  501    0  0.10856686688E+02 -0.50721950202E+02 -0.20398284012E+04  0.20404878069E+04  0.00000000000E+00 0.  1.
<scales pt_clust_3="14000.00000" pt_clust_4="56.91491" pt_clust_5="42.29585" pt_clust_6="53.04344"></scales>
<clustering>
<clus scale="   42.296">  1  5  2 -1</clus>
<clus scale="   53.043">  2  6  1 -1</clus>
<clus scale="   56.915">  1  4  2 -1</clus>
<clus scale="   42.296">  1  3  2 -1</clus>
</clustering>
</event>
<event>
 6    0  0.4796958E+002  0.1010183E+03  0.7546771E-02  0.1278169E+00
         -4   -1    0    0    0  501 -0.00000000000E+00  0.00000000000E+00  0.26120857293E+03  0.26120857293E+03  0.00000000000E+00 0.  1.
         21   -1    0    0  505  502  0.00000000000E+00 -0.00000000000E+00 -0.11467328590E+04  0.11467328590E+04  0.00000000000E+00 0.  1.
         21    1    1    2  503  501 -0.21825270553E+02  0.37625509063E+02 -0.18052357313E+02  0.47094680927E+02  0.00000000000E+00 0.  1.
         21    1    1    2  504  502  0.59589043975E+01 -0.82200259733E+02 -0.15982462549E+03  0.17982297449E+03  0.00000000000E+00 0.  1.
         21    1    1    2  505  503 -0.52875571837E+02 -0.17153598401E+02 -0.93446208499E+03  0.93611402100E+03  0.00000000000E+00 0.  1.
         -4    1    1    2    0  504  0.68741937992E+02  0.61728349071E+02  0.22681478174E+03  0.24490975549E+03  0.00000000000E+00 0.  1.
<scales pt_clust_3="43.49737" pt_clust_4="14000.00000" pt_clust_5="55.61923" pt_clust_6="101.01833"></scales>
<clustering>
<clus scale="   43.497">  1  3  2 -1</clus>
<clus scale="   55.619">  2  5  1 -1</clus>
<clus scale="  101.018">  1  6  2 -1</clus>
<clus scale="   55.619">  2  3  1 -1</clus>
</clustering>
</event>
<event>
 6    0  0.4796958E+002  0.9588029E+02  0.7546771E-02  0.1289206E+00
          4   -1    0    0  505    0 -0.00000000000E+00  0.00000000000E+00  0.21086046037E+03  0.21086046037E+03  0.00000000000E+00 0.  1.
         21   -1    0    0  503  502  0.00000000000E+00 -0.00000000000E+00 -0.42947954371E+03  0.42947954371E+03  0.00000000000E+00 0. -1.
         21    1    1    2  503  504  0.38793190517E+02  0.86533110039E+02 -0.22925773111E+03  0.24809675136E+03  0.00000000000E+00 0. -1.
         21    1    1    2  504  501  0.54726776686E+02 -0.74395449644E+02  0.96653805675E+02  0.13368493246E+03  0.00000000000E+00 0.  1.
         21    1    1    2  505  502 -0.66019164610E+02  0.10039225215E+02 -0.16174794053E+03  0.17499060662E+03  0.00000000000E+00 0. -1.
          4    1    1    2  501    0 -0.27500802593E+02 -0.22176885610E+02  0.75732782623E+02  0.83567713637E+02  0.00000000000E+00 0.  1.
<scales pt_clust_3="14000.00000" pt_clust_4="95.88029" pt_clust_5="67.99460" pt_clust_6="35.32858"></scales>
<clustering>
<clus scale="   35.329">  1  6  2 -1</clus>
<clus scale="   67.995">  2  5  1 -1</clus>
<clus scale="   95.880">  1  4  2 -1</clus>
<clus scale="   67.995">  2  3  1 -1</clus>
</clustering>
</event>
<event>
 6    0  0.4796958E+002  0.1792205E+03  0.7546771E-02  0.1168560E+00
         21   -1    0    0  501  502  0.00000000000E+00  0.00000000000E+00  0.12417355460E+03  0.12417355460E+03  0.00000000000E+00 0.  1.
          2   -1    0    0  503    0 -0.00000000000E+00 -0.00000000000E+00 -0.49196490601E+03  0.49196490601E+03  0.00000000000E+00 0.  1.
         21    1    1    2  503  504  0.12716500556E+03  0.72817658772E+02 -0.11352227679E+03  0.18536627902E+03  0.00000000000E+00 0.  1.
         21    1    1    2  504  505 -0.59016290425E+02 -0.37331746745E+02 -0.32955492987E+02  0.77218173823E+02  0.00000000000E+00 0.  1.
         21    1    1    2  505  502 -0.12190823802E+03  0.31022841839E+01  0.63590917719E+00  0.12194936262E+03  0.00000000000E+00 0.  1.
          2    1    1    2  501    0  0.53759522877E+02 -0.38588196211E+02 -0.22194949080E+03  0.23160464515E+03  0.00000000000E+00 0.  1.
<scales pt_clust_3="165.53606" pt_clust_4="51.97713" pt_clust_5="51.97713" pt_clust_6="66.17503"></scales>
<clustering>
<clus scale="   51.977">  4  5 -1 -1</clus>
<clus scale="   66.175">  2  6  1 -1</clus>
<clus scale="  165.536">  2  3  1 -1</clus>
<clus scale="  179.221">  1  3  2 -1</clus>
</clustering>
</event>
<event>
 6    0  0.4796958E+002  0.1623009E+03  0.7546771E-02  0.1186123E+00
          4   -1    0    0  505    0 -0.00000000000E+00  0.00000000000E+00  0.25780859143E+04  0.25780859143E+04  0.00000000000E+00 0.  1.
         21   -1    0    0  503  502  0.00000000000E+00 -0.00000000000E+00 -0.24811313837E+03  0.24811313837E+03  0.00000000000E+00 0.  1.
         21    1    1    2  503  504  0.11870400762E+03 -0.11083899817E+03 -0.20990150042E+03  0.26539511077E+03  0.00000000000E+00 0.  1.
         21    1    1    2  504  501 -0.10110562865E+03  0.12422672495E+03  0.93167323761E+03  0.94534102261E+03  0.00000000000E+00 0.  1.
         21    1    1    2  505  502 -0.23146158508E+02 -0.59293813698E+02  0.31145018259E+03  0.31788790042E+03  0.00000000000E+00 0.  1.
          4    1    1    2  501    0  0.55477795427E+01  0.45906086919E+02  0.12967508561E+04  0.12975750189E+04  0.00000000000E+00 0.  1.
<scales pt_clust_3="162.30088" pt_clust_4="14000.00000" pt_clust_5="52.72672" pt_clust_6="46.24010"></scales>
<clustering>
<clus scale="   46.240">  1  6  2 -1</clus>
<clus scale="   52.727">  1  5  2 -1</clus>
<clus scale="  162.301">  2  3  1 -1</clus>
<clus scale="  162.301">  2  3  1 -1</clus>
</clustering>
</event>
<event>
 6    0  0.4796958E+002  0.6620869E+02  0.7546771E-02  0.1373482E+00
          2   -1    0    0  503    0 -0.00000000000E+00  0.00000000000E+00  0.16678406880E+04  0.16678406880E+04  0.00000000000E+00 0. -1.
         21   -1    0    0  505  502  0.00000000000E+00 -0.00000000000E+00 -0.14674186072E+04  0.14674186072E+04  0.00000000000E+00 0. -1.
         21    1    1    2  503  504 -0.18922059016E+02 -0.97454799818E+02  0.84527089966E+03  0.85108071070E+03  0.00000000000E+00 0.  1.
         21    1    1    2  504  502  0.66756264454E+01 -0.30784553234E+02 -0.12782831804E+04  0.12786712408E+04  0.00000000000E+00 0. -1.
         21    1    1    2  505  501  0.16739965323E+02  0.91923601333E+02 -0.17386404253E+03  0.19738004004E+03  0.00000000000E+00 0. -1.
          2    1    1    2  501    0 -0.44935327526E+01  0.36315751718E+02  0.80729840412E+03  0.80812730368E+03  0.00000000000E+00 0. -1.
<scales pt_clust_3="66.20869" pt_clust_4="31.50004" pt_clust_5="14000.00000" pt_clust_6="36.52389"></scales>
<clustering>
<clus scale="   31.500">  2  4  1 -1</clus>
<clus scale="   36.524">  1  6  2 -1</clus>
<clus scale="   66.209">  1  3  2 -1</clus>
<clus scale="   31.500">  2  3  1 -1</clus>
</clustering>
</event>
<event>
 6    0  0.4796958E+002  0.1148983E+03  0.7546771E-02  0.1251759E+00
         21   -1    0    0  505  502  0.00000000000E+00  0.00000000000E+00  0.59443348369E+03  0.59443348369E+03  0.00000000000E+00 0. -1.
          4   -1    0    0  503    0 -0.00000000000E+00 -0.00000000000E+00 -0.64572977048E+03  0.64572977048E+03  0.00000000000E+00 0.  1.
         21    1    1    2  503  504  0.71326339155E+02  0.41099890227E+02  0.99102822486E+02  0.12883329173E+03  0.00000000000E+00 0. -1.
         21    1    1    2  504  502  0.47366882111E+02 -0.33671678573E+02  0.42410619189E+03  0.42806946335E+03  0.00000000000E+00 0. -1.
         21    1    1    2  505  501 -0.16516835452E+03 -0.76024194523E+01 -0.74932144617E+02  0.18153018596E+03  0.00000000000E+00 0. -1.
          4    1    1    2  501    0  0.46475133259E+02  0.17420779893E+00 -0.49957315655E+03  0.50173031312E+03  0.00000000000E+00 0.  1.
<scales pt_clust_3="14000.00000" pt_clust_4="58.63262" pt_clust_5="114.89825" pt_clust_6="46.47546"></scales>
<clustering>
<clus scale="   46.475">  2  6  1 -1</clus>
<clus scale="   58.633">  1  4  2 -1</clus>
<clus scale="  114.898">  2  5  1 -1</clus>
<clus scale="   58.633">  1  3  2 -1</clus>
</clustering>
</event>
<event>
 6    0  0.4796958E+002  0.7804764E+02  0.7546771E-02  0.1334685E+00
          2   -1    0    0  503    0 -0.00000000000E+00  0.00000000000E+00  0.57417678601E+03  0.57417678601E+03  0.00000000000E+00 0. -1.
         21   -1    0    0  504  502  0.00000000000E+00 -0.00000000000E+00 -0.19323772505E+03  0.19323772505E+03  0.00000000000E+00 0.  1.
         21    1    1    2  503  505 -0.43817298434E+02  0.49216655165E+02  0.52148808217E+02  0.84034117989E+02  0.00000000000E+00 0.  1.
         21    1    1    2  504  501  0.29216973431E+02  0.57588480768E+02  0.23435222496E+01  0.64618548035E+02  0.00000000000E+00 0.  1.
         21    1    1    2  505  502  0.41970780622E+02 -0.32105232931E+02 -0.13788516448E+03  0.14766384457E+03  0.00000000000E+00 0.  1.
          2    1    1    2  501    0 -0.27370455619E+02 -0.74699903002E+02  0.46433189498E+03  0.47109800046E+03  0.00000000000E+00 0. -1.
<scales pt_clust_3="49.60371" pt_clust_4="14000.00000" pt_clust_5="52.84215" pt_clust_6="78.04764"></scales>
<clustering>
<clus scale="   52.842">  2  5  1 -1</clus>
<clus scale="   49.604">  2  3  1 -1</clus>
<clus scale="   78.048">  1  6  2 -1</clus>
<clus scale="   52.842">  2  3  1 -1</clus>
</clustering>
</event>
<event>
 6    0  0.4796958E+002  0.6985117E+02  0.7546771E-02  0.1360600E+00
         21   -1    0    0  503  502  0.00000000000E+00  0.00000000000E+00  0.66971647102E+03  0.66971647102E+03  0.00000000000E+00 0. -1.
          4   -1    0    0  504    0 -0.00000000000E+00 -0.00000000000E+00 -0.32689220016E+03  0.32689220016E+03  0.00000000000E+00 0.  1.
         21    1    1    2  503  505 -0.22866245488E+02 -0.38637599794E+02  0.44111232125E+03  0.44339125980E+03  0.00000000000E+00 0. -1.
         21    1    1    2  504  502  0.13220765867E+00  0.10092258651E+03  0.17960589383E+03  0.20601859879E+03  0.00000000000E+00 0. -1.
         21    1    1    2  505  501 -0.24160830128E+02 -0.67020237882E+02 -0.62720245377E+01  0.71517804007E+02  0.00000000000E+00 0.  1.
          4    1    1    2  501    0  0.46894867957E+02  0.47352511705E+01 -0.27162191969E+03  0.27568100859E+03  0.00000000000E+00 0.  1.
<scales pt_clust_3="44.89687" pt_clust_4="69.85117" pt_clust_5="14000.00000" pt_clust_6="46.89682"></scales>
<clustering>
<clus scale="   44.897">  1  3  2 -1</clus>
<clus scale="   46.897">  2  6  1 -1</clus>
<clus scale="   69.851">  1  4  2 -1</clus>
<clus scale="   44.897">  1  3  2 -1</clus>
</clustering>
</event>
<event>
 6    0  0.4796958E+002  0.1095981E+03  0.7546771E-02  0.1261316E+00
         21   -1    0    0  505  502  0.00000000000E+00  0.00000000000E+00  0.25126487874E+02  0.25126487874E+02  0.00000000000E+00 0.  1.
          1   -1    0    0  503    0 -0.00000000000E+00 -0.00000000000E+00 -0.29395968885E+04  0.29395968885E+04  0.00000000000E+00 0.  1.
         21    1    1    2  503  502  0.14333543683E+03 -0.60191044687E+01 -0.14661597334E+04  0.14731617837E+04  0.00000000000E+00 0.  1.
         21    1    1    2  504  501 -0.18055873145E+02 -0.53243976546E+02 -0.14534779212E+03  0.15584260094E+03  0.00000000000E+00 0.  1.
         21    1    1    2  505  504 -0.41136879075E+02  0.11545820308E+02 -0.16779335276E+02  0.45903103152E+02  0.00000000000E+00 0.  1.
          1    1    1    2  501    0 -0.84142684612E+02  0.47717260707E+02 -0.12861835398E+04  0.12898158886E+04  0.00000000000E+00 0.  1.
<scales pt_clust_3="109.59812" pt_clust_4="61.14314" pt_clust_5="42.72644" pt_clust_6="14000.00000"></scales>
<clustering>
<clus scale="   42.726">  1  5  2 -1</clus>
<clus scale="   61.143">  1  4  2 -1</clus>
<clus scale="  109.598">  1  3  2 -1</clus>
<clus scale="   42.726">  1  3  2 -1</clus>
</clustering>
</event>
<event>
 6    0  0.4796958E+002  0.8033051E+02  0.7546771E-02  0.1328116E+00
         21   -1    0    0  501  502  0.00000000000E+00  0.00000000000E+00  0.12189397181E+04  0.12189397181E+04  0.00000000000E+00 0.  1.
          3   -1    0    0  504    0 -0.00000000000E+00 -0.00000000000E+00 -0.30518845012E+02  0.30518845012E+02  0.00000000000E+00 0. -1.
         21    1    1    2  503  502  0.78535971318E+01  0.83261400561E+02  0.67857423132E+03  0.68370836416E+03  0.00000000000E+00 0.  1.
         21    1    1    2  504  505  0.47907705236E+02 -0.18117731353E+02  0.10141653255E+03  0.11361651942E+03  0.00000000000E+00 0. -1.
         21    1    1    2  505  503 -0.83517512460E+02 -0.53354303485E+02  0.41012552849E+03  0.42192985875E+03  0.00000000000E+00 0.  1.
          3    1    1    2  501    0  0.27756210093E+02 -0.11789365722E+02 -0.16954192776E+01  0.30203820774E+02  0.00000000000E+00 0. -1.
<scales pt_clust_3="80.33051" pt_clust_4="63.83711" pt_clust_5="14000.00000" pt_clust_6="30.15620"></scales>
<clustering>
<clus scale="   30.156">  2  6  1 -1</clus>
<clus scale="   63.837">  2  4  1 -1</clus>
<clus scale="   80.331">  1  3  2 -1</clus>
<clus scale="   80.331">  1  3  2 -1</clus>
</clustering>
</event>
<event>
 6    0  0.4796958E+002  0.1771912E+03  0.7546771E-02  0.1170549E+00
          1   -1    0    0  504    0 -0.00000000000E+00  0.00000000000E+00  0.23452956197E+04  0.23452956197E+04  0.00000000000E+00 0.  1.
         21   -1    0    0  503  502  0.00000000000E+00 -0.00000000000E+00 -0.80951027198E+03  0.80951027198E+03  0.00000000000E+00 0.  1.
         21    1    1    2  503  501 -0.18640333356E+03  0.21321692491E+02 -0.48171891509E+03  0.51696608253E+03  0.00000000000E+00 0.  1.
         21    1    1    2  504  505  0.77265898400E+02  0.16063521980E+03 -0.23136751788E+03  0.29206954861E+03  0.00000000000E+00 0.  1.
         21    1    1    2  505  502 -0.15630859752E+00 -0.42091523906E+02 -0.35164140703E+02  0.54847402933E+02  0.00000000000E+00 0.  1.
          1    1    1    2  501    0  0.10929374375E+03 -0.13986538838E+03  0.22840359214E+04  0.22909228576E+04  0.00000000000E+00 0.  1.
<scales pt_clust_3="14000.00000" pt_clust_4="165.35934" pt_clust_5="42.09181" pt_clust_6="177.19119"></scales>
<clustering>
<clus scale="   42.092">  2  5  1 -1</clus>
<clus scale="  165.359">  2  4  1 -1</clus>
<clus scale="  177.191">  1  6  2 -1</clus>
<clus scale="   42.092">  2  3  1 -1</clus>
</clustering>
</event>
<event>
 6    0  0.4796958E+002  0.1441392E+03  0.7546771E-02  0.1207865E+00
         21   -1    0    0  503  502  0.00000000000E+00  0.00000000000E+00  0.20136446422E+02  0.20136446422E+02  0.00000000000E+00 0.  1.
          2   -1    0    0  504    0 -0.00000000000E+00 -0.00000000000E+00 -0.30482748590E+04  0.30482748590E+04  0.00000000000E+00 0.  1.
         21    1    1    2  503  501  0.37740777474E+02 -0.14381612954E+02 -0.24500892181E+03  0.24831546235E+03  0.00000000000E+00 0. -1.
         21    1    1    2  504  505 -0.32305040041E+02  0.92061962271E+02 -0.64065929091E+03  0.64804579123E+03  0.00000000000E+00 0.  1.
         21    1    1    2  505  502 -0.90227475286E+02  0.68780082813E+02 -0.28300046370E+03  0.30489499757E+03  0.00000000000E+00 0.  1.
          2    1    1    2  501    0  0.84791737854E+02 -0.14646043213E+03 -0.18594697361E+04  0.18671550542E+04  0.00000000000E+00 0.  1.
<scales pt_clust_3="36.23192" pt_clust_4="97.56547" pt_clust_5="123.59369" pt_clust_6="36.23192"></scales>
<clustering>
<clus scale="   36.232">  3  6 -1 -1</clus>
<clus scale="   97.565">  2  4  1 -1</clus>
<clus scale="  123.594">  1  5  2 -1</clus>
<clus scale="  123.594">  1  3  2 -1</clus>
</clustering>
</event>
<event>
 6    0  0.4796958E+002  0.1306059E+03  0.7546771E-02  0.1226559E+00
         21   -1    0    0  503  502  0.00000000000E+00  0.00000000000E+00  0.93016358369E+03  0.93016358369E+03  0.00000000000E+00 0. -1.
         -1   -1    0    0    0  501 -0.00000000000E+00 -0.00000000000E+00 -0.12800521963E+03  0.12800521963E+03  0.00000000000E+00 0. -1.
         21    1    1    2  503  501  0.10878258180E+03  0.50519005896E+02  0.59718811744E+03  0.60911367385E+03  0.00000000000E+00 0. -1.
         21    1    1    2  504  502 -0.16408637414E+03 -0.61559421799E+02  0.28543552783E+03  0.33494378803E+03  0.00000000000E+00 0. -1.
         21    1    1    2  505  504  0.27209474768E+02  0.22118543073E+02 -0.85212545154E+01  0.36085970173E+02  0.00000000000E+00 0.  1.
         -1    1    1    2    0  505  0.28094317575E+02 -0.11078127170E+02 -0.71944026707E+02  0.78025371261E+02  0.00000000000E+00 0. -1.
<scales pt_clust_3="14000.00000" pt_clust_4="130.60589" pt_clust_5="42.75456" pt_clust_6="30.19960"></scales>
<clustering>
<clus scale="   30.200">  2  6  1 -1</clus>
<clus scale="   42.755">  2  5  1 -1</clus>
<clus scale="  130.606">  2  4  1 -1</clus>
<clus scale="  130.606">  1  3  2 -1</clus>
</clustering>
</event>
<event>
 6    0  0.4796958E+002  0.1137296E+03  0.7546771E-02  0.1253815E+00
         21   -1    0    0  505  502  0.00000000000E+00  0.00000000000E+00  0.66484005223E+03  0.66484005223E+03  0.00000000000E+00 0.  1.
         -2   -1    0    0    0  501 -0.00000000000E+00 -0.00000000000E+00 -0.18639565578E+03  0.18639565578E+03  0.00000000000E+00 0.  1.
         21    1    1    2  503  501  0.34956384653E+02  0.68690297644E+01  0.36297619101E+02  0.50859114723E+02  0.00000000000E+00 0.  1.
         21    1    1    2  504  502 -0.17733582412E+03 -0.32687670069E+02  0.41343038947E+03  0.45104452688E+03  0.00000000000E+00 0.  1.
         21    1    1    2  505  503  0.32654720533E+02  0.10727453913E+02  0.16794283647E+03  0.17142405129E+03  0.00000000000E+00 0.  1.
         -2    1    1    2    0  504  0.10972471894E+03  0.15091186391E+02 -0.13922644859E+03  0.17790801511E+03  0.00000000000E+00 0.  1.
<scales pt_clust_3="38.62871" pt_clust_4="113.72962" pt_clust_5="34.37163" pt_clust_6="14000.00000"></scales>
<clustering>
<clus scale="   34.372">  1  5  2 -1</clus>
<clus scale="   38.629">  1  3  2 -1</clus>
<clus scale="  113.730">  1  4  2 -1</clus>
<clus scale="   34.372">  1  3  2 -1</clus>
</clustering>
</event>
<event>
 6    0  0.4796958E+002  0.8618721E+02  0.7546771E-02  0.1312357E+00
         21   -1    0    0  504  502  0.00000000000E+00  0.00000000000E+00  0.82035031888E+02  0.82035031888E+02  0.00000000000E+00 0.  1.
          2   -1    0    0  505    0 -0.00000000000E+00 -0.00000000000E+00 -0.14191494761E+04  0.14191494761E+04  0.00000000000E+00 0. -1.
         21    1    1    2  503  502 -0.26242031256E+02 -0.39094748826E+02  0.23489537608E+02  0.52619406755E+02  0.00000000000E+00 0. -1.
         21    1    1    2  504  501  0.42655244417E+02  0.10805085737E+03 -0.81630823621E+02  0.14197904430E+03  0.00000000000E+00 0.  1.
         21    1    1    2  505  503 -0.58544761315E+02 -0.57534929455E+02 -0.11232246014E+03  0.13911898590E+03  0.00000000000E+00 0. -1.
          2    1    1    2  501    0  0.42131548153E+02 -0.11421179087E+02 -0.11666506981E+04  0.11674670711E+04  0.00000000000E+00 0. -1.
<scales pt_clust_3="46.33835" pt_clust_4="86.18721" pt_clust_5="14000.00000" pt_clust_6="43.65216"></scales>
<clustering>
<clus scale="   43.652">  2  6  1 -1</clus>
<clus scale="   46.338">  1  3  2 -1</clus>
<clus scale="   86.187">  1  4  2 -1</clus>
<clus scale="   46.338">  1  3  2 -1</clus>
</clustering>
</event>
<event>
 6    0  0.4796958E+002  0.8539304E+02  0.7546771E-02  0.1314408E+00
         21   -1    0    0  505  502  0.00000000000E+00  0.00000000000E+00  0.40742143475E+02  0.40742143475E+02  0.00000000000E+00 0.  1.
         -2   -1    0    0    0  501 -0.00000000000E+00 -0.00000000000E+00 -0.11034235221E+04  0.11034235221E+04  0.00000000000E+00 0.  1.
         21    1    1    2  503  502 -0.17837500635E+02  0.33874222986E+02 -0.69795102357E+02  0.79605249355E+02  0.00000000000E+00 0.  1.
         21    1    1    2  504  501 -0.99654162366E+02 -0.32066081065E+01 -0.20860717171E+03  0.23121026470E+03  0.00000000000E+00 0.  1.
         21    1    1    2  505  504  0.41513556731E+02  0.60623721557E+01  0.25282651100E+01  0.42029987783E+02  0.00000000000E+00 0.  1.
         -2    1    1    2    0  503  0.75978106270E+02 -0.36729987036E+02 -0.78680736968E+03  0.79132016375E+03  0.00000000000E+00 0.  1.
<scales pt_clust_3="38.28367" pt_clust_4="14000.00000" pt_clust_5="40.75787" pt_clust_6="85.39304"></scales>
<clustering>
<clus scale="   38.284">  1  3  2 -1</clus>
<clus scale="   40.758">  1  5  2 -1</clus>
<clus scale="   85.393">  2  6  1 -1</clus>
<clus scale="   38.284">  1  3  2 -1</clus>
</clustering>
</event>
<event>
 6    0  0.4796958E+002  0.8531354E+02  0.7546771E-02  0.1314615E+00
          2   -1    0    0  504    0 -0.00000000000E+00  0.00000000000E+00  0.73539702680E+03  0.73539702680E+03  0.00000000000E+00 0. -1.
         21   -1    0    0  505  502  0.00000000000E+00 -0.00000000000E+00 -0.18964121091E+03  0.18964121091E+03  0.00000000000E+00 0.  1.
         21    1    1    2  503  501  0.48039547854E+02  0.59003659216E+02  0.10502192216E+02  0.76808371941E+02  0.00000000000E+00 0.  1.
         21    1    1    2  504  502 -0.54537504856E+02  0.23464269985E+02 -0.10583244338E+03  0.12134833115E+03  0.00000000000E+00 0.  1.
         21    1    1    2  505  503  0.62833349572E+02 -0.17355270579E+02 -0.13573432695E+02  0.66584332320E+02  0.00000000000E+00 0.  1.
          2    1    1    2  501    0 -0.56335392570E+02 -0.65112658621E+02  0.65465949974E+03  0.66029720230E+03  0.00000000000E+00 0. -1.
<scales pt_clust_3="85.31354" pt_clust_4="59.37096" pt_clust_5="34.45521" pt_clust_6="14000.00000"></scales>
<clustering>
<clus scale="   59.371">  2  4  1 -1</clus>
<clus scale="   34.455">  2  5  1 -1</clus>
<clus scale="   85.314">  2  3  1 -1</clus>
<clus scale="   59.371">  2  3  1 -1</clus>
</clustering>
</event>
<event>
 6    0  0.4796958E+002  0.1360130E+03  0.7546771E-02  0.1218797E+00
         -3   -1    0    0    0  501 -0.00000000000E+00  0.00000000000E+00  0.14870198836E+03  0.14870198836E+03  0.00000000000E+00 0. -1.
         21   -1    0    0  504  502  0.00000000000E+00 -0.00000000000E+00 -0.92279747488E+03  0.92279747488E+03  0.00000000000E+00 0.  1.
         21    1    1    2  503  501  0.13765724401E+03  0.90657419605E+02 -0.10636206837E+03  0.19616619012E+03  0.00000000000E+00 0.  1.
         21    1    1    2  504  503  0.55209428622E+02 -0.21315814881E+02 -0.40639894844E+03  0.41068546391E+03  0.00000000000E+00 0.  1.
         21    1    1    2  505  502 -0.13400053909E+03 -0.66586666514E+02 -0.33700885479E+03  0.36873418181E+03  0.00000000000E+00 0.  1.
         -3    1    1    2    0  505 -0.58866133542E+02 -0.27549382097E+01  0.75674385076E+02  0.95913627392E+02  0.00000000000E+00 0. -1.
<scales pt_clust_3="136.01297" pt_clust_4="57.35004" pt_clust_5="14000.00000" pt_clust_6="58.93056"></scales>
<clustering>
<clus scale="   58.931">  1  6  2 -1</clus>
<clus scale="   57.350">  2  4  1 -1</clus>
<clus scale="  136.013">  1  3  2 -1</clus>
<clus scale="   57.350">  2  3  1 -1</clus>
</clustering>
</event>
<event>
 6    0  0.4796958E+002  0.1353559E+03  0.7546771E-02  0.1219718E+00
         21   -1    0    0  505  502  0.00000000000E+00  0.00000000000E+00  0.12364361930E+04  0.12364361930E+04  0.00000000000E+00 0.  1.
          2   -1    0    0  503    0 -0.00000000000E+00 -0.00000000000E+00 -0.24294069349E+04  0.24294069349E+04  0.00000000000E+00 0. -1.
         21    1    1    2  503  502 -0.11477889486E+03  0.10387860566E+03  0.44988299866E+03  0.47577271033E+03  0.00000000000E+00 0. -1.
         21    1    1    2  504  501 -0.34375129782E+02 -0.49702452502E+02 -0.14304711521E+04  0.14317470797E+04  0.00000000000E+00 0. -1.
         21    1    1    2  505  504  0.12971064681E+03 -0.28526935330E+02  0.76699923694E+03  0.77841278728E+03  0.00000000000E+00 0.  1.
          2    1    1    2  501    0  0.19443377832E+02 -0.25649217833E+02 -0.97938182538E+03  0.97991055062E+03  0.00000000000E+00 0. -1.
<scales pt_clust_3="14000.00000" pt_clust_4="76.54243" pt_clust_5="135.35595" pt_clust_6="32.18582"></scales>
<clustering>
<clus scale="   32.186">  2  6  1 -1</clus>
<clus scale="   76.542">  2  4  1 -1</clus>
<clus scale="  135.356">  1  5  2 -1</clus>
<clus scale="  135.356">  1  3  2 -1</clus>
</clustering>
</event>
<event>
 6    0  0.4796958E+002  0.1932749E+03  0.7546771E-02  0.1155540E+00
         21   -1    0    0  503  502  0.00000000000E+00  0.00000000000E+00  0.27530502980E+03  0.27530502980E+03  0.00000000000E+00 0.  1.
          2   -1    0    0  505    0 -0.00000000000E+00 -0.00000000000E+00 -0.51252649724E+03  0.51252649724E+03  0.00000000000E+00 0.  1.
         21    1    1    2  503  501 -0.14084969065E+03  0.50771648211E+02  0.17719408324E+02  0.15076595455E+03  0.00000000000E+00 0. -1.
         21    1    1    2  504  502  0.15141385416E+02  0.49513972245E+02  0.88451065985E+02  0.10249139512E+03  0.00000000000E+00 0.  1.
         21    1    1    2  505  504 -0.71712557930E+01  0.66139784249E+02  0.52691997381E+02  0.84866628059E+02  0.00000000000E+00 0.  1.
          2    1    1    2  501    0  0.13287956103E+03 -0.16642540471E+03 -0.39608393913E+03  0.44970754931E+03  0.00000000000E+00 0.  1.
<scales pt_clust_3="193.27493" pt_clust_4="36.82454" pt_clust_5="123.21390" pt_clust_6="14000.00000"></scales>
<clustering>
<clus scale="   36.825">  4  5 -1 -1</clus>
<clus scale="  123.214">  1  4  2 -1</clus>
<clus scale="  193.275">  1  3  2 -1</clus>
<clus scale="  123.214">  1  3  2 -1</clus>
</clustering>
</event>
<event>
 6    0  0.4796958E+002  0.8321346E+02  0.7546771E-02  0.1320172E+00
          2   -1    0    0  503    0 -0.00000000000E+00  0.00000000000E+00  0.84887404637E+03  0.84887404637E+03  0.00000000000E+00 0. -1.
         21   -1    0    0  504  502  0.00000000000E+00 -0.00000000000E+00 -0.11860920285E+03  0.11860920285E+03  0.00000000000E+00 0. -1.
         21    1    1    2  503  505  0.91225147681E+00  0.78997580637E+02  0.28790073084E+02  0.84085184530E+02  0.00000000000E+00 0. -1.
         21    1    1    2  504  501 -0.17949178951E+02 -0.99411631548E+02 -0.93940299717E+01  0.10145488313E+03  0.00000000000E+00 0. -1.
         21    1    1    2  505  502 -0.18080408087E+02  0.34583766973E+02 -0.24187117612E+02  0.45912468383E+02  0.00000000000E+00 0.  1.
          2    1    1    2  501    0  0.35117335561E+02 -0.14169716062E+02  0.73505591802E+03  0.73603071317E+03  0.00000000000E+00 0. -1.
<scales pt_clust_3="83.21346" pt_clust_4="14000.00000" pt_clust_5="36.33807" pt_clust_6="37.86830"></scales>
<clustering>
<clus scale="   37.868">  1  6  2 -1</clus>
<clus scale="   36.338">  2  5  1 -1</clus>
<clus scale="   83.213">  1  3  2 -1</clus>
<clus scale="   36.338">  2  3  1 -1</clus>
</clustering>
</event>
<event>
 6    0  0.4796958E+002  0.1487576E+03  0.7546771E-02  0.1202008E+00
          1   -1    0    0  502    0 -0.00000000000E+00  0.00000000000E+00  0.73795765288E+03  0.73795765288E+03  0.00000000000E+00 0.  1.
         21   -1    0    0  505  502  0.00000000000E+00 -0.00000000000E+00 -0.38387600984E+03  0.38387600984E+03  0.00000000000E+00 0.  1.
         21    1    1    2  503  501 -0.77102619658E+02 -0.11086510145E+03  0.26670297453E+03  0.29894207014E+03  0.00000000000E+00 0.  1.
         21    1    1    2  504  503  0.12481822123E+03  0.71859660365E+02 -0.91984040568E+02  0.17089313286E+03  0.00000000000E+00 0.  1.
         21    1    1    2  505  504 -0.15938296074E+02  0.36177423173E+02 -0.23404566922E+03  0.23736092877E+03  0.00000000000E+00 0. -1.
          1    1    1    2  501    0 -0.31777305494E+02  0.28280179152E+01  0.41340837829E+03  0.41463753095E+03  0.00000000000E+00 0.  1.
<scales pt_clust_3="148.75759" pt_clust_4="14000.00000" pt_clust_5="39.61177" pt_clust_6="31.90290"></scales>
<clustering>
<clus scale="   31.903">  1  6  2 -1</clus>
<clus scale="   39.612">  2  5  1 -1</clus>
<clus scale="  148.758">  1  3  2 -1</clus>
<clus scale="   39.612">  2  3  1 -1</clus>
</clustering>
</event>
<event>
 6    0  0.4796958E+002  0.1118151E+03  0.7546771E-02  0.1257245E+00
         -2   -1    0    0    0  501 -0.00000000000E+00  0.00000000000E+00  0.48354332303E+03  0.48354332303E+03  0.00000000000E+00 0. -1.
         21   -1    0    0  504  502  0.00000000000E+00 -0.00000000000E+00 -0.80632364133E+03  0.80632364133E+03  0.00000000000E+00 0. -1.
         21    1    1    2  503  501  0.45451910090E+02  0.28896887338E+02  0.11973844382E+02  0.55174986886E+02  0.00000000000E+00 0.  1.
         21    1    1    2  504  503  0.29089831172E+02 -0.75822689213E+02 -0.34850627847E+02  0.88373439100E+02  0.00000000000E+00 0.  1.
         21    1    1    2  505  502 -0.91676204289E+02  0.76091169250E+02 -0.71751513522E+03  0.72733923429E+03  0.00000000000E+00 0. -1.
         -2    1    1    2    0  505  0.17134463027E+02 -0.29165367375E+02  0.41761160039E+03  0.41897930409E+03  0.00000000000E+00 0. -1.
<scales pt_clust_3="56.01795" pt_clust_4="111.81512" pt_clust_5="14000.00000" pt_clust_6="33.82615"></scales>
<clustering>
<clus scale="   33.826">  1  6  2 -1</clus>
<clus scale="   56.018">  1  3  2 -1</clus>
<clus scale="  111.815">  1  4  2 -1</clus>
<clus scale="  111.815">  2  3  1 -1</clus>
</clustering>
</event>
<event>
 6    0  0.4796958E+002  0.1180601E+03  0.7546771E-02  0.1246332E+00
         21   -1    0    0  505  502  0.00000000000E+00  0.00000000000E+00  0.37835190498E+03  0.37835190498E+03  0.00000000000E+00 0. -1.
          1   -1    0    0  504    0 -0.00000000000E+00 -0.00000000000E+00 -0.63195489899E+03  0.63195489899E+03  0.00000000000E+00 0. -1.
         21    1    1    2  503  501  0.12036571984E+03  0.74319199575E+02 -0.25049911000E+03  0.28768221017E+03  0.00000000000E+00 0.  1.
         21    1    1    2  504  502 -0.17181128325E+03 -0.22544618654E+02  0.10204674031E+03  0.20109926427E+03  0.00000000000E+00 0. -1.
         21    1    1    2  505  503  0.78076474440E+02 -0.31115001523E+02  0.19873465271E+03  0.21577660061E+03  0.00000000000E+00 0. -1.
          1    1    1    2  501    0 -0.26630911029E+02 -0.20659579398E+02 -0.30388527703E+03  0.30574872893E+03  0.00000000000E+00 0. -1.
<scales pt_clust_3="118.06008" pt_clust_4="14000.00000" pt_clust_5="83.60634" pt_clust_6="33.70495"></scales>
<clustering>
<clus scale="   33.705">  2  6  1 -1</clus>
<clus scale="   83.606">  1  5  2 -1</clus>
<clus scale="  118.060">  2  3  1 -1</clus>
<clus scale="   83.606">  1  3  2 -1</clus>
</clustering>
</event>
<event>
 6    0  0.4796958E+002  0.1908993E+03  0.7546771E-02  0.1157653E+00
         21   -1    0    0  503  502  0.00000000000E+00  0.00000000000E+00  0.24577989043E+03  0.24577989043E+03  0.00000000000E+00 0. -1.
          2   -1    0    0  504    0 -0.00000000000E+00 -0.00000000000E+00 -0.16862197740E+04  0.16862197740E+04  0.00000000000E+00 0. -1.
         21    1    1    2  503  501  0.73095576069E+02 -0.96911755182E+01  0.12672191058E+03  0.14661283964E+03  0.00000000000E+00 0. -1.
         21    1    1    2  504  505 -0.20232189485E+03 -0.10474071835E+02 -0.13848333103E+04  0.13995739183E+04  0.00000000000E+00 0. -1.
         21    1    1    2  505  502 -0.16859331690E+02 -0.52943559475E+02  0.67431135035E+02  0.87373998003E+02  0.00000000000E+00 0. -1.
          2    1    1    2  501    0  0.14608565047E+03  0.73108806827E+02 -0.24975961885E+03  0.29843890852E+03  0.00000000000E+00 0. -1.
<scales pt_clust_3="79.39273" pt_clust_4="14000.00000" pt_clust_5="55.56310" pt_clust_6="190.89930"></scales>
<clustering>
<clus scale="   55.563">  1  5  2 -1</clus>
<clus scale="   79.393">  1  3  2 -1</clus>
<clus scale="  190.899">  1  6  2 -1</clus>
<clus scale="   55.563">  1  3  2 -1</clus>
</clustering>
</event>
<event>
 6    0  0.4796958E+002  0.8489441E+02  0.7546771E-02  0.1315709E+00
          2   -1    0    0  505    0 -0.00000000000E+00  0.00000000000E+00  0.39664106177E+04  0.39664106177E+04  0.00000000000E+00 0.  1.
         21   -1    0    0  503  502  0.00000000000E+00 -0.00000000000E+00 -0.10586953608E+03  0.10586953608E+03  0.00000000000E+00 0.  1.
         21    1    1    2  503  501  0.52099121343E+02  0.79732438568E+02 -0.74114559383E+02  0.12068366964E+03  0.00000000000E+00 0.  1.
         21    1    1    2  504  502  0.13793201144E+02 -0.26942609921E+02  0.29672687757E+02  0.42386613758E+02  0.00000000000E+00 0.  1.
         21    1    1    2  505  504  0.32459931851E+02 -0.45308034677E+01  0.20483893175E+03  0.20744436198E+03  0.00000000000E+00 0.  1.
          2    1    1    2  501    0 -0.98352254339E+02 -0.48259025179E+02  0.37001440215E+04  0.37017655084E+04  0.00000000000E+00 0.  1.
<scales pt_clust_3="84.89441" pt_clust_4="30.26808" pt_clust_5="33.00380" pt_clust_6="14000.00000"></scales>
<clustering>
<clus scale="   30.268">  2  4  1 -1</clus>
<clus scale="   33.004">  1  5  2 -1</clus>
<clus scale="   84.894">  2  3  1 -1</clus>
<clus scale="   30.268">  2  3  1 -1</clus>
</clustering>
</event>
<event>
 6    0  0.4796958E+002  0.1345844E+03  0.7546771E-02  0.1220808E+00
          2   -1    0    0  503    0 -0.00000000000E+00  0.00000000000E+00  0.11640068017E+04  0.11640068017E+04  0.00000000000E+00 0.  1.
         21   -1    0    0  505  502  0.00000000000E+00 -0.00000000000E+00 -0.37130516202E+03  0.37130516202E+03  0.00000000000E+00 0. -1.
         21    1    1    2  503  504  0.86648091899E+02  0.14060927329E+03 -0.71465883237E+02  0.17996175158E+03  0.00000000000E+00 0. -1.
         21    1    1    2  504  502 -0.19719221348E+02 -0.37846254716E+02 -0.17327137331E+03  0.17844930792E+03  0.00000000000E+00 0. -1.
         21    1    1    2  505  501  0.37669114461E+02 -0.19172460041E+02 -0.58855303613E+02  0.72460279958E+02  0.00000000000E+00 0. -1.
          2    1    1    2  501    0 -0.10459798501E+03 -0.83590558534E+02  0.10962941998E+04  0.11044406242E+04  0.00000000000E+00 0.  1.
<scales pt_clust_3="14000.00000" pt_clust_4="48.91657" pt_clust_5="42.26755" pt_clust_6="134.58438"></scales>
<clustering>
<clus scale="   42.268">  2  5  1 -1</clus>
<clus scale="   48.917">  2  4  1 -1</clus>
<clus scale="  134.584">  1  6  2 -1</clus>
<clus scale="   42.268">  2  3  1 -1</clus>
</clustering>
</event>
<event>
 6    0  0.4796958E+002  0.4210502E+03  0.7546771E-02  0.1036725E+00
         21   -1    0    0  504  502  0.00000000000E+00  0.00000000000E+00  0.14825580673E+04  0.14825580673E+04  0.00000000000E+00 0. -1.
         -2   -1    0    0    0  501 -0.00000000000E+00 -0.00000000000E+00 -0.34262821811E+03  0.34262821811E+03  0.00000000000E+00 0.  1.
         21    1    1    2  503  502 -0.31190015949E+02 -0.18107680288E+01  0.61952850233E+03  0.62031577537E+03  0.00000000000E+00 0. -1.
         21    1    1    2  504  501  0.43331493041E+03  0.42416742197E+02  0.63856665306E+03  0.77287022153E+03  0.00000000000E+00 0. -1.
         21    1    1    2  505  503 -0.15303279685E+03  0.97973372965E+01 -0.40093606723E+01  0.15339849968E+03  0.00000000000E+00 0.  1.
         -2    1    1    2    0  505 -0.24909211760E+03 -0.50403311465E+02 -0.11415594551E+03  0.27860178885E+03  0.00000000000E+00 0.  1.
<scales pt_clust_3="31.24253" pt_clust_4="409.84795" pt_clust_5="75.16072" pt_clust_6="75.16072"></scales>
<clustering>
<clus scale="   31.243">  1  3  2 -1</clus>
<clus scale="   75.161">  5  6 -1 -1</clus>
<clus scale="  409.848">  1  4  2 -1</clus>
<clus scale="   31.243">  1  3  2 -1</clus>
</clustering>
</event>
<event>
 6    0  0.4796958E+002  0.1457009E+03  0.7546771E-02  0.1205857E+00
         21   -1    0    0  504  502  0.00000000000E+00  0.00000000000E+00  0.20961572631E+03  0.20961572631E+03  0.00000000000E+00 0.  1.
          2   -1    0    0  505    0 -0.00000000000E+00 -0.00000000000E+00 -0.51776828451E+03  0.51776828451E+03  0.00000000000E+00 0.  1.
         21    1    1    2  503  502  0.10411016826E+02  0.74742541518E+02 -0.12286760930E+01  0.75474144108E+02  0.00000000000E+00 0.  1.
         21    1    1    2  504  501  0.10508732725E+02  0.83610049886E+02  0.13697858103E+03  0.16082352305E+03  0.00000000000E+00 0.  1.
         21    1    1    2  505  503 -0.58318999365E+02 -0.18892196322E+02 -0.90321246341E+02  0.10916019563E+03  0.00000000000E+00 0. -1.
          2    1    1    2  501    0  0.37399249814E+02 -0.13946039508E+03 -0.35358121680E+03  0.38192614804E+03  0.00000000000E+00 0.  1.
<scales pt_clust_3="73.18448" pt_clust_4="145.70087" pt_clust_5="61.30270" pt_clust_6="14000.00000"></scales>
<clustering>
<clus scale="   61.303">  2  5  1 -1</clus>
<clus scale="   73.184">  1  3  2 -1</clus>
<clus scale="  145.701">  1  4  2 -1</clus>
<clus scale="   73.184">  1  3  2 -1</clus>
</clustering>
</event>
<event>
 6    0  0.4796958E+002  0.9465923E+02  0.7546771E-02  0.1291945E+00
         21   -1    0    0  504  502  0.00000000000E+00  0.00000000000E+00  0.42131250744E+02  0.42131250744E+02  0.00000000000E+00 0. -1.
          2   -1    0    0  503    0 -0.00000000000E+00 -0.00000000000E+00 -0.33695402768E+04  0.33695402768E+04  0.00000000000E+00 0.  1.
         21    1    1    2  503  505 -0.55114752902E+02 -0.14310523159E+01 -0.46794181578E+01  0.55331553859E+02  0.00000000000E+00 0. -1.
         21    1    1    2  504  501  0.25482602330E+02  0.10003012818E+03 -0.20928042253E+03  0.23335313329E+03  0.00000000000E+00 0. -1.
         21    1    1    2  505  502  0.36309789548E+02 -0.46037300533E+01 -0.78910651010E+02  0.86985550469E+02  0.00000000000E+00 0.  1.
          2    1    1    2  501    0 -0.66776389763E+01 -0.93995345809E+02 -0.30345385344E+04  0.30360012899E+04  0.00000000000E+00 0.  1.
<scales pt_clust_3="31.29875" pt_clust_4="14000.00000" pt_clust_5="36.60048" pt_clust_6="94.65923"></scales>
<clustering>
<clus scale="   36.600">  1  5  2 -1</clus>
<clus scale="   31.299">  1  3  2 -1</clus>
<clus scale="   94.659">  2  6  1 -1</clus>
<clus scale="   36.600">  1  3  2 -1</clus>
</clustering>
</event>
<event>
 6    0  0.4796958E+002  0.9601953E+02  0.7546771E-02  0.1288896E+00
          3   -1    0    0  503    0 -0.00000000000E+00  0.00000000000E+00  0.27378588502E+03  0.27378588502E+03  0.00000000000E+00 0.  1.
         21   -1    0    0  504  502  0.00000000000E+00 -0.00000000000E+00 -0.27977128789E+03  0.27977128789E+03  0.00000000000E+00 0. -1.
         21    1    1    2  503  505 -0.10036514770E+03  0.13005409750E+02  0.29152967750E+02  0.10531950951E+03  0.00000000000E+00 0.  1.
         21    1    1    2  504  501  0.44320285591E+02  0.85751239531E+02 -0.13097016171E+03  0.16269832837E+03  0.00000000000E+00 0. -1.
         21    1    1    2  505  502  0.84801729953E+00 -0.10270323532E+03 -0.60845309575E+02  0.11937682093E+03  0.00000000000E+00 0.  1.
          3    1    1    2  501    0  0.55196844809E+02  0.39465860421E+01  0.15667710066E+03  0.16616251409E+03  0.00000000000E+00 0.  1.
<scales pt_clust_3="69.06831" pt_clust_4="14000.00000" pt_clust_5="96.01953" pt_clust_6="55.33776"></scales>
<clustering>
<clus scale="   55.338">  1  6  2 -1</clus>
<clus scale="   69.068">  1  3  2 -1</clus>
<clus scale="   96.020">  1  5  2 -1</clus>
<clus scale="   96.020">  2  3  1 -1</clus>
</clustering>
</event>
<event>
 6    0  0.4796958E+002  0.6971178E+02  0.7546771E-02  0.1361076E+00
         21   -1    0    0  505  502  0.00000000000E+00  0.00000000000E+00  0.10968985757E+03  0.10968985757E+03  0.00000000000E+00 0. -1.
          2   -1    0    0  504    0 -0.00000000000E+00 -0.00000000000E+00 -0.21734517094E+04  0.21734517094E+04  0.00000000000E+00 0. -1.
         21    1    1    2  503  502  0.66276100328E+02  0.12153497298E+02  0.71266991685E+02  0.98077587017E+02  0.00000000000E+00 0. -1.
         21    1    1    2  504  503 -0.11700805560E+03  0.17415856190E+02 -0.23183774430E+03  0.26027473332E+03  0.00000000000E+00 0.  1.
         21    1    1    2  505  501  0.41795360964E+02  0.49519361182E+01 -0.31033285944E+02  0.52291860800E+02  0.00000000000E+00 0.  1.
          2    1    1    2  501    0  0.89365943083E+01 -0.34521289606E+02 -0.18721578133E+04  0.18724973858E+04  0.00000000000E+00 0. -1.
<scales pt_clust_3="69.71178" pt_clust_4="14000.00000" pt_clust_5="43.03216" pt_clust_6="35.65925"></scales>
<clustering>
<clus scale="   35.659">  2  6  1 -1</clus>
<clus scale="   43.032">  2  5  1 -1</clus>
<clus scale="   69.712">  1  3  2 -1</clus>
<clus scale="   69.712">  1  3  2 -1</clus>
</clustering>
</event>
<event>
 6    0  0.4796958E+002  0.9481283E+02  0.7546771E-02  0.1291598E+00
         21   -1    0    0  505  502  0.00000000000E+00  0.00000000000E+00  0.66613180114E+03  0.66613180114E+03  0.00000000000E+00 0.  1.
          2   -1    0    0  504    0 -0.00000000000E+00 -0.00000000000E+00 -0.24148503992E+04  0.24148503992E+04  0.00000000000E+00 0.  1.
         21    1    1    2  503  502  0.46304708985E+02 -0.29673695971E+02  0.62291846902E+03  0.62534156534E+03  0.00000000000E+00 0.  1.
         21    1    1    2  504  503  0.89837808408E+02  0.41731068244E+02 -0.10839390297E+03  0.14683852382E+03  0.00000000000E+00 0. -1.
         21    1    1    2  505  501 -0.10954870027E+03  0.81233090440E+01 -0.11053844771E+03  0.15583855204E+03  0.00000000000E+00 0. -1.
          2    1    1    2  501    0 -0.26593817127E+02 -0.20180681317E+02 -0.21527047164E+04  0.21529635592E+04  0.00000000000E+00 0.  1.
<scales pt_clust_3="54.94386" pt_clust_4="14000.00000" pt_clust_5="94.81283" pt_clust_6="33.38399"></scales>
<clustering>
<clus scale="   33.384">  2  6  1 -1</clus>
<clus scale="   54.944">  1  3  2 -1</clus>
<clus scale="   94.813">  1  5  2 -1</clus>
<clus scale="   54.944">  1  3  2 -1</clus>
</clustering>
</event>
<event>
 6    0  0.4796958E+002  0.1381082E+03  0.7546771E-02  0.1215897E+00
         21   -1    0    0  505  502  0.00000000000E+00  0.00000000000E+00  0.73538982288E+02  0.73538982288E+02  0.00000000000E+00 0.  1.
          2   -1    0    0  503    0 -0.00000000000E+00 -0.00000000000E+00 -0.19416087262E+04  0.19416087262E+04  0.00000000000E+00 0.  1.
         21    1    1    2  503  504  0.10603842408E+02  0.38815049656E+02 -0.60043544485E+03  0.60178216406E+03  0.00000000000E+00 0.  1.
         21    1    1    2  504  502 -0.13978321307E+03  0.54981970945E+02 -0.14311847470E+03  0.20747352020E+03  0.00000000000E+00 0.  1.
         21    1    1    2  505  501  0.97624755262E+02 -0.92515637998E+02 -0.71347772102E+02  0.15225058521E+03  0.00000000000E+00 0.  1.
          2    1    1    2  501    0  0.31554615397E+02 -0.12813826034E+01 -0.10531680522E+04  0.10536414390E+04  0.00000000000E+00 0.  1.
<scales pt_clust_3="49.61268" pt_clust_4="138.10822" pt_clust_5="14000.00000" pt_clust_6="31.58062"></scales>
<clustering>
<clus scale="   31.581">  2  6  1 -1</clus>
<clus scale="   49.613">  2  3  1 -1</clus>
<clus scale="  138.108">  2  4  1 -1</clus>
<clus scale="  138.108">  1  3  2 -1</clus>
</clustering>
</event>
<event>
 6    0  0.4796958E+002  0.7596572E+02  0.7546771E-02  0.1340906E+00
         21   -1    0    0  505  502  0.00000000000E+00  0.00000000000E+00  0.25388912123E+03  0.25388912123E+03  0.00000000000E+00 0. -1.
          4   -1    0    0  502    0 -0.00000000000E+00 -0.00000000000E+00 -0.35896008666E+03  0.35896008666E+03  0.00000000000E+00 0. -1.
         21    1    1    2  503  504 -0.90995441904E+02 -0.65773122925E+02  0.29059653264E+02  0.11597731500E+03  0.00000000000E+00 0. -1.
         21    1    1    2  504  501  0.32470970112E+02  0.31738045214E+02 -0.10325876620E+02  0.46564913208E+02  0.00000000000E+00 0. -1.
         21    1    1    2  505  503  0.72206210889E+02  0.10635084967E+01  0.15406710702E+03  0.17015152484E+03  0.00000000000E+00 0. -1.
          4    1    1    2  501    0 -0.13681739097E+02  0.32971569214E+02 -0.27787184910E+03  0.28015545485E+03  0.00000000000E+00 0. -1.
<scales pt_clust_3="75.96572" pt_clust_4="51.49292" pt_clust_5="14000.00000" pt_clust_6="35.69754"></scales>
<clustering>
<clus scale="   35.698">  2  6  1 -1</clus>
<clus scale="   51.493">  2  4  1 -1</clus>
<clus scale="   75.966">  2  3  1 -1</clus>
<clus scale="   75.966">  1  3  2 -1</clus>
</clustering>
</event>
<event>
 6    0  0.4796958E+002  0.7261994E+02  0.7546771E-02  0.1351404E+00
         -1   -1    0    0    0  501 -0.00000000000E+00  0.00000000000E+00  0.13632509949E+03  0.13632509949E+03  0.00000000000E+00 0.  1.
         21   -1    0    0  503  502  0.00000000000E+00 -0.00000000000E+00 -0.99616507443E+03  0.99616507443E+03  0.00000000000E+00 0.  1.
         21    1    1    2  503  501 -0.89326538444E+01 -0.69651293714E+02 -0.22275997166E+03  0.23356605061E+03  0.00000000000E+00 0.  1.
         21    1    1    2  504  502 -0.34451037293E+02  0.11325852408E+02 -0.62934633035E+03  0.63039031752E+03  0.00000000000E+00 0.  1.
         21    1    1    2  505  504  0.88357714993E+02  0.42956055307E+02 -0.11497446107E+03  0.15123304924E+03  0.00000000000E+00 0.  1.
         -1    1    1    2    0  505 -0.44974023855E+02  0.15369385998E+02  0.10724078813E+03  0.11730075655E+03  0.00000000000E+00 0.  1.
<scales pt_clust_3="14000.00000" pt_clust_4="36.26498" pt_clust_5="72.61994" pt_clust_6="48.02564"></scales>
<clustering>
<clus scale="   36.265">  2  4  1 -1</clus>
<clus scale="   48.026">  1  6  2 -1</clus>
<clus scale="   72.620">  1  5  2 -1</clus>
<clus scale="   36.265">  2  3  1 -1</clus>
</clustering>
</event>
<event>
 6    0  0.4796958E+002  0.7163768E+02  0.7546771E-02  0.1354611E+00
          4   -1    0    0  505    0 -0.00000000000E+00  0.00000000000E+00  0.39294118500E+03  0.39294118500E+03  0.00000000000E+00 0. -1.
         21   -1    0    0  501  502  0.00000000000E+00 -0.00000000000E+00 -0.15986988577E+03  0.15986988577E+03  0.00000000000E+00 0.  1.
         21    1    1    2  503  502  0.93099143003E+01 -0.37234041476E+02 -0.62438374700E+02  0.73291193087E+02  0.00000000000E+00 0.  1.
         21    1    1    2  504  503 -0.74080159173E+02  0.55491676722E+02 -0.49345352516E+02  0.10489118163E+03  0.00000000000E+00 0.  1.
         21    1    1    2  505  504 -0.28028286556E+02 -0.34065216708E+02  0.58971071495E+02  0.73645170309E+02  0.00000000000E+00 0. -1.
          4    1    1    2  501    0  0.92798531428E+02  0.15807581461E+02  0.28588395495E+03  0.30098352574E+03  0.00000000000E+00 0. -1.
<scales pt_clust_3="38.38031" pt_clust_4="14000.00000" pt_clust_5="46.00077" pt_clust_6="71.63768"></scales>
<clustering>
<clus scale="   38.380">  2  3  1 -1</clus>
<clus scale="   46.001">  1  5  2 -1</clus>
<clus scale="   71.638">  1  6  2 -1</clus>
<clus scale="   38.380">  2  3  1 -1</clus>
</clustering>
</event>
<event>
 6    0  0.4796958E+002  0.1223485E+03  0.7546771E-02  0.1239272E+00
         -2   -1    0    0    0  501 -0.00000000000E+00  0.00000000000E+00  0.56333006336E+03  0.56333006336E+03  0.00000000000E+00 0. -1.
         21   -1    0    0  504  502  0.00000000000E+00 -0.00000000000E+00 -0.66150856856E+03  0.66150856856E+03  0.00000000000E+00 0.  1.
         21    1    1    2  503  501  0.22297240316E+02 -0.15001872804E+03  0.18895051253E+03  0.24229131613E+03  0.00000000000E+00 0. -1.
         21    1    1    2  504  503 -0.38603863811E+02  0.85309999153E+02 -0.39174117719E+02  0.10150204804E+03  0.00000000000E+00 0. -1.
         21    1    1    2  505  502  0.57519939802E+02  0.44741123983E+02 -0.56047254622E+03  0.56519004477E+03  0.00000000000E+00 0.  1.
         -2    1    1    2    0  505 -0.41213316307E+02  0.19967604902E+02  0.31251764621E+03  0.31585522298E+03  0.00000000000E+00 0. -1.
<scales pt_clust_3="14000.00000" pt_clust_4="122.34853" pt_clust_5="72.68101" pt_clust_6="45.79566"></scales>
<clustering>
<clus scale="   45.796">  1  6  2 -1</clus>
<clus scale="   72.681">  2  5  1 -1</clus>
<clus scale="  122.349">  2  4  1 -1</clus>
<clus scale="   72.681">  2  3  1 -1</clus>
</clustering>
</event>
<event>
 6    0  0.4796958E+002  0.1366303E+03  0.7546771E-02  0.1217936E+00
          2   -1    0    0  504    0 -0.00000000000E+00  0.00000000000E+00  0.30501584438E+04  0.30501584438E+04  0.00000000000E+00 0.  1.
         21   -1    0    0  505  502  0.00000000000E+00 -0.00000000000E+00 -0.59441627105E+02  0.59441627105E+02  0.00000000000E+00 0.  1.
         21    1    1    2  503  502 -0.20971622446E+02 -0.45118008063E+02 -0.80563675386E+01  0.50401871567E+02  0.00000000000E+00 0.  1.
         21    1    1    2  504  503  0.12497483886E+03  0.64283489234E+02  0.10998442056E+04  0.11087868839E+04  0.00000000000E+00 0.  1.
         21    1    1    2  505  501 -0.11879306709E+03  0.17545709060E+02  0.11572792893E+03  0.16677109531E+03  0.00000000000E+00 0.  1.
          2    1    1    2  501    0  0.14789850683E+02 -0.36711190232E+02  0.17832010497E+04  0.17836402201E+04  0.00000000000E+00 0.  1.
<scales pt_clust_3="50.20839" pt_clust_4="14000.00000" pt_clust_5="136.63032" pt_clust_6="39.57842"></scales>
<clustering>
<clus scale="   39.578">  1  6  2 -1</clus>
<clus scale="   50.208">  2  3  1 -1</clus>
<clus scale="  136.630">  2  5  1 -1</clus>
<clus scale="   50.208">  2  3  1 -1</clus>
</clustering>
</event>
<event>
 6    0  0.4796958E+002  0.8832551E+02  0.7546771E-02  0.1306958E+00
          2   -1    0    0  504    0 -0.00000000000E+00  0.00000000000E+00  0.48691562721E+03  0.48691562721E+03  0.00000000000E+00 0.  1.
         21   -1    0    0  501  502  0.00000000000E+00 -0.00000000000E+00 -0.16155221053E+03  0.16155221053E+03  0.00000000000E+00 0. -1.
         21    1    1    2  503  505  0.25829769869E+02  0.13350066189E+03  0.79360739607E+02  0.15744119768E+03  0.00000000000E+00 0. -1.
         21    1    1    2  504  503 -0.28555407613E+02 -0.48958147424E+02  0.71951800546E+02  0.91593521086E+02  0.00000000000E+00 0. -1.
         21    1    1    2  505  502 -0.53117089368E+01 -0.34079621800E+02 -0.10769891289E+03  0.11308709348E+03  0.00000000000E+00 0. -1.
          2    1    1    2  501    0  0.80373466800E+01 -0.50462892668E+02  0.28174978942E+03  0.28634602550E+03  0.00000000000E+00 0.  1.
<scales pt_clust_3="14000.00000" pt_clust_4="88.32551" pt_clust_5="34.49108" pt_clust_6="52.57541"></scales>
<clustering>
<clus scale="   34.491">  2  5  1 -1</clus>
<clus scale="   52.575">  1  6  2 -1</clus>
<clus scale="   88.326">  1  4  2 -1</clus>
<clus scale="   34.491">  2  3  1 -1</clus>
</clustering>
</event>
<event>
 6    0  0.4796958E+002  0.9667059E+02  0.7546771E-02  0.1287457E+00
          2   -1    0    0  505    0 -0.00000000000E+00  0.00000000000E+00  0.13398936419E+04  0.13398936419E+04  0.00000000000E+00 0. -1.
         21   -1    0    0  503  502  0.00000000000E+00 -0.00000000000E+00 -0.14223847554E+03  0.14223847554E+03  0.00000000000E+00 0.  1.
         21    1    1    2  503  501  0.34778722923E+02  0.15931637687E+02  0.28692954179E+02  0.47819057572E+02  0.00000000000E+00 0.  1.
         21    1    1    2  504  502 -0.37231684289E+02 -0.28865462649E+02 -0.32095809933E+02  0.57004861759E+02  0.00000000000E+00 0.  1.
         21    1    1    2  505  504  0.98741613371E+02  0.20647563334E+02 -0.56784884725E+02  0.11576161374E+03  0.00000000000E+00 0.  1.
          2    1    1    2  501    0 -0.96288652005E+02 -0.77137383711E+01  0.12578429068E+04  0.12615465843E+04  0.00000000000E+00 0. -1.
<scales pt_clust_3="38.25411" pt_clust_4="34.72721" pt_clust_5="96.67059" pt_clust_6="14000.00000"></scales>
<clustering>
<clus scale="   38.254">  2  3  1 -1</clus>
<clus scale="   34.727">  2  4  1 -1</clus>
<clus scale="   96.671">  2  5  1 -1</clus>
<clus scale="   38.254">  2  3  1 -1</clus>
</clustering>
</event>
<event>
 6    0  0.4796958E+002  0.7076878E+02  0.7546771E-02  0.1357498E+00
          2   -1    0    0  504    0 -0.00000000000E+00  0.00000000000E+00  0.17006763154E+03  0.17006763154E+03  0.00000000000E+00 0.  1.
         21   -1    0    0  503  502  0.00000000000E+00 -0.00000000000E+00 -0.51540208915E+03  0.51540208915E+03  0.00000000000E+00 0.  1.
         21    1    1    2  503  505  0.30582915596E+02  0.51012970006E+02 -0.27940721328E+03  0.28566768923E+03  0.00000000000E+00 0.  1.
         21    1    1    2  504  502 -0.63040565232E+02 -0.49826188933E+02 -0.14476532987E+03  0.16557102011E+03  0.00000000000E+00 0.  1.
         21    1    1    2  505  501  0.50262604920E+02  0.66319906292E+02 -0.43105443112E+02  0.93716266730E+02  0.00000000000E+00 0.  1.
          2    1    1    2  501    0 -0.17804955285E+02 -0.67506687365E+02  0.12194352866E+03  0.14051474461E+03  0.00000000000E+00 0.  1.
<scales pt_clust_3="59.47804" pt_clust_4="45.50541" pt_clust_5="70.76878" pt_clust_6="14000.00000"></scales>
<clustering>
<clus scale="   59.478">  2  3  1 -1</clus>
<clus scale="   45.505">  2  4  1 -1</clus>
<clus scale="   70.769">  2  5  1 -1</clus>
<clus scale="   59.478">  2  3  1 -1</clus>
</clustering>
</event>
<event>
 6    0  0.4796958E+002  0.8797983E+02  0.7546771E-02  0.1307819E+00
          2   -1    0    0  503    0 -0.00000000000E+00  0.00000000000E+00  0.34898885961E+04  0.34898885961E+04  0.00000000000E+00 0.  1.
         21   -1    0    0  505  502  0.00000000000E+00 -0.00000000000E+00 -0.67437970954E+02  0.67437970954E+02  0.00000000000E+00 0. -1.
         21    1    1    2  503  504 -0.13411740246E+03 -0.51211845643E+02  0.28831502560E+04  0.28867222813E+04  0.00000000000E+00 0.  1.
         21    1    1    2  504  502  0.36160123692E+02 -0.55460893021E+01  0.22349429014E+02  0.42869693598E+02  0.00000000000E+00 0. -1.
         21    1    1    2  505  501  0.52671847690E+02  0.11344373440E+02 -0.39999187365E+02  0.67104048594E+02  0.00000000000E+00 0. -1.
          2    1    1    2  501    0  0.45285431074E+02  0.45413561505E+02  0.55695012746E+03  0.56063054350E+03  0.00000000000E+00 0.  1.
<scales pt_clust_3="14000.00000" pt_clust_4="36.58297" pt_clust_5="87.97983" pt_clust_6="64.83626"></scales>
<clustering>
<clus scale="   36.583">  2  4  1 -1</clus>
<clus scale="   64.836">  1  6  2 -1</clus>
<clus scale="   87.980">  2  5  1 -1</clus>
<clus scale="   36.583">  2  3  1 -1</clus>
</clustering>
</event>
<event>
 6    0  0.4796958E+002  0.1017988E+03  0.7546771E-02  0.1276558E+00
         21   -1    0    0  503  502  0.00000000000E+00  0.00000000000E+00  0.36086141812E+03  0.36086141812E+03  0.00000000000E+00 0.  1.
          2   -1    0    0  505    0 -0.00000000000E+00 -0.00000000000E+00 -0.13843101850E+04  0.13843101850E+04  0.00000000000E+00 0. -1.
         21    1    1    2  503  501  0.14126712937E+02  0.38363440247E+02  0.49527330023E+02  0.64220510627E+02  0.00000000000E+00 0.  1.
         21    1    1    2  504  502 -0.22374939507E+02  0.65037482697E+02  0.28627675807E+03  0.29442298532E+03  0.00000000000E+00 0.  1.
         21    1    1    2  505  504 -0.87757931254E+02 -0.27977917817E+02 -0.19246994209E+03  0.21337501492E+03  0.00000000000E+00 0.  1.
          2    1    1    2  501    0  0.96006157823E+02 -0.75423005128E+02 -0.11667829129E+04  0.11731530923E+04  0.00000000000E+00 0. -1.
<scales pt_clust_3="40.88175" pt_clust_4="14000.00000" pt_clust_5="91.25309" pt_clust_6="101.79883"></scales>
<clustering>
<clus scale="   40.882">  1  3  2 -1</clus>
<clus scale="   91.253">  2  5  1 -1</clus>
<clus scale="  101.799">  2  6  1 -1</clus>
<clus scale="   40.882">  1  3  2 -1</clus>
</clustering>
</event>
<event>
 6    0  0.4796958E+002  0.7730767E+02  0.7546771E-02  0.1336870E+00
         21   -1    0    0  504  502  0.00000000000E+00  0.00000000000E+00  0.11451942169E+04  0.11451942169E+04  0.00000000000E+00 0. -1.
         -4   -1    0    0    0  501 -0.00000000000E+00 -0.00000000000E+00 -0.30144225967E+03  0.30144225967E+03  0.00000000000E+00 0. -1.
         21    1    1    2  503  501 -0.74282008475E+02  0.22026170574E+02  0.14021018765E+02  0.78737271609E+02  0.00000000000E+00 0. -1.
         21    1    1    2  504  505 -0.46737332874E+02 -0.60338247936E+02  0.51193318820E+03  0.51759122058E+03  0.00000000000E+00 0. -1.
         21    1    1    2  505  503  0.78276030861E+02  0.31146754340E+02  0.57922154766E+03  0.58531603309E+03  0.00000000000E+00 0. -1.
         -4    1    1    2    0  502  0.42743310488E+02  0.71653230216E+01 -0.26142379736E+03  0.26499195133E+03  0.00000000000E+00 0. -1.
<scales pt_clust_3="47.34213" pt_clust_4="77.30767" pt_clust_5="14000.00000" pt_clust_6="43.33973"></scales>
<clustering>
<clus scale="   43.340">  2  6  1 -1</clus>
<clus scale="   47.342">  2  3  1 -1</clus>
<clus scale="   77.308">  1  4  2 -1</clus>
<clus scale="   77.308">  1  3  2 -1</clus>
</clustering>
</event>
<event>
 6    0  0.4796958E+002  0.1113197E+03  0.7546771E-02  0.1258145E+00
         21   -1    0    0  503  502  0.00000000000E+00  0.00000000000E+00  0.70099342685E+03  0.70099342685E+03  0.00000000000E+00 0. -1.
          1   -1    0    0  504    0 -0.00000000000E+00 -0.00000000000E+00 -0.60377242153E+03  0.60377242153E+03  0.00000000000E+00 0.  1.
         21    1    1    2  503  501 -0.81208814268E+02 -0.50061373507E+02  0.77482499727E+02  0.12290057118E+03  0.00000000000E+00 0. -1.
         21    1    1    2  504  505  0.49862225870E+02  0.12834261868E+01 -0.14398363832E+02  0.51915331382E+02  0.00000000000E+00 0. -1.
         21    1    1    2  505  502 -0.39616379946E+02  0.47926114747E+02  0.57807105136E+03  0.58140563332E+03  0.00000000000E+00 0. -1.
          1    1    1    2  501    0  0.70962968343E+02  0.85183257322E+00 -0.54393418193E+03  0.54854431250E+03  0.00000000000E+00 0.  1.
<scales pt_clust_3="111.31974" pt_clust_4="49.87874" pt_clust_5="62.09031" pt_clust_6="14000.00000"></scales>
<clustering>
<clus scale="   49.879">  2  4  1 -1</clus>
<clus scale="   62.090">  1  5  2 -1</clus>
<clus scale="  111.320">  1  3  2 -1</clus>
<clus scale="   62.090">  1  3  2 -1</clus>
</clustering>
</event>
<event>
 6    0  0.4796958E+002  0.9169231E+02  0.7546771E-02  0.1298805E+00
          1   -1    0    0  503    0 -0.00000000000E+00  0.00000000000E+00  0.21340551672E+04  0.21340551672E+04  0.00000000000E+00 0. -1.
         21   -1    0    0  504  502  0.00000000000E+00 -0.00000000000E+00 -0.89339157792E+02  0.89339157792E+02  0.00000000000E+00 0. -1.
         21    1    1    2  503  502 -0.25106556752E+02 -0.50736000863E+02 -0.23719331284E+02  0.61376605088E+02  0.00000000000E+00 0. -1.
         21    1    1    2  504  505 -0.54828981304E+01  0.14103058416E+03  0.71492328564E+02  0.15821138039E+03  0.00000000000E+00 0. -1.
         21    1    1    2  505  501  0.42313640618E+02 -0.50336339592E+02  0.33781047352E+03  0.34415128546E+03  0.00000000000E+00 0. -1.
          1    1    1    2  501    0 -0.11724185735E+02 -0.39958243709E+02  0.16591325386E+04  0.16596550540E+04  0.00000000000E+00 0. -1.
<scales pt_clust_3="58.23573" pt_clust_4="91.69231" pt_clust_5="14000.00000" pt_clust_6="41.64274"></scales>
<clustering>
<clus scale="   41.643">  1  6  2 -1</clus>
<clus scale="   58.236">  2  3  1 -1</clus>
<clus scale="   91.692">  2  4  1 -1</clus>
<clus scale="   58.236">  2  3  1 -1</clus>
</clustering>
</event>
<event>
 6    0  0.4796958E+002  0.1795430E+03  0.7546771E-02  0.1168246E+00
          2   -1    0    0  503    0 -0.00000000000E+00  0.00000000000E+00  0.28023240508E+04  0.28023240508E+04  0.00000000000E+00 0. -1.
         21   -1    0    0  504  502  0.00000000000E+00 -0.00000000000E+00 -0.49357576070E+02  0.49357576070E+02  0.00000000000E+00 0. -1.
         21    1    1    2  503  505 -0.89055822822E+02  0.13532494155E+03  0.11644630653E+04  0.11756776811E+04  0.00000000000E+00 0. -1.
         21    1    1    2  504  501  0.14681557829E+02 -0.22399350417E+03  0.10853579436E+04  0.11083277962E+04  0.00000000000E+00 0. -1.
         21    1    1    2  505  502  0.19888125557E+02  0.66291777889E+02  0.87240463417E+01  0.69758485781E+02  0.00000000000E+00 0. -1.
          2    1    1    2  501    0  0.54486139436E+02  0.22376784727E+02  0.49442141935E+03  0.49791766367E+03  0.00000000000E+00 0. -1.
<scales pt_clust_3="179.54304" pt_clust_4="14000.00000" pt_clust_5="69.84628" pt_clust_6="58.90212"></scales>
<clustering>
<clus scale="   58.902">  1  6  2 -1</clus>
<clus scale="   69.846">  2  5  1 -1</clus>
<clus scale="  179.543">  1  3  2 -1</clus>
<clus scale="   69.846">  2  3  1 -1</clus>
</clustering>
</event>
<event>
 6    0  0.4796958E+002  0.8856094E+02  0.7546771E-02  0.1306374E+00
         21   -1    0    0  505  502  0.00000000000E+00  0.00000000000E+00  0.20707738550E+04  0.20707738550E+04  0.00000000000E+00 0.  1.
          1   -1    0    0  504    0 -0.00000000000E+00 -0.00000000000E+00 -0.14188866425E+04  0.14188866425E+04  0.00000000000E+00 0. -1.
         21    1    1    2  503  501 -0.89308840791E+02 -0.12632466250E+03  0.22296595616E+02  0.15630459870E+03  0.00000000000E+00 0. -1.
         21    1    1    2  504  502 -0.70268783085E+01  0.85414434714E+02  0.33081836593E+03  0.34173936547E+03  0.00000000000E+00 0. -1.
         21    1    1    2  505  503  0.37392947269E+02 -0.67977528699E+01  0.16439068808E+04  0.16443461542E+04  0.00000000000E+00 0.  1.
          1    1    1    2  501    0  0.58942771831E+02  0.47707980655E+02 -0.13451346299E+04  0.13472703791E+04  0.00000000000E+00 0. -1.
<scales pt_clust_3="14000.00000" pt_clust_4="88.56094" pt_clust_5="38.00581" pt_clust_6="75.89282"></scales>
<clustering>
<clus scale="   38.006">  1  5  2 -1</clus>
<clus scale="   75.893">  2  6  1 -1</clus>
<clus scale="   88.561">  1  4  2 -1</clus>
<clus scale="   38.006">  1  3  2 -1</clus>
</clustering>
</event>
<event>
 6    0  0.4796958E+002  0.6469308E+02  0.7546771E-02  0.1379130E+00
         21   -1    0    0  505  502  0.00000000000E+00  0.00000000000E+00  0.10924649045E+04  0.10924649045E+04  0.00000000000E+00 0. -1.
          2   -1    0    0  504    0 -0.00000000000E+00 -0.00000000000E+00 -0.13470884825E+04  0.13470884825E+04  0.00000000000E+00 0.  1.
         21    1    1    2  503  502 -0.52893232140E+02 -0.17694726616E+02  0.91850359744E+03  0.92019544439E+03  0.00000000000E+00 0. -1.
         21    1    1    2  504  503 -0.37880220537E+02  0.78665349594E+02 -0.35309015799E+03  0.36372490705E+03  0.00000000000E+00 0.  1.
         21    1    1    2  505  501  0.32493612182E+02 -0.35482671632E+02  0.16330027591E+03  0.17024052082E+03  0.00000000000E+00 0.  1.
          2    1    1    2  501    0  0.58279840495E+02 -0.25487951346E+02 -0.98333729338E+03  0.98539251470E+03  0.00000000000E+00 0.  1.
<scales pt_clust_3="56.80941" pt_clust_4="14000.00000" pt_clust_5="48.11294" pt_clust_6="64.69308"></scales>
<clustering>
<clus scale="   48.113">  1  5  2 -1</clus>
<clus scale="   56.809">  1  3  2 -1</clus>
<clus scale="   64.693">  2  6  1 -1</clus>
<clus scale="   48.113">  1  3  2 -1</clus>
</clustering>
</event>
<event>
 6    0  0.4796958E+002  0.7484153E+02  0.7546771E-02  0.1344362E+00
         21   -1    0    0  501  502  0.00000000000E+00  0.00000000000E+00  0.22950193400E+03  0.22950193400E+03  0.00000000000E+00 0. -1.
         -2   -1    0    0    0  501 -0.00000000000E+00 -0.00000000000E+00 -0.18119892236E+04  0.18119892236E+04  0.00000000000E+00 0. -1.
         21    1    1    2  503  504  0.33598945430E+02  0.11349864575E+03 -0.60898910857E+03  0.62038582034E+03  0.00000000000E+00 0. -1.
         21    1    1    2  504  505 -0.18972458246E+01 -0.42312605406E+02  0.54160750157E+01  0.42699999843E+02  0.00000000000E+00 0. -1.
         21    1    1    2  505  502  0.99107507381E+01 -0.36386623696E+02  0.19733483924E+03  0.20090606796E+03  0.00000000000E+00 0. -1.
         -2    1    1    2    0  503 -0.41612450344E+02 -0.34799416649E+02 -0.11762490953E+04  0.11774992695E+04  0.00000000000E+00 0. -1.
<scales pt_clust_3="14000.00000" pt_clust_4="74.84153" pt_clust_5="37.71219" pt_clust_6="54.57409"></scales>
<clustering>
<clus scale="   37.712">  1  5  2 -1</clus>
<clus scale="   54.574">  2  6  1 -1</clus>
<clus scale="   74.842">  1  4  2 -1</clus>
<clus scale="   37.712">  1  3  2 -1</clus>
</clustering>
</event>
<event>
 6    0  0.4796958E+002  0.1917704E+03  0.7546771E-02  0.1156874E+00
         21   -1    0    0  503  502  0.00000000000E+00  0.00000000000E+00  0.22132003105E+03  0.22132003105E+03  0.00000000000E+00 0. -1.
          2   -1    0    0  504    0 -0.00000000000E+00 -0.00000000000E+00 -0.92737129064E+03  0.92737129064E+03  0.00000000000E+00 0.  1.
         21    1    1    2  503  501 -0.17191484721E+03  0.41953763204E+02  0.16172911973E+03  0.23973139366E+03  0.00000000000E+00 0. -1.
         21    1    1    2  504  505  0.11673221218E+03 -0.49741816918E+02 -0.38682882489E+03  0.40710833629E+03  0.00000000000E+00 0.  1.
         21    1    1    2  505  502  0.42492876698E+02 -0.24949294999E+02 -0.52644902357E+02  0.72108235558E+02  0.00000000000E+00 0. -1.
          2    1    1    2  501    0  0.12689758333E+02  0.32737348713E+02 -0.42830665208E+03  0.42974335618E+03  0.00000000000E+00 0.  1.
<scales pt_clust_3="176.62360" pt_clust_4="45.92221" pt_clust_5="45.92221" pt_clust_6="35.11074"></scales>
<clustering>
<clus scale="   35.111">  2  6  1 -1</clus>
<clus scale="   45.922">  4  5 -1 -1</clus>
<clus scale="  176.624">  1  3  2 -1</clus>
<clus scale="  176.624">  1  3  2 -1</clus>
</clustering>
</event>
<event>
 6    0  0.4796958E+002  0.5817482E+02  0.7546771E-02  0.1405655E+00
         21   -1    0    0  503  502  0.00000000000E+00  0.00000000000E+00  0.28549878350E+03  0.28549878350E+03  0.00000000000E+00 0.  1.
          2   -1    0    0  505    0 -0.00000000000E+00 -0.00000000000E+00 -0.24542607591E+04  0.24542607591E+04  0.00000000000E+00 0.  1.
         21    1    1    2  503  504 -0.40382998148E+02  0.40005215618E+02  0.25193087849E+03  0.25826415034E+03  0.00000000000E+00 0.  1.
         21    1    1    2  504  501  0.50690491494E+02 -0.72802488584E+02 -0.41039885958E+02  0.97744567682E+02  0.00000000000E+00 0.  1.
         21    1    1    2  505  502 -0.71352955371E+01  0.70379433298E+02 -0.21382064806E+04  0.21393763415E+04  0.00000000000E+00 0.  1.
          2    1    1    2  501    0 -0.31721978082E+01 -0.37582160332E+02 -0.24144648752E+03  0.24437448302E+03  0.00000000000E+00 0.  1.
<scales pt_clust_3="14000.00000" pt_clust_4="58.17482" pt_clust_5="35.52716" pt_clust_6="37.71580"></scales>
<clustering>
<clus scale="   37.716">  2  6  1 -1</clus>
<clus scale="   35.527">  2  5  1 -1</clus>
<clus scale="   58.175">  2  4  1 -1</clus>
<clus scale="   58.175">  1  3  2 -1</clus>
</clustering>
</event>
<event>
 6    0  0.4796958E+002  0.1467724E+03  0.7546771E-02  0.1204496E+00
         21   -1    0    0  501  502  0.00000000000E+00  0.00000000000E+00  0.19989265558E+03  0.19989265558E+03  0.00000000000E+00 0. -1.
          1   -1    0    0  503    0 -0.00000000000E+00 -0.00000000000E+00 -0.23968629338E+04  0.23968629338E+04  0.00000000000E+00 0. -1.
         21    1    1    2  503  504 -0.15933694005E+03 -0.77275461273E+02 -0.59543189514E+02  0.18682919685E+03  0.00000000000E+00 0. -1.
         21    1    1    2  504  505  0.13077781149E+03 -0.59426805860E+02  0.16005446373E+02  0.14453565493E+03  0.00000000000E+00 0. -1.
         21    1    1    2  505  502  0.29035807540E+02  0.31567337751E+02  0.46319647893E+02  0.63127527380E+02  0.00000000000E+00 0. -1.
          1    1    1    2  501    0 -0.47667897482E+00  0.10513492938E+03 -0.21997521830E+04  0.22022632102E+04  0.00000000000E+00 0. -1.
<scales pt_clust_3="14000.00000" pt_clust_4="146.77240" pt_clust_5="42.89027" pt_clust_6="105.40818"></scales>
<clustering>
<clus scale="   42.890">  1  5  2 -1</clus>
<clus scale="  105.408">  2  6  1 -1</clus>
<clus scale="  146.772">  1  4  2 -1</clus>
<clus scale="   42.890">  1  3  2 -1</clus>
</clustering>
</event>
<event>
 6    0  0.4796958E+002  0.6105566E+02  0.7546771E-02  0.1393454E+00
          1   -1    0    0  504    0 -0.00000000000E+00  0.00000000000E+00  0.30721117472E+03  0.30721117472E+03  0.00000000000E+00 0. -1.
         21   -1    0    0  503  502  0.00000000000E+00 -0.00000000000E+00 -0.13756609956E+03  0.13756609956E+03  0.00000000000E+00 0. -1.
         21    1    1    2  503  501 -0.59092863854E+02  0.35065697835E+02  0.52193002269E+01  0.68911615988E+02  0.00000000000E+00 0. -1.
         21    1    1    2  504  505  0.60009158093E+02 -0.13960015125E+02  0.22364051306E+02  0.65544884378E+02  0.00000000000E+00 0. -1.
         21    1    1    2  505  502  0.59515436302E+02 -0.71091714384E+01 -0.68377662790E+02  0.90929270564E+02  0.00000000000E+00 0. -1.
          1    1    1    2  501    0 -0.60431730540E+02 -0.13996511272E+02  0.21043938643E+03  0.21939150335E+03  0.00000000000E+00 0. -1.
<scales pt_clust_3="40.81482" pt_clust_4="14000.00000" pt_clust_5="59.93853" pt_clust_6="61.05566"></scales>
<clustering>
<clus scale="   59.939">  2  5  1 -1</clus>
<clus scale="   40.815">  2  3  1 -1</clus>
<clus scale="   61.056">  1  6  2 -1</clus>
<clus scale="   59.939">  2  3  1 -1</clus>
</clustering>
</event>
<event>
 6    0  0.4796958E+002  0.1126167E+03  0.7546771E-02  0.1255799E+00
          2   -1    0    0  503    0 -0.00000000000E+00  0.00000000000E+00  0.63367446723E+03  0.63367446723E+03  0.00000000000E+00 0. -1.
         21   -1    0    0  505  502  0.00000000000E+00 -0.00000000000E+00 -0.10116904413E+03  0.10116904413E+03  0.00000000000E+00 0. -1.
         21    1    1    2  503  504 -0.10445805654E+03 -0.35249285367E+02  0.11250910697E+02  0.11081778146E+03  0.00000000000E+00 0. -1.
         21    1    1    2  504  502 -0.40631976041E+02  0.17550341507E+02 -0.24010215545E+02  0.50353375403E+02  0.00000000000E+00 0. -1.
         21    1    1    2  505  501  0.31444122594E+02  0.21443542454E+02  0.37862685772E+02  0.53685578441E+02  0.00000000000E+00 0. -1.
          2    1    1    2  501    0  0.11364590999E+03 -0.37445985933E+01  0.50740204217E+03  0.51998677606E+03  0.00000000000E+00 0. -1.
<scales pt_clust_3="14000.00000" pt_clust_4="38.34768" pt_clust_5="38.05993" pt_clust_6="112.61669"></scales>
<clustering>
<clus scale="   38.060">  2  5  1 -1</clus>
<clus scale="   38.348">  2  4  1 -1</clus>
<clus scale="  112.617">  1  6  2 -1</clus>
<clus scale="   38.060">  2  3  1 -1</clus>
</clustering>
</event>
<event>
 6    0  0.4796958E+002  0.1312998E+03  0.7546771E-02  0.1225540E+00
         21   -1    0    0  503  502  0.00000000000E+00  0.00000000000E+00  0.13531146539E+03  0.13531146539E+03  0.00000000000E+00 0.  1.
          2   -1    0    0  504    0 -0.00000000000E+00 -0.00000000000E+00 -0.14399360829E+04  0.14399360829E+04  0.00000000000E+00 0. -1.
         21    1    1    2  503  501  0.44266019599E+02  0.83774922127E+02 -0.39512845248E+02  0.10265954904E+03  0.00000000000E+00 0.  1.
         21    1    1    2  504  505 -0.15232857465E+03  0.20079325659E+02 -0.30878416165E+03  0.34489829292E+03  0.00000000000E+00 0.  1.
         21    1    1    2  505  502  0.16420065851E+01 -0.30375702788E+02  0.78824452436E+02  0.84490672901E+02  0.00000000000E+00 0.  1.
          2    1    1    2  501    0  0.10642054846E+03 -0.73478544998E+02 -0.10351520631E+04  0.10431990335E+04  0.00000000000E+00 0. -1.
<scales pt_clust_3="79.92972" pt_clust_4="14000.00000" pt_clust_5="30.42005" pt_clust_6="131.29975"></scales>
<clustering>
<clus scale="   30.420">  1  5  2 -1</clus>
<clus scale="   79.930">  1  3  2 -1</clus>
<clus scale="  131.300">  2  6  1 -1</clus>
<clus scale="   30.420">  1  3  2 -1</clus>
</clustering>
</event>
<event>
 6    0  0.4796958E+002  0.2854945E+03  0.7546771E-02  0.1092725E+00
          2   -1    0    0  503    0 -0.00000000000E+00  0.00000000000E+00  0.49125194534E+04  0.49125194534E+04  0.00000000000E+00 0. -1.
         21   -1    0    0  505  502  0.00000000000E+00 -0.00000000000E+00 -0.12674209307E+03  0.12674209307E+03  0.00000000000E+00 0. -1.
         21    1    1    2  503  502 -0.84201203036E+01  0.31324611304E+02 -0.46990016185E+02  0.57098085084E+02  0.00000000000E+00 0. -1.
         21    1    1    2  504  501  0.16459013153E+03 -0.20695232669E+03  0.34094782088E+04  0.34197164844E+04  0.00000000000E+00 0. -1.
         21    1    1    2  505  504 -0.18508925555E+03  0.18425189872E+03  0.17631828713E+03  0.31511098534E+03  0.00000000000E+00 0. -1.
          2    1    1    2  501    0  0.28919244327E+02 -0.86241833287E+01  0.12469708805E+04  0.12473359917E+04  0.00000000000E+00 0. -1.
<scales pt_clust_3="32.41473" pt_clust_4="14000.00000" pt_clust_5="285.49445" pt_clust_6="30.17779"></scales>
<clustering>
<clus scale="   30.178">  1  6  2 -1</clus>
<clus scale="   32.415">  2  3  1 -1</clus>
<clus scale="  285.494">  2  5  1 -1</clus>
<clus scale="   32.415">  2  3  1 -1</clus>
</clustering>
</event>
<event>
 6    0  0.4796958E+002  0.1302493E+03  0.7546771E-02  0.1227086E+00
         21   -1    0    0  501  502  0.00000000000E+00  0.00000000000E+00  0.32100387967E+03  0.32100387967E+03  0.00000000000E+00 0. -1.
          2   -1    0    0  505    0 -0.00000000000E+00 -0.00000000000E+00 -0.56885022457E+03  0.56885022457E+03  0.00000000000E+00 0.  1.
         21    1    1    2  503  502 -0.84565650099E+01 -0.54110243337E+02  0.11661614411E+03  0.12883616338E+03  0.00000000000E+00 0. -1.
         21    1    1    2  504  503 -0.48808224640E+02  0.96648901394E+02  0.11962339279E+03  0.16134747918E+03  0.00000000000E+00 0. -1.
         21    1    1    2  505  504 -0.82298569832E+02 -0.24768312813E+02  0.94596948947E+01  0.86463921629E+02  0.00000000000E+00 0. -1.
          2    1    1    2  501    0  0.13956335948E+03 -0.17770345244E+02 -0.49354557670E+03  0.51320654006E+03  0.00000000000E+00 0.  1.
<scales pt_clust_3="54.76707" pt_clust_4="80.01949" pt_clust_5="14000.00000" pt_clust_6="130.24932"></scales>
<clustering>
<clus scale="   54.767">  1  3  2 -1</clus>
<clus scale="   80.019">  1  4  2 -1</clus>
<clus scale="  130.249">  2  6  1 -1</clus>
<clus scale="   54.767">  1  3  2 -1</clus>
</clustering>
</event>
<event>
 6    0  0.4796958E+002  0.2272632E+03  0.7546771E-02  0.1128581E+00
         21   -1    0    0  503  502  0.00000000000E+00  0.00000000000E+00  0.54525251264E+03  0.54525251264E+03  0.00000000000E+00 0.  1.
         -4   -1    0    0    0  501 -0.00000000000E+00 -0.00000000000E+00 -0.23806554579E+03  0.23806554579E+03  0.00000000000E+00 0.  1.
         21    1    1    2  503  501  0.23234224060E+03  0.74501920605E+02  0.28293736829E+03  0.37361344638E+03  0.00000000000E+00 0.  1.
         21    1    1    2  504  505 -0.97423849160E+02 -0.73672732090E+02 -0.42141221543E+02  0.12920897953E+03  0.00000000000E+00 0.  1.
         21    1    1    2  505  502 -0.45526929842E+02 -0.23435702627E+02  0.14846872975E+03  0.15705061991E+03  0.00000000000E+00 0.  1.
         -4    1    1    2    0  504 -0.89391461600E+02  0.22606514112E+02 -0.82077909647E+02  0.12344501261E+03  0.00000000000E+00 0.  1.
<scales pt_clust_3="201.87285" pt_clust_4="89.65913" pt_clust_5="51.20482" pt_clust_6="89.65913"></scales>
<clustering>
<clus scale="   51.205">  1  5  2 -1</clus>
<clus scale="   89.659">  4  6 -1 -1</clus>
<clus scale="  201.873">  1  3  2 -1</clus>
<clus scale="   51.205">  1  3  2 -1</clus>
</clustering>
</event>
<event>
 6    0  0.4796958E+002  0.1119185E+03  0.7546771E-02  0.1257058E+00
         21   -1    0    0  505  502  0.00000000000E+00  0.00000000000E+00  0.84526073564E+03  0.84526073564E+03  0.00000000000E+00 0.  1.
          2   -1    0    0  503    0 -0.00000000000E+00 -0.00000000000E+00 -0.16946127264E+04  0.16946127264E+04  0.00000000000E+00 0.  1.
         21    1    1    2  503  504  0.14533611024E+03  0.89278972293E+02  0.40249412141E+03  0.43714395524E+03  0.00000000000E+00 0.  1.
         21    1    1    2  504  502 -0.20876828433E+01 -0.62936100756E+02  0.31089803921E+03  0.31721113156E+03  0.00000000000E+00 0.  1.
         21    1    1    2  505  501 -0.75762319230E+02  0.58138806284E+01  0.97488725316E+02  0.12360332434E+03  0.00000000000E+00 0.  1.
          2    1    1    2  501    0 -0.67486108165E+02 -0.32156752166E+02 -0.16602328767E+04  0.16619150509E+04  0.00000000000E+00 0.  1.
<scales pt_clust_3="111.91850" pt_clust_4="62.97072" pt_clust_5="14000.00000" pt_clust_6="74.80171"></scales>
<clustering>
<clus scale="   62.971">  1  4  2 -1</clus>
<clus scale="   74.802">  2  6  1 -1</clus>
<clus scale="  111.918">  1  3  2 -1</clus>
<clus scale="   62.971">  1  3  2 -1</clus>
</clustering>
</event>
<event>
 6    0  0.4796958E+002  0.6567914E+02  0.7546771E-02  0.1375435E+00
         21   -1    0    0  505  502  0.00000000000E+00  0.00000000000E+00  0.31162849086E+02  0.31162849086E+02  0.00000000000E+00 0.  1.
         -1   -1    0    0    0  501 -0.00000000000E+00 -0.00000000000E+00 -0.17340057200E+04  0.17340057200E+04  0.00000000000E+00 0.  1.
         21    1    1    2  503  502  0.84387765969E+02  0.16385038691E+02 -0.10528260813E+03  0.13591980029E+03  0.00000000000E+00 0.  1.
         21    1    1    2  504  501  0.30062663067E+02 -0.57411677998E+02 -0.61990870573E+03  0.62328698680E+03  0.00000000000E+00 0.  1.
         21    1    1    2  505  504 -0.40488877868E+02  0.19110309652E+02 -0.27204228129E+02  0.52389151493E+02  0.00000000000E+00 0.  1.
         -1    1    1    2    0  503 -0.73961551168E+02  0.21916329655E+02 -0.95044732889E+03  0.95357263045E+03  0.00000000000E+00 0.  1.
<scales pt_clust_3="60.27778" pt_clust_4="65.67914" pt_clust_5="44.77224" pt_clust_6="14000.00000"></scales>
<clustering>
<clus scale="   44.772">  1  5  2 -1</clus>
<clus scale="   60.278">  1  3  2 -1</clus>
<clus scale="   65.679">  1  4  2 -1</clus>
<clus scale="   44.772">  1  3  2 -1</clus>
</clustering>
</event>
<event>
 6    0  0.4796958E+002  0.6941855E+02  0.7546771E-02  0.1362082E+00
         21   -1    0    0  505  502  0.00000000000E+00  0.00000000000E+00  0.23619808280E+03  0.23619808280E+03  0.00000000000E+00 0.  1.
          4   -1    0    0  503    0 -0.00000000000E+00 -0.00000000000E+00 -0.18440859418E+03  0.18440859418E+03  0.00000000000E+00 0.  1.
         21    1    1    2  503  504 -0.25467289929E+00  0.74673050800E+02  0.22440802016E+02  0.77972552666E+02  0.00000000000E+00 0. -1.
         21    1    1    2  504  502  0.40609656037E+02 -0.28672687533E+02  0.98194964387E+01  0.50672375947E+02  0.00000000000E+00 0.  1.
         21    1    1    2  505  501  0.31421061424E+02 -0.48378227282E+02  0.14016286002E+03  0.15156966486E+03  0.00000000000E+00 0.  1.
          4    1    1    2  501    0 -0.71776044562E+02  0.23778640150E+01 -0.12063366985E+03  0.14039208351E+03  0.00000000000E+00 0.  1.
<scales pt_clust_3="68.36704" pt_clust_4="49.71184" pt_clust_5="14000.00000" pt_clust_6="69.41855"></scales>
<clustering>
<clus scale="   49.712">  1  4  2 -1</clus>
<clus scale="   68.367">  1  3  2 -1</clus>
<clus scale="   69.419">  2  6  1 -1</clus>
<clus scale="   49.712">  1  3  2 -1</clus>
</clustering>
</event>
<event>
 6    0  0.4796958E+002  0.1465948E+03  0.7546771E-02  0.1204721E+00
          2   -1    0    0  504    0 -0.00000000000E+00  0.00000000000E+00  0.25521965328E+04  0.25521965328E+04  0.00000000000E+00 0.  1.
         21   -1    0    0  503  502  0.00000000000E+00 -0.00000000000E+00 -0.11503814353E+03  0.11503814353E+03  0.00000000000E+00 0. -1.
         21    1    1    2  503  505 -0.10863055295E+02 -0.51723609474E+02 -0.17244958211E+02  0.55594301246E+02  0.00000000000E+00 0. -1.
         21    1    1    2  504  502 -0.64163486359E+02  0.12171918138E+03  0.67001065679E+03  0.68399326920E+03  0.00000000000E+00 0.  1.
         21    1    1    2  505  501 -0.87373886781E+02 -0.24478368162E+02 -0.37342251201E+02  0.98121507957E+02  0.00000000000E+00 0. -1.
          2    1    1    2  501    0  0.16240042843E+03 -0.45517203749E+02  0.18217349419E+04  0.18295255979E+04  0.00000000000E+00 0.  1.
<scales pt_clust_3="52.85204" pt_clust_4="146.59476" pt_clust_5="118.84308" pt_clust_6="14000.00000"></scales>
<clustering>
<clus scale="   52.852">  2  3  1 -1</clus>
<clus scale="  118.843">  2  5  1 -1</clus>
<clus scale="  146.595">  2  4  1 -1</clus>
<clus scale="   52.852">  2  3  1 -1</clus>
</clustering>
</event>
<event>
 6    0  0.4796958E+002  0.1360332E+03  0.7546771E-02  0.1218768E+00
          4   -1    0    0  503    0 -0.00000000000E+00  0.00000000000E+00  0.43873961583E+03  0.43873961583E+03  0.00000000000E+00 0.  1.
         21   -1    0    0  504  502  0.00000000000E+00 -0.00000000000E+00 -0.55272132817E+03  0.55272132817E+03  0.00000000000E+00 0.  1.
         21    1    1    2  503  502 -0.13846829401E+03 -0.41268589630E+02 -0.40144168369E+03  0.42665207176E+03  0.00000000000E+00 0.  1.
         21    1    1    2  504  505  0.53501624628E+02 -0.96292200379E+01 -0.91084859387E+02  0.10607354678E+03  0.00000000000E+00 0.  1.
         21    1    1    2  505  501  0.48034967521E+02 -0.11838016479E+02 -0.20172255014E+02  0.53426740601E+02  0.00000000000E+00 0.  1.
          4    1    1    2  501    0  0.36931701860E+02  0.62735826146E+02  0.39871708575E+03  0.40530858485E+03  0.00000000000E+00 0.  1.
<scales pt_clust_3="127.33168" pt_clust_4="45.66803" pt_clust_5="45.66803" pt_clust_6="72.79928"></scales>
<clustering>
<clus scale="   45.668">  4  5 -1 -1</clus>
<clus scale="   72.799">  1  6  2 -1</clus>
<clus scale="  127.332">  2  3  1 -1</clus>
<clus scale="  127.332">  2  3  1 -1</clus>
</clustering>
</event>
<event>
 6    0  0.4796958E+002  0.8375079E+02  0.7546771E-02  0.1318732E+00
          1   -1    0    0  503    0 -0.00000000000E+00  0.00000000000E+00  0.33569264876E+03  0.33569264876E+03  0.00000000000E+00 0.  1.
         21   -1    0    0  505  502  0.00000000000E+00 -0.00000000000E+00 -0.10833760593E+03  0.10833760593E+03  0.00000000000E+00 0. -1.
         21    1    1    2  503  504 -0.71606591782E+02 -0.87786151711E+01  0.72019160668E+02  0.10193786134E+03  0.00000000000E+00 0. -1.
         21    1    1    2  504  502 -0.63417090363E+02 -0.79420359776E+01 -0.11457472028E+02  0.64931324882E+02  0.00000000000E+00 0. -1.
         21    1    1    2  505  501  0.12900125961E+03 -0.20011692569E+02  0.28066478192E+02  0.13352722575E+03  0.00000000000E+00 0.  1.
          1    1    1    2  501    0  0.60224225396E+01  0.36732343718E+02  0.13872687600E+03  0.14363384272E+03  0.00000000000E+00 0.  1.
<scales pt_clust_3="83.75079" pt_clust_4="62.65609" pt_clust_5="14000.00000" pt_clust_6="37.22277"></scales>
<clustering>
<clus scale="   37.223">  1  6  2 -1</clus>
<clus scale="   62.656">  2  4  1 -1</clus>
<clus scale="   83.751">  1  3  2 -1</clus>
<clus scale="   62.656">  2  3  1 -1</clus>
</clustering>
</event>
<event>
 6    0  0.4796958E+002  0.1359129E+03  0.7546771E-02  0.1218937E+00
         21   -1    0    0  503  502  0.00000000000E+00  0.00000000000E+00  0.17214951340E+03  0.17214951340E+03  0.00000000000E+00 0. -1.
          2   -1    0    0  504    0 -0.00000000000E+00 -0.00000000000E+00 -0.27030287276E+04  0.27030287276E+04  0.00000000000E+00 0. -1.
         21    1    1    2  503  505  0.12996251675E+03 -0.26614458454E+02 -0.44331040992E+02  0.13987074875E+03  0.00000000000E+00 0. -1.
         21    1    1    2  504  502  0.85992612833E+01  0.31050104073E+02  0.11832405764E+03  0.12263212823E+03  0.00000000000E+00 0. -1.
         21    1    1    2  505  501 -0.11851043429E+03  0.19066922508E+02 -0.95501582514E+03  0.96252973816E+03  0.00000000000E+00 0.  1.
          2    1    1    2  501    0 -0.20051343752E+02 -0.23502568126E+02 -0.16498564057E+04  0.16501456259E+04  0.00000000000E+00 0. -1.
<scales pt_clust_3="135.91287" pt_clust_4="32.16161" pt_clust_5="14000.00000" pt_clust_6="30.89380"></scales>
<clustering>
<clus scale="   30.894">  2  6  1 -1</clus>
<clus scale="   32.162">  1  4  2 -1</clus>
<clus scale="  135.913">  1  3  2 -1</clus>
<clus scale="   32.162">  1  3  2 -1</clus>
</clustering>
</event>
<event>
 6    0  0.4796958E+002  0.7113719E+02  0.7546771E-02  0.1356268E+00
         21   -1    0    0  505  502  0.00000000000E+00  0.00000000000E+00  0.48665372548E+03  0.48665372548E+03  0.00000000000E+00 0. -1.
          2   -1    0    0  503    0 -0.00000000000E+00 -0.00000000000E+00 -0.29470503119E+03  0.29470503119E+03  0.00000000000E+00 0. -1.
         21    1    1    2  503  502  0.72112750419E+02  0.39120730117E+02  0.27718198996E+03  0.28906839305E+03  0.00000000000E+00 0. -1.
         21    1    1    2  504  501 -0.10156083657E+03 -0.16986775725E+02  0.10650723513E+02  0.10352097365E+03  0.00000000000E+00 0. -1.
         21    1    1    2  505  504 -0.39066552943E+02 -0.20067221188E+02  0.13811895128E+03  0.14493354900E+03  0.00000000000E+00 0. -1.
          2    1    1    2  501    0  0.68514639095E+02 -0.20667332042E+01 -0.23400297047E+03  0.24383584097E+03  0.00000000000E+00 0. -1.
<scales pt_clust_3="46.02801" pt_clust_4="71.13719" pt_clust_5="43.91912" pt_clust_6="14000.00000"></scales>
<clustering>
<clus scale="   43.919">  1  5  2 -1</clus>
<clus scale="   46.028">  1  3  2 -1</clus>
<clus scale="   71.137">  1  4  2 -1</clus>
<clus scale="   43.919">  1  3  2 -1</clus>
</clustering>
</event>
<event>
 6    0  0.4796958E+002  0.1023388E+03  0.7546771E-02  0.1275453E+00
         21   -1    0    0  503  502  0.00000000000E+00  0.00000000000E+00  0.85631989698E+03  0.85631989698E+03  0.00000000000E+00 0. -1.
          2   -1    0    0  505    0 -0.00000000000E+00 -0.00000000000E+00 -0.97712366557E+03  0.97712366557E+03  0.00000000000E+00 0.  1.
         21    1    1    2  503  501 -0.87858913501E+02 -0.52165115607E+02  0.66176438764E+03  0.66960622213E+03  0.00000000000E+00 0. -1.
         21    1    1    2  504  502  0.41507483041E+02 -0.40301411567E+02  0.17494813290E+03  0.18426590603E+03  0.00000000000E+00 0.  1.
         21    1    1    2  505  504 -0.53263826242E+01  0.96226459996E+02 -0.21933729068E+03  0.23957618629E+03  0.00000000000E+00 0. -1.
          2    1    1    2  501    0  0.51677813084E+02 -0.37599328221E+01 -0.73817899845E+03  0.73999524810E+03  0.00000000000E+00 0.  1.
<scales pt_clust_3="102.33880" pt_clust_4="58.63446" pt_clust_5="14000.00000" pt_clust_6="51.81441"></scales>
<clustering>
<clus scale="   51.814">  2  6  1 -1</clus>
<clus scale="   58.634">  1  4  2 -1</clus>
<clus scale="  102.339">  1  3  2 -1</clus>
<clus scale="   58.634">  1  3  2 -1</clus>
</clustering>
</event>
<event>
 6    0  0.4796958E+002  0.8266457E+02  0.7546771E-02  0.1321655E+00
         21   -1    0    0  504  502  0.00000000000E+00  0.00000000000E+00  0.45119160626E+03  0.45119160626E+03  0.00000000000E+00 0. -1.
          2   -1    0    0  505    0 -0.00000000000E+00 -0.00000000000E+00 -0.46079147852E+03  0.46079147852E+03  0.00000000000E+00 0. -1.
         21    1    1    2  503  501 -0.42702969987E+02  0.46967977140E+02  0.62282565307E+02  0.88930604763E+02  0.00000000000E+00 0.  1.
         21    1    1    2  504  503  0.86074609879E+02 -0.35915570460E+02  0.36069649619E+03  0.37255969861E+03  0.00000000000E+00 0. -1.
         21    1    1    2  505  502  0.21406252288E+02 -0.34130140455E+02 -0.64521691563E+02  0.76066699722E+02  0.00000000000E+00 0. -1.
          2    1    1    2  501    0 -0.64777892180E+02  0.23077733776E+02 -0.36805724219E+03  0.37442608168E+03  0.00000000000E+00 0. -1.
<scales pt_clust_3="14000.00000" pt_clust_4="82.66457" pt_clust_5="40.28764" pt_clust_6="45.40442"></scales>
<clustering>
<clus scale="   40.288">  2  5  1 -1</clus>
<clus scale="   45.404">  2  6  1 -1</clus>
<clus scale="   82.665">  1  4  2 -1</clus>
<clus scale="   82.665">  1  3  2 -1</clus>
</clustering>
</event>
<event>
 6    0  0.4796958E+002  0.1171159E+03  0.7546771E-02  0.1247932E+00
         21   -1    0    0  503  502  0.00000000000E+00  0.00000000000E+00  0.16788070113E+03  0.16788070113E+03  0.00000000000E+00 0.  1.
          2   -1    0    0  504    0 -0.00000000000E+00 -0.00000000000E+00 -0.49673741547E+03  0.49673741547E+03  0.00000000000E+00 0. -1.
         21    1    1    2  503  505  0.41202899102E+02 -0.29788839420E+01  0.93181415251E+02  0.10192805694E+03  0.00000000000E+00 0.  1.
         21    1    1    2  504  502  0.85623075032E+02  0.59534885478E+02 -0.60444678449E+02  0.12053743286E+03  0.00000000000E+00 0.  1.
         21    1    1    2  505  501 -0.14104075309E+03 -0.15179170136E+02 -0.92100163790E+02  0.16913113672E+03  0.00000000000E+00 0. -1.
          2    1    1    2  501    0  0.14214778955E+02 -0.41376831400E+02 -0.26949328735E+03  0.27302149008E+03  0.00000000000E+00 0. -1.
<scales pt_clust_3="41.31044" pt_clust_4="117.11593" pt_clust_5="14000.00000" pt_clust_6="44.16722"></scales>
<clustering>
<clus scale="   41.310">  1  3  2 -1</clus>
<clus scale="   44.167">  2  6  1 -1</clus>
<clus scale="  117.116">  2  4  1 -1</clus>
<clus scale="   41.310">  1  3  2 -1</clus>
</clustering>
</event>
<event>
 6    0  0.4796958E+002  0.3317793E+03  0.7546771E-02  0.1070352E+00
         21   -1    0    0  503  502  0.00000000000E+00  0.00000000000E+00  0.60619488939E+03  0.60619488939E+03  0.00000000000E+00 0.  1.
          2   -1    0    0  504    0 -0.00000000000E+00 -0.00000000000E+00 -0.43121069924E+03  0.43121069924E+03  0.00000000000E+00 0.  1.
         21    1    1    2  503  505  0.36787449958E+02 -0.13715261231E+02  0.37824689923E+02  0.54517263622E+02  0.00000000000E+00 0. -1.
         21    1    1    2  504  502 -0.13110170050E+03 -0.32212802138E+03  0.25925445181E+03  0.43378219052E+03  0.00000000000E+00 0.  1.
         21    1    1    2  505  501  0.14822313806E+03  0.27511540622E+03  0.87340262406E+02  0.32447943977E+03  0.00000000000E+00 0.  1.
          2    1    1    2  501    0 -0.53908887518E+02  0.60727876394E+02 -0.20943521398E+03  0.22462669472E+03  0.00000000000E+00 0.  1.
<scales pt_clust_3="39.26098" pt_clust_4="14000.00000" pt_clust_5="331.77932" pt_clust_6="80.73374"></scales>
<clustering>
<clus scale="   39.261">  1  3  2 -1</clus>
<clus scale="   80.734">  2  6  1 -1</clus>
<clus scale="  331.779">  2  5  1 -1</clus>
<clus scale="   39.261">  1  3  2 -1</clus>
</clustering>
</event>
<event>
 6    0  0.4796958E+002  0.7791711E+02  0.7546771E-02  0.1335068E+00
          2   -1    0    0  504    0 -0.00000000000E+00  0.00000000000E+00  0.17573749476E+04  0.17573749476E+04  0.00000000000E+00 0. -1.
         21   -1    0    0  503  502  0.00000000000E+00 -0.00000000000E+00 -0.15949352307E+04  0.15949352307E+04  0.00000000000E+00 0.  1.
         21    1    1    2  503  501  0.57864459670E+02  0.67767389191E+02 -0.12735654526E+04  0.12766791597E+04  0.00000000000E+00 0.  1.
         21    1    1    2  504  505 -0.10851254003E+03 -0.17659727542E+02  0.17868233918E+03  0.20979565214E+03  0.00000000000E+00 0.  1.
         21    1    1    2  505  502  0.13702409895E+02 -0.38110391084E+02 -0.30266574033E+03  0.30536323996E+03  0.00000000000E+00 0.  1.
          2    1    1    2  501    0  0.36945670469E+02 -0.11997270566E+02  0.15599885707E+04  0.15604721265E+04  0.00000000000E+00 0. -1.
<scales pt_clust_3="14000.00000" pt_clust_4="77.91711" pt_clust_5="40.66216" pt_clust_6="38.84478"></scales>
<clustering>
<clus scale="   38.845">  1  6  2 -1</clus>
<clus scale="   40.662">  2  5  1 -1</clus>
<clus scale="   77.917">  1  4  2 -1</clus>
<clus scale="   40.662">  2  3  1 -1</clus>
</clustering>
</event>
<event>
 6    0  0.4796958E+002  0.1027704E+03  0.7546771E-02  0.1274576E+00
          2   -1    0    0  504    0 -0.00000000000E+00  0.00000000000E+00  0.25450303059E+04  0.25450303059E+04  0.00000000000E+00 0. -1.
         21   -1    0    0  505  502  0.00000000000E+00 -0.00000000000E+00 -0.14991989676E+03  0.14991989676E+03  0.00000000000E+00 0.  1.
         21    1    1    2  503  501  0.15872089044E+02 -0.33250427809E+02  0.15457198446E+02  0.39955464506E+02  0.00000000000E+00 0.  1.
         21    1    1    2  504  502 -0.36605564558E+02 -0.86646859541E+02  0.24843416485E+03  0.26564483787E+03  0.00000000000E+00 0.  1.
         21    1    1    2  505  503  0.40292735188E+02  0.95306247834E+02 -0.10819842599E+03  0.14971200610E+03  0.00000000000E+00 0.  1.
          2    1    1    2  501    0 -0.19559259673E+02  0.24591039516E+02  0.22394174718E+04  0.22396378941E+04  0.00000000000E+00 0. -1.
<scales pt_clust_3="34.07368" pt_clust_4="14000.00000" pt_clust_5="102.77036" pt_clust_6="31.42107"></scales>
<clustering>
<clus scale="   31.421">  1  6  2 -1</clus>
<clus scale="   34.074">  1  3  2 -1</clus>
<clus scale="  102.770">  2  5  1 -1</clus>
<clus scale="  102.770">  2  3  1 -1</clus>
</clustering>
</event>
<event>
 6    0  0.4796958E+002  0.1224250E+03  0.7546771E-02  0.1239149E+00
         -1   -1    0    0    0  501 -0.00000000000E+00  0.00000000000E+00  0.54113876539E+02  0.54113876539E+02  0.00000000000E+00 0.  1.
         21   -1    0    0  501  502  0.00000000000E+00 -0.00000000000E+00 -0.13699955730E+04  0.13699955730E+04  0.00000000000E+00 0.  1.
         21    1    1    2  503  504 -0.30427223233E+02  0.85137911921E+01 -0.79159302384E+02  0.85232011053E+02  0.00000000000E+00 0.  1.
         21    1    1    2  504  505 -0.11097099953E+03  0.16543939900E+02 -0.74901041378E+02  0.13490155923E+03  0.00000000000E+00 0.  1.
         21    1    1    2  505  502  0.11642116391E+03 -0.41979715019E+02 -0.11668459738E+04  0.11733906896E+04  0.00000000000E+00 0.  1.
         -1    1    1    2    0  503  0.24977058852E+02  0.16921983927E+02  0.50246210941E+01  0.30585189652E+02  0.00000000000E+00 0.  1.
<scales pt_clust_3="30.02755" pt_clust_4="14000.00000" pt_clust_5="122.42503" pt_clust_6="30.16964"></scales>
<clustering>
<clus scale="   30.170">  1  6  2 -1</clus>
<clus scale="   30.028">  1  3  2 -1</clus>
<clus scale="  122.425">  2  5  1 -1</clus>
<clus scale="  122.425">  2  3  1 -1</clus>
</clustering>
</event>
<event>
 6    0  0.4796958E+002  0.1070840E+03  0.7546771E-02  0.1266067E+00
         21   -1    0    0  504  502  0.00000000000E+00  0.00000000000E+00  0.34853640122E+02  0.34853640122E+02  0.00000000000E+00 0.  1.
          2   -1    0    0  503    0 -0.00000000000E+00 -0.00000000000E+00 -0.35253879584E+04  0.35253879584E+04  0.00000000000E+00 0.  1.
         21    1    1    2  503  502  0.10750574103E+03 -0.44464310561E+01 -0.11924614884E+03  0.16061413112E+03  0.00000000000E+00 0.  1.
         21    1    1    2  504  505 -0.58727423403E+01 -0.35502355844E+02 -0.17789568514E+02  0.40141937185E+02  0.00000000000E+00 0.  1.
         21    1    1    2  505  501 -0.10664138607E+03 -0.52076514416E+01 -0.10253862952E+04  0.10309299487E+04  0.00000000000E+00 0.  1.
          2    1    1    2  501    0  0.50083873797E+01  0.45156438341E+02 -0.23281123057E+04  0.23285555815E+04  0.00000000000E+00 0.  1.
<scales pt_clust_3="14000.00000" pt_clust_4="35.98481" pt_clust_5="107.08398" pt_clust_6="45.09698"></scales>
<clustering>
<clus scale="   35.985">  1  4  2 -1</clus>
<clus scale="   45.097">  2  6  1 -1</clus>
<clus scale="  107.084">  2  5  1 -1</clus>
<clus scale="   35.985">  1  3  2 -1</clus>
</clustering>
</event>
<event>
 6    0  0.4796958E+002  0.9763479E+02  0.7546771E-02  0.1285350E+00
          2   -1    0    0  504    0 -0.00000000000E+00  0.00000000000E+00  0.10069798469E+04  0.10069798469E+04  0.00000000000E+00 0.  1.
         21   -1    0    0  503  502  0.00000000000E+00 -0.00000000000E+00 -0.81849283427E+03  0.81849283427E+03  0.00000000000E+00 0.  1.
         21    1    1    2  503  501  0.99731507098E+02  0.33799777832E+02 -0.10720320491E+03  0.15027084093E+03  0.00000000000E+00 0. -1.
         21    1    1    2  504  505 -0.41891982567E+02 -0.20609539778E+02 -0.70218515435E+02  0.84322780096E+02  0.00000000000E+00 0. -1.
         21    1    1    2  505  502 -0.95151903214E+02 -0.15962586310E+02 -0.60832427892E+03  0.61592785062E+03  0.00000000000E+00 0.  1.
          2    1    1    2  501    0  0.37312378683E+02  0.27723482558E+01  0.97423301194E+03  0.97495120958E+03  0.00000000000E+00 0.  1.
<scales pt_clust_3="97.63479" pt_clust_4="39.24899" pt_clust_5="14000.00000" pt_clust_6="37.41523"></scales>
<clustering>
<clus scale="   37.415">  1  6  2 -1</clus>
<clus scale="   39.249">  1  4  2 -1</clus>
<clus scale="   97.635">  1  3  2 -1</clus>
<clus scale="   97.635">  2  3  1 -1</clus>
</clustering>
</event>
<event>
 6    0  0.4796958E+002  0.9853856E+02  0.7546771E-02  0.1283400E+00
         21   -1    0    0  503  502  0.00000000000E+00  0.00000000000E+00  0.46107895961E+02  0.46107895961E+02  0.00000000000E+00 0. -1.
          2   -1    0    0  504    0 -0.00000000000E+00 -0.00000000000E+00 -0.26853145794E+04  0.26853145794E+04  0.00000000000E+00 0. -1.
         21    1    1    2  503  505  0.40275931646E+02  0.29651336826E+02 -0.52953804239E+01  0.50293076058E+02  0.00000000000E+00 0. -1.
         21    1    1    2  504  502 -0.18798203142E+02 -0.15085437907E+03 -0.32932050062E+03  0.36271532674E+03  0.00000000000E+00 0. -1.
         21    1    1    2  505  501  0.51805081570E+02  0.54705749620E+02 -0.24214105468E+03  0.25359175041E+03  0.00000000000E+00 0. -1.
          2    1    1    2  501    0 -0.73282810074E+02  0.66497292619E+02 -0.20624497478E+04  0.20648223222E+04  0.00000000000E+00 0. -1.
<scales pt_clust_3="50.01352" pt_clust_4="98.53856" pt_clust_5="87.30582" pt_clust_6="14000.00000"></scales>
<clustering>
<clus scale="   50.014">  1  3  2 -1</clus>
<clus scale="   87.306">  1  5  2 -1</clus>
<clus scale="   98.539">  1  4  2 -1</clus>
<clus scale="   50.014">  1  3  2 -1</clus>
</clustering>
</event>
<event>
 6    0  0.4796958E+002  0.1392876E+03  0.7546771E-02  0.1214291E+00
         21   -1    0    0  503  502  0.00000000000E+00  0.00000000000E+00  0.32430175568E+03  0.32430175568E+03  0.00000000000E+00 0. -1.
          1   -1    0    0  504    0 -0.00000000000E+00 -0.00000000000E+00 -0.13329036618E+04  0.13329036618E+04  0.00000000000E+00 0.  1.
         21    1    1    2  503  505  0.28322300864E+02 -0.23504006387E+02  0.17640503067E+02  0.40813948485E+02  0.00000000000E+00 0.  1.
         21    1    1    2  504  502 -0.13900893559E+03 -0.60656439065E+02  0.12494386134E+03  0.19650357824E+03  0.00000000000E+00 0. -1.
         21    1    1    2  505  501  0.30463265162E+02  0.16239546805E+03  0.80025404947E+02  0.18358748324E+03  0.00000000000E+00 0.  1.
          1    1    1    2  501    0  0.80223369562E+02 -0.78235022594E+02 -0.12312116755E+04  0.12363004075E+04  0.00000000000E+00 0.  1.
<scales pt_clust_3="36.80477" pt_clust_4="139.28762" pt_clust_5="14000.00000" pt_clust_6="112.37217"></scales>
<clustering>
<clus scale="   36.805">  1  3  2 -1</clus>
<clus scale="  112.372">  2  6  1 -1</clus>
<clus scale="  139.288">  1  4  2 -1</clus>
<clus scale="   36.805">  1  3  2 -1</clus>
</clustering>
</event>
<event>
 6    0  0.4796958E+002  0.1211283E+03  0.7546771E-02  0.1241247E+00
         21   -1    0    0  505  502  0.00000000000E+00  0.00000000000E+00  0.54058461097E+03  0.54058461097E+03  0.00000000000E+00 0. -1.
          3   -1    0    0  503    0 -0.00000000000E+00 -0.00000000000E+00 -0.18650169960E+03  0.18650169960E+03  0.00000000000E+00 0.  1.
         21    1    1    2  503  504  0.10319036260E+03  0.51987679884E+02 -0.93603263235E+02  0.14870286037E+03  0.00000000000E+00 0.  1.
         21    1    1    2  504  502 -0.84148011481E+02  0.70428331573E+02  0.19871937627E+03  0.22700314586E+03  0.00000000000E+00 0. -1.
         21    1    1    2  505  501 -0.54082020103E+02 -0.63371124891E+02  0.26757452918E+03  0.28024434523E+03  0.00000000000E+00 0. -1.
          3    1    1    2  501    0  0.35039668985E+02 -0.59044886566E+02 -0.18607730839E+02  0.71135959115E+02  0.00000000000E+00 0.  1.
<scales pt_clust_3="121.12827" pt_clust_4="14000.00000" pt_clust_5="84.35282" pt_clust_6="68.65914"></scales>
<clustering>
<clus scale="   68.659">  2  6  1 -1</clus>
<clus scale="   84.353">  1  5  2 -1</clus>
<clus scale="  121.128">  2  3  1 -1</clus>
<clus scale="   84.353">  1  3  2 -1</clus>
</clustering>
</event>
<event>
 6    0  0.4796958E+002  0.1059113E+03  0.7546771E-02  0.1268334E+00
          4   -1    0    0  504    0 -0.00000000000E+00  0.00000000000E+00  0.72480825668E+03  0.72480825668E+03  0.00000000000E+00 0.  1.
         21   -1    0    0  505  502  0.00000000000E+00 -0.00000000000E+00 -0.74121822854E+03  0.74121822854E+03  0.00000000000E+00 0.  1.
         21    1    1    2  503  501 -0.73128184263E+02 -0.69372569334E+02 -0.25022893943E+03  0.26976806119E+03  0.00000000000E+00 0.  1.
         21    1    1    2  504  502 -0.87420420994E+01  0.10200841909E+03 -0.12572805211E+03  0.16214093854E+03  0.00000000000E+00 0.  1.
         21    1    1    2  505  503 -0.23811504904E+02 -0.18918810316E+02 -0.33251279282E+03  0.33390068365E+03  0.00000000000E+00 0.  1.
          4    1    1    2  501    0  0.10568173127E+03 -0.13717039437E+02  0.69205981250E+03  0.70021680183E+03  0.00000000000E+00 0.  1.
<scales pt_clust_3="14000.00000" pt_clust_4="96.86331" pt_clust_5="30.41232" pt_clust_6="105.91135"></scales>
<clustering>
<clus scale="   30.412">  2  5  1 -1</clus>
<clus scale="   96.863">  2  4  1 -1</clus>
<clus scale="  105.911">  1  6  2 -1</clus>
<clus scale="   30.412">  2  3  1 -1</clus>
</clustering>
</event>
<event>
 6    0  0.4796958E+002  0.7126180E+02  0.7546771E-02  0.1355854E+00
         21   -1    0    0  505  502  0.00000000000E+00  0.00000000000E+00  0.62424927611E+02  0.62424927611E+02  0.00000000000E+00 0. -1.
          2   -1    0    0  503    0 -0.00000000000E+00 -0.00000000000E+00 -0.12394908703E+04  0.12394908703E+04  0.00000000000E+00 0. -1.
         21    1    1    2  503  504 -0.15311600161E+02 -0.31815330373E+02 -0.17242796082E+03  0.17600585791E+03  0.00000000000E+00 0. -1.
         21    1    1    2  504  502 -0.12824861795E+02 -0.46076052881E+02 -0.69346284901E+02  0.84240055548E+02  0.00000000000E+00 0. -1.
         21    1    1    2  505  501 -0.53092764774E+02  0.71609382816E+02  0.12822225524E+02  0.90061950046E+02  0.00000000000E+00 0. -1.
          2    1    1    2  501    0  0.81229226729E+02  0.62820004375E+01 -0.94811392247E+03  0.95160793438E+03  0.00000000000E+00 0. -1.
<scales pt_clust_3="35.30808" pt_clust_4="50.33508" pt_clust_5="71.26180" pt_clust_6="14000.00000"></scales>
<clustering>
<clus scale="   35.308">  2  3  1 -1</clus>
<clus scale="   50.335">  1  4  2 -1</clus>
<clus scale="   71.262">  1  5  2 -1</clus>
<clus scale="   50.335">  1  3  2 -1</clus>
</clustering>
</event>
<event>
 6    0  0.4796958E+002  0.1313972E+03  0.7546771E-02  0.1225397E+00
          2   -1    0    0  503    0 -0.00000000000E+00  0.00000000000E+00  0.40094970445E+03  0.40094970445E+03  0.00000000000E+00 0.  1.
         21   -1    0    0  504  502  0.00000000000E+00 -0.00000000000E+00 -0.46739251438E+03  0.46739251438E+03  0.00000000000E+00 0.  1.
         21    1    1    2  503  505 -0.54755833874E+02 -0.77089467936E+02  0.68567100002E+00  0.94559280637E+02  0.00000000000E+00 0.  1.
         21    1    1    2  504  501 -0.20797628183E+02  0.17121867839E+03 -0.13806118162E+03  0.22092819430E+03  0.00000000000E+00 0.  1.
         21    1    1    2  505  502  0.34115736755E+02 -0.11259814117E+03 -0.22476570534E+03  0.25369636810E+03  0.00000000000E+00 0.  1.
          2    1    1    2  501    0  0.41437725301E+02  0.18468930713E+02  0.29569840602E+03  0.29915837579E+03  0.00000000000E+00 0.  1.
<scales pt_clust_3="77.32437" pt_clust_4="131.39716" pt_clust_5="14000.00000" pt_clust_6="45.36724"></scales>
<clustering>
<clus scale="   45.367">  1  6  2 -1</clus>
<clus scale="   77.324">  1  3  2 -1</clus>
<clus scale="  131.397">  1  4  2 -1</clus>
<clus scale="  131.397">  2  3  1 -1</clus>
</clustering>
</event>
<event>
 6    0  0.4796958E+002  0.1425968E+03  0.7546771E-02  0.1209877E+00
          2   -1    0    0  504    0 -0.00000000000E+00  0.00000000000E+00  0.92941075323E+03  0.92941075323E+03  0.00000000000E+00 0.  1.
         21   -1    0    0  505  502  0.00000000000E+00 -0.00000000000E+00 -0.43673471308E+03  0.43673471308E+03  0.00000000000E+00 0.  1.
         21    1    1    2  503  502 -0.51616330177E+01  0.41961228991E+02 -0.31109065007E+03  0.31395028230E+03  0.00000000000E+00 0.  1.
         21    1    1    2  504  503 -0.54413207933E+01 -0.49282128396E+02  0.31804604248E+02  0.58905593984E+02  0.00000000000E+00 0. -1.
         21    1    1    2  505  501  0.13110495370E+03 -0.68394993155E+02 -0.52286809495E+02  0.15684480999E+03  0.00000000000E+00 0. -1.
          2    1    1    2  501    0 -0.12050199989E+03  0.75715892560E+02  0.82424889547E+03  0.83644478003E+03  0.00000000000E+00 0.  1.
<scales pt_clust_3="42.27750" pt_clust_4="45.10602" pt_clust_5="142.59682" pt_clust_6="14000.00000"></scales>
<clustering>
<clus scale="   42.278">  2  3  1 -1</clus>
<clus scale="   45.106">  2  4  1 -1</clus>
<clus scale="  142.597">  2  5  1 -1</clus>
<clus scale="   42.278">  2  3  1 -1</clus>
</clustering>
</event>
<event>
 6    0  0.4796958E+002  0.1377017E+03  0.7546771E-02  0.1216455E+00
         21   -1    0    0  504  502  0.00000000000E+00  0.00000000000E+00  0.27601104449E+03  0.27601104449E+03  0.00000000000E+00 0.  1.
          1   -1    0    0  505    0 -0.00000000000E+00 -0.00000000000E+00 -0.55631344603E+03  0.55631344603E+03  0.00000000000E+00 0.  1.
         21    1    1    2  503  501  0.83343091055E+01 -0.34403427521E+02 -0.46418170316E+01  0.35701582582E+02  0.00000000000E+00 0.  1.
         21    1    1    2  504  503  0.30364061034E+02 -0.64712709925E+01  0.27378913441E+02  0.41393942213E+02  0.00000000000E+00 0.  1.
         21    1    1    2  505  502 -0.16918710085E+03  0.78051570690E+02  0.17663050663E+03  0.25673850248E+03  0.00000000000E+00 0.  1.
          1    1    1    2  501    0  0.13048873071E+03 -0.37176872176E+02 -0.47967000457E+03  0.49849046325E+03  0.00000000000E+00 0.  1.
<scales pt_clust_3="36.30684" pt_clust_4="31.04599" pt_clust_5="14000.00000" pt_clust_6="137.70169"></scales>
<clustering>
<clus scale="   31.046">  1  4  2 -1</clus>
<clus scale="   36.307">  1  3  2 -1</clus>
<clus scale="  137.702">  2  6  1 -1</clus>
<clus scale="   31.046">  1  3  2 -1</clus>
</clustering>
</event>
<event>
 6    0  0.4796958E+002  0.1379706E+03  0.7546771E-02  0.1216086E+00
          2   -1    0    0  504    0 -0.00000000000E+00  0.00000000000E+00  0.14093664303E+04  0.14093664303E+04  0.00000000000E+00 0.  1.
         21   -1    0    0  505  502  0.00000000000E+00 -0.00000000000E+00 -0.16595969168E+03  0.16595969168E+03  0.00000000000E+00 0.  1.
         21    1    1    2  503  502 -0.22458337276E+03  0.92173032703E+02  0.16279596398E+03  0.29229451785E+03  0.00000000000E+00 0. -1.
         21    1    1    2  504  503  0.92851583909E+02 -0.22536535613E+02  0.36761510646E+03  0.37982914392E+03  0.00000000000E+00 0. -1.
         21    1    1    2  505  501  0.10282018966E+03 -0.24695252849E+02 -0.64506145098E+02  0.12386641866E+03  0.00000000000E+00 0.  1.
          2    1    1    2  501    0  0.28911599186E+02 -0.44941244241E+02  0.77750181330E+03  0.77933604157E+03  0.00000000000E+00 0.  1.
<scales pt_clust_3="14000.00000" pt_clust_4="137.97058" pt_clust_5="107.57442" pt_clust_6="53.43778"></scales>
<clustering>
<clus scale="   53.438">  1  6  2 -1</clus>
<clus scale="  107.574">  2  5  1 -1</clus>
<clus scale="  137.971">  1  4  2 -1</clus>
<clus scale="  107.574">  2  3  1 -1</clus>
</clustering>
</event>
<event>
 6    0  0.4796958E+002  0.9147357E+02  0.7546771E-02  0.1299322E+00
         21   -1    0    0  504  502  0.00000000000E+00  0.00000000000E+00  0.22911575429E+03  0.22911575429E+03  0.00000000000E+00 0. -1.
          2   -1    0    0  505    0 -0.00000000000E+00 -0.00000000000E+00 -0.11493062907E+04  0.11493062907E+04  0.00000000000E+00 0. -1.
         21    1    1    2  503  502 -0.22906909260E+02 -0.36620815957E+02  0.99845129275E+01  0.44333972883E+02  0.00000000000E+00 0.  1.
         21    1    1    2  504  501  0.59862237309E+02 -0.42147829548E+02  0.13652670234E+02  0.74473635575E+02  0.00000000000E+00 0.  1.
         21    1    1    2  505  503 -0.10962890494E+03  0.13275034057E+03  0.10843271499E+03  0.20346695899E+03  0.00000000000E+00 0. -1.
          2    1    1    2  501    0  0.72673576891E+02 -0.53981695068E+02 -0.10522604345E+04  0.10561474775E+04  0.00000000000E+00 0. -1.
<scales pt_clust_3="43.19503" pt_clust_4="74.32294" pt_clust_5="14000.00000" pt_clust_6="91.47357"></scales>
<clustering>
<clus scale="   43.195">  1  3  2 -1</clus>
<clus scale="   74.323">  1  4  2 -1</clus>
<clus scale="   91.474">  2  6  1 -1</clus>
<clus scale="   43.195">  1  3  2 -1</clus>
</clustering>
</event>
<event>
 6    0  0.4796958E+002  0.7167010E+02  0.7546771E-02  0.1354504E+00
         21   -1    0    0  505  502  0.00000000000E+00  0.00000000000E+00  0.10015726821E+04  0.10015726821E+04  0.00000000000E+00 0.  1.
          1   -1    0    0  503    0 -0.00000000000E+00 -0.00000000000E+00 -0.29672071904E+03  0.29672071904E+03  0.00000000000E+00 0. -1.
         21    1    1    2  503  502  0.25055718932E+02 -0.30329099633E+02 -0.21780673734E+02  0.44967111138E+02  0.00000000000E+00 0. -1.
         21    1    1    2  504  501  0.66873894699E+02 -0.40118403329E+02  0.19477001170E+03  0.20980219621E+03  0.00000000000E+00 0.  1.
         21    1    1    2  505  504 -0.26503630896E+02 -0.17550787203E+02  0.77560260928E+03  0.77625374724E+03  0.00000000000E+00 0.  1.
          1    1    1    2  501    0 -0.65425982735E+02  0.87998290166E+02 -0.24373998415E+03  0.26727034658E+03  0.00000000000E+00 0. -1.
<scales pt_clust_3="39.20167" pt_clust_4="14000.00000" pt_clust_5="31.78793" pt_clust_6="71.67010"></scales>
<clustering>
<clus scale="   31.788">  1  5  2 -1</clus>
<clus scale="   39.202">  2  3  1 -1</clus>
<clus scale="   71.670">  2  6  1 -1</clus>
<clus scale="   31.788">  1  3  2 -1</clus>
</clustering>
</event>
<event>
 6    0  0.4796958E+002  0.1462927E+03  0.7546771E-02  0.1205104E+00
         21   -1    0    0  505  502  0.00000000000E+00  0.00000000000E+00  0.20597617165E+04  0.20597617165E+04  0.00000000000E+00 0. -1.
          1   -1    0    0  503    0 -0.00000000000E+00 -0.00000000000E+00 -0.75111028364E+03  0.75111028364E+03  0.00000000000E+00 0.  1.
         21    1    1    2  503  504  0.10315191115E+03  0.66786656863E+02  0.15264680024E+03  0.19596382302E+03  0.00000000000E+00 0. -1.
         21    1    1    2  504  502  0.11602955959E+02 -0.68585002054E+02  0.18366168170E+04  0.18379335852E+04  0.00000000000E+00 0. -1.
         21    1    1    2  505  501  0.32529417253E+02 -0.17734229194E+02  0.32050946135E+02  0.48989070414E+02  0.00000000000E+00 0. -1.
          1    1    1    2  501    0 -0.14728428437E+03  0.19532574385E+02 -0.71266313054E+03  0.72798552150E+03  0.00000000000E+00 0.  1.
<scales pt_clust_3="146.29265" pt_clust_4="94.20818" pt_clust_5="37.04951" pt_clust_6="14000.00000"></scales>
<clustering>
<clus scale="   37.050">  1  5  2 -1</clus>
<clus scale="   94.208">  1  4  2 -1</clus>
<clus scale="  146.293">  1  3  2 -1</clus>
<clus scale="   37.050">  1  3  2 -1</clus>
</clustering>
</event>
<event>
 6    0  0.4796958E+002  0.5948686E+02  0.7546771E-02  0.1399998E+00
         21   -1    0    0  504  502  0.00000000000E+00  0.00000000000E+00  0.16882089841E+02  0.16882089841E+02  0.00000000000E+00 0.  1.
          2   -1    0    0  502    0 -0.00000000000E+00 -0.00000000000E+00 -0.39966283502E+04  0.39966283502E+04  0.00000000000E+00 0. -1.
         21    1    1    2  503  501  0.13226544661E+02 -0.53279406186E+02 -0.37090726933E+03  0.37494778177E+03  0.00000000000E+00 0.  1.
         21    1    1    2  504  505 -0.45796124130E+02 -0.29666228585E+02 -0.44547713549E+02  0.70440534398E+02  0.00000000000E+00 0.  1.
         21    1    1    2  505  503  0.72952290601E+02  0.36782491249E+02 -0.10847478396E+04  0.10878202351E+04  0.00000000000E+00 0.  1.
          2    1    1    2  501    0 -0.40382711132E+02  0.46163143523E+02 -0.24795434380E+04  0.24803018889E+04  0.00000000000E+00 0. -1.
<scales pt_clust_3="59.48686" pt_clust_4="54.56528" pt_clust_5="60.56941" pt_clust_6="14000.00000"></scales>
<clustering>
<clus scale="   54.565">  1  4  2 -1</clus>
<clus scale="   60.569">  1  5  2 -1</clus>
<clus scale="   59.487">  1  3  2 -1</clus>
<clus scale="   54.565">  1  3  2 -1</clus>
</clustering>
</event>
<event>
 6    0  0.4796958E+002  0.9426582E+02  0.7546771E-02  0.1292838E+00
          2   -1    0    0  502    0 -0.00000000000E+00  0.00000000000E+00  0.20754470352E+04  0.20754470352E+04  0.00000000000E+00 0. -1.
         21   -1    0    0  503  502  0.00000000000E+00 -0.00000000000E+00 -0.12579157829E+03  0.12579157829E+03  0.00000000000E+00 0.  1.
         21    1    1    2  503  504  0.61571856843E-01 -0.35214295884E+02 -0.54901563872E+02  0.65224475017E+02  0.00000000000E+00 0. -1.
         21    1    1    2  504  505  0.62095466105E+01  0.51994079113E+02 -0.23671230402E+02  0.57465379845E+02  0.00000000000E+00 0.  1.
         21    1    1    2  505  501 -0.84112188284E+02  0.36728306166E+02  0.63629495803E+02  0.11168053290E+03  0.00000000000E+00 0.  1.
          2    1    1    2  501    0  0.77841069817E+02 -0.53508089395E+02  0.19645987554E+04  0.19668682257E+04  0.00000000000E+00 0. -1.
<scales pt_clust_3="35.21435" pt_clust_4="30.89770" pt_clust_5="94.26582" pt_clust_6="14000.00000"></scales>
<clustering>
<clus scale="   35.214">  2  3  1 -1</clus>
<clus scale="   30.898">  2  4  1 -1</clus>
<clus scale="   94.266">  2  5  1 -1</clus>
<clus scale="   35.214">  2  3  1 -1</clus>
</clustering>
</event>
<event>
 6    0  0.4796958E+002  0.1211860E+03  0.7546771E-02  0.1241153E+00
         21   -1    0    0  503  502  0.00000000000E+00  0.00000000000E+00  0.10808986194E+04  0.10808986194E+04  0.00000000000E+00 0. -1.
          2   -1    0    0  505    0 -0.00000000000E+00 -0.00000000000E+00 -0.21591005108E+03  0.21591005108E+03  0.00000000000E+00 0.  1.
         21    1    1    2  503  504 -0.30218317186E+02 -0.90367543678E+01  0.42651124892E+03  0.42767587620E+03  0.00000000000E+00 0. -1.
         21    1    1    2  504  501  0.12494726744E+03  0.80903508428E+02  0.57736487657E+03  0.59624441131E+03  0.00000000000E+00 0. -1.
         21    1    1    2  505  502 -0.24575370094E+02  0.26273986008E+02  0.42101884039E+02  0.55379055568E+02  0.00000000000E+00 0. -1.
          2    1    1    2  501    0 -0.70153580157E+02 -0.98140740069E+02 -0.18098944123E+03  0.21750932740E+03  0.00000000000E+00 0.  1.
<scales pt_clust_3="31.54060" pt_clust_4="14000.00000" pt_clust_5="37.08266" pt_clust_6="121.18598"></scales>
<clustering>
<clus scale="   31.541">  1  3  2 -1</clus>
<clus scale="   37.083">  1  5  2 -1</clus>
<clus scale="  121.186">  2  6  1 -1</clus>
<clus scale="   31.541">  1  3  2 -1</clus>
</clustering>
</event>
<event>
 6    0  0.4796958E+002  0.1379315E+03  0.7546771E-02  0.1216140E+00
          1   -1    0    0  505    0 -0.00000000000E+00  0.00000000000E+00  0.31156056867E+03  0.31156056867E+03  0.00000000000E+00 0.  1.
         21   -1    0    0  504  502  0.00000000000E+00 -0.00000000000E+00 -0.73611377130E+03  0.73611377130E+03  0.00000000000E+00 0. -1.
         21    1    1    2  503  502  0.56699476811E+02 -0.18962657579E+02 -0.24451542445E+03  0.25171850518E+03  0.00000000000E+00 0. -1.
         21    1    1    2  504  501  0.43303034388E+02 -0.12399818769E+03 -0.12696410092E+03  0.18267617869E+03  0.00000000000E+00 0.  1.
         21    1    1    2  505  503  0.31992625329E+02  0.86669973702E+02 -0.30755365195E+03  0.32112997562E+03  0.00000000000E+00 0. -1.
          1    1    1    2  501    0 -0.13199513653E+03  0.56290871570E+02  0.25447997469E+03  0.29214968048E+03  0.00000000000E+00 0.  1.
<scales pt_clust_3="59.78640" pt_clust_4="137.93152" pt_clust_5="101.18274" pt_clust_6="14000.00000"></scales>
<clustering>
<clus scale="   59.786">  2  3  1 -1</clus>
<clus scale="  101.183">  2  5  1 -1</clus>
<clus scale="  137.932">  2  4  1 -1</clus>
<clus scale="   59.786">  2  3  1 -1</clus>
</clustering>
</event>
<event>
 6    0  0.4796958E+002  0.1267450E+03  0.7546771E-02  0.1232367E+00
         21   -1    0    0  504  502  0.00000000000E+00  0.00000000000E+00  0.53840915510E+02  0.53840915510E+02  0.00000000000E+00 0.  1.
         -4   -1    0    0    0  501 -0.00000000000E+00 -0.00000000000E+00 -0.14170046007E+04  0.14170046007E+04  0.00000000000E+00 0.  1.
         21    1    1    2  503  501 -0.30667156167E+02 -0.39826466823E+01 -0.11085448614E+03  0.11508715410E+03  0.00000000000E+00 0.  1.
         21    1    1    2  504  505  0.58915711081E+01 -0.12313030600E+03 -0.44822398049E+02  0.13116718429E+03  0.00000000000E+00 0.  1.
         21    1    1    2  505  503  0.15372051530E+02  0.16349628796E+03 -0.90492598003E+03  0.91970558630E+03  0.00000000000E+00 0.  1.
         -4    1    1    2    0  502  0.94035335293E+01 -0.36383335269E+02 -0.30256082096E+03  0.30488559151E+03  0.00000000000E+00 0.  1.
<scales pt_clust_3="30.92468" pt_clust_4="126.74500" pt_clust_5="14000.00000" pt_clust_6="37.37937"></scales>
<clustering>
<clus scale="   30.925">  2  3  1 -1</clus>
<clus scale="   37.379">  2  6  1 -1</clus>
<clus scale="  126.745">  1  4  2 -1</clus>
<clus scale="  126.745">  1  3  2 -1</clus>
</clustering>
</event>
<event>
 6    0  0.4796958E+002  0.9462604E+02  0.7546771E-02  0.1292021E+00
          1   -1    0    0  505    0 -0.00000000000E+00  0.00000000000E+00  0.12060036334E+03  0.12060036334E+03  0.00000000000E+00 0.  1.
         21   -1    0    0  501  502  0.00000000000E+00 -0.00000000000E+00 -0.72355899459E+03  0.72355899459E+03  0.00000000000E+00 0.  1.
         21    1    1    2  503  502  0.77986526689E+02 -0.56504006515E+02 -0.65539124697E+03  0.66242908126E+03  0.00000000000E+00 0.  1.
         21    1    1    2  504  503 -0.92353691591E+01  0.41675889753E+02  0.19822645625E+02  0.47064945658E+02  0.00000000000E+00 0.  1.
         21    1    1    2  505  504  0.17540340473E+02  0.31269167199E+02 -0.97307527699E+01  0.37149857479E+02  0.00000000000E+00 0.  1.
          1    1    1    2  501    0 -0.86291498003E+02 -0.16441050437E+02  0.42340722852E+02  0.97515473535E+02  0.00000000000E+00 0.  1.
<scales pt_clust_3="14000.00000" pt_clust_4="51.59559" pt_clust_5="35.85282" pt_clust_6="94.62604"></scales>
<clustering>
<clus scale="   35.853">  1  5  2 -1</clus>
<clus scale="   51.596">  1  4  2 -1</clus>
<clus scale="   94.626">  1  6  2 -1</clus>
<clus scale="   94.626">  2  3  1 -1</clus>
</clustering>
</event>
<event>
 6    0  0.4796958E+002  0.1257506E+03  0.7546771E-02  0.1233901E+00
          3   -1    0    0  504    0 -0.00000000000E+00  0.00000000000E+00  0.96569339490E+03  0.96569339490E+03  0.00000000000E+00 0.  1.
         21   -1    0    0  503  502  0.00000000000E+00 -0.00000000000E+00 -0.47537725727E+03  0.47537725727E+03  0.00000000000E+00 0. -1.
         21    1    1    2  503  505 -0.14851929143E+03  0.30914332458E+02 -0.81226948119E+01  0.15191989353E+03  0.00000000000E+00 0.  1.
         21    1    1    2  504  502  0.64628598175E+02  0.43156711778E+02 -0.31343211175E+03  0.32292266280E+03  0.00000000000E+00 0. -1.
         21    1    1    2  505  501  0.11138817219E+03  0.48748117057E+02 -0.21441740446E+02  0.12346437564E+03  0.00000000000E+00 0.  1.
          3    1    1    2  501    0 -0.27497478934E+02 -0.12281916129E+03  0.83331268463E+03  0.84276372021E+03  0.00000000000E+00 0.  1.
<scales pt_clust_3="14000.00000" pt_clust_4="77.71330" pt_clust_5="125.75063" pt_clust_6="124.17972"></scales>
<clustering>
<clus scale="   77.713">  2  4  1 -1</clus>
<clus scale="  124.180">  1  6  2 -1</clus>
<clus scale="  125.751">  1  5  2 -1</clus>
<clus scale="   77.713">  2  3  1 -1</clus>
</clustering>
</event>
<event>
 6    0  0.4796958E+002  0.8765620E+02  0.7546771E-02  0.1308629E+00
         21   -1    0    0  503  502  0.00000000000E+00  0.00000000000E+00  0.46557469146E+02  0.46557469146E+02  0.00000000000E+00 0. -1.
         -3   -1    0    0    0  501 -0.00000000000E+00 -0.00000000000E+00 -0.11475988411E+04  0.11475988411E+04  0.00000000000E+00 0. -1.
         21    1    1    2  503  504 -0.91761021724E+02  0.28467740422E+02 -0.10260207642E+03  0.14056202701E+03  0.00000000000E+00 0. -1.
         21    1    1    2  504  501  0.89692757484E+02 -0.52165849495E+02 -0.20445747531E+03  0.22927914386E+03  0.00000000000E+00 0. -1.
         21    1    1    2  505  502  0.33949562829E+02  0.30644278754E+01 -0.50380114839E+01  0.34457874197E+02  0.00000000000E+00 0. -1.
         -3    1    1    2    0  505 -0.31881298589E+02  0.20633681198E+02 -0.78894380873E+03  0.78985726517E+03  0.00000000000E+00 0. -1.
<scales pt_clust_3="14000.00000" pt_clust_4="87.65620" pt_clust_5="34.08759" pt_clust_6="37.59221"></scales>
<clustering>
<clus scale="   34.088">  1  5  2 -1</clus>
<clus scale="   37.592">  2  6  1 -1</clus>
<clus scale="   87.656">  2  4  1 -1</clus>
<clus scale="   34.088">  1  3  2 -1</clus>
</clustering>
</event>
<event>
 6    0  0.4796958E+002  0.1517438E+03  0.7546771E-02  0.1198346E+00
          1   -1    0    0  504    0 -0.00000000000E+00  0.00000000000E+00  0.41756458434E+02  0.41756458434E+02  0.00000000000E+00 0. -1.
         21   -1    0    0  503  502  0.00000000000E+00 -0.00000000000E+00 -0.21775950461E+04  0.21775950461E+04  0.00000000000E+00 0.  1.
         21    1    1    2  503  501  0.21393201919E+02 -0.30273205026E+02 -0.15306453334E+03  0.15748932471E+03  0.00000000000E+00 0.  1.
         21    1    1    2  504  505 -0.17253590383E+03  0.22965772659E+02 -0.47861060304E+03  0.50927809120E+03  0.00000000000E+00 0.  1.
         21    1    1    2  505  502  0.12950747844E+03  0.43568886315E+02 -0.15041652955E+04  0.15103587888E+04  0.00000000000E+00 0. -1.
          1    1    1    2  501    0  0.21635223472E+02 -0.36261453948E+02  0.18442428803E-02  0.42225299768E+02  0.00000000000E+00 0. -1.
<scales pt_clust_3="37.06934" pt_clust_4="151.74382" pt_clust_5="14000.00000" pt_clust_6="42.61114"></scales>
<clustering>
<clus scale="   37.069">  2  3  1 -1</clus>
<clus scale="   42.611">  1  6  2 -1</clus>
<clus scale="  151.744">  1  4  2 -1</clus>
<clus scale="   37.069">  2  3  1 -1</clus>
</clustering>
</event>
<event>
 6    0  0.4796958E+002  0.7837222E+02  0.7546771E-02  0.1333735E+00
         21   -1    0    0  504  502  0.00000000000E+00  0.00000000000E+00  0.57963634014E+03  0.57963634014E+03  0.00000000000E+00 0.  1.
          1   -1    0    0  503    0 -0.00000000000E+00 -0.00000000000E+00 -0.90156592073E+03  0.90156592073E+03  0.00000000000E+00 0. -1.
         21    1    1    2  503  505  0.18410792845E+02  0.93478966021E+02  0.70055008798E+02  0.11825810179E+03  0.00000000000E+00 0.  1.
         21    1    1    2  504  501  0.37704629756E+02  0.27761833325E+01  0.45254230122E+02  0.58968564870E+02  0.00000000000E+00 0.  1.
         21    1    1    2  505  502 -0.16078374996E+01 -0.39991731870E+02  0.43067644317E+03  0.43253222130E+03  0.00000000000E+00 0.  1.
          1    1    1    2  501    0 -0.54507585101E+02 -0.56263417484E+02 -0.86791526268E+03  0.87144337291E+03  0.00000000000E+00 0. -1.
<scales pt_clust_3="14000.00000" pt_clust_4="37.80670" pt_clust_5="47.72688" pt_clust_6="78.37222"></scales>
<clustering>
<clus scale="   37.807">  1  4  2 -1</clus>
<clus scale="   47.727">  1  5  2 -1</clus>
<clus scale="   78.372">  2  6  1 -1</clus>
<clus scale="   37.807">  1  3  2 -1</clus>
</clustering>
</event>
<event>
 6    0  0.4796958E+002  0.5734285E+02  0.7546771E-02  0.1409333E+00
          1   -1    0    0  504    0 -0.00000000000E+00  0.00000000000E+00  0.11389195768E+04  0.11389195768E+04  0.00000000000E+00 0.  1.
         21   -1    0    0  503  502  0.00000000000E+00 -0.00000000000E+00 -0.15582634640E+03  0.15582634640E+03  0.00000000000E+00 0.  1.
         21    1    1    2  503  501 -0.42152520349E+02  0.12771472331E+03 -0.53150029150E+02  0.14461262434E+03  0.00000000000E+00 0.  1.
         21    1    1    2  504  505  0.26495607821E+02 -0.37601179153E+02  0.46319092258E+02  0.65278819039E+02  0.00000000000E+00 0.  1.
         21    1    1    2  505  502 -0.15070316942E+02 -0.42385231529E+02 -0.35842820712E+02  0.57518084991E+02  0.00000000000E+00 0. -1.
          1    1    1    2  501    0  0.30727229471E+02 -0.47728312624E+02  0.10257669880E+04  0.10273363948E+04  0.00000000000E+00 0.  1.
<scales pt_clust_3="14000.00000" pt_clust_4="48.35925" pt_clust_5="44.98469" pt_clust_6="57.34285"></scales>
<clustering>
<clus scale="   44.985">  2  5  1 -1</clus>
<clus scale="   48.359">  2  4  1 -1</clus>
<clus scale="   57.343">  1  6  2 -1</clus>
<clus scale="   44.985">  2  3  1 -1</clus>
</clustering>
</event>
<event>
 6    0  0.4796958E+002  0.5076588E+02  0.7546771E-02  0.1441254E+00
         21   -1    0    0  504  502  0.00000000000E+00  0.00000000000E+00  0.34373309895E+03  0.34373309895E+03  0.00000000000E+00 0. -1.
          1   -1    0    0  503    0 -0.00000000000E+00 -0.00000000000E+00 -0.13119015045E+04  0.13119015045E+04  0.00000000000E+00 0.  1.
         21    1    1    2  503  505 -0.46656312723E+02  0.69050448377E+02 -0.41158127663E+03  0.41993323661E+03  0.00000000000E+00 0.  1.
         21    1    1    2  504  501  0.74214844140E+02 -0.55156710705E+02  0.25899185255E+03  0.27500342818E+03  0.00000000000E+00 0. -1.
         21    1    1    2  505  502 -0.31822508312E+02  0.29838419841E+02  0.65405387553E+02  0.78618496900E+02  0.00000000000E+00 0. -1.
          1    1    1    2  501    0  0.42639768947E+01 -0.43732157512E+02 -0.88098436900E+03  0.88207944173E+03  0.00000000000E+00 0.  1.
<scales pt_clust_3="50.76588" pt_clust_4="14000.00000" pt_clust_5="43.62343" pt_clust_6="43.87351"></scales>
<clustering>
<clus scale="   43.623">  1  5  2 -1</clus>
<clus scale="   43.874">  2  6  1 -1</clus>
<clus scale="   50.766">  2  3  1 -1</clus>
<clus scale="   43.623">  1  3  2 -1</clus>
</clustering>
</event>
<event>
 6    0  0.4796958E+002  0.1204825E+03  0.7546771E-02  0.1242303E+00
          1   -1    0    0  504    0 -0.00000000000E+00  0.00000000000E+00  0.87865486253E+03  0.87865486253E+03  0.00000000000E+00 0. -1.
         21   -1    0    0  503  502  0.00000000000E+00 -0.00000000000E+00 -0.13376936800E+03  0.13376936800E+03  0.00000000000E+00 0. -1.
         21    1    1    2  503  501  0.11016447750E+03 -0.13368645616E+03 -0.15631762896E+02  0.17393283955E+03  0.00000000000E+00 0. -1.
         21    1    1    2  504  505 -0.70026976131E+02  0.76233132150E+02  0.17477248146E+03  0.20312727070E+03  0.00000000000E+00 0. -1.
         21    1    1    2  505  502 -0.59995817099E+02  0.26292098400E+02  0.20106774724E+02  0.68520470645E+02  0.00000000000E+00 0. -1.
          1    1    1    2  501    0  0.19858315735E+02  0.31161225612E+02  0.56563800124E+03  0.56684364963E+03  0.00000000000E+00 0. -1.
<scales pt_clust_3="14000.00000" pt_clust_4="120.48248" pt_clust_5="64.90514" pt_clust_6="36.95098"></scales>
<clustering>
<clus scale="   36.951">  1  6  2 -1</clus>
<clus scale="   64.905">  2  5  1 -1</clus>
<clus scale="  120.482">  1  4  2 -1</clus>
<clus scale="   64.905">  2  3  1 -1</clus>
</clustering>
</event>
<event>
 6    0  0.4796958E+002  0.1013540E+03  0.7546771E-02  0.1277474E+00
         21   -1    0    0  504  502  0.00000000000E+00  0.00000000000E+00  0.43318436512E+02  0.43318436512E+02  0.00000000000E+00 0.  1.
          1   -1    0    0  503    0 -0.00000000000E+00 -0.00000000000E+00 -0.11303696288E+04  0.11303696288E+04  0.00000000000E+00 0. -1.
         21    1    1    2  503  502 -0.13822193961E+03  0.67426509436E+02 -0.45138176630E+03  0.47686175954E+03  0.00000000000E+00 0.  1.
         21    1    1    2  504  505  0.39559375536E+02  0.32231107918E+02 -0.45405114048E+02  0.68303827801E+02  0.00000000000E+00 0.  1.
         21    1    1    2  505  501  0.48935402753E+02 -0.65139924735E+02 -0.78323461448E+02  0.11301525583E+03  0.00000000000E+00 0.  1.
          1    1    1    2  501    0  0.49727161321E+02 -0.34517692619E+02 -0.51194085049E+03  0.51550722214E+03  0.00000000000E+00 0. -1.
<scales pt_clust_3="101.35399" pt_clust_4="51.02733" pt_clust_5="14000.00000" pt_clust_6="61.38447"></scales>
<clustering>
<clus scale="   51.027">  1  4  2 -1</clus>
<clus scale="   61.384">  2  6  1 -1</clus>
<clus scale="  101.354">  2  3  1 -1</clus>
<clus scale="   51.027">  1  3  2 -1</clus>
</clustering>
</event>
<event>
 6    0  0.4796958E+002  0.9095757E+02  0.7546771E-02  0.1300549E+00
         21   -1    0    0  504  502  0.00000000000E+00  0.00000000000E+00  0.92348529446E+03  0.92348529446E+03  0.00000000000E+00 0. -1.
          1   -1    0    0  505    0 -0.00000000000E+00 -0.00000000000E+00 -0.16331296407E+04  0.16331296407E+04  0.00000000000E+00 0. -1.
         21    1    1    2  503  501 -0.67511795671E+02 -0.12060104923E+02 -0.43237591782E+02  0.81072671280E+02  0.00000000000E+00 0. -1.
         21    1    1    2  504  503  0.43120529835E+02 -0.15782599827E+02  0.81903512333E+03  0.82032128084E+03  0.00000000000E+00 0. -1.
         21    1    1    2  505  502  0.74189194566E+02  0.47958413112E+02  0.61313658198E+02  0.10753330024E+03  0.00000000000E+00 0. -1.
          1    1    1    2  501    0 -0.49797928731E+02 -0.20115708362E+02 -0.15467555360E+04  0.15476876828E+04  0.00000000000E+00 0. -1.
<scales pt_clust_3="14000.00000" pt_clust_4="45.91809" pt_clust_5="90.95757" pt_clust_6="53.55452"></scales>
<clustering>
<clus scale="   45.918">  1  4  2 -1</clus>
<clus scale="   53.555">  2  6  1 -1</clus>
<clus scale="   90.958">  1  5  2 -1</clus>
<clus scale="   45.918">  1  3  2 -1</clus>
</clustering>
</event>
<event>
 6    0  0.4796958E+002  0.1517947E+03  0.7546771E-02  0.1198285E+00
          2   -1    0    0  503    0 -0.00000000000E+00  0.00000000000E+00  0.16669909392E+04  0.16669909392E+04  0.00000000000E+00 0. -1.
         21   -1    0    0  504  502  0.00000000000E+00 -0.00000000000E+00 -0.14415245600E+03  0.14415245600E+03  0.00000000000E+00 0. -1.
         21    1    1    2  503  505 -0.11767798159E+03 -0.98043109881E+02  0.69639048932E+03  0.71303595446E+03  0.00000000000E+00 0. -1.
         21    1    1    2  504  501  0.10315107793E+03  0.92716470326E+02  0.12389523033E+03  0.18597450590E+03  0.00000000000E+00 0. -1.
         21    1    1    2  505  502  0.36288888146E+02 -0.18429242754E+02 -0.10050288227E+03  0.10843131345E+03  0.00000000000E+00 0. -1.
          2    1    1    2  501    0 -0.21761984483E+02  0.23755882308E+02  0.80305564580E+03  0.80370162135E+03  0.00000000000E+00 0. -1.
<scales pt_clust_3="14000.00000" pt_clust_4="151.79467" pt_clust_5="40.56196" pt_clust_6="32.21686"></scales>
<clustering>
<clus scale="   32.217">  1  6  2 -1</clus>
<clus scale="   40.562">  2  5  1 -1</clus>
<clus scale="  151.795">  2  4  1 -1</clus>
<clus scale="   40.562">  2  3  1 -1</clus>
</clustering>
</event>
<event>
 6    0  0.4796958E+002  0.9611186E+02  0.7546771E-02  0.1288691E+00
          2   -1    0    0  505    0 -0.00000000000E+00  0.00000000000E+00  0.11454299526E+04  0.11454299526E+04  0.00000000000E+00 0. -1.
         21   -1    0    0  504  502  0.00000000000E+00 -0.00000000000E+00 -0.46292208211E+03  0.46292208211E+03  0.00000000000E+00 0.  1.
         21    1    1    2  503  502 -0.67981964552E+02 -0.21898706557E+02  0.19321135951E+03  0.20598963638E+03  0.00000000000E+00 0. -1.
         21    1    1    2  504  501  0.55253148410E+02  0.79886420802E+02 -0.44837613938E+03  0.45877653929E+03  0.00000000000E+00 0.  1.
         21    1    1    2  505  503 -0.17435822931E+02 -0.66742693172E+02  0.49264904369E+03  0.49745519926E+03  0.00000000000E+00 0. -1.
          2    1    1    2  501    0  0.30164639072E+02  0.87549789276E+01  0.44502360665E+03  0.44613065976E+03  0.00000000000E+00 0. -1.
<scales pt_clust_3="14000.00000" pt_clust_4="96.11186" pt_clust_5="60.67529" pt_clust_6="31.40947"></scales>
<clustering>
<clus scale="   31.409">  1  6  2 -1</clus>
<clus scale="   60.675">  1  5  2 -1</clus>
<clus scale="   96.112">  2  4  1 -1</clus>
<clus scale="   96.112">  2  3  1 -1</clus>
</clustering>
</event>
<event>
 6    0  0.4796958E+002  0.7802609E+02  0.7546771E-02  0.1334748E+00
         -2   -1    0    0    0  501 -0.00000000000E+00  0.00000000000E+00  0.14649174447E+04  0.14649174447E+04  0.00000000000E+00 0.  1.
         21   -1    0    0  503  502  0.00000000000E+00 -0.00000000000E+00 -0.31977853731E+02  0.31977853731E+02  0.00000000000E+00 0. -1.
         21    1    1    2  503  501  0.33040218433E+02 -0.99850917074E+01  0.61536703596E+02  0.70555821730E+02  0.00000000000E+00 0. -1.
         21    1    1    2  504  502 -0.27480684141E+02  0.35240643173E+02  0.48465970662E+02  0.65924511711E+02  0.00000000000E+00 0. -1.
         21    1    1    2  505  504 -0.53362373226E+02 -0.84994544938E+02  0.12622016909E+03  0.16125491196E+03  0.00000000000E+00 0. -1.
         -2    1    1    2    0  505  0.47802838935E+02  0.59738993473E+02  0.11967167476E+04  0.11991600531E+04  0.00000000000E+00 0.  1.
<scales pt_clust_3="34.51606" pt_clust_4="36.28587" pt_clust_5="78.02609" pt_clust_6="14000.00000"></scales>
<clustering>
<clus scale="   34.516">  2  3  1 -1</clus>
<clus scale="   36.286">  2  4  1 -1</clus>
<clus scale="   78.026">  2  5  1 -1</clus>
<clus scale="   34.516">  2  3  1 -1</clus>
</clustering>
</event>
<event>
 6    0  0.4796958E+002  0.7070334E+02  0.7546771E-02  0.1357717E+00
         21   -1    0    0  504  502  0.00000000000E+00  0.00000000000E+00  0.10759842266E+03  0.10759842266E+03  0.00000000000E+00 0.  1.
          2   -1    0    0  505    0 -0.00000000000E+00 -0.00000000000E+00 -0.89591779853E+03  0.89591779853E+03  0.00000000000E+00 0.  1.
         21    1    1    2  503  501  0.60462265785E+02  0.53067969023E+02 -0.95920754594E+02  0.12519059902E+03  0.00000000000E+00 0.  1.
         21    1    1    2  504  503 -0.31497570601E+02  0.13094647980E+01  0.73391439061E+02  0.79875621934E+02  0.00000000000E+00 0.  1.
         21    1    1    2  505  502  0.37253346613E+02 -0.80446337114E+02 -0.12238276735E+03  0.15111904822E+03  0.00000000000E+00 0.  1.
          2    1    1    2  501    0 -0.66218041797E+02  0.26068903293E+02 -0.64340729299E+03  0.64733095203E+03  0.00000000000E+00 0.  1.
<scales pt_clust_3="70.42310" pt_clust_4="31.52478" pt_clust_5="14000.00000" pt_clust_6="70.70334"></scales>
<clustering>
<clus scale="   31.525">  1  4  2 -1</clus>
<clus scale="   70.423">  1  3  2 -1</clus>
<clus scale="   70.703">  2  6  1 -1</clus>
<clus scale="   31.525">  1  3  2 -1</clus>
</clustering>
</event>
<event>
 6    0  0.4796958E+002  0.1546854E+03  0.7546771E-02  0.1194831E+00
          2   -1    0    0  504    0 -0.00000000000E+00  0.00000000000E+00  0.13992400961E+04  0.13992400961E+04  0.00000000000E+00 0. -1.
         21   -1    0    0  503  502  0.00000000000E+00 -0.00000000000E+00 -0.39613423782E+03  0.39613423782E+03  0.00000000000E+00 0. -1.
         21    1    1    2  503  501  0.10394804516E+03 -0.16029062065E+03 -0.18939832753E+03  0.26901673857E+03  0.00000000000E+00 0. -1.
         21    1    1    2  504  505 -0.61315870268E+02 -0.60285652741E+02 -0.18277848029E+02  0.87909473901E+02  0.00000000000E+00 0.  1.
         21    1    1    2  505  502  0.21564254140E+02  0.80588709708E+02 -0.93384112577E+02  0.12522040437E+03  0.00000000000E+00 0. -1.
          2    1    1    2  501    0 -0.64196429028E+02  0.13998756368E+03  0.13041661464E+04  0.13132277170E+04  0.00000000000E+00 0. -1.
<scales pt_clust_3="154.68538" pt_clust_4="73.10513" pt_clust_5="83.42396" pt_clust_6="14000.00000"></scales>
<clustering>
<clus scale="   83.424">  2  5  1 -1</clus>
<clus scale="   73.105">  2  4  1 -1</clus>
<clus scale="  154.685">  2  3  1 -1</clus>
<clus scale="   83.424">  2  3  1 -1</clus>
</clustering>
</event>
<event>
 6    0  0.1490915E+003  0.1159503E+03  0.7546771E-02  0.1249931E+00
         21   -1    0    0  503  502  0.00000000000E+00  0.00000000000E+00  0.10430827713E+04  0.10430827713E+04  0.00000000000E+00 0.  1.
          2   -1    0    0  505    0 -0.00000000000E+00 -0.00000000000E+00 -0.15600986468E+04  0.15600986468E+04  0.00000000000E+00 0. -1.
         21    1    1    2  503  501 -0.59889896767E+02 -0.47746143924E+01  0.90074305404E+03  0.90274450764E+03  0.00000000000E+00 0.  1.
         21    1    1    2  504  502 -0.57427802723E+02  0.96937401904E+01  0.12754330579E+03  0.14021132613E+03  0.00000000000E+00 0. -1.
         21    1    1    2  505  504  0.84538964508E+02 -0.44802020960E+02 -0.32396639042E+03  0.33779917070E+03  0.00000000000E+00 0.  1.
          2    1    1    2  501    0  0.32778734983E+02  0.39882895162E+02 -0.12213358449E+04  0.12224264137E+04  0.00000000000E+00 0. -1.
<scales pt_clust_3="115.95026" pt_clust_4="57.76530" pt_clust_5="14000.00000" pt_clust_6="51.62452"></scales>
<clustering>
<clus scale="   51.625">  2  6  1 -1</clus>
<clus scale="   57.765">  1  4  2 -1</clus>
<clus scale="  115.950">  1  3  2 -1</clus>
<clus scale="   57.765">  1  3  2 -1</clus>
</clustering>
</event>
<event>
 6    0  0.4796958E+002  0.7711955E+02  0.7546771E-02  0.1337430E+00
         21   -1    0    0  503  502  0.00000000000E+00  0.00000000000E+00  0.79467729282E+02  0.79467729282E+02  0.00000000000E+00 0. -1.
          2   -1    0    0  505    0 -0.00000000000E+00 -0.00000000000E+00 -0.13526352496E+04  0.13526352496E+04  0.00000000000E+00 0. -1.
         21    1    1    2  503  501 -0.85911875315E+02  0.16985890423E+02 -0.22738044584E+02  0.90478668564E+02  0.00000000000E+00 0. -1.
         21    1    1    2  504  502  0.58616522054E+02  0.69321472866E+02 -0.41656410578E+01  0.90877476987E+02  0.00000000000E+00 0. -1.
         21    1    1    2  505  504  0.12581993973E+02 -0.59669311572E+02 -0.47712752818E+03  0.48100874365E+03  0.00000000000E+00 0. -1.
          2    1    1    2  501    0  0.14713359288E+02 -0.26638051718E+02 -0.76913630646E+03  0.76973808965E+03  0.00000000000E+00 0. -1.
<scales pt_clust_3="14000.00000" pt_clust_4="77.11955" pt_clust_5="85.20043" pt_clust_6="30.43138"></scales>
<clustering>
<clus scale="   30.431">  2  6  1 -1</clus>
<clus scale="   85.200">  2  5  1 -1</clus>
<clus scale="   77.120">  1  4  2 -1</clus>
<clus scale="   77.120">  1  3  2 -1</clus>
</clustering>
</event>
<event>
 6    0  0.4796958E+002  0.5271230E+02  0.7546771E-02  0.1431238E+00
         21   -1    0    0  503  502  0.00000000000E+00  0.00000000000E+00  0.25403090739E+02  0.25403090739E+02  0.00000000000E+00 0. -1.
          2   -1    0    0  505    0 -0.00000000000E+00 -0.00000000000E+00 -0.36276919301E+04  0.36276919301E+04  0.00000000000E+00 0. -1.
         21    1    1    2  503  504  0.13780759841E+02  0.49867413774E+02 -0.27698911584E+02  0.58684733971E+02  0.00000000000E+00 0. -1.
         21    1    1    2  504  501  0.74675324770E+02  0.30991675226E+02 -0.10549813742E+04  0.10580749444E+04  0.00000000000E+00 0. -1.
         21    1    1    2  505  502 -0.60452313278E+02 -0.38309479883E+02 -0.15020192418E+03  0.16638123830E+03  0.00000000000E+00 0. -1.
          2    1    1    2  501    0 -0.28003771333E+02 -0.42549609116E+02 -0.23694066294E+04  0.23699541042E+04  0.00000000000E+00 0. -1.
<scales pt_clust_3="50.07522" pt_clust_4="52.71230" pt_clust_5="14000.00000" pt_clust_6="50.93801"></scales>
<clustering>
<clus scale="   50.938">  2  6  1 -1</clus>
<clus scale="   50.075">  1  3  2 -1</clus>
<clus scale="   52.712">  2  4  1 -1</clus>
<clus scale="   50.075">  1  3  2 -1</clus>
</clustering>
</event>
<event>
 6    0  0.4796958E+002  0.1630569E+03  0.7546771E-02  0.1185288E+00
         21   -1    0    0  504  502  0.00000000000E+00  0.00000000000E+00  0.41542542638E+03  0.41542542638E+03  0.00000000000E+00 0. -1.
          1   -1    0    0  503    0 -0.00000000000E+00 -0.00000000000E+00 -0.21982615437E+03  0.21982615437E+03  0.00000000000E+00 0.  1.
         21    1    1    2  503  502 -0.12244300028E+03 -0.13278944926E+03 -0.80044620290E+02  0.19756636198E+03  0.00000000000E+00 0.  1.
         21    1    1    2  504  505  0.21627888490E+02  0.22886250137E+02  0.16530549557E+03  0.16827790369E+03  0.00000000000E+00 0. -1.
         21    1    1    2  505  501  0.34629075500E+02  0.14164446593E+03  0.12786796740E+03  0.19393953874E+03  0.00000000000E+00 0. -1.
          1    1    1    2  501    0  0.66186036286E+02 -0.31741266811E+02 -0.17529570670E+02  0.75467776341E+02  0.00000000000E+00 0.  1.
<scales pt_clust_3="14000.00000" pt_clust_4="31.48882" pt_clust_5="163.05692" pt_clust_6="74.60462"></scales>
<clustering>
<clus scale="   31.489">  1  4  2 -1</clus>
<clus scale="   74.605">  2  6  1 -1</clus>
<clus scale="  163.057">  1  5  2 -1</clus>
<clus scale="   31.489">  1  3  2 -1</clus>
</clustering>
</event>
<event>
 6    0  0.4796958E+002  0.6292670E+02  0.7546771E-02  0.1385945E+00
         21   -1    0    0  504  502  0.00000000000E+00  0.00000000000E+00  0.24880622740E+03  0.24880622740E+03  0.00000000000E+00 0. -1.
          3   -1    0    0  503    0 -0.00000000000E+00 -0.00000000000E+00 -0.24809199302E+03  0.24809199302E+03  0.00000000000E+00 0.  1.
         21    1    1    2  503  505 -0.24206317576E+02 -0.70719041027E+02 -0.12024083834E+03  0.14158032272E+03  0.00000000000E+00 0.  1.
         21    1    1    2  504  501  0.56787697230E+02 -0.34390934553E+02  0.17552450417E+03  0.18766041271E+03  0.00000000000E+00 0. -1.
         21    1    1    2  505  502 -0.12849720556E+02  0.66952648372E+02  0.28693108412E+02  0.73966660819E+02  0.00000000000E+00 0.  1.
          3    1    1    2  501    0 -0.19731659098E+02  0.38157327208E+02 -0.83262539861E+02  0.93690824174E+02  0.00000000000E+00 0.  1.
<scales pt_clust_3="56.44066" pt_clust_4="62.92670" pt_clust_5="14000.00000" pt_clust_6="42.95719"></scales>
<clustering>
<clus scale="   42.957">  2  6  1 -1</clus>
<clus scale="   56.441">  2  3  1 -1</clus>
<clus scale="   62.927">  1  4  2 -1</clus>
<clus scale="   62.927">  1  3  2 -1</clus>
</clustering>
</event>
<event>
 6    0  0.4796958E+002  0.2172549E+03  0.7546771E-02  0.1135946E+00
          2   -1    0    0  503    0 -0.00000000000E+00  0.00000000000E+00  0.14564538842E+03  0.14564538842E+03  0.00000000000E+00 0.  1.
         21   -1    0    0  505  502  0.00000000000E+00 -0.00000000000E+00 -0.29413447695E+04  0.29413447695E+04  0.00000000000E+00 0.  1.
         21    1    1    2  503  504  0.65408192056E+02  0.21949498143E+02 -0.77974291103E+03  0.78278925603E+03  0.00000000000E+00 0. -1.
         21    1    1    2  504  502  0.12440200431E+03 -0.63880362022E+02 -0.10319732490E+04  0.10414054666E+04  0.00000000000E+00 0.  1.
         21    1    1    2  505  501 -0.19392885445E+03  0.73791608106E+02 -0.11118034737E+04  0.11309998082E+04  0.00000000000E+00 0.  1.
          2    1    1    2  501    0  0.41186580861E+01 -0.31860744227E+02  0.12782025256E+03  0.13179562713E+03  0.00000000000E+00 0.  1.
<scales pt_clust_3="59.74301" pt_clust_4="59.74301" pt_clust_5="199.03483" pt_clust_6="32.12585"></scales>
<clustering>
<clus scale="   32.126">  1  6  2 -1</clus>
<clus scale="   59.743">  3  4 -1 -1</clus>
<clus scale="  199.035">  1  5  2 -1</clus>
<clus scale="  217.255">  2  3  1 -1</clus>
</clustering>
</event>
<event>
 6    0  0.4796958E+002  0.9297590E+02  0.7546771E-02  0.1295801E+00
         -3   -1    0    0    0  501 -0.00000000000E+00  0.00000000000E+00  0.19090102273E+04  0.19090102273E+04  0.00000000000E+00 0.  1.
         21   -1    0    0  503  502  0.00000000000E+00 -0.00000000000E+00 -0.66756174974E+03  0.66756174974E+03  0.00000000000E+00 0.  1.
         21    1    1    2  503  504 -0.30670609121E+02  0.23182832910E+02 -0.46277637938E+03  0.46437065726E+03  0.00000000000E+00 0.  1.
         21    1    1    2  504  501 -0.67011260596E+02 -0.10109330150E+03 -0.17481803404E+03  0.21277149640E+03  0.00000000000E+00 0.  1.
         21    1    1    2  505  502  0.48970407615E+02 -0.10814562421E+01  0.57544266046E+02  0.75568597475E+02  0.00000000000E+00 0.  1.
         -3    1    1    2    0  505  0.48711462102E+02  0.78991924836E+02  0.18214986250E+04  0.18238612259E+04  0.00000000000E+00 0.  1.
<scales pt_clust_3="38.44646" pt_clust_4="14000.00000" pt_clust_5="47.61542" pt_clust_6="92.97590"></scales>
<clustering>
<clus scale="   38.446">  2  3  1 -1</clus>
<clus scale="   47.615">  2  5  1 -1</clus>
<clus scale="   92.976">  1  6  2 -1</clus>
<clus scale="   38.446">  2  3  1 -1</clus>
</clustering>
</event>
<event>
 6    0  0.4796958E+002  0.9064991E+02  0.7546771E-02  0.1301285E+00
         21   -1    0    0  505  502  0.00000000000E+00  0.00000000000E+00  0.35433769793E+03  0.35433769793E+03  0.00000000000E+00 0. -1.
          2   -1    0    0  504    0 -0.00000000000E+00 -0.00000000000E+00 -0.10739728330E+04  0.10739728330E+04  0.00000000000E+00 0.  1.
         21    1    1    2  503  501 -0.25748181618E+02  0.17742457826E+02 -0.18617954570E+03  0.18878714708E+03  0.00000000000E+00 0.  1.
         21    1    1    2  504  502  0.45423062518E+02 -0.12279345991E+03  0.24539549264E+02  0.13320539735E+03  0.00000000000E+00 0. -1.
         21    1    1    2  505  503  0.45216530612E+01  0.86583299351E+02  0.26701909216E+03  0.28074242404E+03  0.00000000000E+00 0. -1.
          2    1    1    2  501    0 -0.24196533961E+02  0.18467702736E+02 -0.82501423077E+03  0.82557556242E+03  0.00000000000E+00 0.  1.
<scales pt_clust_3="54.20213" pt_clust_4="90.64991" pt_clust_5="14000.00000" pt_clust_6="30.43893"></scales>
<clustering>
<clus scale="   30.439">  2  6  1 -1</clus>
<clus scale="   54.202">  2  3  1 -1</clus>
<clus scale="   90.650">  2  4  1 -1</clus>
<clus scale="   90.650">  1  3  2 -1</clus>
</clustering>
</event>
<event>
 6    0  0.4796958E+002  0.1628305E+03  0.7546771E-02  0.1185538E+00
          2   -1    0    0  505    0 -0.00000000000E+00  0.00000000000E+00  0.18686051621E+04  0.18686051621E+04  0.00000000000E+00 0. -1.
         21   -1    0    0  503  502  0.00000000000E+00 -0.00000000000E+00 -0.18353487650E+04  0.18353487650E+04  0.00000000000E+00 0. -1.
         21    1    1    2  503  504 -0.89540391985E+02  0.15614026513E+02 -0.23528816886E+03  0.25223362588E+03  0.00000000000E+00 0. -1.
         21    1    1    2  504  501 -0.26372426047E+02  0.35586525407E+02 -0.11331039096E+03  0.12165997840E+03  0.00000000000E+00 0. -1.
         21    1    1    2  505  502 -0.19177409801E+02  0.27100346470E+02 -0.14706309335E+04  0.14710056236E+04  0.00000000000E+00 0. -1.
          2    1    1    2  501    0  0.13509022783E+03 -0.78300898391E+02  0.18524858905E+04  0.18590546992E+04  0.00000000000E+00 0. -1.
<scales pt_clust_3="32.87815" pt_clust_4="32.87815" pt_clust_5="33.19943" pt_clust_6="155.87036"></scales>
<clustering>
<clus scale="   32.878">  3  4 -1 -1</clus>
<clus scale="   33.199">  2  5  1 -1</clus>
<clus scale="  155.870">  1  6  2 -1</clus>
<clus scale="   33.199">  2  3  1 -1</clus>
</clustering>
</event>
<event>
 6    0  0.4796958E+002  0.1202726E+03  0.7546771E-02  0.1242648E+00
         21   -1    0    0  504  502  0.00000000000E+00  0.00000000000E+00  0.16577616806E+03  0.16577616806E+03  0.00000000000E+00 0. -1.
         -1   -1    0    0    0  501 -0.00000000000E+00 -0.00000000000E+00 -0.85080262913E+03  0.85080262913E+03  0.00000000000E+00 0.  1.
         21    1    1    2  503  502 -0.11343011413E+02  0.76694111319E+02  0.10694157404E+03  0.13208766361E+03  0.00000000000E+00 0. -1.
         21    1    1    2  504  501 -0.17799354746E+02 -0.68231897022E+02 -0.15866390155E+03  0.17362788501E+03  0.00000000000E+00 0.  1.
         21    1    1    2  505  503  0.57224681573E+02  0.63140801180E+02 -0.13465970535E+02  0.86271416571E+02  0.00000000000E+00 0.  1.
         -1    1    1    2    0  505 -0.28082315414E+02 -0.71603015478E+02 -0.61983816303E+03  0.62459183201E+03  0.00000000000E+00 0.  1.
<scales pt_clust_3="76.33836" pt_clust_4="70.51531" pt_clust_5="14000.00000" pt_clust_6="120.27262"></scales>
<clustering>
<clus scale="   70.515">  2  4  1 -1</clus>
<clus scale="   76.338">  1  3  2 -1</clus>
<clus scale="  120.273">  2  6  1 -1</clus>
<clus scale="   76.338">  1  3  2 -1</clus>
</clustering>
</event>
<event>
 6    0  0.4796958E+002  0.7382812E+02  0.7546771E-02  0.1347539E+00
         21   -1    0    0  505  502  0.00000000000E+00  0.00000000000E+00  0.42515866075E+03  0.42515866075E+03  0.00000000000E+00 0. -1.
          1   -1    0    0  504    0 -0.00000000000E+00 -0.00000000000E+00 -0.74424679603E+03  0.74424679603E+03  0.00000000000E+00 0. -1.
         21    1    1    2  503  502  0.48060621369E+02  0.18609079793E+02  0.36923825164E+03  0.37281766006E+03  0.00000000000E+00 0. -1.
         21    1    1    2  504  503 -0.89173951817E+02 -0.44337020742E+02 -0.10748662944E+03  0.14653034020E+03  0.00000000000E+00 0. -1.
         21    1    1    2  505  501  0.23948092770E+02 -0.40174473144E+02  0.15934091490E+02  0.49410471677E+02  0.00000000000E+00 0.  1.
          1    1    1    2  501    0  0.17165237678E+02  0.65902414093E+02 -0.59677384898E+03  0.60064698484E+03  0.00000000000E+00 0. -1.
<scales pt_clust_3="73.82812" pt_clust_4="14000.00000" pt_clust_5="46.77071" pt_clust_6="67.93936"></scales>
<clustering>
<clus scale="   46.771">  1  5  2 -1</clus>
<clus scale="   67.939">  2  6  1 -1</clus>
<clus scale="   73.828">  1  3  2 -1</clus>
<clus scale="   46.771">  1  3  2 -1</clus>
</clustering>
</event>
<event>
 6    0  0.4796958E+002  0.1365382E+03  0.7546771E-02  0.1218064E+00
          2   -1    0    0  505    0 -0.00000000000E+00  0.00000000000E+00  0.16207702205E+04  0.16207702205E+04  0.00000000000E+00 0. -1.
         21   -1    0    0  503  502  0.00000000000E+00 -0.00000000000E+00 -0.61065359964E+02  0.61065359964E+02  0.00000000000E+00 0. -1.
         21    1    1    2  503  501 -0.26150945383E+02 -0.18250829600E+03  0.33346973524E+03  0.38104489811E+03  0.00000000000E+00 0. -1.
         21    1    1    2  504  502  0.14909417367E+02  0.37000955785E+02 -0.40715153358E+01  0.40099110867E+02  0.00000000000E+00 0. -1.
         21    1    1    2  505  504  0.76212000036E+01  0.10110132120E+03  0.15974766030E+03  0.18920590585E+03  0.00000000000E+00 0.  1.
          2    1    1    2  501    0  0.36203280125E+01  0.44406019014E+02  0.10705589803E+04  0.10714856656E+04  0.00000000000E+00 0. -1.
<scales pt_clust_3="14000.00000" pt_clust_4="39.89187" pt_clust_5="136.53822" pt_clust_6="45.00634"></scales>
<clustering>
<clus scale="   39.892">  2  4  1 -1</clus>
<clus scale="   45.006">  1  6  2 -1</clus>
<clus scale="  136.538">  2  5  1 -1</clus>
<clus scale="   39.892">  2  3  1 -1</clus>
</clustering>
</event>
<event>
 6    0  0.4796958E+002  0.1405513E+03  0.7546771E-02  0.1212589E+00
         21   -1    0    0  505  502  0.00000000000E+00  0.00000000000E+00  0.43393664265E+02  0.43393664265E+02  0.00000000000E+00 0. -1.
          2   -1    0    0  504    0 -0.00000000000E+00 -0.00000000000E+00 -0.10653115628E+04  0.10653115628E+04  0.00000000000E+00 0. -1.
         21    1    1    2  503  502  0.15414794458E+02 -0.45529225924E+02 -0.46410389228E+02  0.66816543832E+02  0.00000000000E+00 0. -1.
         21    1    1    2  504  503  0.92001653590E+02 -0.10330890088E+03 -0.49523758054E+03  0.51419577443E+03  0.00000000000E+00 0. -1.
         21    1    1    2  505  501 -0.63561507562E+02  0.27073810246E+01 -0.10758555243E+03  0.12498818443E+03  0.00000000000E+00 0. -1.
          2    1    1    2  501    0 -0.43854940485E+02  0.14613074578E+03 -0.37268437637E+03  0.40270472440E+03  0.00000000000E+00 0. -1.
<scales pt_clust_3="48.06793" pt_clust_4="14000.00000" pt_clust_5="60.23154" pt_clust_6="140.55129"></scales>
<clustering>
<clus scale="   48.068">  1  3  2 -1</clus>
<clus scale="   60.232">  1  5  2 -1</clus>
<clus scale="  140.551">  1  6  2 -1</clus>
<clus scale="   48.068">  1  3  2 -1</clus>
</clustering>
</event>
<event>
 6    0  0.4796958E+002  0.1197870E+03  0.7546771E-02  0.1243449E+00
         21   -1    0    0  501  502  0.00000000000E+00  0.00000000000E+00  0.49681741421E+03  0.49681741421E+03  0.00000000000E+00 0. -1.
          2   -1    0    0  504    0 -0.00000000000E+00 -0.00000000000E+00 -0.47862211921E+02  0.47862211921E+02  0.00000000000E+00 0. -1.
         21    1    1    2  503  505  0.18862835315E+02  0.69960873680E+02  0.14178420736E+03  0.15922654257E+03  0.00000000000E+00 0. -1.
         21    1    1    2  504  503 -0.88492248044E+02 -0.79792628871E+02  0.13206715394E+03  0.17787488507E+03  0.00000000000E+00 0. -1.
         21    1    1    2  505  502  0.29990784089E+02  0.29594552676E+02  0.15178127578E+03  0.15752092038E+03  0.00000000000E+00 0. -1.
          2    1    1    2  501    0  0.39638628640E+02 -0.19762797486E+02  0.23322565204E+02  0.50057278119E+02  0.00000000000E+00 0. -1.
<scales pt_clust_3="32.80136" pt_clust_4="111.79727" pt_clust_5="32.80136" pt_clust_6="44.29209"></scales>
<clustering>
<clus scale="   32.801">  3  5 -1 -1</clus>
<clus scale="   44.292">  2  6  1 -1</clus>
<clus scale="  111.797">  2  4  1 -1</clus>
<clus scale="  119.787">  1  3  2 -1</clus>
</clustering>
</event>
<event>
 6    0  0.4796958E+002  0.1313913E+03  0.7546771E-02  0.1225406E+00
          1   -1    0    0  505    0 -0.00000000000E+00  0.00000000000E+00  0.48592197460E+03  0.48592197460E+03  0.00000000000E+00 0. -1.
         21   -1    0    0  503  502  0.00000000000E+00 -0.00000000000E+00 -0.40462652691E+03  0.40462652691E+03  0.00000000000E+00 0.  1.
         21    1    1    2  503  501  0.54247746619E+01 -0.33094111295E+02 -0.82660315941E+01  0.34539479742E+02  0.00000000000E+00 0. -1.
         21    1    1    2  504  502 -0.12268083783E+03  0.93980095257E+02 -0.33343535908E+03  0.36750780258E+03  0.00000000000E+00 0.  1.
         21    1    1    2  505  504 -0.13648381199E+02 -0.98940136687E+02  0.11914831619E+03  0.15547266708E+03  0.00000000000E+00 0. -1.
          1    1    1    2  501    0  0.13090444437E+03  0.38054152724E+02  0.30384852216E+03  0.33302855210E+03  0.00000000000E+00 0. -1.
<scales pt_clust_3="33.53578" pt_clust_4="14000.00000" pt_clust_5="101.39674" pt_clust_6="131.39134"></scales>
<clustering>
<clus scale="   33.536">  2  3  1 -1</clus>
<clus scale="  101.397">  1  5  2 -1</clus>
<clus scale="  131.391">  1  6  2 -1</clus>
<clus scale="   33.536">  2  3  1 -1</clus>
</clustering>
</event>
<event>
 6    0  0.4796958E+002  0.2241554E+03  0.7546771E-02  0.1130822E+00
         21   -1    0    0  503  502  0.00000000000E+00  0.00000000000E+00  0.82603405778E+03  0.82603405778E+03  0.00000000000E+00 0. -1.
          3   -1    0    0  505    0 -0.00000000000E+00 -0.00000000000E+00 -0.17467701111E+03  0.17467701111E+03  0.00000000000E+00 0.  1.
         21    1    1    2  503  504 -0.44722053612E+02 -0.62000609689E+02  0.15378282445E+03  0.17173611961E+03  0.00000000000E+00 0. -1.
         21    1    1    2  504  501 -0.15548637864E+03 -0.59072407024E+02 -0.96950247287E+01  0.16661199452E+03  0.00000000000E+00 0.  1.
         21    1    1    2  505  502  0.24000794116E+03  0.12915672878E+03  0.54345346772E+03  0.60796952554E+03  0.00000000000E+00 0. -1.
          3    1    1    2  501    0 -0.39799508908E+02 -0.80837120682E+01 -0.36184220773E+02  0.54393429227E+02  0.00000000000E+00 0.  1.
<scales pt_clust_3="76.44696" pt_clust_4="31.60890" pt_clust_5="214.83409" pt_clust_6="31.60890"></scales>
<clustering>
<clus scale="   31.609">  4  6 -1 -1</clus>
<clus scale="   76.447">  1  3  2 -1</clus>
<clus scale="  214.834">  1  5  2 -1</clus>
<clus scale="   76.447">  1  3  2 -1</clus>
</clustering>
</event>
<event>
 6    0  0.4796958E+002  0.1430471E+03  0.7546771E-02  0.1209287E+00
         21   -1    0    0  503  502  0.00000000000E+00  0.00000000000E+00  0.48315587582E+03  0.48315587582E+03  0.00000000000E+00 0. -1.
         -3   -1    0    0    0  501 -0.00000000000E+00 -0.00000000000E+00 -0.11216567788E+03  0.11216567788E+03  0.00000000000E+00 0. -1.
         21    1    1    2  503  501 -0.10980921964E+03  0.71280985442E+02  0.35331332954E+02  0.13559995093E+03  0.00000000000E+00 0. -1.
         21    1    1    2  504  502  0.23606251760E+02  0.20071219255E+02  0.82978895772E+02  0.88575426096E+02  0.00000000000E+00 0.  1.
         21    1    1    2  505  504  0.79502852001E+02 -0.12934543040E+03  0.28361468059E+03  0.32169586707E+03  0.00000000000E+00 0. -1.
         -3    1    1    2    0  505  0.67001158777E+01  0.37993225701E+02 -0.30934711376E+02  0.49450309603E+02  0.00000000000E+00 0. -1.
<scales pt_clust_3="14000.00000" pt_clust_4="30.98563" pt_clust_5="143.04706" pt_clust_6="39.13820"></scales>
<clustering>
<clus scale="   30.986">  1  4  2 -1</clus>
<clus scale="   39.138">  2  6  1 -1</clus>
<clus scale="  143.047">  1  5  2 -1</clus>
<clus scale="   30.986">  1  3  2 -1</clus>
</clustering>
</event>
<event>
 6    0  0.4796958E+002  0.1684494E+03  0.7546771E-02  0.1179475E+00
         21   -1    0    0  504  502  0.00000000000E+00  0.00000000000E+00  0.19232377009E+03  0.19232377009E+03  0.00000000000E+00 0. -1.
          2   -1    0    0  502    0 -0.00000000000E+00 -0.00000000000E+00 -0.40237300850E+03  0.40237300850E+03  0.00000000000E+00 0. -1.
         21    1    1    2  503  501  0.10994294356E+03  0.94352048188E+02  0.70091551995E+00  0.14488012672E+03  0.00000000000E+00 0. -1.
         21    1    1    2  504  505 -0.46683910993E+02 -0.17828291210E+02  0.37008211849E+02  0.62183946942E+02  0.00000000000E+00 0.  1.
         21    1    1    2  505  503  0.44527425651E+02  0.31586075339E+02  0.36014455594E+02  0.65401932710E+02  0.00000000000E+00 0. -1.
          2    1    1    2  501    0 -0.10778645821E+03 -0.10810983232E+03 -0.28377282137E+03  0.32223077222E+03  0.00000000000E+00 0. -1.
<scales pt_clust_3="34.44716" pt_clust_4="49.97235" pt_clust_5="34.44716" pt_clust_6="158.82748"></scales>
<clustering>
<clus scale="   34.447">  3  5 -1 -1</clus>
<clus scale="   49.972">  1  4  2 -1</clus>
<clus scale="  158.827">  2  6  1 -1</clus>
<clus scale="   49.972">  1  3  2 -1</clus>
</clustering>
</event>
<event>
 6    0  0.4796958E+002  0.1697496E+03  0.7546771E-02  0.1178109E+00
         21   -1    0    0  503  502  0.00000000000E+00  0.00000000000E+00  0.66395470143E+02  0.66395470143E+02  0.00000000000E+00 0. -1.
          2   -1    0    0  504    0 -0.00000000000E+00 -0.00000000000E+00 -0.83655247705E+03  0.83655247705E+03  0.00000000000E+00 0. -1.
         21    1    1    2  503  505  0.29201891185E+02 -0.13209082802E+02 -0.52032928133E+01  0.32470056566E+02  0.00000000000E+00 0. -1.
         21    1    1    2  504  502  0.23232001401E+02  0.18771400863E+03 -0.33440090318E+03  0.38418776525E+03  0.00000000000E+00 0. -1.
         21    1    1    2  505  501 -0.30814489369E+02 -0.17479796212E+02 -0.99293931387E+01  0.36792239383E+02  0.00000000000E+00 0.  1.
          2    1    1    2  501    0 -0.21619403217E+02 -0.15702512961E+03 -0.42062341778E+03  0.44949788599E+03  0.00000000000E+00 0. -1.
<scales pt_clust_3="32.05043" pt_clust_4="169.74962" pt_clust_5="31.32190" pt_clust_6="14000.00000"></scales>
<clustering>
<clus scale="   32.050">  1  3  2 -1</clus>
<clus scale="   31.322">  1  5  2 -1</clus>
<clus scale="  169.750">  1  4  2 -1</clus>
<clus scale="   32.050">  1  3  2 -1</clus>
</clustering>
</event>
<event>
 6    0  0.4796958E+002  0.1504741E+03  0.7546771E-02  0.1199892E+00
          2   -1    0    0  504    0 -0.00000000000E+00  0.00000000000E+00  0.14525700875E+04  0.14525700875E+04  0.00000000000E+00 0.  1.
         21   -1    0    0  505  502  0.00000000000E+00 -0.00000000000E+00 -0.19273093959E+03  0.19273093959E+03  0.00000000000E+00 0. -1.
         21    1    1    2  503  502 -0.38400499688E+02  0.20854181631E+02 -0.17700382956E+02  0.47146567474E+02  0.00000000000E+00 0. -1.
         21    1    1    2  504  503 -0.10602319070E+03 -0.80765929908E+02 -0.90860530245E+01  0.13359120016E+03  0.00000000000E+00 0. -1.
         21    1    1    2  505  501  0.18116344752E+03  0.20632077129E+02  0.56117519066E+01  0.18242085704E+03  0.00000000000E+00 0.  1.
          2    1    1    2  501    0 -0.36739757132E+02  0.39279671148E+02  0.12810138320E+04  0.12821424024E+04  0.00000000000E+00 0.  1.
<scales pt_clust_3="43.69777" pt_clust_4="14000.00000" pt_clust_5="150.47413" pt_clust_6="53.92982"></scales>
<clustering>
<clus scale="   43.698">  2  3  1 -1</clus>
<clus scale="   53.930">  1  6  2 -1</clus>
<clus scale="  150.474">  1  5  2 -1</clus>
<clus scale="   43.698">  2  3  1 -1</clus>
</clustering>
</event>
<event>
 6    0  0.4796958E+002  0.1450213E+03  0.7546771E-02  0.1206728E+00
          2   -1    0    0  504    0 -0.00000000000E+00  0.00000000000E+00  0.18743237676E+04  0.18743237676E+04  0.00000000000E+00 0.  1.
         21   -1    0    0  505  502  0.00000000000E+00 -0.00000000000E+00 -0.33946318904E+02  0.33946318904E+02  0.00000000000E+00 0. -1.
         21    1    1    2  503  501  0.82769571753E+02  0.62582492975E+02  0.16007943836E+03  0.19076896242E+03  0.00000000000E+00 0. -1.
         21    1    1    2  504  502 -0.10237079295E+03 -0.39457790148E+02  0.46930975138E+03  0.48196300605E+03  0.00000000000E+00 0. -1.
         21    1    1    2  505  503  0.46787184837E+02  0.23822935244E+01  0.33820205842E+02  0.57779947306E+02  0.00000000000E+00 0. -1.
          2    1    1    2  501    0 -0.27185963642E+02 -0.25506996351E+02  0.11771680531E+04  0.11777581707E+04  0.00000000000E+00 0.  1.
<scales pt_clust_3="38.89277" pt_clust_4="133.63038" pt_clust_5="38.89277" pt_clust_6="37.27846"></scales>
<clustering>
<clus scale="   37.278">  1  6  2 -1</clus>
<clus scale="   38.893">  3  5 -1 -1</clus>
<clus scale="  133.630">  1  4  2 -1</clus>
<clus scale="  145.021">  2  3  1 -1</clus>
</clustering>
</event>
<event>
 6    0  0.4796958E+002  0.9928824E+02  0.7546771E-02  0.1281800E+00
         -1   -1    0    0    0  501 -0.00000000000E+00  0.00000000000E+00  0.18803089784E+03  0.18803089784E+03  0.00000000000E+00 0. -1.
         21   -1    0    0  505  502  0.00000000000E+00 -0.00000000000E+00 -0.17522242584E+04  0.17522242584E+04  0.00000000000E+00 0.  1.
         21    1    1    2  503  502 -0.45628669786E+02 -0.28170902998E+02 -0.13433772144E+04  0.13444470668E+04  0.00000000000E+00 0.  1.
         21    1    1    2  504  501 -0.82748403324E+00 -0.39151532938E+02  0.39151075744E+02  0.55374488649E+02  0.00000000000E+00 0.  1.
         21    1    1    2  505  504 -0.18176770097E+02  0.10705801170E+03 -0.38178123176E+03  0.39692407557E+03  0.00000000000E+00 0. -1.
         -1    1    1    2    0  503  0.64632923916E+02 -0.39735575767E+02  0.12181400984E+03  0.14350952522E+03  0.00000000000E+00 0. -1.
<scales pt_clust_3="53.70537" pt_clust_4="39.16028" pt_clust_5="14000.00000" pt_clust_6="99.28824"></scales>
<clustering>
<clus scale="   39.160">  1  4  2 -1</clus>
<clus scale="   53.705">  2  3  1 -1</clus>
<clus scale="   99.288">  1  6  2 -1</clus>
<clus scale="   53.705">  2  3  1 -1</clus>
</clustering>
</event>
<event>
 6    0  0.4796958E+002  0.1469828E+03  0.7546771E-02  0.1204230E+00
          1   -1    0    0  503    0 -0.00000000000E+00  0.00000000000E+00  0.84950974814E+03  0.84950974814E+03  0.00000000000E+00 0. -1.
         21   -1    0    0  504  502  0.00000000000E+00 -0.00000000000E+00 -0.21514273159E+03  0.21514273159E+03  0.00000000000E+00 0. -1.
         21    1    1    2  503  505  0.25905683070E+02  0.64292707787E+02  0.19138785902E+03  0.20355335730E+03  0.00000000000E+00 0.  1.
         21    1    1    2  504  501 -0.13615657942E+03  0.37560880632E+02  0.17658153952E+02  0.14234199757E+03  0.00000000000E+00 0. -1.
         21    1    1    2  505  502  0.55529140001E+01  0.32502021344E+02 -0.13196476333E+03  0.13602174461E+03  0.00000000000E+00 0. -1.
          1    1    1    2  501    0  0.10469798235E+03 -0.13435560976E+03  0.55728576691E+03  0.58273538024E+03  0.00000000000E+00 0. -1.
<scales pt_clust_3="71.73283" pt_clust_4="146.98281" pt_clust_5="32.97296" pt_clust_6="14000.00000"></scales>
<clustering>
<clus scale="   32.973">  2  5  1 -1</clus>
<clus scale="   71.733">  1  3  2 -1</clus>
<clus scale="  146.983">  2  4  1 -1</clus>
<clus scale="   32.973">  2  3  1 -1</clus>
</clustering>
</event>
<event>
 6    0  0.4796958E+002  0.1064765E+03  0.7546771E-02  0.1267237E+00
          1   -1    0    0  505    0 -0.00000000000E+00  0.00000000000E+00  0.24593007125E+03  0.24593007125E+03  0.00000000000E+00 0. -1.
         21   -1    0    0  504  502  0.00000000000E+00 -0.00000000000E+00 -0.11177946466E+03  0.11177946466E+03  0.00000000000E+00 0. -1.
         21    1    1    2  503  501 -0.43433183026E+02  0.49870175489E+02  0.46212333762E+01  0.66293525996E+02  0.00000000000E+00 0. -1.
         21    1    1    2  504  503 -0.45821775220E+02  0.78586284103E+01  0.22240098420E+02  0.51536541430E+02  0.00000000000E+00 0.  1.
         21    1    1    2  505  502  0.98958494219E+02  0.28895042307E+01 -0.17753272118E+02  0.10057987614E+03  0.00000000000E+00 0. -1.
          1    1    1    2  501    0 -0.97035359735E+01 -0.60618308130E+02  0.12504254691E+03  0.13929959235E+03  0.00000000000E+00 0. -1.
<scales pt_clust_3="36.19277" pt_clust_4="36.19277" pt_clust_5="97.33408" pt_clust_6="61.39005"></scales>
<clustering>
<clus scale="   36.193">  3  4 -1 -1</clus>
<clus scale="   61.390">  1  6  2 -1</clus>
<clus scale="   97.334">  2  5  1 -1</clus>
<clus scale="   97.334">  2  3  1 -1</clus>
</clustering>
</event>
<event>
 6    0  0.4796958E+002  0.1101651E+03  0.7546771E-02  0.1260264E+00
          2   -1    0    0  503    0 -0.00000000000E+00  0.00000000000E+00  0.31494363782E+04  0.31494363782E+04  0.00000000000E+00 0. -1.
         21   -1    0    0  505  502  0.00000000000E+00 -0.00000000000E+00 -0.27759364033E+03  0.27759364033E+03  0.00000000000E+00 0. -1.
         21    1    1    2  503  502  0.10221736117E+02  0.61891921366E+02 -0.25897033346E+03  0.26645961689E+03  0.00000000000E+00 0. -1.
         21    1    1    2  504  501 -0.54891134858E+02 -0.17399130830E+03  0.12540465949E+04  0.12672485448E+04  0.00000000000E+00 0. -1.
         21    1    1    2  505  504 -0.33520661022E+02  0.65407317678E+02  0.18440607576E+03  0.19851285273E+03  0.00000000000E+00 0. -1.
          2    1    1    2  501    0  0.78190059764E+02  0.46692069253E+02  0.16923604007E+04  0.16948090042E+04  0.00000000000E+00 0. -1.
<scales pt_clust_3="62.73033" pt_clust_4="110.16513" pt_clust_5="14000.00000" pt_clust_6="94.48598"></scales>
<clustering>
<clus scale="   62.730">  2  3  1 -1</clus>
<clus scale="   94.486">  1  6  2 -1</clus>
<clus scale="  110.165">  1  4  2 -1</clus>
<clus scale="   62.730">  2  3  1 -1</clus>
</clustering>
</event>
<event>
 6    0  0.4796958E+002  0.8025449E+02  0.7546771E-02  0.1328331E+00
          2   -1    0    0  502    0 -0.00000000000E+00  0.00000000000E+00  0.84677016918E+03  0.84677016918E+03  0.00000000000E+00 0.  1.
         21   -1    0    0  503  502  0.00000000000E+00 -0.00000000000E+00 -0.12570021574E+03  0.12570021574E+03  0.00000000000E+00 0.  1.
         21    1    1    2  503  505 -0.38936801861E+02  0.73243239670E+02 -0.71052922922E+02  0.10922071485E+03  0.00000000000E+00 0.  1.
         21    1    1    2  504  501  0.84599082624E+02  0.98785990624E+01  0.18021284982E+03  0.19932702461E+03  0.00000000000E+00 0. -1.
         21    1    1    2  505  504 -0.12716595133E+02 -0.82794169797E+02  0.43180935066E+02  0.94240010066E+02  0.00000000000E+00 0.  1.
          2    1    1    2  501    0 -0.32945685630E+02 -0.32766893525E+00  0.56872909148E+03  0.56968263539E+03  0.00000000000E+00 0.  1.
<scales pt_clust_3="80.25449" pt_clust_4="62.82052" pt_clust_5="14000.00000" pt_clust_6="32.94732"></scales>
<clustering>
<clus scale="   32.947">  1  6  2 -1</clus>
<clus scale="   62.821">  1  4  2 -1</clus>
<clus scale="   80.254">  2  3  1 -1</clus>
<clus scale="   80.254">  2  3  1 -1</clus>
</clustering>
</event>
<event>
 6    0  0.4796958E+002  0.2077607E+03  0.7546771E-02  0.1143352E+00
         21   -1    0    0  505  502  0.00000000000E+00  0.00000000000E+00  0.28912106471E+03  0.28912106471E+03  0.00000000000E+00 0. -1.
          1   -1    0    0  504    0 -0.00000000000E+00 -0.00000000000E+00 -0.42300711260E+03  0.42300711260E+03  0.00000000000E+00 0.  1.
         21    1    1    2  503  501 -0.81762456742E+02 -0.17642509553E+03  0.30102345129E+02  0.19676652370E+03  0.00000000000E+00 0. -1.
         21    1    1    2  504  502 -0.37516977640E+02  0.26174554946E+02  0.42393729709E+02  0.62368736210E+02  0.00000000000E+00 0. -1.
         21    1    1    2  505  503  0.19316983333E+02 -0.36578964137E+02  0.83934646763E+02  0.93574523187E+02  0.00000000000E+00 0. -1.
          1    1    1    2  501    0  0.99962451049E+02  0.18682950472E+03 -0.29031676949E+03  0.35941839422E+03  0.00000000000E+00 0.  1.
<scales pt_clust_3="207.76069" pt_clust_4="36.46996" pt_clust_5="41.36625" pt_clust_6="14000.00000"></scales>
<clustering>
<clus scale="   41.366">  1  5  2 -1</clus>
<clus scale="   36.470">  1  4  2 -1</clus>
<clus scale="  207.761">  1  3  2 -1</clus>
<clus scale="   41.366">  1  3  2 -1</clus>
</clustering>
</event>
<event>
 6    0  0.4796958E+002  0.7162150E+02  0.7546771E-02  0.1354664E+00
          2   -1    0    0  504    0 -0.00000000000E+00  0.00000000000E+00  0.11175053629E+04  0.11175053629E+04  0.00000000000E+00 0. -1.
         21   -1    0    0  505  502  0.00000000000E+00 -0.00000000000E+00 -0.30644469452E+03  0.30644469452E+03  0.00000000000E+00 0. -1.
         21    1    1    2  503  502  0.47640625670E+02 -0.24656542349E+02 -0.20885665376E+02  0.57565487170E+02  0.00000000000E+00 0.  1.
         21    1    1    2  504  503  0.38638749276E+02  0.83539122438E+02 -0.18956365071E+02  0.93973835188E+02  0.00000000000E+00 0.  1.
         21    1    1    2  505  501 -0.42957958807E+02 -0.23352038310E+01 -0.20734857225E+03  0.21176465667E+03  0.00000000000E+00 0. -1.
          2    1    1    2  501    0 -0.43321416139E+02 -0.56547376257E+02  0.10582512711E+04  0.10606460784E+04  0.00000000000E+00 0. -1.
<scales pt_clust_3="39.62898" pt_clust_4="14000.00000" pt_clust_5="43.02138" pt_clust_6="71.62150"></scales>
<clustering>
<clus scale="   43.021">  2  5  1 -1</clus>
<clus scale="   39.629">  2  3  1 -1</clus>
<clus scale="   71.622">  1  6  2 -1</clus>
<clus scale="   43.021">  2  3  1 -1</clus>
</clustering>
</event>
<event>
 6    0  0.4796958E+002  0.8093989E+02  0.7546771E-02  0.1326405E+00
          2   -1    0    0  504    0 -0.00000000000E+00  0.00000000000E+00  0.19022959605E+04  0.19022959605E+04  0.00000000000E+00 0. -1.
         21   -1    0    0  505  502  0.00000000000E+00 -0.00000000000E+00 -0.87124214451E+03  0.87124214451E+03  0.00000000000E+00 0.  1.
         21    1    1    2  503  501  0.10315199997E+03  0.14483414721E+02  0.10883985455E+04  0.10933716195E+04  0.00000000000E+00 0. -1.
         21    1    1    2  504  502 -0.19524750919E+02  0.54373224530E+02  0.53302344253E+02  0.78605364621E+02  0.00000000000E+00 0. -1.
         21    1    1    2  505  503 -0.80563985523E+02 -0.73586211752E+01 -0.85291528725E+03  0.85674336431E+03  0.00000000000E+00 0.  1.
          2    1    1    2  501    0 -0.30632635312E+01 -0.61498018076E+02  0.74226821353E+03  0.74481775665E+03  0.00000000000E+00 0. -1.
<scales pt_clust_3="80.93989" pt_clust_4="57.77251" pt_clust_5="14000.00000" pt_clust_6="40.97744"></scales>
<clustering>
<clus scale="   57.773">  1  4  2 -1</clus>
<clus scale="   40.977">  1  6  2 -1</clus>
<clus scale="   80.940">  1  3  2 -1</clus>
<clus scale="   80.940">  2  3  1 -1</clus>
</clustering>
</event>
<event>
 6    0  0.4796958E+002  0.1049449E+03  0.7546771E-02  0.1270228E+00
         21   -1    0    0  505  502  0.00000000000E+00  0.00000000000E+00  0.56937514559E+03  0.56937514559E+03  0.00000000000E+00 0.  1.
         -4   -1    0    0    0  501 -0.00000000000E+00 -0.00000000000E+00 -0.41259797102E+03  0.41259797102E+03  0.00000000000E+00 0.  1.
         21    1    1    2  503  504  0.70185151816E+01 -0.58182575717E+02  0.18674456669E+03  0.19572430830E+03  0.00000000000E+00 0.  1.
         21    1    1    2  504  501  0.97177739184E+02  0.71923899414E+02 -0.16550679307E+02  0.12202657614E+03  0.00000000000E+00 0.  1.
         21    1    1    2  505  503  0.15394026508E+01 -0.36407919584E+02  0.31569956354E+03  0.31779572179E+03  0.00000000000E+00 0.  1.
         -4    1    1    2    0  502 -0.10573565702E+03  0.22666595886E+02 -0.32911627635E+03  0.34642651037E+03  0.00000000000E+00 0.  1.
<scales pt_clust_3="86.13238" pt_clust_4="104.94485" pt_clust_5="36.44045" pt_clust_6="14000.00000"></scales>
<clustering>
<clus scale="   36.440">  1  5  2 -1</clus>
<clus scale="   86.132">  1  3  2 -1</clus>
<clus scale="  104.945">  1  4  2 -1</clus>
<clus scale="   36.440">  1  3  2 -1</clus>
</clustering>
</event>
<event>
 6    0  0.4796958E+002  0.1205373E+03  0.7546771E-02  0.1242213E+00
         21   -1    0    0  501  502  0.00000000000E+00  0.00000000000E+00  0.18515499955E+03  0.18515499955E+03  0.00000000000E+00 0.  1.
          2   -1    0    0  505    0 -0.00000000000E+00 -0.00000000000E+00 -0.93624946347E+03  0.93624946347E+03  0.00000000000E+00 0.  1.
         21    1    1    2  503  502 -0.48412524351E+02  0.22767735835E+02  0.43963458656E+02  0.69245418665E+02  0.00000000000E+00 0.  1.
         21    1    1    2  504  503 -0.59201537276E+02  0.15307473444E+02  0.10458029907E+03  0.12114528349E+03  0.00000000000E+00 0.  1.
         21    1    1    2  505  504  0.14235527091E+03 -0.17765719471E+02 -0.32849358006E+03  0.35845317140E+03  0.00000000000E+00 0.  1.
          2    1    1    2  501    0 -0.34741209279E+02 -0.20309489807E+02 -0.57114464158E+03  0.57256058946E+03  0.00000000000E+00 0.  1.
<scales pt_clust_3="31.75915" pt_clust_4="31.75915" pt_clust_5="115.65632" pt_clust_6="40.24210"></scales>
<clustering>
<clus scale="   31.759">  3  4 -1 -1</clus>
<clus scale="   40.242">  2  6  1 -1</clus>
<clus scale="  115.656">  2  5  1 -1</clus>
<clus scale="  120.537">  1  3  2 -1</clus>
</clustering>
</event>
<event>
 6    0  0.4796958E+002  0.7758379E+02  0.7546771E-02  0.1336052E+00
         21   -1    0    0  505  502  0.00000000000E+00  0.00000000000E+00  0.68775979090E+03  0.68775979090E+03  0.00000000000E+00 0. -1.
          1   -1    0    0  503    0 -0.00000000000E+00 -0.00000000000E+00 -0.10618564443E+04  0.10618564443E+04  0.00000000000E+00 0. -1.
         21    1    1    2  503  504 -0.77115031630E+02  0.17511259786E+02 -0.54686021657E+03  0.55254815970E+03  0.00000000000E+00 0. -1.
         21    1    1    2  504  502 -0.33127144346E+02  0.48802227156E+01  0.66839504908E+03  0.66923326718E+03  0.00000000000E+00 0. -1.
         21    1    1    2  505  501  0.57722297867E+02 -0.76152471224E+02 -0.18476863752E+03  0.20801565315E+03  0.00000000000E+00 0. -1.
          1    1    1    2  501    0  0.52519878109E+02  0.53760988722E+02 -0.31086284837E+03  0.31981915515E+03  0.00000000000E+00 0. -1.
<scales pt_clust_3="14000.00000" pt_clust_4="33.48469" pt_clust_5="77.58379" pt_clust_6="70.80092"></scales>
<clustering>
<clus scale="   33.485">  1  4  2 -1</clus>
<clus scale="   70.801">  2  6  1 -1</clus>
<clus scale="   77.584">  1  5  2 -1</clus>
<clus scale="   33.485">  1  3  2 -1</clus>
</clustering>
</event>
<event>
 6    0  0.4796958E+002  0.1171643E+03  0.7546771E-02  0.1247850E+00
          1   -1    0    0  504    0 -0.00000000000E+00  0.00000000000E+00  0.26412637673E+03  0.26412637673E+03  0.00000000000E+00 0.  1.
         21   -1    0    0  503  502  0.00000000000E+00 -0.00000000000E+00 -0.69723312024E+03  0.69723312024E+03  0.00000000000E+00 0. -1.
         21    1    1    2  503  501  0.93435896399E+02 -0.46642312655E+02  0.19141061700E+02  0.10617039281E+03  0.00000000000E+00 0.  1.
         21    1    1    2  504  505 -0.85617541925E+02 -0.33141650313E+02 -0.52060343295E+02  0.10554151702E+03  0.00000000000E+00 0.  1.
         21    1    1    2  505  502 -0.42972848434E+02  0.11321645086E+03 -0.56500587419E+03  0.57783757953E+03  0.00000000000E+00 0. -1.
          1    1    1    2  501    0  0.35154493959E+02 -0.33432487896E+02  0.16481841228E+03  0.17181000762E+03  0.00000000000E+00 0.  1.
<scales pt_clust_3="117.16428" pt_clust_4="86.89350" pt_clust_5="14000.00000" pt_clust_6="48.51360"></scales>
<clustering>
<clus scale="   48.514">  1  6  2 -1</clus>
<clus scale="   86.893">  1  4  2 -1</clus>
<clus scale="  117.164">  1  3  2 -1</clus>
<clus scale="  117.164">  2  3  1 -1</clus>
</clustering>
</event>
<event>
 6    0  0.4796958E+002  0.2408791E+03  0.7546771E-02  0.1119209E+00
         21   -1    0    0  505  502  0.00000000000E+00  0.00000000000E+00  0.15710838325E+04  0.15710838325E+04  0.00000000000E+00 0. -1.
         -3   -1    0    0    0  501 -0.00000000000E+00 -0.00000000000E+00 -0.33388021676E+03  0.33388021676E+03  0.00000000000E+00 0. -1.
         21    1    1    2  503  501 -0.18939485547E+03 -0.87783866311E+02  0.62971785972E+02  0.21804096930E+03  0.00000000000E+00 0. -1.
         21    1    1    2  504  503  0.27722005970E+03  0.51328544583E+02  0.26538729034E+03  0.38718986926E+03  0.00000000000E+00 0. -1.
         21    1    1    2  505  504 -0.53059743105E+02  0.47705522140E+02  0.11014164365E+04  0.11037252012E+04  0.00000000000E+00 0. -1.
         -3    1    1    2    0  502 -0.34765461122E+02 -0.11250200411E+02 -0.19257189700E+03  0.19600800956E+03  0.00000000000E+00 0. -1.
<scales pt_clust_3="240.87909" pt_clust_4="14000.00000" pt_clust_5="71.50439" pt_clust_6="36.54045"></scales>
<clustering>
<clus scale="   36.540">  2  6  1 -1</clus>
<clus scale="   71.504">  1  5  2 -1</clus>
<clus scale="  240.879">  2  3  1 -1</clus>
<clus scale="   71.504">  1  3  2 -1</clus>
</clustering>
</event>
<event>
 6    0  0.4796958E+002  0.9754915E+02  0.7546771E-02  0.1285536E+00
          2   -1    0    0  504    0 -0.00000000000E+00  0.00000000000E+00  0.22209511102E+04  0.22209511102E+04  0.00000000000E+00 0. -1.
         21   -1    0    0  501  502  0.00000000000E+00 -0.00000000000E+00 -0.48088190284E+03  0.48088190284E+03  0.00000000000E+00 0.  1.
         21    1    1    2  503  502  0.17569779721E+02 -0.30008434005E+02 -0.41990954052E+03  0.42134691822E+03  0.00000000000E+00 0.  1.
         21    1    1    2  504  505  0.82496236690E+02 -0.73229272520E+01  0.46110244735E+03  0.46848129235E+03  0.00000000000E+00 0.  1.
         21    1    1    2  505  503 -0.11138193187E+03 -0.20376742374E+01 -0.12277481649E+01  0.11140733472E+03  0.00000000000E+00 0. -1.
          2    1    1    2  501    0  0.11315915458E+02  0.39369035494E+02  0.17001040487E+04  0.17005974678E+04  0.00000000000E+00 0. -1.
<scales pt_clust_3="34.77360" pt_clust_4="14000.00000" pt_clust_5="97.54915" pt_clust_6="40.86496"></scales>
<clustering>
<clus scale="   34.774">  2  3  1 -1</clus>
<clus scale="   40.865">  1  6  2 -1</clus>
<clus scale="   97.549">  2  5  1 -1</clus>
<clus scale="   34.774">  2  3  1 -1</clus>
</clustering>
</event>
<event>
 6    0  0.4796958E+002  0.1176305E+03  0.7546771E-02  0.1247058E+00
         21   -1    0    0  505  502  0.00000000000E+00  0.00000000000E+00  0.69826277876E+02  0.69826277876E+02  0.00000000000E+00 0. -1.
          1   -1    0    0  503    0 -0.00000000000E+00 -0.00000000000E+00 -0.15747166728E+04  0.15747166728E+04  0.00000000000E+00 0.  1.
         21    1    1    2  503  504 -0.72893216361E+02  0.15148813480E+02 -0.11559645075E+03  0.13749707985E+03  0.00000000000E+00 0.  1.
         21    1    1    2  504  502 -0.29051656384E+02  0.12609241732E+02 -0.26852334354E+00  0.31671182809E+02  0.00000000000E+00 0. -1.
         21    1    1    2  505  501 -0.27584273598E+02 -0.25282511043E+02  0.31525745170E+02  0.48928213978E+02  0.00000000000E+00 0. -1.
          1    1    1    2  501    0  0.12952914634E+03 -0.24755441694E+01 -0.14205511660E+04  0.14264464740E+04  0.00000000000E+00 0.  1.
<scales pt_clust_3="117.63047" pt_clust_4="31.67004" pt_clust_5="51.68613" pt_clust_6="14000.00000"></scales>
<clustering>
<clus scale="   31.670">  1  4  2 -1</clus>
<clus scale="   51.686">  1  5  2 -1</clus>
<clus scale="  117.630">  1  3  2 -1</clus>
<clus scale="   31.670">  1  3  2 -1</clus>
</clustering>
</event>
<event>
 6    0  0.4796958E+002  0.9282592E+02  0.7546771E-02  0.1296149E+00
         21   -1    0    0  505  502  0.00000000000E+00  0.00000000000E+00  0.44288976823E+03  0.44288976823E+03  0.00000000000E+00 0. -1.
          2   -1    0    0  503    0 -0.00000000000E+00 -0.00000000000E+00 -0.18706702765E+04  0.18706702765E+04  0.00000000000E+00 0.  1.
         21    1    1    2  503  502 -0.32571581336E+02  0.10547885935E+03  0.17291096362E+03  0.20514604315E+03  0.00000000000E+00 0. -1.
         21    1    1    2  504  501  0.75337568524E+02 -0.98082593925E+01 -0.13889612215E+03  0.15831640449E+03  0.00000000000E+00 0. -1.
         21    1    1    2  505  504 -0.34221786969E+02 -0.35492222109E+02  0.24111432327E+03  0.24610352581E+03  0.00000000000E+00 0. -1.
          2    1    1    2  501    0 -0.85442002192E+01 -0.60178377853E+02 -0.17029096730E+04  0.17039940713E+04  0.00000000000E+00 0.  1.
<scales pt_clust_3="14000.00000" pt_clust_4="92.82592" pt_clust_5="49.30343" pt_clust_6="60.89066"></scales>
<clustering>
<clus scale="   49.303">  1  5  2 -1</clus>
<clus scale="   60.891">  2  6  1 -1</clus>
<clus scale="   92.826">  2  4  1 -1</clus>
<clus scale="   49.303">  1  3  2 -1</clus>
</clustering>
</event>
<event>
 6    0  0.4796958E+002  0.7321476E+02  0.7546771E-02  0.1349490E+00
          1   -1    0    0  505    0 -0.00000000000E+00  0.00000000000E+00  0.38328076923E+03  0.38328076923E+03  0.00000000000E+00 0.  1.
         21   -1    0    0  504  502  0.00000000000E+00 -0.00000000000E+00 -0.45654288521E+02  0.45654288521E+02  0.00000000000E+00 0.  1.
         21    1    1    2  503  502  0.31549426367E+02  0.74815766643E+02  0.71247487069E+02  0.10802300522E+03  0.00000000000E+00 0.  1.
         21    1    1    2  504  501  0.27214378457E+02 -0.71565146286E+02  0.72620364919E+02  0.10552682104E+03  0.00000000000E+00 0.  1.
         21    1    1    2  505  503 -0.24608508564E+02  0.34222754138E+02  0.71034309131E+02  0.82599326076E+02  0.00000000000E+00 0.  1.
          1    1    1    2  501    0 -0.34155296260E+02 -0.37473374495E+02  0.12272431959E+03  0.13278590541E+03  0.00000000000E+00 0.  1.
<scales pt_clust_3="73.21476" pt_clust_4="14000.00000" pt_clust_5="42.15182" pt_clust_6="50.11138"></scales>
<clustering>
<clus scale="   42.152">  1  5  2 -1</clus>
<clus scale="   50.111">  1  6  2 -1</clus>
<clus scale="   73.215">  1  3  2 -1</clus>
<clus scale="   73.215">  2  3  1 -1</clus>
</clustering>
</event>
<event>
 6    0  0.4796958E+002  0.9035260E+02  0.7546771E-02  0.1302000E+00
         21   -1    0    0  503  502  0.00000000000E+00  0.00000000000E+00  0.53762863859E+02  0.53762863859E+02  0.00000000000E+00 0.  1.
          2   -1    0    0  505    0 -0.00000000000E+00 -0.00000000000E+00 -0.13381741287E+04  0.13381741287E+04  0.00000000000E+00 0.  1.
         21    1    1    2  503  501  0.39039333060E+01  0.63500974979E+02 -0.71597768343E+01  0.64022472014E+02  0.00000000000E+00 0.  1.
         21    1    1    2  504  502 -0.36231165329E+02 -0.60135633107E+02 -0.85524047719E+02  0.11064969249E+03  0.00000000000E+00 0.  1.
         21    1    1    2  505  504  0.35966085791E+02 -0.92742878668E+02 -0.22016897974E+03  0.24159714508E+03  0.00000000000E+00 0.  1.
          2    1    1    2  501    0 -0.36388537682E+01  0.89377536796E+02 -0.97155846052E+03  0.97566768295E+03  0.00000000000E+00 0.  1.
<scales pt_clust_3="63.62087" pt_clust_4="44.68314" pt_clust_5="90.35260" pt_clust_6="14000.00000"></scales>
<clustering>
<clus scale="   63.621">  1  3  2 -1</clus>
<clus scale="   44.683">  1  4  2 -1</clus>
<clus scale="   90.353">  1  5  2 -1</clus>
<clus scale="   63.621">  1  3  2 -1</clus>
</clustering>
</event>
<event>
 6    0  0.4796958E+002  0.1472080E+03  0.7546771E-02  0.1203946E+00
         21   -1    0    0  501  502  0.00000000000E+00  0.00000000000E+00  0.21353429036E+03  0.21353429036E+03  0.00000000000E+00 0. -1.
          1   -1    0    0  504    0 -0.00000000000E+00 -0.00000000000E+00 -0.15530682656E+04  0.15530682656E+04  0.00000000000E+00 0.  1.
         21    1    1    2  503  505  0.12060801002E+03 -0.43642712731E+02  0.95361932069E+02  0.15982764637E+03  0.00000000000E+00 0. -1.
         21    1    1    2  504  503 -0.73913555087E+02  0.10821353605E+03 -0.94541109861E+03  0.95445038026E+03  0.00000000000E+00 0. -1.
         21    1    1    2  505  502 -0.50875680179E+00 -0.45759552921E+02  0.73799797248E+02  0.86836660408E+02  0.00000000000E+00 0. -1.
          1    1    1    2  501    0 -0.46185698135E+02 -0.18811270394E+02 -0.56328460592E+03  0.56548786890E+03  0.00000000000E+00 0.  1.
<scales pt_clust_3="147.20803" pt_clust_4="14000.00000" pt_clust_5="45.76238" pt_clust_6="50.01751"></scales>
<clustering>
<clus scale="   45.762">  1  5  2 -1</clus>
<clus scale="   50.018">  2  6  1 -1</clus>
<clus scale="  147.208">  1  3  2 -1</clus>
<clus scale="   45.762">  1  3  2 -1</clus>
</clustering>
</event>
<event>
 6    0  0.4796958E+002  0.1943352E+03  0.7546771E-02  0.1154608E+00
          2   -1    0    0  503    0 -0.00000000000E+00  0.00000000000E+00  0.31669733166E+04  0.31669733166E+04  0.00000000000E+00 0. -1.
         21   -1    0    0  504  502  0.00000000000E+00 -0.00000000000E+00 -0.19446868094E+03  0.19446868094E+03  0.00000000000E+00 0. -1.
         21    1    1    2  503  505 -0.21202298829E+03  0.28726960752E+02  0.68988684171E+03  0.72230384202E+03  0.00000000000E+00 0.  1.
         21    1    1    2  504  501 -0.33153086449E+02  0.10356631479E+02 -0.28180413715E+01  0.34847213860E+02  0.00000000000E+00 0.  1.
         21    1    1    2  505  502  0.21624056453E+03 -0.56904777718E+02 -0.80842907026E+02  0.23776818772E+03  0.00000000000E+00 0. -1.
          2    1    1    2  501    0  0.28935510213E+02  0.17821185488E+02  0.23662787424E+04  0.23665227540E+04  0.00000000000E+00 0. -1.
<scales pt_clust_3="14000.00000" pt_clust_4="34.29072" pt_clust_5="194.33515" pt_clust_6="33.98321"></scales>
<clustering>
<clus scale="   33.983">  1  6  2 -1</clus>
<clus scale="   34.291">  2  4  1 -1</clus>
<clus scale="  194.335">  2  5  1 -1</clus>
<clus scale="   34.291">  2  3  1 -1</clus>
</clustering>
</event>
<event>
 6    0  0.4796958E+002  0.1374122E+03  0.7546771E-02  0.1216854E+00
          1   -1    0    0  505    0 -0.00000000000E+00  0.00000000000E+00  0.36126275273E+04  0.36126275273E+04  0.00000000000E+00 0. -1.
         21   -1    0    0  503  502  0.00000000000E+00 -0.00000000000E+00 -0.32395858888E+02  0.32395858888E+02  0.00000000000E+00 0.  1.
         21    1    1    2  503  501  0.11384501360E+02  0.10358870980E+03  0.16317972544E+04  0.16351215573E+04  0.00000000000E+00 0. -1.
         21    1    1    2  504  502  0.10134610941E+01 -0.62325914974E+02  0.30011314759E+02  0.69182554118E+02  0.00000000000E+00 0.  1.
         21    1    1    2  505  504  0.25261079104E+00 -0.69641574072E+02  0.99057591578E+02  0.12108847633E+03  0.00000000000E+00 0.  1.
          1    1    1    2  501    0 -0.12650573246E+02  0.28378779242E+02  0.18193655077E+04  0.18196307985E+04  0.00000000000E+00 0. -1.
<scales pt_clust_3="129.44056" pt_clust_4="43.91020" pt_clust_5="43.91020" pt_clust_6="31.07076"></scales>
<clustering>
<clus scale="   31.071">  1  6  2 -1</clus>
<clus scale="   43.910">  4  5 -1 -1</clus>
<clus scale="  129.441">  1  3  2 -1</clus>
<clus scale="  137.412">  2  3  1 -1</clus>
</clustering>
</event>
<event>
 6    0  0.4796958E+002  0.6445638E+02  0.7546771E-02  0.1380028E+00
         21   -1    0    0  503  502  0.00000000000E+00  0.00000000000E+00  0.80632846687E+03  0.80632846687E+03  0.00000000000E+00 0.  1.
          2   -1    0    0  505    0 -0.00000000000E+00 -0.00000000000E+00 -0.10044545794E+04  0.10044545794E+04  0.00000000000E+00 0. -1.
         21    1    1    2  503  504 -0.95548253279E+01 -0.63709451807E+02  0.76824918800E+03  0.77094552583E+03  0.00000000000E+00 0.  1.
         21    1    1    2  504  501  0.47594559329E+02  0.64064748229E+02 -0.22910651332E+03  0.24260941550E+03  0.00000000000E+00 0.  1.
         21    1    1    2  505  502 -0.52842204683E+02  0.43694078511E+02 -0.10964110025E+02  0.69438338123E+02  0.00000000000E+00 0.  1.
          2    1    1    2  501    0  0.14802470682E+02 -0.44049374932E+02 -0.72630467718E+03  0.72778976680E+03  0.00000000000E+00 0. -1.
<scales pt_clust_3="14000.00000" pt_clust_4="64.45638" pt_clust_5="62.94656" pt_clust_6="46.47000"></scales>
<clustering>
<clus scale="   46.470">  2  6  1 -1</clus>
<clus scale="   62.947">  2  5  1 -1</clus>
<clus scale="   64.456">  2  4  1 -1</clus>
<clus scale="   64.456">  1  3  2 -1</clus>
</clustering>
</event>
