<event>
 5    0  0.5771634E-005  0.2424877E+03  0.7546771E-02  0.1118147E+00
         21   -1    0    0  502  501  0.00000000000E+00  0.00000000000E+00  0.26930213255E+03  0.26930213255E+03  0.00000000000E+00 0.  1.
         21   -1    0    0  501  502 -0.00000000000E+00 -0.00000000000E+00 -0.21834316534E+03  0.21834316534E+03  0.00000000000E+00 0.  1.
         25    1    1    2    0    0  0.41905487128E+02  0.13078469664E+02 -0.61166667519E+02  0.14592284754E+03  0.12500000000E+03 0.  0.
         25    1    1    2    0    0  0.73762601800E+02 -0.37864072677E+02  0.63490022074E+02  0.16288214244E+03  0.12500000000E+03 0.  0.
         25    1    1    2    0    0 -0.11566808893E+03  0.24785603013E+02  0.48635612654E+02  0.17884030790E+03  0.12500000000E+03 0.  0.
</event>
<event>
 5    0  0.5771634E-005  0.2680246E+03  0.7546771E-02  0.1102416E+00
         21   -1    0    0  502  501  0.00000000000E+00  0.00000000000E+00  0.11004917718E+03  0.11004917718E+03  0.00000000000E+00 0.  1.
         21   -1    0    0  501  502 -0.00000000000E+00 -0.00000000000E+00 -0.65277354791E+03  0.65277354791E+03  0.00000000000E+00 0.  1.
         25    1    1    2    0    0  0.14463131142E+03  0.50093790275E+02 -0.36422974113E+03  0.41438618267E+03  0.12500000000E+03 0.  0.
         25    1    1    2    0    0 -0.84410469971E+02 -0.50831478836E+02 -0.78959265621E+02  0.17767535650E+03  0.12500000000E+03 0.  0.
         25    1    1    2    0    0 -0.60220841449E+02  0.73768856136E+00 -0.99535363980E+02  0.17076118591E+03  0.12500000000E+03 0.  0.
</event>
<event>
 5    0  0.5771634E-005  0.2091634E+03  0.7546771E-02  0.1142230E+00
         21   -1    0    0  502  501  0.00000000000E+00  0.00000000000E+00  0.88328437196E+03  0.88328437196E+03  0.00000000000E+00 0. -1.
         21   -1    0    0  501  502 -0.00000000000E+00 -0.00000000000E+00 -0.49530287263E+02  0.49530287263E+02  0.00000000000E+00 0. -1.
         25    1    1    2    0    0 -0.21025742101E+02 -0.28479270233E+02  0.30182393312E+03  0.32859677002E+03  0.12500000000E+03 0.  0.
         25    1    1    2    0    0 -0.48879025730E+02  0.72406816103E+00  0.19155525789E+03  0.23389762773E+03  0.12500000000E+03 0.  0.
         25    1    1    2    0    0  0.69904767832E+02  0.27755202072E+02  0.34037489369E+03  0.37032026148E+03  0.12500000000E+03 0.  0.
</event>
<event>
 5    0  0.5771634E-005  0.4267140E+03  0.7546771E-02  0.1034903E+00
         21   -1    0    0  502  501  0.00000000000E+00  0.00000000000E+00  0.17350763257E+03  0.17350763257E+03  0.00000000000E+00 0.  1.
         21   -1    0    0  501  502 -0.00000000000E+00 -0.00000000000E+00 -0.10494339711E+04  0.10494339711E+04  0.00000000000E+00 0.  1.
         25    1    1    2    0    0 -0.15816994912E+03 -0.24562882033E+03 -0.12767532684E+03  0.34245764594E+03  0.12500000000E+03 0.  0.
         25    1    1    2    0    0  0.60083425480E+01  0.70157219033E+02 -0.49295640338E+03  0.51340934078E+03  0.12500000000E+03 0.  0.
         25    1    1    2    0    0  0.15216160657E+03  0.17547160130E+03 -0.25529460834E+03  0.36707461697E+03  0.12500000000E+03 0.  0.
</event>
<event>
 5    0  0.5771634E-005  0.2766981E+03  0.7546771E-02  0.1097506E+00
         21   -1    0    0  502  501  0.00000000000E+00  0.00000000000E+00  0.17072916358E+03  0.17072916358E+03  0.00000000000E+00 0.  1.
         21   -1    0    0  501  502 -0.00000000000E+00 -0.00000000000E+00 -0.44844043878E+03  0.44844043878E+03  0.00000000000E+00 0.  1.
         25    1    1    2    0    0 -0.42537840687E+02 -0.81330433580E+02 -0.69844013229E+02  0.17008025606E+03  0.12500000000E+03 0.  0.
         25    1    1    2    0    0 -0.11250233631E+03 -0.16876590948E+02 -0.13193244856E+03  0.21441260686E+03  0.12500000000E+03 0.  0.
         25    1    1    2    0    0  0.15504017699E+03  0.98207024528E+02 -0.75934813402E+02  0.23467673944E+03  0.12500000000E+03 0.  0.
</event>
<event>
 5    0  0.5771634E-005  0.5381914E+03  0.7546771E-02  0.1004265E+00
         21   -1    0    0  502  501  0.00000000000E+00  0.00000000000E+00  0.20496964914E+03  0.20496964914E+03  0.00000000000E+00 0. -1.
         21   -1    0    0  501  502 -0.00000000000E+00 -0.00000000000E+00 -0.14131360631E+04  0.14131360631E+04  0.00000000000E+00 0. -1.
         25    1    1    2    0    0 -0.13091757787E+03  0.36208140191E+02 -0.17584746112E+03  0.25494660459E+03  0.12500000000E+03 0.  0.
         25    1    1    2    0    0  0.62828886235E+02 -0.17432651603E+03 -0.11230327879E+04  0.11450610665E+04  0.12500000000E+03 0.  0.
         25    1    1    2    0    0  0.68088691634E+02  0.13811837584E+03  0.90713835132E+02  0.21809804116E+03  0.12500000000E+03 0.  0.
</event>
<event>
 5    0  0.5771634E-005  0.3444917E+03  0.7546771E-02  0.1064899E+00
         21   -1    0    0  502  501  0.00000000000E+00  0.00000000000E+00  0.69423519453E+03  0.69423519453E+03  0.00000000000E+00 0. -1.
         21   -1    0    0  501  502 -0.00000000000E+00 -0.00000000000E+00 -0.17094280253E+03  0.17094280253E+03  0.00000000000E+00 0. -1.
         25    1    1    2    0    0 -0.39301019550E+02  0.52407652180E+02  0.24486573079E+03  0.28262228904E+03  0.12500000000E+03 0.  0.
         25    1    1    2    0    0 -0.13492610432E+03 -0.16520300163E+03  0.22535394705E+03  0.33452426941E+03  0.12500000000E+03 0.  0.
         25    1    1    2    0    0  0.17422712387E+03  0.11279534945E+03  0.53072714156E+02  0.24803143861E+03  0.12500000000E+03 0.  0.
</event>
<event>
 5    0  0.6964480E-005  0.4447544E+03  0.7546771E-02  0.1029298E+00
         21   -1    0    0  502  501  0.00000000000E+00  0.00000000000E+00  0.47356768378E+03  0.47356768378E+03  0.00000000000E+00 0.  1.
         21   -1    0    0  501  502 -0.00000000000E+00 -0.00000000000E+00 -0.41769412071E+03  0.41769412071E+03  0.00000000000E+00 0.  1.
         25    1    1    2    0    0  0.23835159081E+02  0.36486716681E+02  0.31408380531E+03  0.34084165247E+03  0.12500000000E+03 0.  0.
         25    1    1    2    0    0 -0.11427502576E+03  0.15904843480E+03 -0.86606901536E+02  0.24795350677E+03  0.12500000000E+03 0.  0.
         25    1    1    2    0    0  0.90439866676E+02 -0.19553515148E+03 -0.17160334070E+03  0.30246664525E+03  0.12500000000E+03 0.  0.
</event>
<event>
 5    0  0.6314779E-005  0.3561888E+03  0.7546771E-02  0.1060103E+00
         21   -1    0    0  502  501  0.00000000000E+00  0.00000000000E+00  0.35346838811E+03  0.35346838811E+03  0.00000000000E+00 0.  1.
         21   -1    0    0  501  502 -0.00000000000E+00 -0.00000000000E+00 -0.35893022324E+03  0.35893022324E+03  0.00000000000E+00 0.  1.
         25    1    1    2    0    0  0.48461964177E+02 -0.18598395948E+03  0.13022901017E+03  0.26367250566E+03  0.12500000000E+03 0.  0.
         25    1    1    2    0    0 -0.89226304142E+01  0.12294575200E+02 -0.18671689841E+03  0.22520872555E+03  0.12500000000E+03 0.  0.
         25    1    1    2    0    0 -0.39539333762E+02  0.17368938428E+03  0.51026053118E+02  0.22351738013E+03  0.12500000000E+03 0.  0.
</event>
<event>
 5    0  0.5771634E-005  0.3979807E+03  0.7546771E-02  0.1044481E+00
         21   -1    0    0  502  501  0.00000000000E+00  0.00000000000E+00  0.19510428317E+03  0.19510428317E+03  0.00000000000E+00 0. -1.
         21   -1    0    0  501  502 -0.00000000000E+00 -0.00000000000E+00 -0.81181513412E+03  0.81181513412E+03  0.00000000000E+00 0. -1.
         25    1    1    2    0    0 -0.19460592840E+03  0.14472856497E+03 -0.27729968515E+03  0.38902177352E+03  0.12500000000E+03 0.  0.
         25    1    1    2    0    0  0.72237119614E+02  0.12613467853E+03 -0.99471275331E+02  0.21598077042E+03  0.12500000000E+03 0.  0.
         25    1    1    2    0    0  0.12236880879E+03 -0.27086324350E+03 -0.23993989047E+03  0.40191687335E+03  0.12500000000E+03 0.  0.
</event>
<event>
 5    0  0.5771634E-005  0.2439501E+03  0.7546771E-02  0.1117189E+00
         21   -1    0    0  502  501  0.00000000000E+00  0.00000000000E+00  0.59312763799E+02  0.59312763799E+02  0.00000000000E+00 0.  1.
         21   -1    0    0  501  502 -0.00000000000E+00 -0.00000000000E+00 -0.10033532955E+04  0.10033532955E+04  0.00000000000E+00 0.  1.
         25    1    1    2    0    0  0.15071071500E+02 -0.39438878982E+02 -0.10083139225E+03  0.16605581000E+03  0.12500000000E+03 0.  0.
         25    1    1    2    0    0 -0.62918126926E+02  0.73747880794E+02 -0.34390591699E+03  0.37854157019E+03  0.12500000000E+03 0.  0.
         25    1    1    2    0    0  0.47847055427E+02 -0.34309001812E+02 -0.49930322244E+03  0.51806867909E+03  0.12500000000E+03 0.  0.
</event>
<event>
 5    0  0.5771634E-005  0.2534863E+03  0.7546771E-02  0.1111121E+00
         21   -1    0    0  502  501  0.00000000000E+00  0.00000000000E+00  0.28701154485E+03  0.28701154485E+03  0.00000000000E+00 0. -1.
         21   -1    0    0  501  502 -0.00000000000E+00 -0.00000000000E+00 -0.22387707915E+03  0.22387707915E+03  0.00000000000E+00 0. -1.
         25    1    1    2    0    0  0.37448495703E+02  0.65100997288E+02  0.37590628223E+02  0.15059410682E+03  0.12500000000E+03 0.  0.
         25    1    1    2    0    0 -0.68070711713E+02 -0.10490499363E+03  0.10327399874E+03  0.20476620399E+03  0.12500000000E+03 0.  0.
         25    1    1    2    0    0  0.30622216010E+02  0.39803996338E+02 -0.77730161258E+02  0.15552831320E+03  0.12500000000E+03 0.  0.
</event>
<event>
 5    0  0.5771634E-005  0.2678265E+03  0.7546771E-02  0.1102530E+00
         21   -1    0    0  502  501  0.00000000000E+00  0.00000000000E+00  0.55640710718E+02  0.55640710718E+02  0.00000000000E+00 0.  1.
         21   -1    0    0  501  502 -0.00000000000E+00 -0.00000000000E+00 -0.12891827298E+04  0.12891827298E+04  0.00000000000E+00 0.  1.
         25    1    1    2    0    0 -0.13195195198E+03 -0.16305595407E+02 -0.40515036630E+03  0.44435234824E+03  0.12500000000E+03 0.  0.
         25    1    1    2    0    0 -0.35071007488E+02  0.47765043319E+02 -0.39345687155E+03  0.41706688277E+03  0.12500000000E+03 0.  0.
         25    1    1    2    0    0  0.16702295946E+03 -0.31459447912E+02 -0.43493478123E+03  0.48340420951E+03  0.12500000000E+03 0.  0.
</event>
<event>
 5    0  0.5771634E-005  0.4186811E+03  0.7546771E-02  0.1037496E+00
         21   -1    0    0  502  501  0.00000000000E+00  0.00000000000E+00  0.11949446264E+04  0.11949446264E+04  0.00000000000E+00 0.  1.
         21   -1    0    0  501  502 -0.00000000000E+00 -0.00000000000E+00 -0.14669618917E+03  0.14669618917E+03  0.00000000000E+00 0.  1.
         25    1    1    2    0    0 -0.15256669184E+03 -0.15161470866E+03  0.51592186038E+03  0.57276869796E+03  0.12500000000E+03 0.  0.
         25    1    1    2    0    0  0.24346275181E+02  0.45214855443E+02 -0.54850337043E+02  0.14584472476E+03  0.12500000000E+03 0.  0.
         25    1    1    2    0    0  0.12822041666E+03  0.10639985322E+03  0.58717691387E+03  0.62302739282E+03  0.12500000000E+03 0.  0.
</event>
<event>
 5    0  0.5771634E-005  0.2475210E+03  0.7546771E-02  0.1114882E+00
         21   -1    0    0  502  501  0.00000000000E+00  0.00000000000E+00  0.23755422969E+04  0.23755422969E+04  0.00000000000E+00 0.  1.
         21   -1    0    0  501  502 -0.00000000000E+00 -0.00000000000E+00 -0.25790595669E+02  0.25790595669E+02  0.00000000000E+00 0.  1.
         25    1    1    2    0    0  0.51568750779E+02 -0.95767424133E+02  0.11451330174E+04  0.11570589281E+04  0.12500000000E+03 0.  0.
         25    1    1    2    0    0 -0.43202362935E+02  0.43766162783E+02  0.31576085716E+03  0.34512583224E+03  0.12500000000E+03 0.  0.
         25    1    1    2    0    0 -0.83663878443E+01  0.52001261350E+02  0.88885782667E+03  0.89914813222E+03  0.12500000000E+03 0.  0.
</event>
<event>
 5    0  0.5771634E-005  0.2447105E+03  0.7546771E-02  0.1116694E+00
         21   -1    0    0  502  501  0.00000000000E+00  0.00000000000E+00  0.95783027155E+02  0.95783027155E+02  0.00000000000E+00 0.  1.
         21   -1    0    0  501  502 -0.00000000000E+00 -0.00000000000E+00 -0.62519642183E+03  0.62519642183E+03  0.00000000000E+00 0.  1.
         25    1    1    2    0    0  0.56767012045E+02  0.10111404428E+03 -0.26497538500E+03  0.31509284070E+03  0.12500000000E+03 0.  0.
         25    1    1    2    0    0 -0.17961543368E+02 -0.10133406749E+03 -0.20738818567E+03  0.26310847540E+03  0.12500000000E+03 0.  0.
         25    1    1    2    0    0 -0.38805468677E+02  0.22002320987E+00 -0.57049824010E+02  0.14277813288E+03  0.12500000000E+03 0.  0.
</event>
<event>
 5    0  0.5771634E-005  0.3842742E+03  0.7546771E-02  0.1049365E+00
         21   -1    0    0  502  501  0.00000000000E+00  0.00000000000E+00  0.25512791524E+03  0.25512791524E+03  0.00000000000E+00 0. -1.
         21   -1    0    0  501  502 -0.00000000000E+00 -0.00000000000E+00 -0.57879465259E+03  0.57879465259E+03  0.00000000000E+00 0. -1.
         25    1    1    2    0    0  0.15607151566E+03  0.20999944109E+02 -0.61153311658E+02  0.21015242844E+03  0.12500000000E+03 0.  0.
         25    1    1    2    0    0 -0.28336898577E+03  0.42412128589E+02 -0.16108958267E+02  0.31301959888E+03  0.12500000000E+03 0.  0.
         25    1    1    2    0    0  0.12729747011E+03 -0.63412072699E+02 -0.24640446742E+03  0.31075054051E+03  0.12500000000E+03 0.  0.
</event>
<event>
 5    0  0.5771634E-005  0.3055764E+03  0.7546771E-02  0.1082486E+00
         21   -1    0    0  502  501  0.00000000000E+00  0.00000000000E+00  0.27066040406E+03  0.27066040406E+03  0.00000000000E+00 0.  1.
         21   -1    0    0  501  502 -0.00000000000E+00 -0.00000000000E+00 -0.34499673106E+03  0.34499673106E+03  0.00000000000E+00 0.  1.
         25    1    1    2    0    0 -0.13217596600E+03  0.14358756759E+02  0.39278932699E+02  0.18666680058E+03  0.12500000000E+03 0.  0.
         25    1    1    2    0    0 -0.34474273614E+01  0.97299807536E+02 -0.14043491733E+03  0.21172175917E+03  0.12500000000E+03 0.  0.
         25    1    1    2    0    0  0.13562339336E+03 -0.11165856430E+03  0.26819657629E+02  0.21726857537E+03  0.12500000000E+03 0.  0.
</event>
<event>
 5    0  0.5771634E-005  0.2876108E+03  0.7546771E-02  0.1091603E+00
         21   -1    0    0  502  501  0.00000000000E+00  0.00000000000E+00  0.30492489114E+03  0.30492489114E+03  0.00000000000E+00 0. -1.
         21   -1    0    0  501  502 -0.00000000000E+00 -0.00000000000E+00 -0.27127988329E+03  0.27127988329E+03  0.00000000000E+00 0. -1.
         25    1    1    2    0    0 -0.47103645162E+02  0.44835456953E+02  0.39836716108E+02  0.14642723633E+03  0.12500000000E+03 0.  0.
         25    1    1    2    0    0  0.15211412316E+03 -0.89809750583E+02  0.90745602018E+02  0.23465775515E+03  0.12500000000E+03 0.  0.
         25    1    1    2    0    0 -0.10501047800E+03  0.44974293630E+02 -0.96937310272E+02  0.19511978295E+03  0.12500000000E+03 0.  0.
</event>
<event>
 5    0  0.5771634E-005  0.2599044E+03  0.7546771E-02  0.1107201E+00
         21   -1    0    0  502  501  0.00000000000E+00  0.00000000000E+00  0.26590229256E+03  0.26590229256E+03  0.00000000000E+00 0. -1.
         21   -1    0    0  501  502 -0.00000000000E+00 -0.00000000000E+00 -0.25404172730E+03  0.25404172730E+03  0.00000000000E+00 0. -1.
         25    1    1    2    0    0 -0.14271370866E+03 -0.49750115480E+02 -0.13596177814E+02  0.19660145646E+03  0.12500000000E+03 0.  0.
         25    1    1    2    0    0  0.98931849975E+02  0.38937079509E+02  0.76417228117E+02  0.18101988800E+03  0.12500000000E+03 0.  0.
         25    1    1    2    0    0  0.43781858683E+02  0.10813035971E+02 -0.50960485040E+02  0.14232267540E+03  0.12500000000E+03 0.  0.
</event>
<event>
 5    0  0.5771634E-005  0.2501445E+03  0.7546771E-02  0.1113214E+00
         21   -1    0    0  502  501  0.00000000000E+00  0.00000000000E+00  0.49019038030E+03  0.49019038030E+03  0.00000000000E+00 0. -1.
         21   -1    0    0  501  502 -0.00000000000E+00 -0.00000000000E+00 -0.12764894032E+03  0.12764894032E+03  0.00000000000E+00 0. -1.
         25    1    1    2    0    0  0.37103549087E+02  0.36717645284E+02  0.14154473627E+02  0.13619914814E+03  0.12500000000E+03 0.  0.
         25    1    1    2    0    0  0.34789239580E+02 -0.10995817772E+03  0.16227475245E+03  0.23507272772E+03  0.12500000000E+03 0.  0.
         25    1    1    2    0    0 -0.71892788667E+02  0.73240532435E+02  0.18611221391E+03  0.24656744477E+03  0.12500000000E+03 0.  0.
</event>
<event>
 5    0  0.5771634E-005  0.2777573E+03  0.7546771E-02  0.1096920E+00
         21   -1    0    0  502  501  0.00000000000E+00  0.00000000000E+00  0.15695479887E+04  0.15695479887E+04  0.00000000000E+00 0. -1.
         21   -1    0    0  501  502 -0.00000000000E+00 -0.00000000000E+00 -0.49153719378E+02  0.49153719378E+02  0.00000000000E+00 0. -1.
         25    1    1    2    0    0  0.13810184951E+02 -0.14817000426E+03  0.47037203932E+03  0.50894000309E+03  0.12500000000E+03 0.  0.
         25    1    1    2    0    0  0.68102996730E+02  0.75657885774E+02  0.74700191641E+03  0.76419827072E+03  0.12500000000E+03 0.  0.
         25    1    1    2    0    0 -0.81913181681E+02  0.72512118485E+02  0.30302031361E+03  0.34556343430E+03  0.12500000000E+03 0.  0.
</event>
<event>
 5    0  0.5771634E-005  0.2837611E+03  0.7546771E-02  0.1093652E+00
         21   -1    0    0  502  501  0.00000000000E+00  0.00000000000E+00  0.13350606501E+04  0.13350606501E+04  0.00000000000E+00 0. -1.
         21   -1    0    0  501  502 -0.00000000000E+00 -0.00000000000E+00 -0.60312137243E+02  0.60312137243E+02  0.00000000000E+00 0. -1.
         25    1    1    2    0    0 -0.30754379922E+02 -0.19591103977E+02  0.62307835937E+03  0.63653851821E+03  0.12500000000E+03 0.  0.
         25    1    1    2    0    0 -0.21254125442E+02 -0.10476953571E+03  0.14295274097E+03  0.21791943376E+03  0.12500000000E+03 0.  0.
         25    1    1    2    0    0  0.52008505364E+02  0.12436063969E+03  0.50871741255E+03  0.54091483541E+03  0.12500000000E+03 0.  0.
</event>
<event>
 5    0  0.5771634E-005  0.2683430E+03  0.7546771E-02  0.1102232E+00
         21   -1    0    0  502  501  0.00000000000E+00  0.00000000000E+00  0.61933615811E+03  0.61933615811E+03  0.00000000000E+00 0.  1.
         21   -1    0    0  501  502 -0.00000000000E+00 -0.00000000000E+00 -0.11626637861E+03  0.11626637861E+03  0.00000000000E+00 0.  1.
         25    1    1    2    0    0  0.13529921961E+03 -0.22816272011E+02  0.17269668849E+03  0.25352634441E+03  0.12500000000E+03 0.  0.
         25    1    1    2    0    0 -0.13112345960E+03 -0.15463278265E+02  0.78038807649E+02  0.19785734794E+03  0.12500000000E+03 0.  0.
         25    1    1    2    0    0 -0.41757600038E+01  0.38279550275E+02  0.25233428336E+03  0.28421884438E+03  0.12500000000E+03 0.  0.
</event>
<event>
 5    0  0.5771634E-005  0.2819195E+03  0.7546771E-02  0.1094645E+00
         21   -1    0    0  502  501  0.00000000000E+00  0.00000000000E+00  0.14322913642E+04  0.14322913642E+04  0.00000000000E+00 0. -1.
         21   -1    0    0  501  502 -0.00000000000E+00 -0.00000000000E+00 -0.55490513673E+02  0.55490513673E+02  0.00000000000E+00 0. -1.
         25    1    1    2    0    0  0.66340943399E+02  0.75188353657E+02  0.75309303388E+03  0.76995358754E+03  0.12500000000E+03 0.  0.
         25    1    1    2    0    0 -0.75588327685E+02 -0.14131180291E+03  0.44910183773E+03  0.49295038450E+03  0.12500000000E+03 0.  0.
         25    1    1    2    0    0  0.92473842862E+01  0.66123449258E+02  0.17460597893E+03  0.22487790585E+03  0.12500000000E+03 0.  0.
</event>
<event>
 5    0  0.6173842E-005  0.4542621E+03  0.7546771E-02  0.1026459E+00
         21   -1    0    0  502  501  0.00000000000E+00  0.00000000000E+00  0.84194580787E+03  0.84194580787E+03  0.00000000000E+00 0. -1.
         21   -1    0    0  501  502 -0.00000000000E+00 -0.00000000000E+00 -0.24509183286E+03  0.24509183286E+03  0.00000000000E+00 0. -1.
         25    1    1    2    0    0  0.18001228617E+03  0.53531881846E+02  0.27094977735E+03  0.35257462670E+03  0.12500000000E+03 0.  0.
         25    1    1    2    0    0 -0.15602016143E+03 -0.17588506928E+03  0.44705043995E+03  0.52034310242E+03  0.12500000000E+03 0.  0.
         25    1    1    2    0    0 -0.23992124731E+02  0.12235318744E+03 -0.12114624229E+03  0.21411991161E+03  0.12500000000E+03 0.  0.
</event>
<event>
 5    0  0.5771634E-005  0.3677609E+03  0.7546771E-02  0.1055552E+00
         21   -1    0    0  502  501  0.00000000000E+00  0.00000000000E+00  0.17373948221E+04  0.17373948221E+04  0.00000000000E+00 0. -1.
         21   -1    0    0  501  502 -0.00000000000E+00 -0.00000000000E+00 -0.77845314647E+02  0.77845314647E+02  0.00000000000E+00 0. -1.
         25    1    1    2    0    0  0.14993556638E+03  0.52135052890E+02  0.22934767025E+03  0.30565354841E+03  0.12500000000E+03 0.  0.
         25    1    1    2    0    0 -0.37817151072E+02 -0.17209261073E+03  0.36141966394E+03  0.42106433840E+03  0.12500000000E+03 0.  0.
         25    1    1    2    0    0 -0.11211841531E+03  0.11995755784E+03  0.10687821732E+04  0.10885222499E+04  0.12500000000E+03 0.  0.
</event>
<event>
 5    0  0.5771634E-005  0.3033813E+03  0.7546771E-02  0.1083562E+00
         21   -1    0    0  502  501  0.00000000000E+00  0.00000000000E+00  0.19598438398E+03  0.19598438398E+03  0.00000000000E+00 0.  1.
         21   -1    0    0  501  502 -0.00000000000E+00 -0.00000000000E+00 -0.46963040479E+03  0.46963040479E+03  0.00000000000E+00 0.  1.
         25    1    1    2    0    0 -0.98016432909E+02 -0.93467093651E+02 -0.36221418655E+02  0.18783053502E+03  0.12500000000E+03 0.  0.
         25    1    1    2    0    0  0.48578542755E+02  0.16732720804E+03 -0.25164257467E+02  0.21590856681E+03  0.12500000000E+03 0.  0.
         25    1    1    2    0    0  0.49437890154E+02 -0.73860114393E+02 -0.21226034469E+03  0.26187568694E+03  0.12500000000E+03 0.  0.
</event>
<event>
 5    0  0.5771634E-005  0.2350967E+03  0.7546771E-02  0.1123103E+00
         21   -1    0    0  502  501  0.00000000000E+00  0.00000000000E+00  0.26478102665E+03  0.26478102665E+03  0.00000000000E+00 0. -1.
         21   -1    0    0  501  502 -0.00000000000E+00 -0.00000000000E+00 -0.20874029079E+03  0.20874029079E+03  0.00000000000E+00 0. -1.
         25    1    1    2    0    0  0.11740458358E+03  0.77648201724E+01 -0.92271791193E+01  0.17191355244E+03  0.12500000000E+03 0.  0.
         25    1    1    2    0    0 -0.21706564696E+02 -0.38654422425E+02  0.14923981773E+02  0.13346559315E+03  0.12500000000E+03 0.  0.
         25    1    1    2    0    0 -0.95698018882E+02  0.30889602252E+02  0.50343933204E+02  0.16814217185E+03  0.12500000000E+03 0.  0.
</event>
<event>
 5    0  0.5771634E-005  0.2559392E+03  0.7546771E-02  0.1109608E+00
         21   -1    0    0  502  501  0.00000000000E+00  0.00000000000E+00  0.71612151085E+03  0.71612151085E+03  0.00000000000E+00 0. -1.
         21   -1    0    0  501  502 -0.00000000000E+00 -0.00000000000E+00 -0.91471708491E+02  0.91471708491E+02  0.00000000000E+00 0. -1.
         25    1    1    2    0    0 -0.23678815120E+02  0.58175582311E+02  0.34571915084E+03  0.37295015205E+03  0.12500000000E+03 0.  0.
         25    1    1    2    0    0 -0.49625879382E+02 -0.76814728630E+02  0.49419983621E+02  0.16257479885E+03  0.12500000000E+03 0.  0.
         25    1    1    2    0    0  0.73304694502E+02  0.18639146318E+02  0.22951066791E+03  0.27206826844E+03  0.12500000000E+03 0.  0.
</event>
<event>
 5    0  0.5771634E-005  0.2842092E+03  0.7546771E-02  0.1093412E+00
         21   -1    0    0  502  501  0.00000000000E+00  0.00000000000E+00  0.24802438460E+03  0.24802438460E+03  0.00000000000E+00 0.  1.
         21   -1    0    0  501  502 -0.00000000000E+00 -0.00000000000E+00 -0.32567318067E+03  0.32567318067E+03  0.00000000000E+00 0.  1.
         25    1    1    2    0    0  0.36661850515E+02 -0.96752047177E+02 -0.14049145180E+03  0.21463433543E+03  0.12500000000E+03 0.  0.
         25    1    1    2    0    0  0.67190543339E+02  0.64945995507E+02 -0.43801319333E+02  0.16209906546E+03  0.12500000000E+03 0.  0.
         25    1    1    2    0    0 -0.10385239385E+03  0.31806051670E+02  0.10664397506E+03  0.19696416438E+03  0.12500000000E+03 0.  0.
</event>
<event>
 5    0  0.5771634E-005  0.4582478E+03  0.7546771E-02  0.1025291E+00
         21   -1    0    0  502  501  0.00000000000E+00  0.00000000000E+00  0.21563064772E+03  0.21563064772E+03  0.00000000000E+00 0. -1.
         21   -1    0    0  501  502 -0.00000000000E+00 -0.00000000000E+00 -0.97384621327E+03  0.97384621327E+03  0.00000000000E+00 0. -1.
         25    1    1    2    0    0  0.15415858867E+02  0.33314631113E+03 -0.41742100929E+03  0.54871614913E+03  0.12500000000E+03 0.  0.
         25    1    1    2    0    0  0.11941760846E+03 -0.27236425945E+03 -0.30476405473E+03  0.44378934653E+03  0.12500000000E+03 0.  0.
         25    1    1    2    0    0 -0.13483346733E+03 -0.60782051674E+02 -0.36030501531E+02  0.19697136532E+03  0.12500000000E+03 0.  0.
</event>
<event>
 5    0  0.5771634E-005  0.2617501E+03  0.7546771E-02  0.1106096E+00
         21   -1    0    0  502  501  0.00000000000E+00  0.00000000000E+00  0.58621644594E+03  0.58621644594E+03  0.00000000000E+00 0.  1.
         21   -1    0    0  501  502 -0.00000000000E+00 -0.00000000000E+00 -0.11687340020E+03  0.11687340020E+03  0.00000000000E+00 0.  1.
         25    1    1    2    0    0 -0.58971636583E+02 -0.58881249796E+01  0.30762677637E+02  0.14171685246E+03  0.12500000000E+03 0.  0.
         25    1    1    2    0    0  0.15480801033E+01  0.94973510742E+02  0.32809668068E+03  0.36372351611E+03  0.12500000000E+03 0.  0.
         25    1    1    2    0    0  0.57423556480E+02 -0.89085385763E+02  0.11048368743E+03  0.19764947757E+03  0.12500000000E+03 0.  0.
</event>
<event>
 5    0  0.5771634E-005  0.3055747E+03  0.7546771E-02  0.1082487E+00
         21   -1    0    0  502  501  0.00000000000E+00  0.00000000000E+00  0.28316026976E+03  0.28316026976E+03  0.00000000000E+00 0.  1.
         21   -1    0    0  501  502 -0.00000000000E+00 -0.00000000000E+00 -0.32976342391E+03  0.32976342391E+03  0.00000000000E+00 0.  1.
         25    1    1    2    0    0  0.12384049038E+03 -0.36701961938E+02 -0.14756965672E+02  0.18035040644E+03  0.12500000000E+03 0.  0.
         25    1    1    2    0    0  0.61720125408E+02 -0.72122134834E+02  0.59039043360E+02  0.16769491601E+03  0.12500000000E+03 0.  0.
         25    1    1    2    0    0 -0.18556061579E+03  0.10882409677E+03 -0.90885231838E+02  0.26487837121E+03  0.12500000000E+03 0.  0.
</event>
<event>
 5    0  0.5771634E-005  0.4151820E+03  0.7546771E-02  0.1038646E+00
         21   -1    0    0  502  501  0.00000000000E+00  0.00000000000E+00  0.30528203678E+03  0.30528203678E+03  0.00000000000E+00 0.  1.
         21   -1    0    0  501  502 -0.00000000000E+00 -0.00000000000E+00 -0.56464539191E+03  0.56464539191E+03  0.00000000000E+00 0.  1.
         25    1    1    2    0    0 -0.34212183307E+02  0.10170536458E+03 -0.31028270853E+03  0.35130444615E+03  0.12500000000E+03 0.  0.
         25    1    1    2    0    0  0.10268169970E+03  0.44917453009E+02 -0.15494870565E+03  0.22846271122E+03  0.12500000000E+03 0.  0.
         25    1    1    2    0    0 -0.68469516390E+02 -0.14662281759E+03  0.20586805905E+03  0.29016027132E+03  0.12500000000E+03 0.  0.
</event>
<event>
 5    0  0.5771634E-005  0.4731118E+03  0.7546771E-02  0.1021046E+00
         21   -1    0    0  502  501  0.00000000000E+00  0.00000000000E+00  0.58484753997E+03  0.58484753997E+03  0.00000000000E+00 0.  1.
         21   -1    0    0  501  502 -0.00000000000E+00 -0.00000000000E+00 -0.38272332500E+03  0.38272332500E+03  0.00000000000E+00 0.  1.
         25    1    1    2    0    0  0.88829945395E+02  0.89541398669E+01 -0.73940504224E+02  0.17047913064E+03  0.12500000000E+03 0.  0.
         25    1    1    2    0    0 -0.25492519466E+02  0.79947554453E+02  0.49783610267E+03  0.52010312932E+03  0.12500000000E+03 0.  0.
         25    1    1    2    0    0 -0.63337425929E+02 -0.88901694320E+02 -0.22177138348E+03  0.27698860501E+03  0.12500000000E+03 0.  0.
</event>
<event>
 5    0  0.5771634E-005  0.4058950E+03  0.7546771E-02  0.1041757E+00
         21   -1    0    0  502  501  0.00000000000E+00  0.00000000000E+00  0.34112924147E+03  0.34112924147E+03  0.00000000000E+00 0.  1.
         21   -1    0    0  501  502 -0.00000000000E+00 -0.00000000000E+00 -0.48295707554E+03  0.48295707554E+03  0.00000000000E+00 0.  1.
         25    1    1    2    0    0  0.26435820336E+01 -0.16186264323E+03 -0.17418463018E+03  0.26864807684E+03  0.12500000000E+03 0.  0.
         25    1    1    2    0    0 -0.59758716055E+02 -0.11015493687E+03 -0.12085816908E+03  0.21432897913E+03  0.12500000000E+03 0.  0.
         25    1    1    2    0    0  0.57115134022E+02  0.27201758010E+03  0.15321496518E+03  0.34110926105E+03  0.12500000000E+03 0.  0.
</event>
<event>
 5    0  0.5771634E-005  0.4841264E+03  0.7546771E-02  0.1018007E+00
         21   -1    0    0  502  501  0.00000000000E+00  0.00000000000E+00  0.23652314877E+03  0.23652314877E+03  0.00000000000E+00 0.  1.
         21   -1    0    0  501  502 -0.00000000000E+00 -0.00000000000E+00 -0.99093186351E+03  0.99093186351E+03  0.00000000000E+00 0.  1.
         25    1    1    2    0    0 -0.20129675871E+03 -0.13606303671E+03 -0.40891908227E+03  0.49180621272E+03  0.12500000000E+03 0.  0.
         25    1    1    2    0    0 -0.70375871028E+02 -0.14177945611E+03 -0.12813615534E+01  0.20169486678E+03  0.12500000000E+03 0.  0.
         25    1    1    2    0    0  0.27167262974E+03  0.27784249282E+03 -0.34420827092E+03  0.53395393279E+03  0.12500000000E+03 0.  0.
</event>
<event>
 5    0  0.5771634E-005  0.4525048E+03  0.7546771E-02  0.1026978E+00
         21   -1    0    0  502  501  0.00000000000E+00  0.00000000000E+00  0.15498587798E+03  0.15498587798E+03  0.00000000000E+00 0.  1.
         21   -1    0    0  501  502 -0.00000000000E+00 -0.00000000000E+00 -0.13211565579E+04  0.13211565579E+04  0.00000000000E+00 0.  1.
         25    1    1    2    0    0 -0.60477253857E+02 -0.16077659257E+03 -0.83272601352E+03  0.85939759399E+03  0.12500000000E+03 0.  0.
         25    1    1    2    0    0 -0.22234781044E+02  0.18037171124E+02 -0.38301423093E+03  0.40391165633E+03  0.12500000000E+03 0.  0.
         25    1    1    2    0    0  0.82712034901E+02  0.14273942145E+03  0.49569564518E+02  0.21283318557E+03  0.12500000000E+03 0.  0.
</event>
<event>
 5    0  0.5771634E-005  0.3586282E+03  0.7546771E-02  0.1059128E+00
         21   -1    0    0  502  501  0.00000000000E+00  0.00000000000E+00  0.13104344522E+03  0.13104344522E+03  0.00000000000E+00 0. -1.
         21   -1    0    0  501  502 -0.00000000000E+00 -0.00000000000E+00 -0.98146230643E+03  0.98146230643E+03  0.00000000000E+00 0. -1.
         25    1    1    2    0    0 -0.13835363722E+03 -0.17803147265E+03 -0.23354099006E+03  0.34785532657E+03  0.12500000000E+03 0.  0.
         25    1    1    2    0    0  0.84917500072E+02  0.16941596139E+03 -0.58101691772E+03  0.62379356238E+03  0.12500000000E+03 0.  0.
         25    1    1    2    0    0  0.53436137150E+02  0.86155112564E+01 -0.35860953421E+02  0.14085686269E+03  0.12500000000E+03 0.  0.
</event>
<event>
 5    0  0.5771634E-005  0.3396470E+03  0.7546771E-02  0.1066946E+00
         21   -1    0    0  502  501  0.00000000000E+00  0.00000000000E+00  0.52291096114E+03  0.52291096114E+03  0.00000000000E+00 0.  1.
         21   -1    0    0  501  502 -0.00000000000E+00 -0.00000000000E+00 -0.22061132445E+03  0.22061132445E+03  0.00000000000E+00 0.  1.
         25    1    1    2    0    0 -0.12816513084E+03  0.12583686620E+03  0.20677149865E+03  0.30106589031E+03  0.12500000000E+03 0.  0.
         25    1    1    2    0    0  0.14188703497E+03 -0.52441248647E+02 -0.82155212536E+02  0.21273573795E+03  0.12500000000E+03 0.  0.
         25    1    1    2    0    0 -0.13721904134E+02 -0.73395617554E+02  0.17768335058E+03  0.22972065732E+03  0.12500000000E+03 0.  0.
</event>
<event>
 5    0  0.5771634E-005  0.6637338E+03  0.7546771E-02  0.9781345E-01
         21   -1    0    0  502  501  0.00000000000E+00  0.00000000000E+00  0.43671083288E+03  0.43671083288E+03  0.00000000000E+00 0.  1.
         21   -1    0    0  501  502 -0.00000000000E+00 -0.00000000000E+00 -0.10087740411E+04  0.10087740411E+04  0.00000000000E+00 0.  1.
         25    1    1    2    0    0  0.17224359359E+03  0.49771982437E+03 -0.29280404787E+03  0.61542837890E+03  0.12500000000E+03 0.  0.
         25    1    1    2    0    0 -0.22719744909E+03 -0.55441521805E+02 -0.25288891075E+03  0.36642904414E+03  0.12500000000E+03 0.  0.
         25    1    1    2    0    0  0.54953855498E+02 -0.44227830257E+03 -0.26370249562E+02  0.46362745089E+03  0.12500000000E+03 0.  0.
</event>
<event>
 5    0  0.5771634E-005  0.2692966E+03  0.7546771E-02  0.1101683E+00
         21   -1    0    0  502  501  0.00000000000E+00  0.00000000000E+00  0.16806728806E+04  0.16806728806E+04  0.00000000000E+00 0. -1.
         21   -1    0    0  501  502 -0.00000000000E+00 -0.00000000000E+00 -0.43149763631E+02  0.43149763631E+02  0.00000000000E+00 0. -1.
         25    1    1    2    0    0  0.13303915589E+02 -0.66603943088E+02  0.67361610118E+03  0.68847420516E+03  0.12500000000E+03 0.  0.
         25    1    1    2    0    0 -0.72572703076E+02  0.11431487188E+03  0.77380990875E+03  0.79545047743E+03  0.12500000000E+03 0.  0.
         25    1    1    2    0    0  0.59268787487E+02 -0.47710928796E+02  0.19009710707E+03  0.23989796167E+03  0.12500000000E+03 0.  0.
</event>
<event>
 5    0  0.5771634E-005  0.4515952E+03  0.7546771E-02  0.1027247E+00
         21   -1    0    0  502  501  0.00000000000E+00  0.00000000000E+00  0.33269944754E+03  0.33269944754E+03  0.00000000000E+00 0.  1.
         21   -1    0    0  501  502 -0.00000000000E+00 -0.00000000000E+00 -0.61298040711E+03  0.61298040711E+03  0.00000000000E+00 0.  1.
         25    1    1    2    0    0 -0.14641050148E+03 -0.42091793335E+02 -0.18527265226E+03  0.27047866771E+03  0.12500000000E+03 0.  0.
         25    1    1    2    0    0  0.26683455974E+03  0.23429607789E+03 -0.15864439908E+03  0.40851974218E+03  0.12500000000E+03 0.  0.
         25    1    1    2    0    0 -0.12042405826E+03 -0.19220428456E+03  0.63636091768E+02  0.26668144477E+03  0.12500000000E+03 0.  0.
</event>
<event>
 5    0  0.5771634E-005  0.3087683E+03  0.7546771E-02  0.1080938E+00
         21   -1    0    0  502  501  0.00000000000E+00  0.00000000000E+00  0.69292894578E+02  0.69292894578E+02  0.00000000000E+00 0.  1.
         21   -1    0    0  501  502 -0.00000000000E+00 -0.00000000000E+00 -0.13758682447E+04  0.13758682447E+04  0.00000000000E+00 0.  1.
         25    1    1    2    0    0  0.86499310712E+02  0.42829139176E+02 -0.58816567842E+03  0.60899945089E+03  0.12500000000E+03 0.  0.
         25    1    1    2    0    0  0.11438257331E+03  0.28857260386E+01 -0.18520539133E+03  0.25103333936E+03  0.12500000000E+03 0.  0.
         25    1    1    2    0    0 -0.20088188402E+03 -0.45714865215E+02 -0.53320428040E+03  0.58512834906E+03  0.12500000000E+03 0.  0.
</event>
<event>
 5    0  0.5771634E-005  0.2953256E+03  0.7546771E-02  0.1087601E+00
         21   -1    0    0  502  501  0.00000000000E+00  0.00000000000E+00  0.18187872261E+03  0.18187872261E+03  0.00000000000E+00 0. -1.
         21   -1    0    0  501  502 -0.00000000000E+00 -0.00000000000E+00 -0.47953485181E+03  0.47953485181E+03  0.00000000000E+00 0. -1.
         25    1    1    2    0    0  0.55748293084E+02  0.12408222021E+03 -0.24261366363E+03  0.30494369863E+03  0.12500000000E+03 0.  0.
         25    1    1    2    0    0 -0.12705322727E+03 -0.85045588625E+02 -0.62603360396E+02  0.20717011231E+03  0.12500000000E+03 0.  0.
         25    1    1    2    0    0  0.71304934182E+02 -0.39036631588E+02  0.75608948314E+01  0.14929976348E+03  0.12500000000E+03 0.  0.
</event>
<event>
 5    0  0.5771634E-005  0.2910891E+03  0.7546771E-02  0.1089782E+00
         21   -1    0    0  502  501  0.00000000000E+00  0.00000000000E+00  0.16702737791E+03  0.16702737791E+03  0.00000000000E+00 0. -1.
         21   -1    0    0  501  502 -0.00000000000E+00 -0.00000000000E+00 -0.50729938213E+03  0.50729938213E+03  0.00000000000E+00 0. -1.
         25    1    1    2    0    0 -0.10862854340E+03  0.13928475848E+03 -0.81145207332E+02  0.23110592606E+03  0.12500000000E+03 0.  0.
         25    1    1    2    0    0  0.15194862885E+02  0.17185361343E+02 -0.43141074379E+02  0.13421018144E+03  0.12500000000E+03 0.  0.
         25    1    1    2    0    0  0.93433680519E+02 -0.15647011983E+03 -0.21598572251E+03  0.30901065254E+03  0.12500000000E+03 0.  0.
</event>
<event>
 5    0  0.5771634E-005  0.2684123E+03  0.7546771E-02  0.1102192E+00
         21   -1    0    0  502  501  0.00000000000E+00  0.00000000000E+00  0.38328823127E+02  0.38328823127E+02  0.00000000000E+00 0. -1.
         21   -1    0    0  501  502 -0.00000000000E+00 -0.00000000000E+00 -0.18796596009E+04  0.18796596009E+04  0.00000000000E+00 0. -1.
         25    1    1    2    0    0  0.67541292637E+01  0.19839197866E+02 -0.66671393613E+03  0.67865431898E+03  0.12500000000E+03 0.  0.
         25    1    1    2    0    0  0.32844674260E+02  0.34070060827E+02 -0.13456319867E+03  0.18966232127E+03  0.12500000000E+03 0.  0.
         25    1    1    2    0    0 -0.39598803524E+02 -0.53909258693E+02 -0.10400536430E+04  0.10496717838E+04  0.12500000000E+03 0.  0.
</event>
<event>
 5    0  0.5771634E-005  0.2422150E+03  0.7546771E-02  0.1118326E+00
         21   -1    0    0  502  501  0.00000000000E+00  0.00000000000E+00  0.49628914332E+02  0.49628914332E+02  0.00000000000E+00 0.  1.
         21   -1    0    0  501  502 -0.00000000000E+00 -0.00000000000E+00 -0.11821355388E+04  0.11821355388E+04  0.00000000000E+00 0.  1.
         25    1    1    2    0    0 -0.62859750581E+02 -0.50671106472E+02 -0.67121876435E+03  0.68751620991E+03  0.12500000000E+03 0.  0.
         25    1    1    2    0    0  0.47879652776E+02 -0.13896283130E+02 -0.14539247206E+03  0.19811496351E+03  0.12500000000E+03 0.  0.
         25    1    1    2    0    0  0.14980097805E+02  0.64567389601E+02 -0.31589538810E+03  0.34613327975E+03  0.12500000000E+03 0.  0.
</event>
<event>
 5    0  0.5771634E-005  0.3131976E+03  0.7546771E-02  0.1078823E+00
         21   -1    0    0  502  501  0.00000000000E+00  0.00000000000E+00  0.56995324634E+02  0.56995324634E+02  0.00000000000E+00 0. -1.
         21   -1    0    0  501  502 -0.00000000000E+00 -0.00000000000E+00 -0.17210663194E+04  0.17210663194E+04  0.00000000000E+00 0. -1.
         25    1    1    2    0    0 -0.12339828619E+03  0.18946832427E+02 -0.29455386334E+03  0.34347212099E+03  0.12500000000E+03 0.  0.
         25    1    1    2    0    0  0.22738609506E+03  0.18633299878E+02 -0.85163235591E+03  0.89047981770E+03  0.12500000000E+03 0.  0.
         25    1    1    2    0    0 -0.10398780887E+03 -0.37580132305E+02 -0.51788477554E+03  0.54410970537E+03  0.12500000000E+03 0.  0.
</event>
<event>
 5    0  0.5771634E-005  0.4359581E+03  0.7546771E-02  0.1031994E+00
         21   -1    0    0  502  501  0.00000000000E+00  0.00000000000E+00  0.56156323284E+03  0.56156323284E+03  0.00000000000E+00 0.  1.
         21   -1    0    0  501  502 -0.00000000000E+00 -0.00000000000E+00 -0.33844717108E+03  0.33844717108E+03  0.00000000000E+00 0.  1.
         25    1    1    2    0    0  0.12529332102E+03  0.74654620636E+02 -0.18344785503E+03  0.26561220640E+03  0.12500000000E+03 0.  0.
         25    1    1    2    0    0  0.84906259903E+02  0.10090807678E+03  0.19440668447E+03  0.26610237109E+03  0.12500000000E+03 0.  0.
         25    1    1    2    0    0 -0.21019958093E+03 -0.17556269742E+03  0.21215723231E+03  0.36829582643E+03  0.12500000000E+03 0.  0.
</event>
<event>
 5    0  0.5771634E-005  0.3393374E+03  0.7546771E-02  0.1067078E+00
         21   -1    0    0  502  501  0.00000000000E+00  0.00000000000E+00  0.25564840617E+03  0.25564840617E+03  0.00000000000E+00 0. -1.
         21   -1    0    0  501  502 -0.00000000000E+00 -0.00000000000E+00 -0.45042288154E+03  0.45042288154E+03  0.00000000000E+00 0. -1.
         25    1    1    2    0    0  0.17647870993E+02  0.25026816123E+03 -0.25021501064E+02  0.28141903878E+03  0.12500000000E+03 0.  0.
         25    1    1    2    0    0 -0.33997448827E+02 -0.20469287990E+03 -0.15986963457E+03  0.29023835320E+03  0.12500000000E+03 0.  0.
         25    1    1    2    0    0  0.16349577834E+02 -0.45575281325E+02 -0.98833397364E+01  0.13441389574E+03  0.12500000000E+03 0.  0.
</event>
<event>
 5    0  0.5771634E-005  0.4564367E+03  0.7546771E-02  0.1025820E+00
         21   -1    0    0  502  501  0.00000000000E+00  0.00000000000E+00  0.46942959932E+03  0.46942959932E+03  0.00000000000E+00 0. -1.
         21   -1    0    0  501  502 -0.00000000000E+00 -0.00000000000E+00 -0.44380332780E+03  0.44380332780E+03  0.00000000000E+00 0. -1.
         25    1    1    2    0    0 -0.24779176900E+02 -0.36654106247E+03 -0.27613669058E+02  0.38904225066E+03  0.12500000000E+03 0.  0.
         25    1    1    2    0    0 -0.92796108343E+02  0.27392404627E+03  0.85660711265E+02  0.32650920095E+03  0.12500000000E+03 0.  0.
         25    1    1    2    0    0  0.11757528524E+03  0.92617016196E+02 -0.32420770679E+02  0.19768147551E+03  0.12500000000E+03 0.  0.
</event>
<event>
 5    0  0.5771634E-005  0.3614268E+03  0.7546771E-02  0.1058020E+00
         21   -1    0    0  502  501  0.00000000000E+00  0.00000000000E+00  0.85391809013E+03  0.85391809013E+03  0.00000000000E+00 0. -1.
         21   -1    0    0  501  502 -0.00000000000E+00 -0.00000000000E+00 -0.15297642576E+03  0.15297642576E+03  0.00000000000E+00 0. -1.
         25    1    1    2    0    0  0.10106320191E+03  0.52043578992E+02  0.17186698887E+03  0.24100947442E+03  0.12500000000E+03 0.  0.
         25    1    1    2    0    0 -0.71161452870E+02  0.62402122998E+02  0.56816824765E+03  0.58940489900E+03  0.12500000000E+03 0.  0.
         25    1    1    2    0    0 -0.29901749041E+02 -0.11444570199E+03 -0.39093572156E+02  0.17648014246E+03  0.12500000000E+03 0.  0.
</event>
<event>
 5    0  0.5771634E-005  0.2592917E+03  0.7546771E-02  0.1107570E+00
         21   -1    0    0  502  501  0.00000000000E+00  0.00000000000E+00  0.58142416216E+03  0.58142416216E+03  0.00000000000E+00 0. -1.
         21   -1    0    0  501  502 -0.00000000000E+00 -0.00000000000E+00 -0.11563364784E+03  0.11563364784E+03  0.00000000000E+00 0. -1.
         25    1    1    2    0    0 -0.77520856037E+02 -0.51294029139E+02  0.46992682184E+02  0.16270793688E+03  0.12500000000E+03 0.  0.
         25    1    1    2    0    0  0.13289617212E+03  0.61748020783E+02  0.27407853271E+03  0.33498992929E+03  0.12500000000E+03 0.  0.
         25    1    1    2    0    0 -0.55375316086E+02 -0.10453991643E+02  0.14471929943E+03  0.19935994382E+03  0.12500000000E+03 0.  0.
</event>
<event>
 5    0  0.6254569E-005  0.2882452E+03  0.7546771E-02  0.1091269E+00
         21   -1    0    0  502  501  0.00000000000E+00  0.00000000000E+00  0.11902685923E+03  0.11902685923E+03  0.00000000000E+00 0. -1.
         21   -1    0    0  501  502 -0.00000000000E+00 -0.00000000000E+00 -0.69803841499E+03  0.69803841499E+03  0.00000000000E+00 0. -1.
         25    1    1    2    0    0 -0.38303915073E+02  0.79428005622E+02 -0.26177101287E+02  0.15519741821E+03  0.12500000000E+03 0.  0.
         25    1    1    2    0    0 -0.68346211931E+02 -0.77280342849E+02 -0.12853060131E+03  0.20685398606E+03  0.12500000000E+03 0.  0.
         25    1    1    2    0    0  0.10665012700E+03 -0.21476627728E+01 -0.42430385316E+03  0.45501386995E+03  0.12500000000E+03 0.  0.
</event>
<event>
 5    0  0.5771634E-005  0.2225673E+03  0.7546771E-02  0.1131983E+00
         21   -1    0    0  502  501  0.00000000000E+00  0.00000000000E+00  0.68761519233E+03  0.68761519233E+03  0.00000000000E+00 0. -1.
         21   -1    0    0  501  502 -0.00000000000E+00 -0.00000000000E+00 -0.72040561311E+02  0.72040561311E+02  0.00000000000E+00 0. -1.
         25    1    1    2    0    0 -0.10946121085E+02 -0.44828278550E+02  0.15124376464E+03  0.20156653608E+03  0.12500000000E+03 0.  0.
         25    1    1    2    0    0  0.49171079303E+02 -0.47276693364E+02  0.27952450839E+03  0.31370660108E+03  0.12500000000E+03 0.  0.
         25    1    1    2    0    0 -0.38224958218E+02  0.92104971914E+02  0.18480635799E+03  0.24438261648E+03  0.12500000000E+03 0.  0.
</event>
<event>
 5    0  0.5771634E-005  0.4129689E+03  0.7546771E-02  0.1039379E+00
         21   -1    0    0  502  501  0.00000000000E+00  0.00000000000E+00  0.41466954564E+03  0.41466954564E+03  0.00000000000E+00 0.  1.
         21   -1    0    0  501  502 -0.00000000000E+00 -0.00000000000E+00 -0.41127524632E+03  0.41127524632E+03  0.00000000000E+00 0.  1.
         25    1    1    2    0    0 -0.12917609673E+02  0.31845623946E+03 -0.57400220791E+02  0.34713257761E+03  0.12500000000E+03 0.  0.
         25    1    1    2    0    0  0.10202766160E+03 -0.78705420237E+02 -0.25518431392E+02  0.18132947153E+03  0.12500000000E+03 0.  0.
         25    1    1    2    0    0 -0.89110051925E+02 -0.23975081923E+03  0.86312951501E+02  0.29748274281E+03  0.12500000000E+03 0.  0.
</event>
<event>
 5    0  0.5771634E-005  0.4914408E+03  0.7546771E-02  0.1016037E+00
         21   -1    0    0  502  501  0.00000000000E+00  0.00000000000E+00  0.54980433641E+03  0.54980433641E+03  0.00000000000E+00 0.  1.
         21   -1    0    0  501  502 -0.00000000000E+00 -0.00000000000E+00 -0.43927282416E+03  0.43927282416E+03  0.00000000000E+00 0.  1.
         25    1    1    2    0    0 -0.26767054865E+03 -0.14946903667E+03 -0.18477624692E+03  0.37915139056E+03  0.12500000000E+03 0.  0.
         25    1    1    2    0    0  0.17350641701E+03 -0.87657677305E+02  0.21258022688E+03  0.31401225771E+03  0.12500000000E+03 0.  0.
         25    1    1    2    0    0  0.94164131636E+02  0.23712671397E+03  0.82727532289E+02  0.29591351230E+03  0.12500000000E+03 0.  0.
</event>
<event>
 5    0  0.5771634E-005  0.2371138E+03  0.7546771E-02  0.1121731E+00
         21   -1    0    0  502  501  0.00000000000E+00  0.00000000000E+00  0.35284335539E+03  0.35284335539E+03  0.00000000000E+00 0. -1.
         21   -1    0    0  501  502 -0.00000000000E+00 -0.00000000000E+00 -0.15934247077E+03  0.15934247077E+03  0.00000000000E+00 0. -1.
         25    1    1    2    0    0  0.61915739866E+02 -0.71023235164E+02 -0.19953444486E+02  0.15780050292E+03  0.12500000000E+03 0.  0.
         25    1    1    2    0    0 -0.16280787248E+02  0.32717954449E+02  0.48395403363E+02  0.13893395425E+03  0.12500000000E+03 0.  0.
         25    1    1    2    0    0 -0.45634952617E+02  0.38305280714E+02  0.16505892575E+03  0.21545136899E+03  0.12500000000E+03 0.  0.
</event>
<event>
 5    0  0.5771634E-005  0.2854356E+03  0.7546771E-02  0.1092757E+00
         21   -1    0    0  502  501  0.00000000000E+00  0.00000000000E+00  0.27823816670E+03  0.27823816670E+03  0.00000000000E+00 0. -1.
         21   -1    0    0  501  502 -0.00000000000E+00 -0.00000000000E+00 -0.29281920528E+03  0.29281920528E+03  0.00000000000E+00 0. -1.
         25    1    1    2    0    0 -0.75296378925E+00 -0.65850837445E+02  0.10293171155E+03  0.17480514006E+03  0.12500000000E+03 0.  0.
         25    1    1    2    0    0  0.10306680917E+03 -0.49286856542E+02 -0.10105427509E+03  0.19720275833E+03  0.12500000000E+03 0.  0.
         25    1    1    2    0    0 -0.10231384538E+03  0.11513769399E+03 -0.16458475044E+02  0.19904947358E+03  0.12500000000E+03 0.  0.
</event>
<event>
 5    0  0.5771634E-005  0.4146538E+03  0.7546771E-02  0.1038820E+00
         21   -1    0    0  502  501  0.00000000000E+00  0.00000000000E+00  0.94181888454E+03  0.94181888454E+03  0.00000000000E+00 0.  1.
         21   -1    0    0  501  502 -0.00000000000E+00 -0.00000000000E+00 -0.18255923419E+03  0.18255923419E+03  0.00000000000E+00 0.  1.
         25    1    1    2    0    0 -0.63469522030E+02 -0.95639372536E+02  0.91984448831E+02  0.19303214404E+03  0.12500000000E+03 0.  0.
         25    1    1    2    0    0  0.62849397793E+02  0.31124012935E+03  0.56894213738E+03  0.66343094638E+03  0.12500000000E+03 0.  0.
         25    1    1    2    0    0  0.62012423701E+00 -0.21560075681E+03  0.98333064143E+02  0.26791502831E+03  0.12500000000E+03 0.  0.
</event>
<event>
 5    0  0.5771634E-005  0.4514894E+03  0.7546771E-02  0.1027279E+00
         21   -1    0    0  502  501  0.00000000000E+00  0.00000000000E+00  0.66786686777E+03  0.66786686777E+03  0.00000000000E+00 0. -1.
         21   -1    0    0  501  502 -0.00000000000E+00 -0.00000000000E+00 -0.30521460131E+03  0.30521460131E+03  0.00000000000E+00 0.  1.
         25    1    1    2    0    0 -0.37835598039E+02 -0.11909995564E+02 -0.48435160345E+02  0.13980109167E+03  0.12500000000E+03 0.  0.
         25    1    1    2    0    0 -0.19304490349E+02  0.33446442580E+03  0.11875999379E+03  0.37678648012E+03  0.12500000000E+03 0.  0.
         25    1    1    2    0    0  0.57140088388E+02 -0.32255443024E+03  0.29232743302E+03  0.45649389729E+03  0.12500000000E+03 0.  0.
</event>
<event>
 5    0  0.5771634E-005  0.3060417E+03  0.7546771E-02  0.1082259E+00
         21   -1    0    0  502  501  0.00000000000E+00  0.00000000000E+00  0.51151302407E+03  0.51151302407E+03  0.00000000000E+00 0. -1.
         21   -1    0    0  501  502 -0.00000000000E+00 -0.00000000000E+00 -0.18310687672E+03  0.18310687672E+03  0.00000000000E+00 0. -1.
         25    1    1    2    0    0 -0.16117718161E+03  0.22900634076E+02  0.13837248521E+03  0.24753680045E+03  0.12500000000E+03 0.  0.
         25    1    1    2    0    0  0.10683055866E+02 -0.11202029408E+01  0.21472984338E+03  0.24869517119E+03  0.12500000000E+03 0.  0.
         25    1    1    2    0    0  0.15049412574E+03 -0.21780431135E+02 -0.24696181243E+02  0.19838792915E+03  0.12500000000E+03 0.  0.
</event>
<event>
 5    0  0.5771634E-005  0.2999769E+03  0.7546771E-02  0.1085252E+00
         21   -1    0    0  502  501  0.00000000000E+00  0.00000000000E+00  0.51779809588E+03  0.51779809588E+03  0.00000000000E+00 0.  1.
         21   -1    0    0  501  502 -0.00000000000E+00 -0.00000000000E+00 -0.17378610508E+03  0.17378610508E+03  0.00000000000E+00 0.  1.
         25    1    1    2    0    0 -0.34568631985E+02 -0.45778440745E+01  0.27411473312E+03  0.30328177309E+03  0.12500000000E+03 0.  0.
         25    1    1    2    0    0  0.29793204108E+01  0.31836733088E+02  0.17661938933E+03  0.21872782770E+03  0.12500000000E+03 0.  0.
         25    1    1    2    0    0  0.31589311574E+02 -0.27258889013E+02 -0.10672213166E+03  0.16957460017E+03  0.12500000000E+03 0.  0.
</event>
<event>
 5    0  0.5771634E-005  0.3672132E+03  0.7546771E-02  0.1055764E+00
         21   -1    0    0  502  501  0.00000000000E+00  0.00000000000E+00  0.11701326956E+04  0.11701326956E+04  0.00000000000E+00 0.  1.
         21   -1    0    0  501  502 -0.00000000000E+00 -0.00000000000E+00 -0.11523952153E+03  0.11523952153E+03  0.00000000000E+00 0. -1.
         25    1    1    2    0    0  0.26833231499E+02 -0.79346274502E+02  0.27991988100E+03  0.31779866798E+03  0.12500000000E+03 0.  0.
         25    1    1    2    0    0  0.14383683321E+03 -0.16771638664E+03  0.32687392080E+03  0.41387121310E+03  0.12500000000E+03 0.  0.
         25    1    1    2    0    0 -0.17067006471E+03  0.24706266114E+03  0.44809937226E+03  0.55370233604E+03  0.12500000000E+03 0.  0.
</event>
<event>
 5    0  0.5771634E-005  0.3583256E+03  0.7546771E-02  0.1059249E+00
         21   -1    0    0  502  501  0.00000000000E+00  0.00000000000E+00  0.19000121683E+04  0.19000121683E+04  0.00000000000E+00 0. -1.
         21   -1    0    0  501  502 -0.00000000000E+00 -0.00000000000E+00 -0.67577071102E+02  0.67577071102E+02  0.00000000000E+00 0. -1.
         25    1    1    2    0    0 -0.18285223926E+03 -0.22175430395E+03  0.81257738144E+03  0.87092876491E+03  0.12500000000E+03 0.  0.
         25    1    1    2    0    0  0.59015211384E+02  0.40524802585E+02  0.28016877361E+03  0.31503110403E+03  0.12500000000E+03 0.  0.
         25    1    1    2    0    0  0.12383702788E+03  0.18122950136E+03  0.73968894217E+03  0.78162937049E+03  0.12500000000E+03 0.  0.
</event>
<event>
 5    0  0.5771634E-005  0.2668767E+03  0.7546771E-02  0.1103081E+00
         21   -1    0    0  502  501  0.00000000000E+00  0.00000000000E+00  0.39594717755E+02  0.39594717755E+02  0.00000000000E+00 0.  1.
         21   -1    0    0  501  502 -0.00000000000E+00 -0.00000000000E+00 -0.17988052176E+04  0.17988052176E+04  0.00000000000E+00 0.  1.
         25    1    1    2    0    0 -0.12870474447E+03  0.17175786641E+02 -0.40137637198E+03  0.43998626215E+03  0.12500000000E+03 0.  0.
         25    1    1    2    0    0 -0.10084580777E+02 -0.45204071597E+02 -0.38528473954E+03  0.40769404874E+03  0.12500000000E+03 0.  0.
         25    1    1    2    0    0  0.13878932525E+03  0.28028284956E+02 -0.97254938827E+03  0.99071962441E+03  0.12500000000E+03 0.  0.
</event>
<event>
 5    0  0.6141601E-005  0.2833651E+03  0.7546771E-02  0.1093865E+00
         21   -1    0    0  502  501  0.00000000000E+00  0.00000000000E+00  0.28638883897E+03  0.28638883897E+03  0.00000000000E+00 0. -1.
         21   -1    0    0  501  502 -0.00000000000E+00 -0.00000000000E+00 -0.28037324968E+03  0.28037324968E+03  0.00000000000E+00 0. -1.
         25    1    1    2    0    0 -0.76370210551E+02 -0.15698225035E+03 -0.33029206900E+02  0.21723665550E+03  0.12500000000E+03 0.  0.
         25    1    1    2    0    0  0.11686158974E+03  0.81395723407E+02 -0.11223621536E+02  0.18982324575E+03  0.12500000000E+03 0.  0.
         25    1    1    2    0    0 -0.40491379190E+02  0.75586526939E+02  0.50268417723E+02  0.15970218741E+03  0.12500000000E+03 0.  0.
</event>
<event>
 5    0  0.5771634E-005  0.2975063E+03  0.7546771E-02  0.1086494E+00
         21   -1    0    0  502  501  0.00000000000E+00  0.00000000000E+00  0.10709129810E+03  0.10709129810E+03  0.00000000000E+00 0.  1.
         21   -1    0    0  501  502 -0.00000000000E+00 -0.00000000000E+00 -0.82649095775E+03  0.82649095775E+03  0.00000000000E+00 0.  1.
         25    1    1    2    0    0  0.94375183484E+02 -0.15250827007E+03 -0.48563220455E+03  0.53256838602E+03  0.12500000000E+03 0.  0.
         25    1    1    2    0    0 -0.91814081743E+01  0.78753941024E+02 -0.61827094257E+02  0.16041842496E+03  0.12500000000E+03 0.  0.
         25    1    1    2    0    0 -0.85193775309E+02  0.73754329049E+02 -0.17194036084E+03  0.24059544487E+03  0.12500000000E+03 0.  0.
</event>
<event>
 5    0  0.5771634E-005  0.3470795E+03  0.7546771E-02  0.1063820E+00
         21   -1    0    0  502  501  0.00000000000E+00  0.00000000000E+00  0.34287123090E+03  0.34287123090E+03  0.00000000000E+00 0. -1.
         21   -1    0    0  501  502 -0.00000000000E+00 -0.00000000000E+00 -0.35133950090E+03  0.35133950090E+03  0.00000000000E+00 0. -1.
         25    1    1    2    0    0  0.20535077796E+03  0.21143960685E+02  0.13150656267E+03  0.27483628783E+03  0.12500000000E+03 0.  0.
         25    1    1    2    0    0 -0.20765703832E+03  0.46443555503E+02 -0.51929031697E+02  0.25219055046E+03  0.12500000000E+03 0.  0.
         25    1    1    2    0    0  0.23062603520E+01 -0.67587516188E+02 -0.88045800971E+02  0.16718389351E+03  0.12500000000E+03 0.  0.
</event>
<event>
 5    0  0.6687073E-005  0.6000278E+03  0.7546771E-02  0.9905348E-01
         21   -1    0    0  502  501  0.00000000000E+00  0.00000000000E+00  0.53176590634E+03  0.53176590634E+03  0.00000000000E+00 0.  1.
         21   -1    0    0  501  502 -0.00000000000E+00 -0.00000000000E+00 -0.67705245588E+03  0.67705245588E+03  0.00000000000E+00 0.  1.
         25    1    1    2    0    0  0.66217054809E+02  0.30018896067E+03  0.10128277233E+03  0.34696009919E+03  0.12500000000E+03 0.  0.
         25    1    1    2    0    0  0.15743509778E+03  0.56865105346E+02 -0.35254189092E+03  0.40979291730E+03  0.12500000000E+03 0.  0.
         25    1    1    2    0    0 -0.22365215259E+03 -0.35705406602E+03  0.10597256905E+03  0.45206534573E+03  0.12500000000E+03 0.  0.
</event>
<event>
 5    0  0.5771634E-005  0.3079159E+03  0.7546771E-02  0.1081349E+00
         21   -1    0    0  502  501  0.00000000000E+00  0.00000000000E+00  0.34932274258E+03  0.34932274258E+03  0.00000000000E+00 0.  1.
         21   -1    0    0  501  502 -0.00000000000E+00 -0.00000000000E+00 -0.27141726274E+03  0.27141726274E+03  0.00000000000E+00 0.  1.
         25    1    1    2    0    0 -0.13466702488E+03 -0.16783498685E+03  0.35751469342E+02  0.25140994006E+03  0.12500000000E+03 0.  0.
         25    1    1    2    0    0  0.48514895064E+02  0.79276299986E+02 -0.58974169326E+02  0.16655743583E+03  0.12500000000E+03 0.  0.
         25    1    1    2    0    0  0.86152129813E+02  0.88558686862E+02  0.10112817983E+03  0.20277262943E+03  0.12500000000E+03 0.  0.
</event>
<event>
 5    0  0.5771634E-005  0.2823585E+03  0.7546771E-02  0.1094408E+00
         21   -1    0    0  502  501  0.00000000000E+00  0.00000000000E+00  0.17815417539E+03  0.17815417539E+03  0.00000000000E+00 0.  1.
         21   -1    0    0  501  502 -0.00000000000E+00 -0.00000000000E+00 -0.44751309315E+03  0.44751309315E+03  0.00000000000E+00 0.  1.
         25    1    1    2    0    0  0.52742708873E+01 -0.10000364666E+03  0.67269490958E+02  0.17372026851E+03  0.12500000000E+03 0.  0.
         25    1    1    2    0    0  0.33087636380E+02  0.62698786371E+02 -0.25679931613E+03  0.29427337334E+03  0.12500000000E+03 0.  0.
         25    1    1    2    0    0 -0.38361907267E+02  0.37304860291E+02 -0.79829092588E+02  0.15767362669E+03  0.12500000000E+03 0.  0.
</event>
<event>
 5    0  0.5771634E-005  0.3573772E+03  0.7546771E-02  0.1059627E+00
         21   -1    0    0  502  501  0.00000000000E+00  0.00000000000E+00  0.83754963892E+03  0.83754963892E+03  0.00000000000E+00 0.  1.
         21   -1    0    0  501  502 -0.00000000000E+00 -0.00000000000E+00 -0.15249060595E+03  0.15249060595E+03  0.00000000000E+00 0.  1.
         25    1    1    2    0    0 -0.13133105518E+03  0.23400991933E+02 -0.58893546279E+02  0.19206483872E+03  0.12500000000E+03 0.  0.
         25    1    1    2    0    0  0.56929662207E+02 -0.17569646096E+02  0.43357859214E+03  0.45515390195E+03  0.12500000000E+03 0.  0.
         25    1    1    2    0    0  0.74401392974E+02 -0.58313458376E+01  0.31037398710E+03  0.34282150420E+03  0.12500000000E+03 0.  0.
</event>
<event>
 5    0  0.5771634E-005  0.2349358E+03  0.7546771E-02  0.1123213E+00
         21   -1    0    0  502  501  0.00000000000E+00  0.00000000000E+00  0.11450365887E+03  0.11450365887E+03  0.00000000000E+00 0.  1.
         21   -1    0    0  501  502 -0.00000000000E+00 -0.00000000000E+00 -0.48203539721E+03  0.48203539721E+03  0.00000000000E+00 0.  1.
         25    1    1    2    0    0 -0.36418606123E+02  0.81704016585E+02 -0.58748666560E+02  0.16455475387E+03  0.12500000000E+03 0.  0.
         25    1    1    2    0    0 -0.82593758311E+01 -0.69111704934E+02 -0.71832567714E+02  0.16009235720E+03  0.12500000000E+03 0.  0.
         25    1    1    2    0    0  0.44677981954E+02 -0.12592311652E+02 -0.23695050407E+03  0.27189194501E+03  0.12500000000E+03 0.  0.
</event>
<event>
 5    0  0.5865088E-005  0.3946044E+03  0.7546771E-02  0.1045664E+00
         21   -1    0    0  502  501  0.00000000000E+00  0.00000000000E+00  0.22043207850E+03  0.22043207850E+03  0.00000000000E+00 0.  1.
         21   -1    0    0  501  502 -0.00000000000E+00 -0.00000000000E+00 -0.70639745489E+03  0.70639745489E+03  0.00000000000E+00 0.  1.
         25    1    1    2    0    0  0.85822042888E+02 -0.41498130146E+02 -0.45250977396E+03  0.47903821704E+03  0.12500000000E+03 0.  0.
         25    1    1    2    0    0 -0.22007061295E+03 -0.14224183561E+02 -0.36185335190E+02  0.25606206389E+03  0.12500000000E+03 0.  0.
         25    1    1    2    0    0  0.13424857006E+03  0.55722313707E+02  0.27297327550E+01  0.19172925246E+03  0.12500000000E+03 0.  0.
</event>
<event>
 5    0  0.5771634E-005  0.3271628E+03  0.7546771E-02  0.1072399E+00
         21   -1    0    0  502  501  0.00000000000E+00  0.00000000000E+00  0.65142272790E+02  0.65142272790E+02  0.00000000000E+00 0.  1.
         21   -1    0    0  501  502 -0.00000000000E+00 -0.00000000000E+00 -0.16431037001E+04  0.16431037001E+04  0.00000000000E+00 0.  1.
         25    1    1    2    0    0 -0.84688882803E+02  0.37086860492E+02 -0.10610589019E+04  0.10723892183E+04  0.12500000000E+03 0.  0.
         25    1    1    2    0    0 -0.30613577790E+02 -0.96277049991E+02 -0.37024655012E+03  0.40362602663E+03  0.12500000000E+03 0.  0.
         25    1    1    2    0    0  0.11530246059E+03  0.59190189499E+02 -0.14665597531E+03  0.23223072804E+03  0.12500000000E+03 0.  0.
</event>
<event>
 5    0  0.5771634E-005  0.2552027E+03  0.7546771E-02  0.1110060E+00
         21   -1    0    0  502  501  0.00000000000E+00  0.00000000000E+00  0.17615305958E+03  0.17615305958E+03  0.00000000000E+00 0.  1.
         21   -1    0    0  501  502 -0.00000000000E+00 -0.00000000000E+00 -0.36972640369E+03  0.36972640369E+03  0.00000000000E+00 0.  1.
         25    1    1    2    0    0 -0.84296562687E+00  0.33187443174E+02 -0.10558613302E+03  0.16695972107E+03  0.12500000000E+03 0.  0.
         25    1    1    2    0    0  0.79260950016E+02  0.92188702552E+02 -0.52094133316E+02  0.18198860899E+03  0.12500000000E+03 0.  0.
         25    1    1    2    0    0 -0.78417984389E+02 -0.12537614573E+03 -0.35893077775E+02  0.19693113320E+03  0.12500000000E+03 0.  0.
</event>
<event>
 5    0  0.5771634E-005  0.3567367E+03  0.7546771E-02  0.1059884E+00
         21   -1    0    0  502  501  0.00000000000E+00  0.00000000000E+00  0.95266971548E+03  0.95266971548E+03  0.00000000000E+00 0. -1.
         21   -1    0    0  501  502 -0.00000000000E+00 -0.00000000000E+00 -0.13358361635E+03  0.13358361635E+03  0.00000000000E+00 0. -1.
         25    1    1    2    0    0  0.76714379767E+02  0.96763383225E+02  0.12738063766E+03  0.21702321361E+03  0.12500000000E+03 0.  0.
         25    1    1    2    0    0  0.15169865714E+03 -0.98497748523E+02  0.49900874119E+03  0.54529717845E+03  0.12500000000E+03 0.  0.
         25    1    1    2    0    0 -0.22841303691E+03  0.17343652978E+01  0.19269672028E+03  0.32393293976E+03  0.12500000000E+03 0.  0.
</event>
<event>
 5    0  0.5771634E-005  0.3403569E+03  0.7546771E-02  0.1066644E+00
         21   -1    0    0  502  501  0.00000000000E+00  0.00000000000E+00  0.14998658530E+04  0.14998658530E+04  0.00000000000E+00 0. -1.
         21   -1    0    0  501  502 -0.00000000000E+00 -0.00000000000E+00 -0.77235467772E+02  0.77235467772E+02  0.00000000000E+00 0. -1.
         25    1    1    2    0    0  0.10946991883E+03  0.86330998815E+02  0.65074215133E+03  0.67714625599E+03  0.12500000000E+03 0.  0.
         25    1    1    2    0    0 -0.11968880164E+03  0.33770421674E+02  0.68199124861E+03  0.70441671886E+03  0.12500000000E+03 0.  0.
         25    1    1    2    0    0  0.10218882808E+02 -0.12010142049E+03  0.89896985308E+02  0.19553834595E+03  0.12500000000E+03 0.  0.
</event>
<event>
 5    0  0.5771634E-005  0.3875874E+03  0.7546771E-02  0.1048165E+00
         21   -1    0    0  502  501  0.00000000000E+00  0.00000000000E+00  0.33558478484E+03  0.33558478484E+03  0.00000000000E+00 0. -1.
         21   -1    0    0  501  502 -0.00000000000E+00 -0.00000000000E+00 -0.44764847946E+03  0.44764847946E+03  0.00000000000E+00 0. -1.
         25    1    1    2    0    0 -0.13908434423E+03  0.81543570867E+01 -0.14829630535E+03  0.23880482099E+03  0.12500000000E+03 0.  0.
         25    1    1    2    0    0  0.11147142264E+03  0.20733860876E+03 -0.64612809340E+02  0.27425351753E+03  0.12500000000E+03 0.  0.
         25    1    1    2    0    0  0.27612921588E+02 -0.21549296585E+03  0.10084542007E+03  0.27017492578E+03  0.12500000000E+03 0.  0.
</event>
<event>
 5    0  0.5771634E-005  0.2796020E+03  0.7546771E-02  0.1095906E+00
         21   -1    0    0  502  501  0.00000000000E+00  0.00000000000E+00  0.15191173920E+03  0.15191173920E+03  0.00000000000E+00 0. -1.
         21   -1    0    0  501  502 -0.00000000000E+00 -0.00000000000E+00 -0.51462318392E+03  0.51462318392E+03  0.00000000000E+00 0. -1.
         25    1    1    2    0    0  0.25889203249E+02  0.11268822658E+03  0.24004418427E+02  0.17195958641E+03  0.12500000000E+03 0.  0.
         25    1    1    2    0    0  0.42362619914E+02 -0.92801222509E+01 -0.16622128159E+03  0.21245052763E+03  0.12500000000E+03 0.  0.
         25    1    1    2    0    0 -0.68251823163E+02 -0.10340810433E+03 -0.22049458156E+03  0.28212480909E+03  0.12500000000E+03 0.  0.
</event>
<event>
 5    0  0.5771634E-005  0.3627298E+03  0.7546771E-02  0.1057508E+00
         21   -1    0    0  502  501  0.00000000000E+00  0.00000000000E+00  0.86927656121E+03  0.86927656121E+03  0.00000000000E+00 0.  1.
         21   -1    0    0  501  502 -0.00000000000E+00 -0.00000000000E+00 -0.15135904861E+03  0.15135904861E+03  0.00000000000E+00 0.  1.
         25    1    1    2    0    0 -0.11186603303E+03 -0.86071618059E+02  0.17626794816E+02  0.18936218386E+03  0.12500000000E+03 0.  0.
         25    1    1    2    0    0  0.10142807949E+03 -0.10197666407E+03  0.17219149066E+03  0.25683030347E+03  0.12500000000E+03 0.  0.
         25    1    1    2    0    0  0.10437953536E+02  0.18804828213E+03  0.52809922713E+03  0.57444312249E+03  0.12500000000E+03 0.  0.
</event>
<event>
 5    0  0.5771634E-005  0.3417336E+03  0.7546771E-02  0.1066060E+00
         21   -1    0    0  502  501  0.00000000000E+00  0.00000000000E+00  0.16636230611E+03  0.16636230611E+03  0.00000000000E+00 0.  1.
         21   -1    0    0  501  502 -0.00000000000E+00 -0.00000000000E+00 -0.70197285479E+03  0.70197285479E+03  0.00000000000E+00 0.  1.
         25    1    1    2    0    0  0.38339802349E+01 -0.13496606942E+03 -0.24205552431E+03  0.30405002245E+03  0.12500000000E+03 0.  0.
         25    1    1    2    0    0 -0.59335341743E+02 -0.12566932925E+03 -0.12846717149E+03  0.22680890028E+03  0.12500000000E+03 0.  0.
         25    1    1    2    0    0  0.55501361508E+02  0.26063539867E+03 -0.16508785288E+03  0.33747623818E+03  0.12500000000E+03 0.  0.
</event>
<event>
 5    0  0.5771634E-005  0.2731001E+03  0.7546771E-02  0.1099518E+00
         21   -1    0    0  502  501  0.00000000000E+00  0.00000000000E+00  0.88977049942E+02  0.88977049942E+02  0.00000000000E+00 0. -1.
         21   -1    0    0  501  502 -0.00000000000E+00 -0.00000000000E+00 -0.83823496253E+03  0.83823496253E+03  0.00000000000E+00 0. -1.
         25    1    1    2    0    0 -0.23406304525E+02  0.15822199051E+03 -0.24608830514E+03  0.31900863202E+03  0.12500000000E+03 0.  0.
         25    1    1    2    0    0  0.86087383745E+02 -0.82796616478E+02 -0.33417735388E+03  0.37625233712E+03  0.12500000000E+03 0.  0.
         25    1    1    2    0    0 -0.62681079220E+02 -0.75425374034E+02 -0.16899225356E+03  0.23195104334E+03  0.12500000000E+03 0.  0.
</event>
<event>
 5    0  0.5771634E-005  0.2433206E+03  0.7546771E-02  0.1117600E+00
         21   -1    0    0  502  501  0.00000000000E+00  0.00000000000E+00  0.49245739415E+03  0.49245739415E+03  0.00000000000E+00 0. -1.
         21   -1    0    0  501  502 -0.00000000000E+00 -0.00000000000E+00 -0.12022339334E+03  0.12022339334E+03  0.00000000000E+00 0. -1.
         25    1    1    2    0    0 -0.35604380924E+02 -0.55306571063E+02  0.94238752736E+02  0.16980115212E+03  0.12500000000E+03 0.  0.
         25    1    1    2    0    0  0.22967776742E+02 -0.64765894279E+02  0.39923382962E+02  0.14812500240E+03  0.12500000000E+03 0.  0.
         25    1    1    2    0    0  0.12636604181E+02  0.12007246534E+03  0.23807186512E+03  0.29475463297E+03  0.12500000000E+03 0.  0.
</event>
<event>
 5    0  0.5771634E-005  0.2959283E+03  0.7546771E-02  0.1087294E+00
         21   -1    0    0  502  501  0.00000000000E+00  0.00000000000E+00  0.15949623156E+03  0.15949623156E+03  0.00000000000E+00 0.  1.
         21   -1    0    0  501  502 -0.00000000000E+00 -0.00000000000E+00 -0.54906340892E+03  0.54906340892E+03  0.00000000000E+00 0.  1.
         25    1    1    2    0    0  0.60556107680E+02  0.38897949765E+02 -0.52566539813E+02  0.15351981560E+03  0.12500000000E+03 0.  0.
         25    1    1    2    0    0 -0.12926522792E+02 -0.18072732545E+03 -0.83931295182E+02  0.23558209496E+03  0.12500000000E+03 0.  0.
         25    1    1    2    0    0 -0.47629584888E+02  0.14182937568E+03 -0.25306934237E+03  0.31945772993E+03  0.12500000000E+03 0.  0.
</event>
<event>
 5    0  0.5771634E-005  0.3013242E+03  0.7546771E-02  0.1084581E+00
         21   -1    0    0  502  501  0.00000000000E+00  0.00000000000E+00  0.64088247766E+03  0.64088247766E+03  0.00000000000E+00 0.  1.
         21   -1    0    0  501  502 -0.00000000000E+00 -0.00000000000E+00 -0.14167383245E+03  0.14167383245E+03  0.00000000000E+00 0.  1.
         25    1    1    2    0    0  0.60849311678E+01  0.19717732018E+03  0.16853334650E+03  0.28800071330E+03  0.12500000000E+03 0.  0.
         25    1    1    2    0    0 -0.34300553877E+02 -0.46693202556E+02  0.24080067349E+03  0.27742881522E+03  0.12500000000E+03 0.  0.
         25    1    1    2    0    0  0.28215622709E+02 -0.15048411763E+03  0.89874625212E+02  0.21712678158E+03  0.12500000000E+03 0.  0.
</event>
<event>
 5    0  0.5771634E-005  0.3115626E+03  0.7546771E-02  0.1079599E+00
         21   -1    0    0  502  501  0.00000000000E+00  0.00000000000E+00  0.18781864449E+03  0.18781864449E+03  0.00000000000E+00 0.  1.
         21   -1    0    0  501  502 -0.00000000000E+00 -0.00000000000E+00 -0.51683511263E+03  0.51683511263E+03  0.00000000000E+00 0.  1.
         25    1    1    2    0    0  0.15351535585E+01 -0.48409423275E+02 -0.49690430664E+02  0.14296841560E+03  0.12500000000E+03 0.  0.
         25    1    1    2    0    0  0.10012173058E+03  0.12368484115E+03 -0.32060307753E+03  0.37912218899E+03  0.12500000000E+03 0.  0.
         25    1    1    2    0    0 -0.10165688413E+03 -0.75275417873E+02  0.41277040048E+02  0.18256315253E+03  0.12500000000E+03 0.  0.
</event>
<event>
 5    0  0.5771634E-005  0.3163505E+03  0.7546771E-02  0.1077341E+00
         21   -1    0    0  502  501  0.00000000000E+00  0.00000000000E+00  0.25037302264E+03  0.25037302264E+03  0.00000000000E+00 0. -1.
         21   -1    0    0  501  502 -0.00000000000E+00 -0.00000000000E+00 -0.39971403239E+03  0.39971403239E+03  0.00000000000E+00 0. -1.
         25    1    1    2    0    0 -0.10516598999E+03 -0.12361502161E+03 -0.17105356696E+03  0.26687990143E+03  0.12500000000E+03 0.  0.
         25    1    1    2    0    0  0.15084928946E+03  0.12740652958E+03 -0.38916320729E+02  0.23691224521E+03  0.12500000000E+03 0.  0.
         25    1    1    2    0    0 -0.45683299470E+02 -0.37915079672E+01  0.60628877931E+02  0.14629490839E+03  0.12500000000E+03 0.  0.
</event>
<event>
 5    0  0.5771634E-005  0.3564245E+03  0.7546771E-02  0.1060009E+00
         21   -1    0    0  502  501  0.00000000000E+00  0.00000000000E+00  0.21253072721E+03  0.21253072721E+03  0.00000000000E+00 0.  1.
         21   -1    0    0  501  502 -0.00000000000E+00 -0.00000000000E+00 -0.59774152978E+03  0.59774152978E+03  0.00000000000E+00 0.  1.
         25    1    1    2    0    0  0.60376328659E+02  0.83344954983E+02 -0.28825473179E+03  0.33061680687E+03  0.12500000000E+03 0.  0.
         25    1    1    2    0    0 -0.15914024240E+03 -0.17392371486E+03  0.10821817192E+02  0.26705277956E+03  0.12500000000E+03 0.  0.
         25    1    1    2    0    0  0.98763913738E+02  0.90578759879E+02 -0.10777788797E+03  0.21260267057E+03  0.12500000000E+03 0.  0.
</event>
<event>
 5    0  0.5771634E-005  0.4196603E+03  0.7546771E-02  0.1037177E+00
         21   -1    0    0  502  501  0.00000000000E+00  0.00000000000E+00  0.17856256875E+04  0.17856256875E+04  0.00000000000E+00 0. -1.
         21   -1    0    0  501  502 -0.00000000000E+00 -0.00000000000E+00 -0.98629161954E+02  0.98629161954E+02  0.00000000000E+00 0. -1.
         25    1    1    2    0    0 -0.11309355364E+03 -0.41148060827E+02  0.66049214456E+02  0.18566317221E+03  0.12500000000E+03 0.  0.
         25    1    1    2    0    0 -0.66177283738E+02  0.60745410280E+02  0.13042784709E+04  0.13133304106E+04  0.12500000000E+03 0.  0.
         25    1    1    2    0    0  0.17927083738E+03 -0.19597349453E+02  0.31666884025E+03  0.38526126670E+03  0.12500000000E+03 0.  0.
</event>
<event>
 5    0  0.5771634E-005  0.5318298E+03  0.7546771E-02  0.1005789E+00
         21   -1    0    0  502  501  0.00000000000E+00  0.00000000000E+00  0.16895333716E+04  0.16895333716E+04  0.00000000000E+00 0.  1.
         21   -1    0    0  501  502 -0.00000000000E+00 -0.00000000000E+00 -0.16740888398E+03  0.16740888398E+03  0.00000000000E+00 0.  1.
         25    1    1    2    0    0 -0.23122943512E+03  0.70314186150E+02  0.87400445244E+03  0.91537965857E+03  0.12500000000E+03 0.  0.
         25    1    1    2    0    0  0.19026334032E+03  0.20177788324E+03  0.54147956439E+03  0.62107936006E+03  0.12500000000E+03 0.  0.
         25    1    1    2    0    0  0.40966094798E+02 -0.27209206939E+03  0.10664047077E+03  0.32048323693E+03  0.12500000000E+03 0.  0.
</event>
<event>
 5    0  0.5771634E-005  0.3199755E+03  0.7546771E-02  0.1075661E+00
         21   -1    0    0  502  501  0.00000000000E+00  0.00000000000E+00  0.15461603306E+03  0.15461603306E+03  0.00000000000E+00 0.  1.
         21   -1    0    0  501  502 -0.00000000000E+00 -0.00000000000E+00 -0.66218434630E+03  0.66218434630E+03  0.00000000000E+00 0.  1.
         25    1    1    2    0    0 -0.79048825821E+02 -0.18261119058E+03 -0.37089866063E+03  0.43907445866E+03  0.12500000000E+03 0.  0.
         25    1    1    2    0    0  0.64212429306E+02  0.16757477974E+03 -0.50541360072E+02  0.22446374309E+03  0.12500000000E+03 0.  0.
         25    1    1    2    0    0  0.14836396514E+02  0.15036410839E+02 -0.86128292544E+02  0.15326217762E+03  0.12500000000E+03 0.  0.
</event>
<event>
 5    0  0.5771634E-005  0.2758036E+03  0.7546771E-02  0.1098003E+00
         21   -1    0    0  502  501  0.00000000000E+00  0.00000000000E+00  0.22565444632E+03  0.22565444632E+03  0.00000000000E+00 0. -1.
         21   -1    0    0  501  502 -0.00000000000E+00 -0.00000000000E+00 -0.33709778158E+03  0.33709778158E+03  0.00000000000E+00 0. -1.
         25    1    1    2    0    0  0.91421943751E+02 -0.13868217935E+03 -0.12056599253E+03  0.24031620258E+03  0.12500000000E+03 0.  0.
         25    1    1    2    0    0 -0.10503622895E+03  0.89862771740E+02  0.18155395899E+02  0.18724995471E+03  0.12500000000E+03 0.  0.
         25    1    1    2    0    0  0.13614285202E+02  0.48819407611E+02 -0.90327386339E+01  0.13518607062E+03  0.12500000000E+03 0.  0.
</event>
<event>
 5    0  0.5771634E-005  0.3117190E+03  0.7546771E-02  0.1079525E+00
         21   -1    0    0  502  501  0.00000000000E+00  0.00000000000E+00  0.10552332192E+03  0.10552332192E+03  0.00000000000E+00 0. -1.
         21   -1    0    0  501  502 -0.00000000000E+00 -0.00000000000E+00 -0.92082732238E+03  0.92082732238E+03  0.00000000000E+00 0. -1.
         25    1    1    2    0    0  0.15629491061E+03 -0.97735390278E+01 -0.34964324104E+03  0.40298761414E+03  0.12500000000E+03 0.  0.
         25    1    1    2    0    0 -0.16872899320E+03  0.11437891218E+03 -0.34682078231E+03  0.42126198943E+03  0.12500000000E+03 0.  0.
         25    1    1    2    0    0  0.12434082597E+02 -0.10460537315E+03 -0.11883997711E+03  0.20210104072E+03  0.12500000000E+03 0.  0.
</event>
<event>
 5    0  0.5771634E-005  0.2269004E+03  0.7546771E-02  0.1128841E+00
         21   -1    0    0  502  501  0.00000000000E+00  0.00000000000E+00  0.25410409205E+03  0.25410409205E+03  0.00000000000E+00 0.  1.
         21   -1    0    0  501  502 -0.00000000000E+00 -0.00000000000E+00 -0.20260898659E+03  0.20260898659E+03  0.00000000000E+00 0.  1.
         25    1    1    2    0    0  0.38619745347E+02 -0.41861290563E+02  0.15670350480E+02  0.13825488151E+03  0.12500000000E+03 0.  0.
         25    1    1    2    0    0 -0.78974603391E+02 -0.25118709671E+02  0.72411460562E+02  0.16654235851E+03  0.12500000000E+03 0.  0.
         25    1    1    2    0    0  0.40354858044E+02  0.66980000234E+02 -0.36586705581E+02  0.15191583862E+03  0.12500000000E+03 0.  0.
</event>
<event>
 5    0  0.5771634E-005  0.3079919E+03  0.7546771E-02  0.1081312E+00
         21   -1    0    0  502  501  0.00000000000E+00  0.00000000000E+00  0.49661245789E+03  0.49661245789E+03  0.00000000000E+00 0. -1.
         21   -1    0    0  501  502 -0.00000000000E+00 -0.00000000000E+00 -0.19101216499E+03  0.19101216499E+03  0.00000000000E+00 0. -1.
         25    1    1    2    0    0 -0.53125315088E+02  0.14225384371E+03  0.91676333674E+02  0.21699770808E+03  0.12500000000E+03 0.  0.
         25    1    1    2    0    0  0.12433909248E+03 -0.17105345987E+03  0.21108157438E+03  0.32388258226E+03  0.12500000000E+03 0.  0.
         25    1    1    2    0    0 -0.71213777393E+02  0.28799616151E+02  0.28423848512E+01  0.14674433254E+03  0.12500000000E+03 0.  0.
</event>
<event>
 5    0  0.5771634E-005  0.2668470E+03  0.7546771E-02  0.1103098E+00
         21   -1    0    0  502  501  0.00000000000E+00  0.00000000000E+00  0.29962912604E+03  0.29962912604E+03  0.00000000000E+00 0.  1.
         21   -1    0    0  501  502 -0.00000000000E+00 -0.00000000000E+00 -0.23765145833E+03  0.23765145833E+03  0.00000000000E+00 0.  1.
         25    1    1    2    0    0  0.39932257017E+02 -0.11798543930E+03  0.53050848795E+02  0.18426758151E+03  0.12500000000E+03 0.  0.
         25    1    1    2    0    0 -0.87136218445E+02  0.60273930024E+02  0.89439336770E+02  0.18668171353E+03  0.12500000000E+03 0.  0.
         25    1    1    2    0    0  0.47203961428E+02  0.57711509279E+02 -0.80512517857E+02  0.16633128933E+03  0.12500000000E+03 0.  0.
</event>
<event>
 5    0  0.5771634E-005  0.3304055E+03  0.7546771E-02  0.1070958E+00
         21   -1    0    0  502  501  0.00000000000E+00  0.00000000000E+00  0.44506773970E+03  0.44506773970E+03  0.00000000000E+00 0. -1.
         21   -1    0    0  501  502 -0.00000000000E+00 -0.00000000000E+00 -0.24528360730E+03  0.24528360730E+03  0.00000000000E+00 0. -1.
         25    1    1    2    0    0  0.18548396058E+03 -0.11504594123E+03  0.16816963882E+02  0.25208664879E+03  0.12500000000E+03 0.  0.
         25    1    1    2    0    0 -0.15876578904E+03  0.15572408647E+03  0.16276461533E+03  0.30261177584E+03  0.12500000000E+03 0.  0.
         25    1    1    2    0    0 -0.26718171545E+02 -0.40678145241E+02  0.20202553185E+02  0.13565292236E+03  0.12500000000E+03 0.  0.
</event>
<event>
 5    0  0.5771634E-005  0.2999311E+03  0.7546771E-02  0.1085275E+00
         21   -1    0    0  502  501  0.00000000000E+00  0.00000000000E+00  0.67967066770E+02  0.67967066770E+02  0.00000000000E+00 0. -1.
         21   -1    0    0  501  502 -0.00000000000E+00 -0.00000000000E+00 -0.13235627919E+04  0.13235627919E+04  0.00000000000E+00 0. -1.
         25    1    1    2    0    0 -0.12987527967E+02 -0.24292150705E+02 -0.50001137335E+02  0.13741869670E+03  0.12500000000E+03 0.  0.
         25    1    1    2    0    0  0.40271961022E+01  0.30980002918E+02 -0.10313996272E+04  0.10394162641E+04  0.12500000000E+03 0.  0.
         25    1    1    2    0    0  0.89603318648E+01 -0.66878522136E+01 -0.17419496058E+03  0.21469489795E+03  0.12500000000E+03 0.  0.
</event>
<event>
 5    0  0.5771634E-005  0.6210475E+03  0.7546771E-02  0.9862676E-01
         21   -1    0    0  502  501  0.00000000000E+00  0.00000000000E+00  0.70293516799E+03  0.70293516799E+03  0.00000000000E+00 0.  1.
         21   -1    0    0  501  502 -0.00000000000E+00 -0.00000000000E+00 -0.54869920511E+03  0.54869920511E+03  0.00000000000E+00 0.  1.
         25    1    1    2    0    0  0.17303746536E+03  0.27299056894E+03  0.46882290599E+03  0.58299719753E+03  0.12500000000E+03 0.  0.
         25    1    1    2    0    0  0.20497672785E+02 -0.32685661371E+03 -0.21978062073E+03  0.41374378759E+03  0.12500000000E+03 0.  0.
         25    1    1    2    0    0 -0.19353513814E+03  0.53866044771E+02 -0.94806322375E+02  0.25489338798E+03  0.12500000000E+03 0.  0.
</event>
<event>
 5    0  0.5771634E-005  0.5456010E+03  0.7546771E-02  0.1002517E+00
         21   -1    0    0  502  501  0.00000000000E+00  0.00000000000E+00  0.10359949115E+04  0.10359949115E+04  0.00000000000E+00 0. -1.
         21   -1    0    0  501  502 -0.00000000000E+00 -0.00000000000E+00 -0.28733773963E+03  0.28733773963E+03  0.00000000000E+00 0. -1.
         25    1    1    2    0    0  0.16792558799E+03  0.29525562852E+02  0.87464407695E+03  0.89983221953E+03  0.12500000000E+03 0.  0.
         25    1    1    2    0    0 -0.17225477067E+03 -0.11713299240E+03 -0.34190298065E+02  0.24532798537E+03  0.12500000000E+03 0.  0.
         25    1    1    2    0    0  0.43291826777E+01  0.87607429547E+02 -0.91796607018E+02  0.17817244623E+03  0.12500000000E+03 0.  0.
</event>
<event>
 5    0  0.5771634E-005  0.3936497E+03  0.7546771E-02  0.1046001E+00
         21   -1    0    0  502  501  0.00000000000E+00  0.00000000000E+00  0.38359515755E+03  0.38359515755E+03  0.00000000000E+00 0. -1.
         21   -1    0    0  501  502 -0.00000000000E+00 -0.00000000000E+00 -0.40396787931E+03  0.40396787931E+03  0.00000000000E+00 0. -1.
         25    1    1    2    0    0 -0.31418692940E+02 -0.18334659138E+03  0.12584520296E+03  0.25703136374E+03  0.12500000000E+03 0.  0.
         25    1    1    2    0    0 -0.13621164597E+03  0.12958140727E+03  0.58264134174E+02  0.23316231029E+03  0.12500000000E+03 0.  0.
         25    1    1    2    0    0  0.16763033891E+03  0.53765184108E+02 -0.20448205889E+03  0.29736936283E+03  0.12500000000E+03 0.  0.
</event>
<event>
 5    0  0.5771634E-005  0.2714735E+03  0.7546771E-02  0.1100439E+00
         21   -1    0    0  502  501  0.00000000000E+00  0.00000000000E+00  0.53939263583E+03  0.53939263583E+03  0.00000000000E+00 0. -1.
         21   -1    0    0  501  502 -0.00000000000E+00 -0.00000000000E+00 -0.13663121259E+03  0.13663121259E+03  0.00000000000E+00 0. -1.
         25    1    1    2    0    0  0.28965155037E+02 -0.14290003241E+03  0.30846159527E+03  0.36336339280E+03  0.12500000000E+03 0.  0.
         25    1    1    2    0    0 -0.35617606904E+02  0.52885047643E+02  0.69169027134E+02  0.15644422808E+03  0.12500000000E+03 0.  0.
         25    1    1    2    0    0  0.66524518668E+01  0.90014984766E+02  0.25130800836E+02  0.15621622755E+03  0.12500000000E+03 0.  0.
</event>
<event>
 5    0  0.5771634E-005  0.2095501E+03  0.7546771E-02  0.1141923E+00
         21   -1    0    0  502  501  0.00000000000E+00  0.00000000000E+00  0.72366762672E+03  0.72366762672E+03  0.00000000000E+00 0. -1.
         21   -1    0    0  501  502 -0.00000000000E+00 -0.00000000000E+00 -0.60678737957E+02  0.60678737957E+02  0.00000000000E+00 0. -1.
         25    1    1    2    0    0 -0.45467572323E+01  0.70170359457E+02  0.22119325837E+03  0.26362095875E+03  0.12500000000E+03 0.  0.
         25    1    1    2    0    0  0.11667482476E+02  0.42433648181E+01  0.15905581166E+03  0.20267680557E+03  0.12500000000E+03 0.  0.
         25    1    1    2    0    0 -0.71207252434E+01 -0.74413724275E+02  0.28273981874E+03  0.31804860035E+03  0.12500000000E+03 0.  0.
</event>
<event>
 5    0  0.5771634E-005  0.3765424E+03  0.7546771E-02  0.1052219E+00
         21   -1    0    0  502  501  0.00000000000E+00  0.00000000000E+00  0.22528901843E+03  0.22528901843E+03  0.00000000000E+00 0.  1.
         21   -1    0    0  501  502 -0.00000000000E+00 -0.00000000000E+00 -0.62934342489E+03  0.62934342489E+03  0.00000000000E+00 0.  1.
         25    1    1    2    0    0  0.47328775472E+02  0.17366451430E+03 -0.42342444989E+03  0.47677315494E+03  0.12500000000E+03 0.  0.
         25    1    1    2    0    0  0.15163128995E+02 -0.19874335308E+03  0.77509172738E+01  0.23540160915E+03  0.12500000000E+03 0.  0.
         25    1    1    2    0    0 -0.62491904467E+02  0.25078838780E+02  0.11619126148E+02  0.14245767923E+03  0.12500000000E+03 0.  0.
</event>
<event>
 5    0  0.5771634E-005  0.3532706E+03  0.7546771E-02  0.1061281E+00
         21   -1    0    0  502  501  0.00000000000E+00  0.00000000000E+00  0.19485175747E+03  0.19485175747E+03  0.00000000000E+00 0. -1.
         21   -1    0    0  501  502 -0.00000000000E+00 -0.00000000000E+00 -0.64048734739E+03  0.64048734739E+03  0.00000000000E+00 0. -1.
         25    1    1    2    0    0 -0.13501867728E+03  0.20018387884E+03 -0.36068029108E+02  0.27428002349E+03  0.12500000000E+03 0.  0.
         25    1    1    2    0    0  0.13775074379E+03 -0.14467089939E+03 -0.19156480334E+03  0.30368900281E+03  0.12500000000E+03 0.  0.
         25    1    1    2    0    0 -0.27320665076E+01 -0.55512979446E+02 -0.21800275747E+03  0.25737007856E+03  0.12500000000E+03 0.  0.
</event>
<event>
 5    0  0.5771634E-005  0.3426246E+03  0.7546771E-02  0.1065684E+00
         21   -1    0    0  502  501  0.00000000000E+00  0.00000000000E+00  0.29539728245E+03  0.29539728245E+03  0.00000000000E+00 0.  1.
         21   -1    0    0  501  502 -0.00000000000E+00 -0.00000000000E+00 -0.39740243087E+03  0.39740243087E+03  0.00000000000E+00 0.  1.
         25    1    1    2    0    0 -0.71535644952E+02  0.19459140284E+03  0.87356275091E+02  0.25736993095E+03  0.12500000000E+03 0.  0.
         25    1    1    2    0    0 -0.48317240727E+02 -0.30183081382E+02 -0.13054167020E+03  0.18950383060E+03  0.12500000000E+03 0.  0.
         25    1    1    2    0    0  0.11985288568E+03 -0.16440832146E+03 -0.58819753314E+02  0.24592595177E+03  0.12500000000E+03 0.  0.
</event>
<event>
 5    0  0.5771634E-005  0.3031017E+03  0.7546771E-02  0.1083700E+00
         21   -1    0    0  502  501  0.00000000000E+00  0.00000000000E+00  0.10235158706E+04  0.10235158706E+04  0.00000000000E+00 0. -1.
         21   -1    0    0  501  502 -0.00000000000E+00 -0.00000000000E+00 -0.89759830411E+02  0.89759830411E+02  0.00000000000E+00 0. -1.
         25    1    1    2    0    0 -0.70886182100E+02  0.10240743487E+03  0.32588567466E+03  0.37059223747E+03  0.12500000000E+03 0.  0.
         25    1    1    2    0    0  0.11842284002E+03 -0.19420857378E+02  0.54724085164E+03  0.57401976311E+03  0.12500000000E+03 0.  0.
         25    1    1    2    0    0 -0.47536657916E+02 -0.82986577491E+02  0.60629513904E+02  0.16866370044E+03  0.12500000000E+03 0.  0.
</event>
<event>
 5    0  0.5771634E-005  0.3959935E+03  0.7546771E-02  0.1045176E+00
         21   -1    0    0  502  501  0.00000000000E+00  0.00000000000E+00  0.50179496774E+03  0.50179496774E+03  0.00000000000E+00 0.  1.
         21   -1    0    0  501  502 -0.00000000000E+00 -0.00000000000E+00 -0.31249982873E+03  0.31249982873E+03  0.00000000000E+00 0.  1.
         25    1    1    2    0    0 -0.17165882763E+03 -0.31501402384E+02  0.14252603915E+03  0.25767763444E+03  0.12500000000E+03 0.  0.
         25    1    1    2    0    0 -0.74537037187E+02  0.12169884598E+03  0.15667891471E+03  0.24604808745E+03  0.12500000000E+03 0.  0.
         25    1    1    2    0    0  0.24619586482E+03 -0.90197443591E+02 -0.10990981485E+03  0.31056907458E+03  0.12500000000E+03 0.  0.
</event>
<event>
 5    0  0.5771634E-005  0.5615514E+03  0.7546771E-02  0.9988550E-01
         21   -1    0    0  502  501  0.00000000000E+00  0.00000000000E+00  0.85728002667E+03  0.85728002667E+03  0.00000000000E+00 0. -1.
         21   -1    0    0  501  502 -0.00000000000E+00 -0.00000000000E+00 -0.36783779581E+03  0.36783779581E+03  0.00000000000E+00 0. -1.
         25    1    1    2    0    0  0.10542213007E+02 -0.50959980598E+01  0.22485167299E+03  0.25752743989E+03  0.12500000000E+03 0.  0.
         25    1    1    2    0    0 -0.10381565007E+03  0.25040086648E+03  0.50749509305E+03  0.58877377031E+03  0.12500000000E+03 0.  0.
         25    1    1    2    0    0  0.93273437062E+02 -0.24530486842E+03 -0.24290453518E+03  0.37881661229E+03  0.12500000000E+03 0.  0.
</event>
<event>
 5    0  0.5771634E-005  0.2067020E+03  0.7546771E-02  0.1144205E+00
         21   -1    0    0  502  501  0.00000000000E+00  0.00000000000E+00  0.14918561904E+04  0.14918561904E+04  0.00000000000E+00 0.  1.
         21   -1    0    0  501  502 -0.00000000000E+00 -0.00000000000E+00 -0.28639300913E+02  0.28639300913E+02  0.00000000000E+00 0.  1.
         25    1    1    2    0    0  0.17802370481E+02 -0.30334502372E+02  0.28729894730E+03  0.31528208250E+03  0.12500000000E+03 0.  0.
         25    1    1    2    0    0 -0.39986014618E+02  0.45221296647E+01  0.68602673539E+03  0.69848193441E+03  0.12500000000E+03 0.  0.
         25    1    1    2    0    0  0.22183644137E+02  0.25812372707E+02  0.48989120679E+03  0.50673147439E+03  0.12500000000E+03 0.  0.
</event>
<event>
 5    0  0.5771634E-005  0.4746582E+03  0.7546771E-02  0.1020614E+00
         21   -1    0    0  502  501  0.00000000000E+00  0.00000000000E+00  0.19283066189E+03  0.19283066189E+03  0.00000000000E+00 0.  1.
         21   -1    0    0  501  502 -0.00000000000E+00 -0.00000000000E+00 -0.11683849175E+04  0.11683849175E+04  0.00000000000E+00 0.  1.
         25    1    1    2    0    0 -0.20535069982E+03  0.24403690538E+03 -0.57063270197E+03  0.66555961541E+03  0.12500000000E+03 0.  0.
         25    1    1    2    0    0  0.36827575007E+02 -0.31649502639E+03 -0.26940209051E+03  0.43557761465E+03  0.12500000000E+03 0.  0.
         25    1    1    2    0    0  0.16852312481E+03  0.72458121019E+02 -0.13551946308E+03  0.26007834930E+03  0.12500000000E+03 0.  0.
</event>
<event>
 5    0  0.5771634E-005  0.3170145E+03  0.7546771E-02  0.1077032E+00
         21   -1    0    0  502  501  0.00000000000E+00  0.00000000000E+00  0.86164841529E+02  0.86164841529E+02  0.00000000000E+00 0.  1.
         21   -1    0    0  501  502 -0.00000000000E+00 -0.00000000000E+00 -0.11663479022E+04  0.11663479022E+04  0.00000000000E+00 0.  1.
         25    1    1    2    0    0  0.15812903511E+03  0.15929149396E+03 -0.32710995919E+03  0.41593809299E+03  0.12500000000E+03 0.  0.
         25    1    1    2    0    0 -0.12146591316E+01 -0.81134642678E+02 -0.30711416722E+03  0.34136258926E+03  0.12500000000E+03 0.  0.
         25    1    1    2    0    0 -0.15691437598E+03 -0.78156851285E+02 -0.44595893426E+03  0.49521206148E+03  0.12500000000E+03 0.  0.
</event>
<event>
 5    0  0.5771634E-005  0.3947966E+03  0.7546771E-02  0.1045596E+00
         21   -1    0    0  502  501  0.00000000000E+00  0.00000000000E+00  0.90580674995E+03  0.90580674995E+03  0.00000000000E+00 0.  1.
         21   -1    0    0  501  502 -0.00000000000E+00 -0.00000000000E+00 -0.17207240457E+03  0.17207240457E+03  0.00000000000E+00 0.  1.
         25    1    1    2    0    0  0.10321963476E+03 -0.68228690055E+02  0.31578411530E+02  0.17869427305E+03  0.12500000000E+03 0.  0.
         25    1    1    2    0    0 -0.24170201181E+03 -0.11097592465E+03  0.45337017329E+03  0.54028236358E+03  0.12500000000E+03 0.  0.
         25    1    1    2    0    0  0.13848237705E+03  0.17920461470E+03  0.24878576056E+03  0.35890251788E+03  0.12500000000E+03 0.  0.
</event>
<event>
 5    0  0.5771634E-005  0.2853586E+03  0.7546771E-02  0.1092798E+00
         21   -1    0    0  502  501  0.00000000000E+00  0.00000000000E+00  0.14854618813E+03  0.14854618813E+03  0.00000000000E+00 0. -1.
         21   -1    0    0  501  502 -0.00000000000E+00 -0.00000000000E+00 -0.54817655660E+03  0.54817655660E+03  0.00000000000E+00 0. -1.
         25    1    1    2    0    0  0.58991607279E+02 -0.23377392998E+02 -0.22199580607E+03  0.26255218557E+03  0.12500000000E+03 0.  0.
         25    1    1    2    0    0 -0.88196361206E+02  0.15018849099E+03 -0.11420754568E+03  0.24290645204E+03  0.12500000000E+03 0.  0.
         25    1    1    2    0    0  0.29204753927E+02 -0.12681109799E+03 -0.63427016719E+02  0.19126410713E+03  0.12500000000E+03 0.  0.
</event>
<event>
 5    0  0.5771634E-005  0.3582776E+03  0.7546771E-02  0.1059268E+00
         21   -1    0    0  502  501  0.00000000000E+00  0.00000000000E+00  0.75453950342E+03  0.75453950342E+03  0.00000000000E+00 0.  1.
         21   -1    0    0  501  502 -0.00000000000E+00 -0.00000000000E+00 -0.17012074905E+03  0.17012074905E+03  0.00000000000E+00 0.  1.
         25    1    1    2    0    0  0.13845783371E+03  0.10771268391E+03  0.47730669721E+03  0.52365950502E+03  0.12500000000E+03 0.  0.
         25    1    1    2    0    0  0.16097851504E+01  0.55808562771E+02  0.27681159387E+02  0.13967259456E+03  0.12500000000E+03 0.  0.
         25    1    1    2    0    0 -0.14006761886E+03 -0.16352124668E+03  0.79430897775E+02  0.26132815289E+03  0.12500000000E+03 0.  0.
</event>
<event>
 5    0  0.6855679E-005  0.2881314E+03  0.7546771E-02  0.1091329E+00
         21   -1    0    0  502  501  0.00000000000E+00  0.00000000000E+00  0.23576846419E+03  0.23576846419E+03  0.00000000000E+00 0.  1.
         21   -1    0    0  501  502 -0.00000000000E+00 -0.00000000000E+00 -0.35212396371E+03  0.35212396371E+03  0.00000000000E+00 0.  1.
         25    1    1    2    0    0 -0.12377798538E+03  0.12913660479E+03 -0.72783456589E+02  0.23004278714E+03  0.12500000000E+03 0.  0.
         25    1    1    2    0    0  0.82709520563E+02 -0.66323816432E+02 -0.11024363637E+03  0.19753068819E+03  0.12500000000E+03 0.  0.
         25    1    1    2    0    0  0.41068464814E+02 -0.62812788355E+02  0.66671593438E+02  0.16031895257E+03  0.12500000000E+03 0.  0.
</event>
<event>
 5    0  0.5771634E-005  0.3421945E+03  0.7546771E-02  0.1065865E+00
         21   -1    0    0  502  501  0.00000000000E+00  0.00000000000E+00  0.24492679639E+03  0.24492679639E+03  0.00000000000E+00 0.  1.
         21   -1    0    0  501  502 -0.00000000000E+00 -0.00000000000E+00 -0.47809001046E+03  0.47809001046E+03  0.00000000000E+00 0.  1.
         25    1    1    2    0    0 -0.61886040518E+02  0.55219292775E+02  0.15237876900E+03  0.21383016987E+03  0.12500000000E+03 0.  0.
         25    1    1    2    0    0 -0.61820464443E+02  0.20597397593E+02 -0.15637556708E+03  0.21053346668E+03  0.12500000000E+03 0.  0.
         25    1    1    2    0    0  0.12370650496E+03 -0.75816690368E+02 -0.22916641599E+03  0.29865317029E+03  0.12500000000E+03 0.  0.
</event>
<event>
 5    0  0.5771634E-005  0.5004834E+03  0.7546771E-02  0.1013653E+00
         21   -1    0    0  502  501  0.00000000000E+00  0.00000000000E+00  0.24475499915E+03  0.24475499915E+03  0.00000000000E+00 0.  1.
         21   -1    0    0  501  502 -0.00000000000E+00 -0.00000000000E+00 -0.10234054204E+04  0.10234054204E+04  0.00000000000E+00 0.  1.
         25    1    1    2    0    0  0.13431594221E+03 -0.25867073378E+03 -0.72096612634E+03  0.78763473525E+03  0.12500000000E+03 0.  0.
         25    1    1    2    0    0 -0.19692279853E+03  0.16766169011E+03 -0.10706284801E+03  0.30655584212E+03  0.12500000000E+03 0.  0.
         25    1    1    2    0    0  0.62606856321E+02  0.91009043665E+02  0.49378553093E+02  0.17396984219E+03  0.12500000000E+03 0.  0.
</event>
<event>
 5    0  0.5771634E-005  0.2790099E+03  0.7546771E-02  0.1096231E+00
         21   -1    0    0  502  501  0.00000000000E+00  0.00000000000E+00  0.78331671542E+03  0.78331671542E+03  0.00000000000E+00 0. -1.
         21   -1    0    0  501  502 -0.00000000000E+00 -0.00000000000E+00 -0.99380677845E+02  0.99380677845E+02  0.00000000000E+00 0. -1.
         25    1    1    2    0    0 -0.32005209870E+02  0.10676628130E+03  0.24770605054E+03  0.29900946433E+03  0.12500000000E+03 0.  0.
         25    1    1    2    0    0  0.78651050925E+02  0.52806285071E+02  0.92972063878E+02  0.18232744230E+03  0.12500000000E+03 0.  0.
         25    1    1    2    0    0 -0.46645841054E+02 -0.15957256637E+03  0.34325792316E+03  0.40136048664E+03  0.12500000000E+03 0.  0.
</event>
<event>
 5    0  0.5771634E-005  0.3962730E+03  0.7546771E-02  0.1045078E+00
         21   -1    0    0  502  501  0.00000000000E+00  0.00000000000E+00  0.46021356728E+03  0.46021356728E+03  0.00000000000E+00 0. -1.
         21   -1    0    0  501  502 -0.00000000000E+00 -0.00000000000E+00 -0.34121604094E+03  0.34121604094E+03  0.00000000000E+00 0. -1.
         25    1    1    2    0    0  0.14007802356E+03 -0.79289671754E+02 -0.40292864216E+02  0.20774315786E+03  0.12500000000E+03 0.  0.
         25    1    1    2    0    0  0.13814291900E+02  0.10876484985E+03 -0.15079010166E+03  0.22446220613E+03  0.12500000000E+03 0.  0.
         25    1    1    2    0    0 -0.15389231546E+03 -0.29475178099E+02  0.31008049221E+03  0.36922424424E+03  0.12500000000E+03 0.  0.
</event>
<event>
 5    0  0.5771634E-005  0.3538065E+03  0.7546771E-02  0.1061063E+00
         21   -1    0    0  502  501  0.00000000000E+00  0.00000000000E+00  0.50215950016E+03  0.50215950016E+03  0.00000000000E+00 0.  1.
         21   -1    0    0  501  502 -0.00000000000E+00 -0.00000000000E+00 -0.24928148431E+03  0.24928148431E+03  0.00000000000E+00 0.  1.
         25    1    1    2    0    0 -0.13907171277E+02 -0.25126305182E+02  0.73539337353E+02  0.14784375118E+03  0.12500000000E+03 0.  0.
         25    1    1    2    0    0 -0.15193421823E+03  0.60694549666E+02 -0.11941565123E+03  0.23801876562E+03  0.12500000000E+03 0.  0.
         25    1    1    2    0    0  0.16584138951E+03 -0.35568244484E+02  0.29875432973E+03  0.36557846767E+03  0.12500000000E+03 0.  0.
</event>
<event>
 5    0  0.5771634E-005  0.2689746E+03  0.7546771E-02  0.1101868E+00
         21   -1    0    0  502  501  0.00000000000E+00  0.00000000000E+00  0.83573895546E+02  0.83573895546E+02  0.00000000000E+00 0. -1.
         21   -1    0    0  501  502 -0.00000000000E+00 -0.00000000000E+00 -0.86566878535E+03  0.86566878535E+03  0.00000000000E+00 0. -1.
         25    1    1    2    0    0 -0.57208491186E+02 -0.86829060521E+02 -0.43413397680E+03  0.46358322556E+03  0.12500000000E+03 0.  0.
         25    1    1    2    0    0  0.97607437424E+02  0.65116437257E+02 -0.86001431257E+02  0.19180356728E+03  0.12500000000E+03 0.  0.
         25    1    1    2    0    0 -0.40398946239E+02  0.21712623264E+02 -0.26195948175E+03  0.29385588806E+03  0.12500000000E+03 0.  0.
</event>
<event>
 5    0  0.5771634E-005  0.2402899E+03  0.7546771E-02  0.1119600E+00
         21   -1    0    0  502  501  0.00000000000E+00  0.00000000000E+00  0.73879742603E+02  0.73879742603E+02  0.00000000000E+00 0. -1.
         21   -1    0    0  501  502 -0.00000000000E+00 -0.00000000000E+00 -0.78152992643E+03  0.78152992643E+03  0.00000000000E+00 0. -1.
         25    1    1    2    0    0  0.60226635503E+02 -0.61777661969E+02 -0.24509907346E+03  0.28834403575E+03  0.12500000000E+03 0.  0.
         25    1    1    2    0    0  0.36086951981E+02 -0.26456435718E+02 -0.28131518740E+03  0.31107144799E+03  0.12500000000E+03 0.  0.
         25    1    1    2    0    0 -0.96313587484E+02  0.88234097687E+02 -0.18123592297E+03  0.25599418529E+03  0.12500000000E+03 0.  0.
</event>
<event>
 5    0  0.6726048E-005  0.3219960E+03  0.7546771E-02  0.1074734E+00
         21   -1    0    0  502  501  0.00000000000E+00  0.00000000000E+00  0.52467154301E+03  0.52467154301E+03  0.00000000000E+00 0. -1.
         21   -1    0    0  501  502 -0.00000000000E+00 -0.00000000000E+00 -0.19761210865E+03  0.19761210865E+03  0.00000000000E+00 0. -1.
         25    1    1    2    0    0 -0.41067801739E+02  0.20849759143E+03  0.46014816242E+02  0.25079906954E+03  0.12500000000E+03 0.  0.
         25    1    1    2    0    0  0.42713875657E+02 -0.13282141193E+03  0.43053388962E+02  0.19220977328E+03  0.12500000000E+03 0.  0.
         25    1    1    2    0    0 -0.16460739185E+01 -0.75676179494E+02  0.23799122915E+03  0.27927480884E+03  0.12500000000E+03 0.  0.
</event>
<event>
 5    0  0.5771634E-005  0.3257986E+03  0.7546771E-02  0.1073011E+00
         21   -1    0    0  502  501  0.00000000000E+00  0.00000000000E+00  0.51781561935E+03  0.51781561935E+03  0.00000000000E+00 0.  1.
         21   -1    0    0  501  502 -0.00000000000E+00 -0.00000000000E+00 -0.20498556213E+03  0.20498556213E+03  0.00000000000E+00 0.  1.
         25    1    1    2    0    0 -0.97435151667E+02 -0.61695174301E+02  0.32994704858E+03  0.37120069797E+03  0.12500000000E+03 0.  0.
         25    1    1    2    0    0  0.56208702907E+01  0.99268792443E+02  0.64625952120E+02  0.17230032218E+03  0.12500000000E+03 0.  0.
         25    1    1    2    0    0  0.91814281376E+02 -0.37573618142E+02 -0.81742943466E+02  0.17930016133E+03  0.12500000000E+03 0.  0.
</event>
<event>
 5    0  0.5771634E-005  0.2697668E+03  0.7546771E-02  0.1101413E+00
         21   -1    0    0  502  501  0.00000000000E+00  0.00000000000E+00  0.35343804451E+03  0.35343804451E+03  0.00000000000E+00 0.  1.
         21   -1    0    0  501  502 -0.00000000000E+00 -0.00000000000E+00 -0.20590351623E+03  0.20590351623E+03  0.00000000000E+00 0.  1.
         25    1    1    2    0    0  0.11826045110E+03 -0.94316176496E+01 -0.26764229564E+02  0.17440130071E+03  0.12500000000E+03 0.  0.
         25    1    1    2    0    0  0.31183435784E+02  0.58412091842E+02  0.85600160570E+02  0.16533833987E+03  0.12500000000E+03 0.  0.
         25    1    1    2    0    0 -0.14944388688E+03 -0.48980474192E+02  0.88698597280E+02  0.21960192016E+03  0.12500000000E+03 0.  0.
</event>
<event>
 5    0  0.5771634E-005  0.2741369E+03  0.7546771E-02  0.1098935E+00
         21   -1    0    0  502  501  0.00000000000E+00  0.00000000000E+00  0.17739709543E+03  0.17739709543E+03  0.00000000000E+00 0.  1.
         21   -1    0    0  501  502 -0.00000000000E+00 -0.00000000000E+00 -0.42363168530E+03  0.42363168530E+03  0.00000000000E+00 0.  1.
         25    1    1    2    0    0  0.16700464726E+02  0.51473790546E+02 -0.21132029262E+03  0.25141543849E+03  0.12500000000E+03 0.  0.
         25    1    1    2    0    0  0.66672532574E+01  0.89292216352E+02 -0.43256228493E+02  0.15972993918E+03  0.12500000000E+03 0.  0.
         25    1    1    2    0    0 -0.23367717983E+02 -0.14076600690E+03  0.83419312425E+01  0.18988340306E+03  0.12500000000E+03 0.  0.
</event>
<event>
 5    0  0.5771634E-005  0.2316434E+03  0.7546771E-02  0.1125488E+00
         21   -1    0    0  502  501  0.00000000000E+00  0.00000000000E+00  0.66792894061E+03  0.66792894061E+03  0.00000000000E+00 0.  1.
         21   -1    0    0  501  502 -0.00000000000E+00 -0.00000000000E+00 -0.80335921616E+02  0.80335921616E+02  0.00000000000E+00 0.  1.
         25    1    1    2    0    0  0.27418848439E+02  0.52259075087E+02  0.15958542646E+03  0.21112866342E+03  0.12500000000E+03 0.  0.
         25    1    1    2    0    0  0.80383554013E+02 -0.56598232544E+02  0.22311973135E+03  0.27399323021E+03  0.12500000000E+03 0.  0.
         25    1    1    2    0    0 -0.10780240245E+03  0.43391574569E+01  0.20488786119E+03  0.26314296860E+03  0.12500000000E+03 0.  0.
</event>
<event>
 5    0  0.5771634E-005  0.2494824E+03  0.7546771E-02  0.1113632E+00
         21   -1    0    0  502  501  0.00000000000E+00  0.00000000000E+00  0.13523024925E+03  0.13523024925E+03  0.00000000000E+00 0.  1.
         21   -1    0    0  501  502 -0.00000000000E+00 -0.00000000000E+00 -0.46026290053E+03  0.46026290053E+03  0.00000000000E+00 0.  1.
         25    1    1    2    0    0 -0.71509401297E+02 -0.41351548492E+02 -0.62175708818E+02  0.16221702686E+03  0.12500000000E+03 0.  0.
         25    1    1    2    0    0  0.12719492309E+03  0.17284986638E+02 -0.63117069861E+02  0.18996337471E+03  0.12500000000E+03 0.  0.
         25    1    1    2    0    0 -0.55685521795E+02  0.24066561855E+02 -0.19973987260E+03  0.24331274822E+03  0.12500000000E+03 0.  0.
</event>
<event>
 5    0  0.5771634E-005  0.3226318E+03  0.7546771E-02  0.1074444E+00
         21   -1    0    0  502  501  0.00000000000E+00  0.00000000000E+00  0.31729471920E+03  0.31729471920E+03  0.00000000000E+00 0.  1.
         21   -1    0    0  501  502 -0.00000000000E+00 -0.00000000000E+00 -0.32805859886E+03  0.32805859886E+03  0.00000000000E+00 0.  1.
         25    1    1    2    0    0  0.39460149648E+02 -0.22825597467E+03  0.28539932531E+02  0.26475917573E+03  0.12500000000E+03 0.  0.
         25    1    1    2    0    0 -0.18455770457E+02  0.11342883128E+03 -0.10241127705E+03  0.19829217053E+03  0.12500000000E+03 0.  0.
         25    1    1    2    0    0 -0.21004379191E+02  0.11482714339E+03  0.63107464853E+02  0.18230197181E+03  0.12500000000E+03 0.  0.
</event>
<event>
 5    0  0.5771634E-005  0.2478190E+03  0.7546771E-02  0.1114691E+00
         21   -1    0    0  502  501  0.00000000000E+00  0.00000000000E+00  0.61687462165E+02  0.61687462165E+02  0.00000000000E+00 0. -1.
         21   -1    0    0  501  502 -0.00000000000E+00 -0.00000000000E+00 -0.99557152262E+03  0.99557152262E+03  0.00000000000E+00 0. -1.
         25    1    1    2    0    0 -0.10241635263E+02  0.67349872383E+02 -0.14865263555E+03  0.20582395988E+03  0.12500000000E+03 0.  0.
         25    1    1    2    0    0  0.89640578831E+02 -0.89209706995E+02 -0.38340046606E+03  0.42262835041E+03  0.12500000000E+03 0.  0.
         25    1    1    2    0    0 -0.79398943568E+02  0.21859834612E+02 -0.40183095885E+03  0.42880667451E+03  0.12500000000E+03 0.  0.
</event>
<event>
 5    0  0.5771634E-005  0.7070463E+03  0.7546771E-02  0.9705257E-01
         21   -1    0    0  502  501  0.00000000000E+00  0.00000000000E+00  0.10037765563E+04  0.10037765563E+04  0.00000000000E+00 0.  1.
         21   -1    0    0  501  502 -0.00000000000E+00 -0.00000000000E+00 -0.49803358037E+03  0.49803358037E+03  0.00000000000E+00 0.  1.
         25    1    1    2    0    0 -0.16494051561E+03 -0.11992888188E+03 -0.14738776350E+03  0.28095633687E+03  0.12500000000E+03 0.  0.
         25    1    1    2    0    0  0.53657931992E+03  0.13992519385E+02  0.59420898240E+03  0.81044584763E+03  0.12500000000E+03 0.  0.
         25    1    1    2    0    0 -0.37163880432E+03  0.10593636250E+03  0.58921757063E+02  0.41040795220E+03  0.12500000000E+03 0.  0.
</event>
<event>
 5    0  0.5771634E-005  0.3455278E+03  0.7546771E-02  0.1064466E+00
         21   -1    0    0  502  501  0.00000000000E+00  0.00000000000E+00  0.94499886000E+02  0.94499886000E+02  0.00000000000E+00 0.  1.
         21   -1    0    0  501  502 -0.00000000000E+00 -0.00000000000E+00 -0.12633822794E+04  0.12633822794E+04  0.00000000000E+00 0.  1.
         25    1    1    2    0    0  0.20996626951E+03 -0.10312357190E+03 -0.65083711811E+03  0.70280456723E+03  0.12500000000E+03 0.  0.
         25    1    1    2    0    0 -0.20587238539E+03  0.50391433436E+01 -0.33556286460E+03  0.41308143038E+03  0.12500000000E+03 0.  0.
         25    1    1    2    0    0 -0.40938841250E+01  0.98084428557E+02 -0.18248241072E+03  0.24199616781E+03  0.12500000000E+03 0.  0.
</event>
<event>
 5    0  0.5771634E-005  0.3076952E+03  0.7546771E-02  0.1081456E+00
         21   -1    0    0  502  501  0.00000000000E+00  0.00000000000E+00  0.99230694053E+03  0.99230694053E+03  0.00000000000E+00 0. -1.
         21   -1    0    0  501  502 -0.00000000000E+00 -0.00000000000E+00 -0.95410359680E+02  0.95410359680E+02  0.00000000000E+00 0. -1.
         25    1    1    2    0    0 -0.55044188093E+02  0.54839925286E+02  0.27221814967E+03  0.30945920742E+03  0.12500000000E+03 0.  0.
         25    1    1    2    0    0 -0.92596176748E+02  0.63246577417E+02  0.48207183352E+03  0.51048255031E+03  0.12500000000E+03 0.  0.
         25    1    1    2    0    0  0.14764036484E+03 -0.11808650270E+03  0.14260659766E+03  0.26777554247E+03  0.12500000000E+03 0.  0.
</event>
<event>
 5    0  0.5771634E-005  0.4133064E+03  0.7546771E-02  0.1039267E+00
         21   -1    0    0  502  501  0.00000000000E+00  0.00000000000E+00  0.10480225344E+04  0.10480225344E+04  0.00000000000E+00 0. -1.
         21   -1    0    0  501  502 -0.00000000000E+00 -0.00000000000E+00 -0.16299478784E+03  0.16299478784E+03  0.00000000000E+00 0. -1.
         25    1    1    2    0    0  0.11940532567E+03  0.56019657938E+02  0.43120739725E+03  0.46793231703E+03  0.12500000000E+03 0.  0.
         25    1    1    2    0    0 -0.13977626764E+03 -0.26121727384E+03  0.14894278629E+03  0.35437384601E+03  0.12500000000E+03 0.  0.
         25    1    1    2    0    0  0.20370941975E+02  0.20519761590E+03  0.30487756299E+03  0.38871115917E+03  0.12500000000E+03 0.  0.
</event>
<event>
 5    0  0.5771634E-005  0.2975641E+03  0.7546771E-02  0.1086465E+00
         21   -1    0    0  502  501  0.00000000000E+00  0.00000000000E+00  0.92297444795E+03  0.92297444795E+03  0.00000000000E+00 0. -1.
         21   -1    0    0  501  502 -0.00000000000E+00 -0.00000000000E+00 -0.95933730524E+02  0.95933730524E+02  0.00000000000E+00 0. -1.
         25    1    1    2    0    0  0.17278331436E+03  0.87024764455E+02  0.36325874576E+03  0.43012707392E+03  0.12500000000E+03 0.  0.
         25    1    1    2    0    0 -0.83605533235E+02 -0.13426282542E+03  0.27301050756E+03  0.33937608742E+03  0.12500000000E+03 0.  0.
         25    1    1    2    0    0 -0.89177781126E+02  0.47238060967E+02  0.19077146411E+03  0.24940501713E+03  0.12500000000E+03 0.  0.
</event>
<event>
 5    0  0.5771634E-005  0.2805639E+03  0.7546771E-02  0.1095381E+00
         21   -1    0    0  502  501  0.00000000000E+00  0.00000000000E+00  0.29818719773E+03  0.29818719773E+03  0.00000000000E+00 0.  1.
         21   -1    0    0  501  502 -0.00000000000E+00 -0.00000000000E+00 -0.26398225148E+03  0.26398225148E+03  0.00000000000E+00 0.  1.
         25    1    1    2    0    0  0.12398652076E+03 -0.11558851967E+03  0.78387658341E+02  0.22472869908E+03  0.12500000000E+03 0.  0.
         25    1    1    2    0    0 -0.13086163847E+03  0.80395852482E+02 -0.58828816181E+02  0.20657708279E+03  0.12500000000E+03 0.  0.
         25    1    1    2    0    0  0.68751177056E+01  0.35192667185E+02  0.14646104087E+02  0.13086366735E+03  0.12500000000E+03 0.  0.
</event>
<event>
 5    0  0.5771634E-005  0.4844533E+03  0.7546771E-02  0.1017918E+00
         21   -1    0    0  502  501  0.00000000000E+00  0.00000000000E+00  0.29113321831E+04  0.29113321831E+04  0.00000000000E+00 0.  1.
         21   -1    0    0  501  502 -0.00000000000E+00 -0.00000000000E+00 -0.80614306752E+02  0.80614306752E+02  0.00000000000E+00 0.  1.
         25    1    1    2    0    0  0.18852500805E+03  0.28732189447E+03  0.58240702756E+03  0.68769069752E+03  0.12500000000E+03 0.  0.
         25    1    1    2    0    0 -0.20841382992E+03 -0.18936424688E+03  0.18414700493E+04  0.18670650993E+04  0.12500000000E+03 0.  0.
         25    1    1    2    0    0  0.19888821870E+02 -0.97957647593E+02  0.40684079941E+03  0.43719069298E+03  0.12500000000E+03 0.  0.
</event>
<event>
 5    0  0.5771634E-005  0.4275552E+03  0.7546771E-02  0.1034635E+00
         21   -1    0    0  502  501  0.00000000000E+00  0.00000000000E+00  0.15873429885E+03  0.15873429885E+03  0.00000000000E+00 0.  1.
         21   -1    0    0  501  502 -0.00000000000E+00 -0.00000000000E+00 -0.11516318370E+04  0.11516318370E+04  0.00000000000E+00 0.  1.
         25    1    1    2    0    0  0.74238567517E+01 -0.59839321872E+02 -0.32050293731E+03  0.34926063465E+03  0.12500000000E+03 0.  0.
         25    1    1    2    0    0  0.30398620023E+03  0.10746581545E+03 -0.30283170028E+03  0.45966134285E+03  0.12500000000E+03 0.  0.
         25    1    1    2    0    0 -0.31141005698E+03 -0.47626493575E+02 -0.36956290060E+03  0.50144415839E+03  0.12500000000E+03 0.  0.
</event>
<event>
 5    0  0.5771634E-005  0.2700418E+03  0.7546771E-02  0.1101256E+00
         21   -1    0    0  502  501  0.00000000000E+00  0.00000000000E+00  0.19260774859E+03  0.19260774859E+03  0.00000000000E+00 0. -1.
         21   -1    0    0  501  502 -0.00000000000E+00 -0.00000000000E+00 -0.37860657461E+03  0.37860657461E+03  0.00000000000E+00 0. -1.
         25    1    1    2    0    0 -0.43631694488E+02 -0.17301478530E+01 -0.12033876067E+02  0.13295312087E+03  0.12500000000E+03 0.  0.
         25    1    1    2    0    0  0.11435347622E+03  0.65326832189E+02 -0.20948538636E+03  0.27722452926E+03  0.12500000000E+03 0.  0.
         25    1    1    2    0    0 -0.70721781732E+02 -0.63596684336E+02  0.35520436407E+02  0.16103667307E+03  0.12500000000E+03 0.  0.
</event>
<event>
 5    0  0.5771634E-005  0.4056570E+03  0.7546771E-02  0.1041838E+00
         21   -1    0    0  502  501  0.00000000000E+00  0.00000000000E+00  0.95032221076E+03  0.95032221076E+03  0.00000000000E+00 0. -1.
         21   -1    0    0  501  502 -0.00000000000E+00 -0.00000000000E+00 -0.17315983216E+03  0.17315983216E+03  0.00000000000E+00 0. -1.
         25    1    1    2    0    0  0.65682562176E+02  0.33688070038E+02 -0.34526330049E+02  0.14921847239E+03  0.12500000000E+03 0.  0.
         25    1    1    2    0    0 -0.21919095773E+03  0.10638542079E+02  0.69672697135E+03  0.74108793482E+03  0.12500000000E+03 0.  0.
         25    1    1    2    0    0  0.15350839556E+03 -0.44326612117E+02  0.11496173730E+03  0.23317563571E+03  0.12500000000E+03 0.  0.
</event>
<event>
 5    0  0.5771634E-005  0.2240362E+03  0.7546771E-02  0.1130909E+00
         21   -1    0    0  502  501  0.00000000000E+00  0.00000000000E+00  0.31405943542E+03  0.31405943542E+03  0.00000000000E+00 0.  1.
         21   -1    0    0  501  502 -0.00000000000E+00 -0.00000000000E+00 -0.15981751603E+03  0.15981751603E+03  0.00000000000E+00 0.  1.
         25    1    1    2    0    0 -0.63321508664E+02 -0.71451844005E+02  0.80025962244E+01  0.15749292371E+03  0.12500000000E+03 0.  0.
         25    1    1    2    0    0  0.74553812261E+02  0.42653049411E+02  0.83826171545E+02  0.17328987444E+03  0.12500000000E+03 0.  0.
         25    1    1    2    0    0 -0.11232303598E+02  0.28798794594E+02  0.62413151623E+02  0.14309415330E+03  0.12500000000E+03 0.  0.
</event>
<event>
 5    0  0.5771634E-005  0.3389600E+03  0.7546771E-02  0.1067240E+00
         21   -1    0    0  502  501  0.00000000000E+00  0.00000000000E+00  0.40299316130E+03  0.40299316130E+03  0.00000000000E+00 0. -1.
         21   -1    0    0  501  502 -0.00000000000E+00 -0.00000000000E+00 -0.28510129031E+03  0.28510129031E+03  0.00000000000E+00 0. -1.
         25    1    1    2    0    0  0.18124624295E+02 -0.13710053571E+03 -0.12312034331E+03  0.22340250185E+03  0.12500000000E+03 0.  0.
         25    1    1    2    0    0 -0.16893848353E+01  0.25663077470E+01 -0.37625298399E+02  0.13057604312E+03  0.12500000000E+03 0.  0.
         25    1    1    2    0    0 -0.16435239459E+02  0.13453422797E+03  0.27863751270E+03  0.33411590664E+03  0.12500000000E+03 0.  0.
</event>
<event>
 5    0  0.5771634E-005  0.4536211E+03  0.7546771E-02  0.1026648E+00
         21   -1    0    0  502  501  0.00000000000E+00  0.00000000000E+00  0.84019638747E+03  0.84019638747E+03  0.00000000000E+00 0. -1.
         21   -1    0    0  501  502 -0.00000000000E+00 -0.00000000000E+00 -0.24490952794E+03  0.24490952794E+03  0.00000000000E+00 0. -1.
         25    1    1    2    0    0  0.19068186576E+03 -0.16393712288E+02  0.52162747124E+03  0.56951606342E+03  0.12500000000E+03 0.  0.
         25    1    1    2    0    0  0.26224774671E+02  0.17219705131E+03  0.47260889359E+02  0.21954078197E+03  0.12500000000E+03 0.  0.
         25    1    1    2    0    0 -0.21690664043E+03 -0.15580333902E+03  0.26398498925E+02  0.29604907002E+03  0.12500000000E+03 0.  0.
</event>
<event>
 5    0  0.5771634E-005  0.3010702E+03  0.7546771E-02  0.1084707E+00
         21   -1    0    0  502  501  0.00000000000E+00  0.00000000000E+00  0.44708061317E+02  0.44708061317E+02  0.00000000000E+00 0.  1.
         21   -1    0    0  501  502 -0.00000000000E+00 -0.00000000000E+00 -0.20274477696E+04  0.20274477696E+04  0.00000000000E+00 0.  1.
         25    1    1    2    0    0  0.61306616040E+02  0.33048670885E+02 -0.17945034599E+03  0.22951719433E+03  0.12500000000E+03 0.  0.
         25    1    1    2    0    0 -0.29263848934E+02  0.14772009621E+02 -0.15412700455E+04  0.15466780331E+04  0.12500000000E+03 0.  0.
         25    1    1    2    0    0 -0.32042767107E+02 -0.47820680506E+02 -0.26201931685E+03  0.29596060348E+03  0.12500000000E+03 0.  0.
</event>
<event>
 5    0  0.5771634E-005  0.3034925E+03  0.7546771E-02  0.1083508E+00
         21   -1    0    0  502  501  0.00000000000E+00  0.00000000000E+00  0.12977136838E+04  0.12977136838E+04  0.00000000000E+00 0.  1.
         21   -1    0    0  501  502 -0.00000000000E+00 -0.00000000000E+00 -0.70976895659E+02  0.70976895659E+02  0.00000000000E+00 0.  1.
         25    1    1    2    0    0 -0.55271516986E+02 -0.47041671729E+01  0.27210537358E+03  0.30453801751E+03  0.12500000000E+03 0.  0.
         25    1    1    2    0    0 -0.98769607032E+02 -0.14923154680E+03  0.41264355476E+03  0.46682458495E+03  0.12500000000E+03 0.  0.
         25    1    1    2    0    0  0.15404112402E+03  0.15393571398E+03  0.54198785984E+03  0.59732797703E+03  0.12500000000E+03 0.  0.
</event>
<event>
 5    0  0.5771634E-005  0.2974811E+03  0.7546771E-02  0.1086507E+00
         21   -1    0    0  502  501  0.00000000000E+00  0.00000000000E+00  0.63955155338E+03  0.63955155338E+03  0.00000000000E+00 0.  1.
         21   -1    0    0  501  502 -0.00000000000E+00 -0.00000000000E+00 -0.13837043015E+03  0.13837043015E+03  0.00000000000E+00 0.  1.
         25    1    1    2    0    0  0.15372624515E+03 -0.83380467176E+02  0.14370985467E+03  0.25857606827E+03  0.12500000000E+03 0.  0.
         25    1    1    2    0    0 -0.87736786823E+02  0.24154122160E+02  0.32892702372E+03  0.36345447076E+03  0.12500000000E+03 0.  0.
         25    1    1    2    0    0 -0.65989458326E+02  0.59226345017E+02  0.28544244835E+02  0.15589144450E+03  0.12500000000E+03 0.  0.
</event>
<event>
 5    0  0.5771634E-005  0.3666171E+03  0.7546771E-02  0.1055994E+00
         21   -1    0    0  502  501  0.00000000000E+00  0.00000000000E+00  0.98206240566E+03  0.98206240566E+03  0.00000000000E+00 0. -1.
         21   -1    0    0  501  502 -0.00000000000E+00 -0.00000000000E+00 -0.13686305793E+03  0.13686305793E+03  0.00000000000E+00 0. -1.
         25    1    1    2    0    0  0.20583097156E+03  0.14925540692E+02  0.25172794291E+03  0.34868484030E+03  0.12500000000E+03 0.  0.
         25    1    1    2    0    0 -0.29761364920E+03  0.41953308324E+02  0.40604827477E+03  0.52041729959E+03  0.12500000000E+03 0.  0.
         25    1    1    2    0    0  0.91782677649E+02 -0.56878849015E+02  0.18742313005E+03  0.24982332369E+03  0.12500000000E+03 0.  0.
</event>
<event>
 5    0  0.5771634E-005  0.3809146E+03  0.7546771E-02  0.1050596E+00
         21   -1    0    0  502  501  0.00000000000E+00  0.00000000000E+00  0.81000132043E+02  0.81000132043E+02  0.00000000000E+00 0. -1.
         21   -1    0    0  501  502 -0.00000000000E+00 -0.00000000000E+00 -0.17913047050E+04  0.17913047050E+04  0.00000000000E+00 0. -1.
         25    1    1    2    0    0  0.53159523902E+02  0.41636213749E+02 -0.14836157917E+04  0.14904027397E+04  0.12500000000E+03 0.  0.
         25    1    1    2    0    0  0.33928142634E+02  0.25097065571E+02 -0.14685285362E+03  0.19741261910E+03  0.12500000000E+03 0.  0.
         25    1    1    2    0    0 -0.87087666535E+02 -0.66733279320E+02 -0.79835927680E+02  0.18448947824E+03  0.12500000000E+03 0.  0.
</event>
<event>
 5    0  0.5771634E-005  0.3186759E+03  0.7546771E-02  0.1076260E+00
         21   -1    0    0  502  501  0.00000000000E+00  0.00000000000E+00  0.49170317952E+03  0.49170317952E+03  0.00000000000E+00 0.  1.
         21   -1    0    0  501  502 -0.00000000000E+00 -0.00000000000E+00 -0.20653583233E+03  0.20653583233E+03  0.00000000000E+00 0.  1.
         25    1    1    2    0    0 -0.27261059527E+02  0.68226917467E+02 -0.42520623918E+02  0.15109957343E+03  0.12500000000E+03 0.  0.
         25    1    1    2    0    0 -0.26190361144E+02 -0.18697000268E+03  0.78923493083E+02  0.23978664408E+03  0.12500000000E+03 0.  0.
         25    1    1    2    0    0  0.53451420671E+02  0.11874308521E+03  0.24876447802E+03  0.30735279433E+03  0.12500000000E+03 0.  0.
</event>
<event>
 5    0  0.5771634E-005  0.2854303E+03  0.7546771E-02  0.1092759E+00
         21   -1    0    0  502  501  0.00000000000E+00  0.00000000000E+00  0.31375859981E+03  0.31375859981E+03  0.00000000000E+00 0.  1.
         21   -1    0    0  501  502 -0.00000000000E+00 -0.00000000000E+00 -0.25965974393E+03  0.25965974393E+03  0.00000000000E+00 0.  1.
         25    1    1    2    0    0  0.12376061311E+03  0.92973348711E+01  0.12441341391E+03  0.21565441649E+03  0.12500000000E+03 0.  0.
         25    1    1    2    0    0 -0.12298608911E+03 -0.89772600229E+02 -0.97778751413E+01  0.19724427675E+03  0.12500000000E+03 0.  0.
         25    1    1    2    0    0 -0.77452399157E+00  0.80475265358E+02 -0.60536682891E+02  0.16051965050E+03  0.12500000000E+03 0.  0.
</event>
<event>
 5    0  0.5771634E-005  0.4130467E+03  0.7546771E-02  0.1039353E+00
         21   -1    0    0  502  501  0.00000000000E+00  0.00000000000E+00  0.48777096991E+03  0.48777096991E+03  0.00000000000E+00 0.  1.
         21   -1    0    0  501  502 -0.00000000000E+00 -0.00000000000E+00 -0.34976978021E+03  0.34976978021E+03  0.00000000000E+00 0.  1.
         25    1    1    2    0    0 -0.52719825811E+01  0.22089319790E+03  0.19079588051E+03  0.31756836539E+03  0.12500000000E+03 0.  0.
         25    1    1    2    0    0 -0.10271063210E+03 -0.19332846381E+02  0.12426419505E+03  0.20491418464E+03  0.12500000000E+03 0.  0.
         25    1    1    2    0    0  0.10798261468E+03 -0.20156035152E+03 -0.17705888586E+03  0.31505820008E+03  0.12500000000E+03 0.  0.
</event>
<event>
 5    0  0.5810592E-005  0.3092647E+03  0.7546771E-02  0.1080699E+00
         21   -1    0    0  502  501  0.00000000000E+00  0.00000000000E+00  0.46272745697E+03  0.46272745697E+03  0.00000000000E+00 0.  1.
         21   -1    0    0  501  502 -0.00000000000E+00 -0.00000000000E+00 -0.20669758242E+03  0.20669758242E+03  0.00000000000E+00 0.  1.
         25    1    1    2    0    0 -0.47983768969E+02  0.15196138011E+03  0.11362780287E+03  0.23223044743E+03  0.12500000000E+03 0.  0.
         25    1    1    2    0    0 -0.23194235604E+01 -0.15795186690E+03  0.20595941024E+03  0.28809451686E+03  0.12500000000E+03 0.  0.
         25    1    1    2    0    0  0.50303192530E+02  0.59904867887E+01 -0.63557338552E+02  0.14910007510E+03  0.12500000000E+03 0.  0.
</event>
<event>
 5    0  0.7228821E-005  0.5518356E+03  0.7546771E-02  0.1001070E+00
         21   -1    0    0  502  501  0.00000000000E+00  0.00000000000E+00  0.73743515953E+03  0.73743515953E+03  0.00000000000E+00 0. -1.
         21   -1    0    0  501  502 -0.00000000000E+00 -0.00000000000E+00 -0.41294820943E+03  0.41294820943E+03  0.00000000000E+00 0. -1.
         25    1    1    2    0    0  0.22516093358E+03 -0.85417726086E+02  0.23756252831E+03  0.36063082064E+03  0.12500000000E+03 0.  0.
         25    1    1    2    0    0 -0.32090385370E+03 -0.18562885353E+03  0.22041687118E+03  0.44905005476E+03  0.12500000000E+03 0.  0.
         25    1    1    2    0    0  0.95742920120E+02  0.27104657961E+03 -0.13349244939E+03  0.34070249356E+03  0.12500000000E+03 0.  0.
</event>
<event>
 5    0  0.5771634E-005  0.2097504E+03  0.7546771E-02  0.1141764E+00
         21   -1    0    0  502  501  0.00000000000E+00  0.00000000000E+00  0.31166196163E+03  0.31166196163E+03  0.00000000000E+00 0.  1.
         21   -1    0    0  501  502 -0.00000000000E+00 -0.00000000000E+00 -0.14116330972E+03  0.14116330972E+03  0.00000000000E+00 0.  1.
         25    1    1    2    0    0 -0.44010962409E+02 -0.35444016650E+02  0.65017346995E+02  0.15180743901E+03  0.12500000000E+03 0.  0.
         25    1    1    2    0    0  0.62723533894E+02  0.56982582342E+02  0.36256365577E+02  0.15530866183E+03  0.12500000000E+03 0.  0.
         25    1    1    2    0    0 -0.18712571485E+02 -0.21538565693E+02  0.69224939345E+02  0.14570917051E+03  0.12500000000E+03 0.  0.
</event>
<event>
 5    0  0.5771634E-005  0.2642115E+03  0.7546771E-02  0.1104639E+00
         21   -1    0    0  502  501  0.00000000000E+00  0.00000000000E+00  0.54913710028E+03  0.54913710028E+03  0.00000000000E+00 0. -1.
         21   -1    0    0  501  502 -0.00000000000E+00 -0.00000000000E+00 -0.12712251781E+03  0.12712251781E+03  0.00000000000E+00 0. -1.
         25    1    1    2    0    0  0.69921460245E+02 -0.59516585675E+02  0.19379324224E+03  0.24821775785E+03  0.12500000000E+03 0.  0.
         25    1    1    2    0    0 -0.63188656298E+02  0.15597314743E+02  0.25625400094E+03  0.29245032999E+03  0.12500000000E+03 0.  0.
         25    1    1    2    0    0 -0.67328039465E+01  0.43919270932E+02 -0.28032660715E+02  0.13559153025E+03  0.12500000000E+03 0.  0.
</event>
<event>
 5    0  0.5771634E-005  0.4213784E+03  0.7546771E-02  0.1036619E+00
         21   -1    0    0  502  501  0.00000000000E+00  0.00000000000E+00  0.17458028249E+04  0.17458028249E+04  0.00000000000E+00 0. -1.
         21   -1    0    0  501  502 -0.00000000000E+00 -0.00000000000E+00 -0.10170665097E+03  0.10170665097E+03  0.00000000000E+00 0. -1.
         25    1    1    2    0    0  0.19293037662E+02  0.29461999492E+03  0.45588450934E+03  0.55734087287E+03  0.12500000000E+03 0.  0.
         25    1    1    2    0    0  0.82375124697E+02 -0.30527962116E+03  0.84614369217E+03  0.91190210881E+03  0.12500000000E+03 0.  0.
         25    1    1    2    0    0 -0.10166816236E+03  0.10659626238E+02  0.34206797240E+03  0.37826649417E+03  0.12500000000E+03 0.  0.
</event>
<event>
 5    0  0.5771634E-005  0.3198140E+03  0.7546771E-02  0.1075735E+00
         21   -1    0    0  502  501  0.00000000000E+00  0.00000000000E+00  0.44844816629E+02  0.44844816629E+02  0.00000000000E+00 0.  1.
         21   -1    0    0  501  502 -0.00000000000E+00 -0.00000000000E+00 -0.22807765647E+04  0.22807765647E+04  0.00000000000E+00 0.  1.
         25    1    1    2    0    0  0.97237942320E+02 -0.17893086473E+03 -0.77069931949E+03  0.80689151244E+03  0.12500000000E+03 0.  0.
         25    1    1    2    0    0 -0.73762407697E+01  0.17687061144E+03 -0.55945337623E+03  0.59995891717E+03  0.12500000000E+03 0.  0.
         25    1    1    2    0    0 -0.89861701550E+02  0.20602532979E+01 -0.90577905239E+03  0.91877095176E+03  0.12500000000E+03 0.  0.
</event>
<event>
 5    0  0.5771634E-005  0.3878855E+03  0.7546771E-02  0.1048057E+00
         21   -1    0    0  502  501  0.00000000000E+00  0.00000000000E+00  0.18717637903E+03  0.18717637903E+03  0.00000000000E+00 0.  1.
         21   -1    0    0  501  502 -0.00000000000E+00 -0.00000000000E+00 -0.80381480863E+03  0.80381480863E+03  0.00000000000E+00 0.  1.
         25    1    1    2    0    0  0.66400737757E+02 -0.12246373552E+03 -0.10848184258E+03  0.21633246326E+03  0.12500000000E+03 0.  0.
         25    1    1    2    0    0 -0.21506447462E+03 -0.46855776807E+02 -0.63873779219E+02  0.26106139457E+03  0.12500000000E+03 0.  0.
         25    1    1    2    0    0  0.14866373686E+03  0.16931951232E+03 -0.44428280779E+03  0.51359732983E+03  0.12500000000E+03 0.  0.
</event>
<event>
 5    0  0.5771634E-005  0.3074540E+03  0.7546771E-02  0.1081573E+00
         21   -1    0    0  502  501  0.00000000000E+00  0.00000000000E+00  0.14497350211E+03  0.14497350211E+03  0.00000000000E+00 0. -1.
         21   -1    0    0  501  502 -0.00000000000E+00 -0.00000000000E+00 -0.65203631864E+03  0.65203631864E+03  0.00000000000E+00 0. -1.
         25    1    1    2    0    0  0.14406708306E+03  0.88371591887E+02 -0.10049063479E+03  0.23299834839E+03  0.12500000000E+03 0.  0.
         25    1    1    2    0    0  0.11966686064E+02 -0.96459788069E+02 -0.29526561412E+03  0.33504398990E+03  0.12500000000E+03 0.  0.
         25    1    1    2    0    0 -0.15603376912E+03  0.80881961826E+01 -0.11130656762E+03  0.22896748245E+03  0.12500000000E+03 0.  0.
</event>
<event>
 5    0  0.5771634E-005  0.2763343E+03  0.7546771E-02  0.1097708E+00
         21   -1    0    0  502  501  0.00000000000E+00  0.00000000000E+00  0.51318417728E+03  0.51318417728E+03  0.00000000000E+00 0. -1.
         21   -1    0    0  501  502 -0.00000000000E+00 -0.00000000000E+00 -0.14879772404E+03  0.14879772404E+03  0.00000000000E+00 0. -1.
         25    1    1    2    0    0 -0.10663428597E+03 -0.45170058984E+02  0.25944056752E+03  0.31039589760E+03  0.12500000000E+03 0.  0.
         25    1    1    2    0    0  0.10185087208E+02  0.28178533981E+02 -0.42003003813E+02  0.13522950162E+03  0.12500000000E+03 0.  0.
         25    1    1    2    0    0  0.96449198765E+02  0.16991525003E+02  0.14694888954E+03  0.21635650210E+03  0.12500000000E+03 0.  0.
</event>
<event>
 5    0  0.5771634E-005  0.4260831E+03  0.7546771E-02  0.1035104E+00
         21   -1    0    0  502  501  0.00000000000E+00  0.00000000000E+00  0.13209542654E+03  0.13209542654E+03  0.00000000000E+00 0. -1.
         21   -1    0    0  501  502 -0.00000000000E+00 -0.00000000000E+00 -0.13743610959E+04  0.13743610959E+04  0.00000000000E+00 0. -1.
         25    1    1    2    0    0 -0.33629042958E+03 -0.10418842712E+03 -0.54589866420E+03  0.66149590546E+03  0.12500000000E+03 0.  0.
         25    1    1    2    0    0  0.26655410857E+03  0.77102108322E+02 -0.59235694291E+03  0.66596364444E+03  0.12500000000E+03 0.  0.
         25    1    1    2    0    0  0.69736321006E+02  0.27086318795E+02 -0.10401006228E+03  0.17899697257E+03  0.12500000000E+03 0.  0.
</event>
<event>
 5    0  0.5771634E-005  0.3591979E+03  0.7546771E-02  0.1058902E+00
         21   -1    0    0  502  501  0.00000000000E+00  0.00000000000E+00  0.87004992435E+03  0.87004992435E+03  0.00000000000E+00 0. -1.
         21   -1    0    0  501  502 -0.00000000000E+00 -0.00000000000E+00 -0.14829395337E+03  0.14829395337E+03  0.00000000000E+00 0. -1.
         25    1    1    2    0    0 -0.16294034618E+03 -0.85287518986E+02  0.18256000048E+03  0.28770935175E+03  0.12500000000E+03 0.  0.
         25    1    1    2    0    0 -0.47248994906E+02 -0.62881829507E+02  0.36219679005E+02  0.15206399031E+03  0.12500000000E+03 0.  0.
         25    1    1    2    0    0  0.21018934109E+03  0.14816934849E+03  0.50297629149E+03  0.57857053566E+03  0.12500000000E+03 0.  0.
</event>
<event>
 5    0  0.5771634E-005  0.3494320E+03  0.7546771E-02  0.1062848E+00
         21   -1    0    0  502  501  0.00000000000E+00  0.00000000000E+00  0.54776716352E+03  0.54776716352E+03  0.00000000000E+00 0. -1.
         21   -1    0    0  501  502 -0.00000000000E+00 -0.00000000000E+00 -0.22290986652E+03  0.22290986652E+03  0.00000000000E+00 0. -1.
         25    1    1    2    0    0 -0.16423446791E+03  0.29044679116E+01  0.30765935761E+03  0.37048708035E+03  0.12500000000E+03 0.  0.
         25    1    1    2    0    0 -0.38164199360E+02 -0.72817040859E+02  0.27090485912E+02  0.15204513139E+03  0.12500000000E+03 0.  0.
         25    1    1    2    0    0  0.20239866727E+03  0.69912572947E+02 -0.98925465165E+01  0.24814481829E+03  0.12500000000E+03 0.  0.
</event>
<event>
 5    0  0.5771634E-005  0.2615662E+03  0.7546771E-02  0.1106206E+00
         21   -1    0    0  502  501  0.00000000000E+00  0.00000000000E+00  0.20043637703E+03  0.20043637703E+03  0.00000000000E+00 0.  1.
         21   -1    0    0  501  502 -0.00000000000E+00 -0.00000000000E+00 -0.34133971147E+03  0.34133971147E+03  0.00000000000E+00 0.  1.
         25    1    1    2    0    0  0.16255037173E+02  0.15700576151E+03 -0.47912454686E+02  0.20696772380E+03  0.12500000000E+03 0.  0.
         25    1    1    2    0    0  0.16994255164E+02 -0.14257333099E+03 -0.41486110592E+02  0.19483854031E+03  0.12500000000E+03 0.  0.
         25    1    1    2    0    0 -0.33249292337E+02 -0.14432430520E+02 -0.51504769162E+02  0.13996982438E+03  0.12500000000E+03 0.  0.
</event>
<event>
 5    0  0.5771634E-005  0.4348712E+03  0.7546771E-02  0.1032332E+00
         21   -1    0    0  502  501  0.00000000000E+00  0.00000000000E+00  0.52368259742E+03  0.52368259742E+03  0.00000000000E+00 0.  1.
         21   -1    0    0  501  502 -0.00000000000E+00 -0.00000000000E+00 -0.36112134759E+03  0.36112134759E+03  0.00000000000E+00 0.  1.
         25    1    1    2    0    0  0.16961682993E+03 -0.53584076860E+02 -0.75079966508E+02  0.23000679047E+03  0.12500000000E+03 0.  0.
         25    1    1    2    0    0 -0.14149372960E+03 -0.20327812297E+03  0.24136558664E+03  0.36772927162E+03  0.12500000000E+03 0.  0.
         25    1    1    2    0    0 -0.28123100335E+02  0.25686219983E+03 -0.37243702990E+01  0.28706788293E+03  0.12500000000E+03 0.  0.
</event>
<event>
 5    0  0.5771634E-005  0.3817291E+03  0.7546771E-02  0.1050297E+00
         21   -1    0    0  502  501  0.00000000000E+00  0.00000000000E+00  0.76201818786E+02  0.76201818786E+02  0.00000000000E+00 0.  1.
         21   -1    0    0  501  502 -0.00000000000E+00 -0.00000000000E+00 -0.19122525950E+04  0.19122525950E+04  0.00000000000E+00 0.  1.
         25    1    1    2    0    0  0.95851783773E+02 -0.14541595373E+03 -0.63089822990E+03  0.66632645193E+03  0.12500000000E+03 0.  0.
         25    1    1    2    0    0 -0.10614581270E+03  0.24102752681E+03 -0.10860535866E+04  0.11244992642E+04  0.12500000000E+03 0.  0.
         25    1    1    2    0    0  0.10294028929E+02 -0.95611573079E+02 -0.11909895977E+03  0.19762869770E+03  0.12500000000E+03 0.  0.
</event>
<event>
 5    0  0.5771634E-005  0.2398826E+03  0.7546771E-02  0.1119871E+00
         21   -1    0    0  502  501  0.00000000000E+00  0.00000000000E+00  0.22270346165E+03  0.22270346165E+03  0.00000000000E+00 0. -1.
         21   -1    0    0  501  502 -0.00000000000E+00 -0.00000000000E+00 -0.25838682881E+03  0.25838682881E+03  0.00000000000E+00 0. -1.
         25    1    1    2    0    0  0.20393353281E+02 -0.18912351567E+01 -0.64501693155E+01  0.12683087287E+03  0.12500000000E+03 0.  0.
         25    1    1    2    0    0  0.14183532727E+02  0.86233100220E+02 -0.10180658759E+03  0.18337639284E+03  0.12500000000E+03 0.  0.
         25    1    1    2    0    0 -0.34576886008E+02 -0.84341865064E+02  0.72573389742E+02  0.17088302475E+03  0.12500000000E+03 0.  0.
</event>
<event>
 5    0  0.5771634E-005  0.3743462E+03  0.7546771E-02  0.1053043E+00
         21   -1    0    0  502  501  0.00000000000E+00  0.00000000000E+00  0.25902651157E+03  0.25902651157E+03  0.00000000000E+00 0. -1.
         21   -1    0    0  501  502 -0.00000000000E+00 -0.00000000000E+00 -0.54100667842E+03  0.54100667842E+03  0.00000000000E+00 0. -1.
         25    1    1    2    0    0 -0.12770440673E+02  0.16843301405E+03 -0.24679473410E+02  0.21158175910E+03  0.12500000000E+03 0.  0.
         25    1    1    2    0    0 -0.16795343063E+03 -0.12784332100E+03  0.30812164961E+01  0.24532990743E+03  0.12500000000E+03 0.  0.
         25    1    1    2    0    0  0.18072387130E+03 -0.40589693045E+02 -0.26038190994E+03  0.34312152346E+03  0.12500000000E+03 0.  0.
</event>
<event>
 5    0  0.5771634E-005  0.2469990E+03  0.7546771E-02  0.1115216E+00
         21   -1    0    0  502  501  0.00000000000E+00  0.00000000000E+00  0.95724832036E+03  0.95724832036E+03  0.00000000000E+00 0.  1.
         21   -1    0    0  501  502 -0.00000000000E+00 -0.00000000000E+00 -0.63733224585E+02  0.63733224585E+02  0.00000000000E+00 0.  1.
         25    1    1    2    0    0  0.63714416309E+02  0.20440062175E+02  0.51645067049E+03  0.53555916390E+03  0.12500000000E+03 0.  0.
         25    1    1    2    0    0  0.53397554738E+01  0.71753142863E+01  0.28996348832E+03  0.31588577474E+03  0.12500000000E+03 0.  0.
         25    1    1    2    0    0 -0.69054171783E+02 -0.27615376461E+02  0.87100936962E+02  0.16953660630E+03  0.12500000000E+03 0.  0.
</event>
<event>
 5    0  0.5909616E-005  0.3611820E+03  0.7546771E-02  0.1058117E+00
         21   -1    0    0  502  501  0.00000000000E+00  0.00000000000E+00  0.49540221598E+03  0.49540221598E+03  0.00000000000E+00 0. -1.
         21   -1    0    0  501  502 -0.00000000000E+00 -0.00000000000E+00 -0.26332630119E+03  0.26332630119E+03  0.00000000000E+00 0. -1.
         25    1    1    2    0    0 -0.38111348822E+00 -0.11726890150E+03 -0.12591039999E+03  0.21267479713E+03  0.12500000000E+03 0.  0.
         25    1    1    2    0    0 -0.42805520903E+02  0.14985595112E+03  0.45108884975E+02  0.20481437989E+03  0.12500000000E+03 0.  0.
         25    1    1    2    0    0  0.43186634391E+02 -0.32587049621E+02  0.31287742981E+03  0.34123934017E+03  0.12500000000E+03 0.  0.
</event>
<event>
 5    0  0.6187815E-005  0.3034944E+03  0.7546771E-02  0.1083507E+00
         21   -1    0    0  502  501  0.00000000000E+00  0.00000000000E+00  0.22869016797E+03  0.22869016797E+03  0.00000000000E+00 0. -1.
         21   -1    0    0  501  502 -0.00000000000E+00 -0.00000000000E+00 -0.40276698344E+03  0.40276698344E+03  0.00000000000E+00 0. -1.
         25    1    1    2    0    0 -0.10392927640E+03 -0.22587112894E+01  0.54877171274E+02  0.17158933590E+03  0.12500000000E+03 0.  0.
         25    1    1    2    0    0  0.10521622341E+03  0.12398779780E+03 -0.52510878071E+02  0.21172109009E+03  0.12500000000E+03 0.  0.
         25    1    1    2    0    0 -0.12869470158E+01 -0.12172908651E+03 -0.17644310868E+03  0.24814672542E+03  0.12500000000E+03 0.  0.
</event>
<event>
 5    0  0.5771634E-005  0.2392861E+03  0.7546771E-02  0.1120269E+00
         21   -1    0    0  502  501  0.00000000000E+00  0.00000000000E+00  0.13306276601E+03  0.13306276601E+03  0.00000000000E+00 0.  1.
         21   -1    0    0  501  502 -0.00000000000E+00 -0.00000000000E+00 -0.43030682006E+03  0.43030682006E+03  0.00000000000E+00 0.  1.
         25    1    1    2    0    0  0.37623485368E+02  0.15467189590E+02 -0.26043886376E+02  0.13400762897E+03  0.12500000000E+03 0.  0.
         25    1    1    2    0    0  0.70961675669E+02 -0.15281488055E+02 -0.20545727259E+03  0.25121061712E+03  0.12500000000E+03 0.  0.
         25    1    1    2    0    0 -0.10858516104E+03 -0.18570153558E+00 -0.65742895080E+02  0.17815133998E+03  0.12500000000E+03 0.  0.
</event>
<event>
 5    0  0.5771634E-005  0.3096897E+03  0.7546771E-02  0.1080495E+00
         21   -1    0    0  502  501  0.00000000000E+00  0.00000000000E+00  0.10492962766E+03  0.10492962766E+03  0.00000000000E+00 0. -1.
         21   -1    0    0  501  502 -0.00000000000E+00 -0.00000000000E+00 -0.91401933921E+03  0.91401933921E+03  0.00000000000E+00 0. -1.
         25    1    1    2    0    0  0.22061884008E+02 -0.14777950073E+03 -0.73909095272E+02  0.20835801383E+03  0.12500000000E+03 0.  0.
         25    1    1    2    0    0  0.55457922506E+02  0.70235922907E+02 -0.49610911538E+03  0.51938224883E+03  0.12500000000E+03 0.  0.
         25    1    1    2    0    0 -0.77519806514E+02  0.77543577825E+02 -0.23907150090E+03  0.29120870421E+03  0.12500000000E+03 0.  0.
</event>
<event>
 5    0  0.5771634E-005  0.2092375E+03  0.7546771E-02  0.1142171E+00
         21   -1    0    0  502  501  0.00000000000E+00  0.00000000000E+00  0.35381231636E+02  0.35381231636E+02  0.00000000000E+00 0. -1.
         21   -1    0    0  501  502 -0.00000000000E+00 -0.00000000000E+00 -0.12373886959E+04  0.12373886959E+04  0.00000000000E+00 0. -1.
         25    1    1    2    0    0  0.29950689458E+01  0.35104800383E+02 -0.61215637125E+03  0.62578090440E+03  0.12500000000E+03 0.  0.
         25    1    1    2    0    0 -0.23850314646E+02 -0.29807122954E+02 -0.21887291777E+03  0.25492676638E+03  0.12500000000E+03 0.  0.
         25    1    1    2    0    0  0.20855245700E+02 -0.52976774290E+01 -0.37097817522E+03  0.39206225672E+03  0.12500000000E+03 0.  0.
</event>
<event>
 5    0  0.5771634E-005  0.4176919E+03  0.7546771E-02  0.1037820E+00
         21   -1    0    0  502  501  0.00000000000E+00  0.00000000000E+00  0.46647677570E+03  0.46647677570E+03  0.00000000000E+00 0.  1.
         21   -1    0    0  501  502 -0.00000000000E+00 -0.00000000000E+00 -0.37400906137E+03  0.37400906137E+03  0.00000000000E+00 0.  1.
         25    1    1    2    0    0 -0.63109680450E+02  0.29526863965E+03 -0.12648247571E+03  0.35041292498E+03  0.12500000000E+03 0.  0.
         25    1    1    2    0    0  0.98659337199E+02 -0.19884930788E+03  0.20620917986E+03  0.32775286104E+03  0.12500000000E+03 0.  0.
         25    1    1    2    0    0 -0.35549656749E+02 -0.96419331774E+02  0.12741010189E+02  0.16232005106E+03  0.12500000000E+03 0.  0.
</event>
<event>
 5    0  0.5771634E-005  0.2468549E+03  0.7546771E-02  0.1115309E+00
         21   -1    0    0  502  501  0.00000000000E+00  0.00000000000E+00  0.68438666850E+02  0.68438666850E+02  0.00000000000E+00 0.  1.
         21   -1    0    0  501  502 -0.00000000000E+00 -0.00000000000E+00 -0.89039356626E+03  0.89039356626E+03  0.00000000000E+00 0.  1.
         25    1    1    2    0    0  0.24318043700E+02  0.12242573154E+03 -0.22671817353E+03  0.28741182509E+03  0.12500000000E+03 0.  0.
         25    1    1    2    0    0 -0.70561174790E+02 -0.34786234686E+02 -0.33616996058E+03  0.36718415531E+03  0.12500000000E+03 0.  0.
         25    1    1    2    0    0  0.46243131090E+02 -0.87639496856E+02 -0.25906676530E+03  0.30423625271E+03  0.12500000000E+03 0.  0.
</event>
<event>
 5    0  0.5771634E-005  0.3676082E+03  0.7546771E-02  0.1055611E+00
         21   -1    0    0  502  501  0.00000000000E+00  0.00000000000E+00  0.74525359785E+03  0.74525359785E+03  0.00000000000E+00 0. -1.
         21   -1    0    0  501  502 -0.00000000000E+00 -0.00000000000E+00 -0.18132857768E+03  0.18132857768E+03  0.00000000000E+00 0. -1.
         25    1    1    2    0    0  0.56403364801E+02 -0.19558195506E+03  0.31819666213E+03  0.39787907270E+03  0.12500000000E+03 0.  0.
         25    1    1    2    0    0  0.81171892398E+02 -0.26737312825E+02  0.17303680564E+03  0.22993585218E+03  0.12500000000E+03 0.  0.
         25    1    1    2    0    0 -0.13757525720E+03  0.22231926789E+03  0.72691552404E+02  0.29876725065E+03  0.12500000000E+03 0.  0.
</event>
<event>
 5    0  0.5771634E-005  0.4300446E+03  0.7546771E-02  0.1033846E+00
         21   -1    0    0  502  501  0.00000000000E+00  0.00000000000E+00  0.47022848973E+03  0.47022848973E+03  0.00000000000E+00 0. -1.
         21   -1    0    0  501  502 -0.00000000000E+00 -0.00000000000E+00 -0.39329474039E+03  0.39329474039E+03  0.00000000000E+00 0. -1.
         25    1    1    2    0    0  0.23583984624E+02 -0.10036426100E+03 -0.24645188218E+03  0.29494528212E+03  0.12500000000E+03 0.  0.
         25    1    1    2    0    0 -0.65578980472E+02  0.45180125536E+02  0.38528144064E+03  0.41280580777E+03  0.12500000000E+03 0.  0.
         25    1    1    2    0    0  0.41994995849E+02  0.55184135462E+02 -0.61895809129E+02  0.15577214023E+03  0.12500000000E+03 0.  0.
</event>
<event>
 5    0  0.5771634E-005  0.4284175E+03  0.7546771E-02  0.1034361E+00
         21   -1    0    0  502  501  0.00000000000E+00  0.00000000000E+00  0.77070254345E+03  0.77070254345E+03  0.00000000000E+00 0. -1.
         21   -1    0    0  501  502 -0.00000000000E+00 -0.00000000000E+00 -0.23814834824E+03  0.23814834824E+03  0.00000000000E+00 0. -1.
         25    1    1    2    0    0  0.28161132592E+01  0.17767174285E+03 -0.64928977206E+02  0.22675085619E+03  0.12500000000E+03 0.  0.
         25    1    1    2    0    0  0.14753432210E+03 -0.75460040632E+02  0.85292462327E+02  0.22441122534E+03  0.12500000000E+03 0.  0.
         25    1    1    2    0    0 -0.15035043536E+03 -0.10221170222E+03  0.51219071008E+03  0.55768881016E+03  0.12500000000E+03 0.  0.
</event>
<event>
 5    0  0.5771634E-005  0.3329757E+03  0.7546771E-02  0.1069828E+00
         21   -1    0    0  502  501  0.00000000000E+00  0.00000000000E+00  0.28056032878E+03  0.28056032878E+03  0.00000000000E+00 0.  1.
         21   -1    0    0  501  502 -0.00000000000E+00 -0.00000000000E+00 -0.39518359661E+03  0.39518359661E+03  0.00000000000E+00 0.  1.
         25    1    1    2    0    0  0.17265730259E+03  0.13859491972E+02  0.25573801593E+02  0.21513170149E+03  0.12500000000E+03 0.  0.
         25    1    1    2    0    0  0.63853372928E+02 -0.77526674434E+02 -0.79641470694E+02  0.17904022547E+03  0.12500000000E+03 0.  0.
         25    1    1    2    0    0 -0.23651067552E+03  0.63667182462E+02 -0.60555598730E+02  0.28157199842E+03  0.12500000000E+03 0.  0.
</event>
<event>
 5    0  0.5771634E-005  0.3730447E+03  0.7546771E-02  0.1053535E+00
         21   -1    0    0  502  501  0.00000000000E+00  0.00000000000E+00  0.40368741534E+03  0.40368741534E+03  0.00000000000E+00 0.  1.
         21   -1    0    0  501  502 -0.00000000000E+00 -0.00000000000E+00 -0.34472795337E+03  0.34472795337E+03  0.00000000000E+00 0.  1.
         25    1    1    2    0    0  0.19058707544E+02  0.29067187390E+02  0.18787574605E+03  0.22832089626E+03  0.12500000000E+03 0.  0.
         25    1    1    2    0    0 -0.93351493698E+01  0.16993419022E+03 -0.18223155828E+03  0.27892313431E+03  0.12500000000E+03 0.  0.
         25    1    1    2    0    0 -0.97235581741E+01 -0.19900137761E+03  0.53315274208E+02  0.24117133814E+03  0.12500000000E+03 0.  0.
</event>
<event>
 5    0  0.5771634E-005  0.2431324E+03  0.7546771E-02  0.1117724E+00
         21   -1    0    0  502  501  0.00000000000E+00  0.00000000000E+00  0.15332953229E+04  0.15332953229E+04  0.00000000000E+00 0. -1.
         21   -1    0    0  501  502 -0.00000000000E+00 -0.00000000000E+00 -0.38553156487E+02  0.38553156487E+02  0.00000000000E+00 0. -1.
         25    1    1    2    0    0  0.13667487554E+03 -0.12510129764E+02  0.46479182174E+03  0.50049271973E+03  0.12500000000E+03 0.  0.
         25    1    1    2    0    0 -0.92670569430E+02  0.36239427462E+02  0.59197172862E+03  0.61315304617E+03  0.12500000000E+03 0.  0.
         25    1    1    2    0    0 -0.44004306105E+02 -0.23729297698E+02  0.43797861608E+03  0.45820271351E+03  0.12500000000E+03 0.  0.
</event>
<event>
 5    0  0.5771634E-005  0.7829750E+03  0.7546771E-02  0.9584992E-01
         21   -1    0    0  502  501  0.00000000000E+00  0.00000000000E+00  0.14058666370E+04  0.14058666370E+04  0.00000000000E+00 0.  1.
         21   -1    0    0  501  502 -0.00000000000E+00 -0.00000000000E+00 -0.43606539989E+03  0.43606539989E+03  0.00000000000E+00 0.  1.
         25    1    1    2    0    0 -0.10941079510E+03  0.21170990434E+03 -0.64468655978E+02  0.27671829228E+03  0.12500000000E+03 0.  0.
         25    1    1    2    0    0 -0.15202245976E+03  0.41484684317E+03  0.25912661021E+03  0.52723840118E+03  0.12500000000E+03 0.  0.
         25    1    1    2    0    0  0.26143325486E+03 -0.62655674752E+03  0.77514328291E+03  0.10379753435E+04  0.12500000000E+03 0.  0.
</event>
<event>
 5    0  0.5771634E-005  0.3315147E+03  0.7546771E-02  0.1070469E+00
         21   -1    0    0  502  501  0.00000000000E+00  0.00000000000E+00  0.95972926717E+02  0.95972926717E+02  0.00000000000E+00 0. -1.
         21   -1    0    0  501  502 -0.00000000000E+00 -0.00000000000E+00 -0.11451351357E+04  0.11451351357E+04  0.00000000000E+00 0. -1.
         25    1    1    2    0    0  0.39319235660E+02 -0.14020274722E+03 -0.11087754074E+03  0.22163402641E+03  0.12500000000E+03 0.  0.
         25    1    1    2    0    0  0.69268905213E+02  0.15610552177E+03 -0.68075223111E+03  0.71289249913E+03  0.12500000000E+03 0.  0.
         25    1    1    2    0    0 -0.10858814087E+03 -0.15902774555E+02 -0.25753243710E+03  0.30658153685E+03  0.12500000000E+03 0.  0.
</event>
<event>
 5    0  0.5771634E-005  0.2695142E+03  0.7546771E-02  0.1101558E+00
         21   -1    0    0  502  501  0.00000000000E+00  0.00000000000E+00  0.26203600145E+03  0.26203600145E+03  0.00000000000E+00 0.  1.
         21   -1    0    0  501  502 -0.00000000000E+00 -0.00000000000E+00 -0.27720575955E+03  0.27720575955E+03  0.00000000000E+00 0.  1.
         25    1    1    2    0    0  0.10011318916E+03 -0.13048949261E+03 -0.58322174852E+02  0.21465468643E+03  0.12500000000E+03 0.  0.
         25    1    1    2    0    0 -0.25988959643E+02  0.46370751871E+02 -0.33653473519E+02  0.13994009051E+03  0.12500000000E+03 0.  0.
         25    1    1    2    0    0 -0.74124229521E+02  0.84118740734E+02  0.76805890274E+02  0.18464698407E+03  0.12500000000E+03 0.  0.
</event>
<event>
 5    0  0.5771634E-005  0.3756898E+03  0.7546771E-02  0.1052538E+00
         21   -1    0    0  502  501  0.00000000000E+00  0.00000000000E+00  0.59568180973E+03  0.59568180973E+03  0.00000000000E+00 0. -1.
         21   -1    0    0  501  502 -0.00000000000E+00 -0.00000000000E+00 -0.23694326682E+03  0.23694326682E+03  0.00000000000E+00 0. -1.
         25    1    1    2    0    0 -0.14672460556E+02 -0.40359761664E+02  0.13088687644E+03  0.18601227348E+03  0.12500000000E+03 0.  0.
         25    1    1    2    0    0 -0.23521410593E+02 -0.14893661765E+03 -0.11991312268E+03  0.22965088684E+03  0.12500000000E+03 0.  0.
         25    1    1    2    0    0  0.38193871149E+02  0.18929637932E+03  0.34776478915E+03  0.41696191623E+03  0.12500000000E+03 0.  0.
</event>
<event>
 5    0  0.5771634E-005  0.2829815E+03  0.7546771E-02  0.1094072E+00
         21   -1    0    0  502  501  0.00000000000E+00  0.00000000000E+00  0.12421900133E+03  0.12421900133E+03  0.00000000000E+00 0.  1.
         21   -1    0    0  501  502 -0.00000000000E+00 -0.00000000000E+00 -0.64465603494E+03  0.64465603494E+03  0.00000000000E+00 0.  1.
         25    1    1    2    0    0 -0.49093222006E+02 -0.58753277003E+02 -0.50913553245E+02  0.15517500414E+03  0.12500000000E+03 0.  0.
         25    1    1    2    0    0  0.16943294088E+03  0.68419795623E+02 -0.26595461950E+03  0.34604284348E+03  0.12500000000E+03 0.  0.
         25    1    1    2    0    0 -0.12033971888E+03 -0.96665186204E+01 -0.20356886087E+03  0.26765718865E+03  0.12500000000E+03 0.  0.
</event>
<event>
 5    0  0.6324735E-005  0.3434519E+03  0.7546771E-02  0.1065335E+00
         21   -1    0    0  502  501  0.00000000000E+00  0.00000000000E+00  0.15333133670E+03  0.15333133670E+03  0.00000000000E+00 0.  1.
         21   -1    0    0  501  502 -0.00000000000E+00 -0.00000000000E+00 -0.76930907451E+03  0.76930907451E+03  0.00000000000E+00 0.  1.
         25    1    1    2    0    0 -0.37415548919E+02 -0.17891775657E+03 -0.45952186252E+03  0.51009492161E+03  0.12500000000E+03 0.  0.
         25    1    1    2    0    0  0.40932785124E+02  0.18181418157E+03 -0.17697330547E+03  0.28579090322E+03  0.12500000000E+03 0.  0.
         25    1    1    2    0    0 -0.35172362053E+01 -0.28964249950E+01  0.20517430170E+02  0.12675458638E+03  0.12500000000E+03 0.  0.
</event>
<event>
 5    0  0.5771634E-005  0.2300616E+03  0.7546771E-02  0.1126596E+00
         21   -1    0    0  502  501  0.00000000000E+00  0.00000000000E+00  0.11721407854E+04  0.11721407854E+04  0.00000000000E+00 0. -1.
         21   -1    0    0  501  502 -0.00000000000E+00 -0.00000000000E+00 -0.45155284971E+02  0.45155284971E+02  0.00000000000E+00 0. -1.
         25    1    1    2    0    0 -0.14663253633E+02 -0.48013697889E+02  0.15563143703E+03  0.20583116961E+03  0.12500000000E+03 0.  0.
         25    1    1    2    0    0  0.23438501828E+02  0.58757414396E+02  0.34046141707E+03  0.36815862564E+03  0.12500000000E+03 0.  0.
         25    1    1    2    0    0 -0.87752481955E+01 -0.10743716506E+02  0.63089264638E+03  0.64330627517E+03  0.12500000000E+03 0.  0.
</event>
<event>
 5    0  0.5771634E-005  0.3573312E+03  0.7546771E-02  0.1059646E+00
         21   -1    0    0  502  501  0.00000000000E+00  0.00000000000E+00  0.11531680478E+04  0.11531680478E+04  0.00000000000E+00 0. -1.
         21   -1    0    0  501  502 -0.00000000000E+00 -0.00000000000E+00 -0.11072589106E+03  0.11072589106E+03  0.00000000000E+00 0. -1.
         25    1    1    2    0    0  0.25618760123E+03 -0.32445769319E+02  0.42539543096E+03  0.51309949098E+03  0.12500000000E+03 0.  0.
         25    1    1    2    0    0 -0.86602839021E+02 -0.81161537592E+02  0.16157150499E+03  0.23625748271E+03  0.12500000000E+03 0.  0.
         25    1    1    2    0    0 -0.16958476221E+03  0.11360730691E+03  0.45547522078E+03  0.51453696514E+03  0.12500000000E+03 0.  0.
</event>
<event>
 5    0  0.5771634E-005  0.5834823E+03  0.7546771E-02  0.9940280E-01
         21   -1    0    0  502  501  0.00000000000E+00  0.00000000000E+00  0.77855811063E+03  0.77855811063E+03  0.00000000000E+00 0.  1.
         21   -1    0    0  501  502 -0.00000000000E+00 -0.00000000000E+00 -0.43728473813E+03  0.43728473813E+03  0.00000000000E+00 0. -1.
         25    1    1    2    0    0 -0.21391300205E+03  0.11566002105E+03 -0.20311176266E+02  0.27417796556E+03  0.12500000000E+03 0.  0.
         25    1    1    2    0    0 -0.25809494229E+03 -0.16167500231E+03 -0.51872481410E+01  0.32924719156E+03  0.12500000000E+03 0.  0.
         25    1    1    2    0    0  0.47200794434E+03  0.46014981264E+02  0.36677179691E+03  0.61241769164E+03  0.12500000000E+03 0.  0.
</event>
<event>
 5    0  0.5771634E-005  0.2629394E+03  0.7546771E-02  0.1105390E+00
         21   -1    0    0  502  501  0.00000000000E+00  0.00000000000E+00  0.14641190099E+03  0.14641190099E+03  0.00000000000E+00 0.  1.
         21   -1    0    0  501  502 -0.00000000000E+00 -0.00000000000E+00 -0.47220992722E+03  0.47220992722E+03  0.00000000000E+00 0.  1.
         25    1    1    2    0    0 -0.88683228039E+02  0.21285944740E+02 -0.94584907772E+02  0.18135355292E+03  0.12500000000E+03 0.  0.
         25    1    1    2    0    0  0.17277493009E+03 -0.21230977476E+02 -0.17424667315E+03  0.27620433374E+03  0.12500000000E+03 0.  0.
         25    1    1    2    0    0 -0.84091702050E+02 -0.54967264540E-01 -0.56966445312E+02  0.16106394155E+03  0.12500000000E+03 0.  0.
</event>
<event>
 5    0  0.5771634E-005  0.2512219E+03  0.7546771E-02  0.1112535E+00
         21   -1    0    0  502  501  0.00000000000E+00  0.00000000000E+00  0.32675980945E+03  0.32675980945E+03  0.00000000000E+00 0. -1.
         21   -1    0    0  501  502 -0.00000000000E+00 -0.00000000000E+00 -0.19314621889E+03  0.19314621889E+03  0.00000000000E+00 0. -1.
         25    1    1    2    0    0 -0.58109750219E+02  0.25206783907E+02  0.15518834185E+03  0.20909458738E+03  0.12500000000E+03 0.  0.
         25    1    1    2    0    0 -0.52436681183E+01  0.38559267656E+02 -0.71227940577E+02  0.14903936626E+03  0.12500000000E+03 0.  0.
         25    1    1    2    0    0  0.63353418338E+02 -0.63766051564E+02  0.49653189281E+02  0.16177207470E+03  0.12500000000E+03 0.  0.
</event>
<event>
 5    0  0.5771634E-005  0.2755239E+03  0.7546771E-02  0.1098159E+00
         21   -1    0    0  502  501  0.00000000000E+00  0.00000000000E+00  0.48045190021E+03  0.48045190021E+03  0.00000000000E+00 0. -1.
         21   -1    0    0  501  502 -0.00000000000E+00 -0.00000000000E+00 -0.15800424577E+03  0.15800424577E+03  0.00000000000E+00 0. -1.
         25    1    1    2    0    0 -0.50962314668E+02  0.16202135790E+03  0.10278089748E+03  0.23459963943E+03  0.12500000000E+03 0.  0.
         25    1    1    2    0    0  0.35758938402E+02 -0.94638988547E+02  0.25496361787E+02  0.16281985227E+03  0.12500000000E+03 0.  0.
         25    1    1    2    0    0  0.15203376266E+02 -0.67382369356E+02  0.19417039517E+03  0.24103665429E+03  0.12500000000E+03 0.  0.
</event>
<event>
 5    0  0.5771634E-005  0.2597710E+03  0.7546771E-02  0.1107281E+00
         21   -1    0    0  502  501  0.00000000000E+00  0.00000000000E+00  0.45932692074E+02  0.45932692074E+02  0.00000000000E+00 0.  1.
         21   -1    0    0  501  502 -0.00000000000E+00 -0.00000000000E+00 -0.14691274411E+04  0.14691274411E+04  0.00000000000E+00 0.  1.
         25    1    1    2    0    0 -0.11619505524E+03 -0.11182988485E+02 -0.27231831027E+03  0.32157209487E+03  0.12500000000E+03 0.  0.
         25    1    1    2    0    0  0.73639252975E+02 -0.60032921058E+02 -0.44619333472E+03  0.47301182135E+03  0.12500000000E+03 0.  0.
         25    1    1    2    0    0  0.42555802261E+02  0.71215909542E+02 -0.70468310405E+03  0.72047621697E+03  0.12500000000E+03 0.  0.
</event>
<event>
 5    0  0.5771634E-005  0.4009163E+03  0.7546771E-02  0.1043463E+00
         21   -1    0    0  502  501  0.00000000000E+00  0.00000000000E+00  0.18136888642E+03  0.18136888642E+03  0.00000000000E+00 0. -1.
         21   -1    0    0  501  502 -0.00000000000E+00 -0.00000000000E+00 -0.88622625393E+03  0.88622625393E+03  0.00000000000E+00 0. -1.
         25    1    1    2    0    0  0.15710333609E+03  0.53873502531E+01  0.83556118008E+02  0.21752495630E+03  0.12500000000E+03 0.  0.
         25    1    1    2    0    0 -0.72320404927E+02 -0.55093947259E+02 -0.45817523890E+03  0.48354434495E+03  0.12500000000E+03 0.  0.
         25    1    1    2    0    0 -0.84782931168E+02  0.49706597006E+02 -0.33023824662E+03  0.36652583911E+03  0.12500000000E+03 0.  0.
</event>
<event>
 5    0  0.5771634E-005  0.2695628E+03  0.7546771E-02  0.1101530E+00
         21   -1    0    0  502  501  0.00000000000E+00  0.00000000000E+00  0.83311057575E+03  0.83311057575E+03  0.00000000000E+00 0.  1.
         21   -1    0    0  501  502 -0.00000000000E+00 -0.00000000000E+00 -0.87220246476E+02  0.87220246476E+02  0.00000000000E+00 0.  1.
         25    1    1    2    0    0 -0.25710133909E+02 -0.11277535248E+03  0.14755120553E+03  0.22533452768E+03  0.12500000000E+03 0.  0.
         25    1    1    2    0    0 -0.72384294337E+02  0.20361672495E+02  0.14441816918E+03  0.20526980139E+03  0.12500000000E+03 0.  0.
         25    1    1    2    0    0  0.98094428246E+02  0.92413679987E+02  0.45392095457E+03  0.48972649316E+03  0.12500000000E+03 0.  0.
</event>
<event>
 5    0  0.5771634E-005  0.3041584E+03  0.7546771E-02  0.1083180E+00
         21   -1    0    0  502  501  0.00000000000E+00  0.00000000000E+00  0.65747473386E+03  0.65747473386E+03  0.00000000000E+00 0.  1.
         21   -1    0    0  501  502 -0.00000000000E+00 -0.00000000000E+00 -0.14070855476E+03  0.14070855476E+03  0.00000000000E+00 0.  1.
         25    1    1    2    0    0 -0.50205187647E+02 -0.11274831499E+03  0.15396347816E+02  0.17633715129E+03  0.12500000000E+03 0.  0.
         25    1    1    2    0    0  0.11282188903E+03  0.51380917530E+02  0.12565731325E+03  0.21629502469E+03  0.12500000000E+03 0.  0.
         25    1    1    2    0    0 -0.62616701385E+02  0.61367397456E+02  0.37571251802E+03  0.40555111264E+03  0.12500000000E+03 0.  0.
</event>
<event>
 5    0  0.5771634E-005  0.3077183E+03  0.7546771E-02  0.1081445E+00
         21   -1    0    0  502  501  0.00000000000E+00  0.00000000000E+00  0.42270184635E+03  0.42270184635E+03  0.00000000000E+00 0.  1.
         21   -1    0    0  501  502 -0.00000000000E+00 -0.00000000000E+00 -0.22401269858E+03  0.22401269858E+03  0.00000000000E+00 0.  1.
         25    1    1    2    0    0  0.40628816237E+02  0.16102783650E+01 -0.87387769676E+01  0.13173708638E+03  0.12500000000E+03 0.  0.
         25    1    1    2    0    0 -0.16966264000E+03 -0.25107405049E+02 -0.32101577204E+02  0.21464227090E+03  0.12500000000E+03 0.  0.
         25    1    1    2    0    0  0.12903382376E+03  0.23497126684E+02  0.23952950194E+03  0.30033518764E+03  0.12500000000E+03 0.  0.
</event>
<event>
 5    0  0.5771634E-005  0.5711017E+03  0.7546771E-02  0.9967244E-01
         21   -1    0    0  502  501  0.00000000000E+00  0.00000000000E+00  0.89425966919E+03  0.89425966919E+03  0.00000000000E+00 0. -1.
         21   -1    0    0  501  502 -0.00000000000E+00 -0.00000000000E+00 -0.36472314504E+03  0.36472314504E+03  0.00000000000E+00 0. -1.
         25    1    1    2    0    0  0.16733063585E+02  0.14876212448E+03  0.14077271750E+03  0.24052468291E+03  0.12500000000E+03 0.  0.
         25    1    1    2    0    0  0.86509744352E+02  0.12452197657E+03 -0.24226554032E+03  0.31194110108E+03  0.12500000000E+03 0.  0.
         25    1    1    2    0    0 -0.10324280794E+03 -0.27328410105E+03  0.63102934697E+03  0.70651703024E+03  0.12500000000E+03 0.  0.
</event>
<event>
 5    0  0.5771634E-005  0.2204946E+03  0.7546771E-02  0.1133515E+00
         21   -1    0    0  502  501  0.00000000000E+00  0.00000000000E+00  0.17675130685E+03  0.17675130685E+03  0.00000000000E+00 0. -1.
         21   -1    0    0  501  502 -0.00000000000E+00 -0.00000000000E+00 -0.27506378667E+03  0.27506378667E+03  0.00000000000E+00 0. -1.
         25    1    1    2    0    0  0.69325240762E+02  0.44313578606E+01 -0.11349557175E+03  0.18257018033E+03  0.12500000000E+03 0.  0.
         25    1    1    2    0    0 -0.27253745683E+02  0.30974578273E+02  0.16617391017E+02  0.13267753705E+03  0.12500000000E+03 0.  0.
         25    1    1    2    0    0 -0.42071495079E+02 -0.35405936134E+02 -0.14342990913E+01  0.13656737614E+03  0.12500000000E+03 0.  0.
</event>
<event>
 5    0  0.5771634E-005  0.4140337E+03  0.7546771E-02  0.1039026E+00
         21   -1    0    0  502  501  0.00000000000E+00  0.00000000000E+00  0.82239017597E+02  0.82239017597E+02  0.00000000000E+00 0.  1.
         21   -1    0    0  501  502 -0.00000000000E+00 -0.00000000000E+00 -0.20844592033E+04  0.20844592033E+04  0.00000000000E+00 0.  1.
         25    1    1    2    0    0 -0.28444567828E+03 -0.84496920576E+02 -0.13371747263E+04  0.13753946060E+04  0.12500000000E+03 0.  0.
         25    1    1    2    0    0  0.23323961304E+03  0.11735963373E+03 -0.46309423942E+03  0.54612752660E+03  0.12500000000E+03 0.  0.
         25    1    1    2    0    0  0.51206065240E+02 -0.32862713156E+02 -0.20195121993E+03  0.24517608828E+03  0.12500000000E+03 0.  0.
</event>
<event>
 5    0  0.5771634E-005  0.3739152E+03  0.7546771E-02  0.1053206E+00
         21   -1    0    0  502  501  0.00000000000E+00  0.00000000000E+00  0.15891843459E+03  0.15891843459E+03  0.00000000000E+00 0. -1.
         21   -1    0    0  501  502 -0.00000000000E+00 -0.00000000000E+00 -0.87977590277E+03  0.87977590277E+03  0.00000000000E+00 0. -1.
         25    1    1    2    0    0  0.59580913662E+01 -0.77928460886E+02 -0.65359480906E+02  0.16126129608E+03  0.12500000000E+03 0.  0.
         25    1    1    2    0    0  0.23491740447E+03  0.33617314514E+02 -0.48403634083E+03  0.55338276989E+03  0.12500000000E+03 0.  0.
         25    1    1    2    0    0 -0.24087549584E+03  0.44311146371E+02 -0.17146164644E+03  0.32405027139E+03  0.12500000000E+03 0.  0.
</event>
<event>
 5    0  0.5771634E-005  0.2406556E+03  0.7546771E-02  0.1119357E+00
         21   -1    0    0  502  501  0.00000000000E+00  0.00000000000E+00  0.18676531717E+03  0.18676531717E+03  0.00000000000E+00 0. -1.
         21   -1    0    0  501  502 -0.00000000000E+00 -0.00000000000E+00 -0.31009580695E+03  0.31009580695E+03  0.00000000000E+00 0. -1.
         25    1    1    2    0    0  0.51568250916E+02 -0.45559301767E+02  0.59020390166E+02  0.15441289109E+03  0.12500000000E+03 0.  0.
         25    1    1    2    0    0 -0.21171119005E+02  0.42557447476E+02 -0.19894249696E+02  0.13520404501E+03  0.12500000000E+03 0.  0.
         25    1    1    2    0    0 -0.30397131911E+02  0.30018542911E+01 -0.16245663025E+03  0.20724418803E+03  0.12500000000E+03 0.  0.
</event>
<event>
 5    0  0.5771634E-005  0.2899521E+03  0.7546771E-02  0.1090374E+00
         21   -1    0    0  502  501  0.00000000000E+00  0.00000000000E+00  0.71454021052E+02  0.71454021052E+02  0.00000000000E+00 0.  1.
         21   -1    0    0  501  502 -0.00000000000E+00 -0.00000000000E+00 -0.11765915919E+04  0.11765915919E+04  0.00000000000E+00 0.  1.
         25    1    1    2    0    0 -0.21955360552E+02 -0.19353432782E+03 -0.42284407203E+03  0.48203701429E+03  0.12500000000E+03 0.  0.
         25    1    1    2    0    0 -0.36900441878E+02  0.15679606146E+03 -0.43374452984E+03  0.47927650127E+03  0.12500000000E+03 0.  0.
         25    1    1    2    0    0  0.58855802429E+02  0.36738266356E+02 -0.24854896901E+03  0.28673209742E+03  0.12500000000E+03 0.  0.
</event>
<event>
 5    0  0.5771634E-005  0.2370241E+03  0.7546771E-02  0.1121791E+00
         21   -1    0    0  502  501  0.00000000000E+00  0.00000000000E+00  0.31072900248E+03  0.31072900248E+03  0.00000000000E+00 0.  1.
         21   -1    0    0  501  502 -0.00000000000E+00 -0.00000000000E+00 -0.18080195404E+03  0.18080195404E+03  0.00000000000E+00 0.  1.
         25    1    1    2    0    0  0.32349952499E+02 -0.75057640218E+02 -0.56184238048E+02  0.15956765771E+03  0.12500000000E+03 0.  0.
         25    1    1    2    0    0 -0.36057654615E+02  0.32109285693E+02  0.13497316900E+03  0.19019441904E+03  0.12500000000E+03 0.  0.
         25    1    1    2    0    0  0.37077021168E+01  0.42948354525E+02  0.51138117477E+02  0.14176887977E+03  0.12500000000E+03 0.  0.
</event>
<event>
 5    0  0.5771634E-005  0.3541263E+03  0.7546771E-02  0.1060934E+00
         21   -1    0    0  502  501  0.00000000000E+00  0.00000000000E+00  0.33212351554E+03  0.33212351554E+03  0.00000000000E+00 0.  1.
         21   -1    0    0  501  502 -0.00000000000E+00 -0.00000000000E+00 -0.37758673145E+03  0.37758673145E+03  0.00000000000E+00 0.  1.
         25    1    1    2    0    0 -0.11255263646E+02 -0.30060743692E+02  0.76856114905E+02  0.15020716251E+03  0.12500000000E+03 0.  0.
         25    1    1    2    0    0 -0.32185360270E+02 -0.21879212836E+03 -0.11156169688E+03  0.27744712120E+03  0.12500000000E+03 0.  0.
         25    1    1    2    0    0  0.43440623916E+02  0.24885287206E+03 -0.10757633930E+02  0.28205596328E+03  0.12500000000E+03 0.  0.
</event>
<event>
 5    0  0.5771634E-005  0.4378230E+03  0.7546771E-02  0.1031417E+00
         21   -1    0    0  502  501  0.00000000000E+00  0.00000000000E+00  0.20013708812E+03  0.20013708812E+03  0.00000000000E+00 0. -1.
         21   -1    0    0  501  502 -0.00000000000E+00 -0.00000000000E+00 -0.95778839979E+03  0.95778839979E+03  0.00000000000E+00 0. -1.
         25    1    1    2    0    0 -0.12977775347E+03 -0.75166849908E+02 -0.10617357051E+03  0.22223894280E+03  0.12500000000E+03 0.  0.
         25    1    1    2    0    0 -0.63899618794E+02  0.26256341209E+03 -0.10875757195E+03  0.31697936227E+03  0.12500000000E+03 0.  0.
         25    1    1    2    0    0  0.19367737226E+03 -0.18739656218E+03 -0.54272016920E+03  0.61870718284E+03  0.12500000000E+03 0.  0.
</event>
<event>
 5    0  0.5771634E-005  0.2552317E+03  0.7546771E-02  0.1110042E+00
         21   -1    0    0  502  501  0.00000000000E+00  0.00000000000E+00  0.50224568360E+03  0.50224568360E+03  0.00000000000E+00 0. -1.
         21   -1    0    0  501  502 -0.00000000000E+00 -0.00000000000E+00 -0.12970390624E+03  0.12970390624E+03  0.00000000000E+00 0. -1.
         25    1    1    2    0    0 -0.73341587994E+02  0.95577353531E+02  0.21227296000E+03  0.27422404815E+03  0.12500000000E+03 0.  0.
         25    1    1    2    0    0 -0.20260822639E+02 -0.42678885929E+01  0.11532471437E+03  0.17132864778E+03  0.12500000000E+03 0.  0.
         25    1    1    2    0    0  0.93602410633E+02 -0.91309464938E+02  0.44944102998E+02  0.18639689391E+03  0.12500000000E+03 0.  0.
</event>
<event>
 5    0  0.5771634E-005  0.3390335E+03  0.7546771E-02  0.1067208E+00
         21   -1    0    0  502  501  0.00000000000E+00  0.00000000000E+00  0.61586999072E+03  0.61586999072E+03  0.00000000000E+00 0. -1.
         21   -1    0    0  501  502 -0.00000000000E+00 -0.00000000000E+00 -0.18663630665E+03  0.18663630665E+03  0.00000000000E+00 0. -1.
         25    1    1    2    0    0  0.97836962622E+02 -0.18521567255E+02 -0.23530226633E+02  0.16153572755E+03  0.12500000000E+03 0.  0.
         25    1    1    2    0    0 -0.16148757393E+03  0.46289665664E+02  0.45180845057E+03  0.49797273588E+03  0.12500000000E+03 0.  0.
         25    1    1    2    0    0  0.63650611303E+02 -0.27768098409E+02  0.95546013777E+00  0.14299783394E+03  0.12500000000E+03 0.  0.
</event>
<event>
 5    0  0.5771634E-005  0.4069152E+03  0.7546771E-02  0.1041411E+00
         21   -1    0    0  502  501  0.00000000000E+00  0.00000000000E+00  0.14517994712E+03  0.14517994712E+03  0.00000000000E+00 0.  1.
         21   -1    0    0  501  502 -0.00000000000E+00 -0.00000000000E+00 -0.11405155086E+04  0.11405155086E+04  0.00000000000E+00 0. -1.
         25    1    1    2    0    0  0.17616261335E+03  0.99943777824E+02 -0.45417824624E+03  0.51276203489E+03  0.12500000000E+03 0.  0.
         25    1    1    2    0    0  0.52679054860E+02  0.43432218060E+02  0.13934356338E+02  0.14311047017E+03  0.12500000000E+03 0.  0.
         25    1    1    2    0    0 -0.22884166821E+03 -0.14337599588E+03 -0.55509167159E+03  0.62982295066E+03  0.12500000000E+03 0.  0.
</event>
<event>
 5    0  0.5771634E-005  0.3250659E+03  0.7546771E-02  0.1073341E+00
         21   -1    0    0  502  501  0.00000000000E+00  0.00000000000E+00  0.11752261849E+03  0.11752261849E+03  0.00000000000E+00 0. -1.
         21   -1    0    0  501  502 -0.00000000000E+00 -0.00000000000E+00 -0.89912760044E+03  0.89912760044E+03  0.00000000000E+00 0. -1.
         25    1    1    2    0    0 -0.74090395994E+02  0.80202673128E+02 -0.19719476089E+03  0.25774527983E+03  0.12500000000E+03 0.  0.
         25    1    1    2    0    0  0.27339729470E+02  0.16048538302E+03 -0.29655592276E+03  0.36065694821E+03  0.12500000000E+03 0.  0.
         25    1    1    2    0    0  0.46750666524E+02 -0.24068805615E+03 -0.28785429831E+03  0.39824799089E+03  0.12500000000E+03 0.  0.
</event>
<event>
 5    0  0.5771634E-005  0.3125322E+03  0.7546771E-02  0.1079138E+00
         21   -1    0    0  502  501  0.00000000000E+00  0.00000000000E+00  0.13183490827E+03  0.13183490827E+03  0.00000000000E+00 0.  1.
         21   -1    0    0  501  502 -0.00000000000E+00 -0.00000000000E+00 -0.74089940654E+03  0.74089940654E+03  0.00000000000E+00 0.  1.
         25    1    1    2    0    0 -0.28304900572E+02  0.90850696356E+02 -0.15559774998E+02  0.15786742230E+03  0.12500000000E+03 0.  0.
         25    1    1    2    0    0  0.13981231247E+03 -0.50574162595E+02 -0.17176062687E+03  0.25929122928E+03  0.12500000000E+03 0.  0.
         25    1    1    2    0    0 -0.11150741189E+03 -0.40276533760E+02 -0.42174409640E+03  0.45557566323E+03  0.12500000000E+03 0.  0.
</event>
<event>
 5    0  0.6759541E-005  0.3127593E+03  0.7546771E-02  0.1079031E+00
         21   -1    0    0  502  501  0.00000000000E+00  0.00000000000E+00  0.27253497554E+03  0.27253497554E+03  0.00000000000E+00 0.  1.
         21   -1    0    0  501  502 -0.00000000000E+00 -0.00000000000E+00 -0.35892037836E+03  0.35892037836E+03  0.00000000000E+00 0.  1.
         25    1    1    2    0    0 -0.20524969089E+03 -0.32944254299E+02 -0.79587682999E+02  0.25528799186E+03  0.12500000000E+03 0.  0.
         25    1    1    2    0    0  0.13616488431E+03 -0.26939542196E+02 -0.82009567040E+02  0.20400290130E+03  0.12500000000E+03 0.  0.
         25    1    1    2    0    0  0.69084806584E+02  0.59883796495E+02  0.75211847220E+02  0.17216446075E+03  0.12500000000E+03 0.  0.
</event>
<event>
 5    0  0.5771634E-005  0.3195869E+03  0.7546771E-02  0.1075840E+00
         21   -1    0    0  502  501  0.00000000000E+00  0.00000000000E+00  0.11638159416E+03  0.11638159416E+03  0.00000000000E+00 0.  1.
         21   -1    0    0  501  502 -0.00000000000E+00 -0.00000000000E+00 -0.87759423085E+03  0.87759423085E+03  0.00000000000E+00 0.  1.
         25    1    1    2    0    0  0.18737990835E+02 -0.16047704607E+03 -0.16046881149E+03  0.25976765403E+03  0.12500000000E+03 0.  0.
         25    1    1    2    0    0 -0.63941385197E+02 -0.69281755327E+02 -0.21542606270E+03  0.26631156725E+03  0.12500000000E+03 0.  0.
         25    1    1    2    0    0  0.45203394362E+02  0.22975880140E+03 -0.38531776250E+03  0.46789660373E+03  0.12500000000E+03 0.  0.
</event>
<event>
 5    0  0.5771634E-005  0.2704643E+03  0.7546771E-02  0.1101014E+00
         21   -1    0    0  502  501  0.00000000000E+00  0.00000000000E+00  0.22732178780E+04  0.22732178780E+04  0.00000000000E+00 0. -1.
         21   -1    0    0  501  502 -0.00000000000E+00 -0.00000000000E+00 -0.32179468605E+02  0.32179468605E+02  0.00000000000E+00 0. -1.
         25    1    1    2    0    0  0.29488685337E+02  0.99940463689E+02  0.30918834548E+03  0.34939964486E+03  0.12500000000E+03 0.  0.
         25    1    1    2    0    0 -0.10220825467E+02  0.18776587863E+02  0.62953480093E+03  0.64218073088E+03  0.12500000000E+03 0.  0.
         25    1    1    2    0    0 -0.19267859870E+02 -0.11871705155E+03  0.13023152630E+04  0.13138169709E+04  0.12500000000E+03 0.  0.
</event>
<event>
 5    0  0.5771634E-005  0.2382051E+03  0.7546771E-02  0.1120994E+00
         21   -1    0    0  502  501  0.00000000000E+00  0.00000000000E+00  0.10382536544E+04  0.10382536544E+04  0.00000000000E+00 0. -1.
         21   -1    0    0  501  502 -0.00000000000E+00 -0.00000000000E+00 -0.54651070090E+02  0.54651070090E+02  0.00000000000E+00 0. -1.
         25    1    1    2    0    0 -0.10365689668E+03 -0.69991949840E+02  0.32037650698E+03  0.36593678620E+03  0.12500000000E+03 0.  0.
         25    1    1    2    0    0  0.93821753680E+02  0.42123634749E+02  0.44776791596E+03  0.47612816408E+03  0.12500000000E+03 0.  0.
         25    1    1    2    0    0  0.98351429985E+01  0.27868315091E+02  0.21545816138E+03  0.25083977422E+03  0.12500000000E+03 0.  0.
</event>
<event>
 5    0  0.5771634E-005  0.3813737E+03  0.7546771E-02  0.1050427E+00
         21   -1    0    0  502  501  0.00000000000E+00  0.00000000000E+00  0.11232224472E+03  0.11232224472E+03  0.00000000000E+00 0.  1.
         21   -1    0    0  501  502 -0.00000000000E+00 -0.00000000000E+00 -0.12948984456E+04  0.12948984456E+04  0.00000000000E+00 0. -1.
         25    1    1    2    0    0  0.17016431831E+03  0.75463122199E+02 -0.62873685039E+03  0.66752198845E+03  0.12500000000E+03 0.  0.
         25    1    1    2    0    0 -0.23224961940E+03 -0.17703030774E+03 -0.36406667099E+03  0.48316576503E+03  0.12500000000E+03 0.  0.
         25    1    1    2    0    0  0.62085301095E+02  0.10156718554E+03 -0.18977267949E+03  0.25653293682E+03  0.12500000000E+03 0.  0.
</event>
<event>
 5    0  0.5771634E-005  0.4603472E+03  0.7546771E-02  0.1024681E+00
         21   -1    0    0  502  501  0.00000000000E+00  0.00000000000E+00  0.15904639983E+04  0.15904639983E+04  0.00000000000E+00 0. -1.
         21   -1    0    0  501  502 -0.00000000000E+00 -0.00000000000E+00 -0.13324384371E+03  0.13324384371E+03  0.00000000000E+00 0. -1.
         25    1    1    2    0    0  0.30492874080E+02 -0.17220395712E+02  0.44685058478E+02  0.13728842577E+03  0.12500000000E+03 0.  0.
         25    1    1    2    0    0  0.26771816276E+03  0.19381458180E+03  0.71592896485E+03  0.79838361049E+03  0.12500000000E+03 0.  0.
         25    1    1    2    0    0 -0.29821103684E+03 -0.17659418609E+03  0.69660613131E+03  0.78803580580E+03  0.12500000000E+03 0.  0.
</event>
<event>
 5    0  0.5771634E-005  0.3246506E+03  0.7546771E-02  0.1073529E+00
         21   -1    0    0  502  501  0.00000000000E+00  0.00000000000E+00  0.63784672124E+02  0.63784672124E+02  0.00000000000E+00 0.  1.
         21   -1    0    0  501  502 -0.00000000000E+00 -0.00000000000E+00 -0.16524038091E+04  0.16524038091E+04  0.00000000000E+00 0.  1.
         25    1    1    2    0    0  0.25880085688E+02  0.38005836542E+02 -0.66758901727E+02  0.14898313128E+03  0.12500000000E+03 0.  0.
         25    1    1    2    0    0 -0.34187050780E+02 -0.45028912350E+02 -0.13355863656E+04  0.13426139793E+04  0.12500000000E+03 0.  0.
         25    1    1    2    0    0  0.83069650928E+01  0.70230758084E+01 -0.18627386968E+03  0.22459137069E+03  0.12500000000E+03 0.  0.
</event>
<event>
 5    0  0.5771634E-005  0.3196428E+03  0.7546771E-02  0.1075814E+00
         21   -1    0    0  502  501  0.00000000000E+00  0.00000000000E+00  0.93777753840E+02  0.93777753840E+02  0.00000000000E+00 0. -1.
         21   -1    0    0  501  502 -0.00000000000E+00 -0.00000000000E+00 -0.10895070465E+04  0.10895070465E+04  0.00000000000E+00 0. -1.
         25    1    1    2    0    0  0.11097741684E+03  0.15288982038E+02 -0.65165126312E+03  0.67292206737E+03  0.12500000000E+03 0.  0.
         25    1    1    2    0    0 -0.11241783787E+03  0.84256616370E+02 -0.85917226942E+02  0.20674553818E+03  0.12500000000E+03 0.  0.
         25    1    1    2    0    0  0.14404210274E+01 -0.99545598408E+02 -0.25816080259E+03  0.30361719479E+03  0.12500000000E+03 0.  0.
</event>
<event>
 5    0  0.5771634E-005  0.2225761E+03  0.7546771E-02  0.1131977E+00
         21   -1    0    0  502  501  0.00000000000E+00  0.00000000000E+00  0.79074057935E+02  0.79074057935E+02  0.00000000000E+00 0.  1.
         21   -1    0    0  501  502 -0.00000000000E+00 -0.00000000000E+00 -0.62650309783E+03  0.62650309783E+03  0.00000000000E+00 0.  1.
         25    1    1    2    0    0  0.97455091670E+01 -0.43822064365E+02 -0.15502378534E+03  0.20413897790E+03  0.12500000000E+03 0.  0.
         25    1    1    2    0    0 -0.54998946488E+02  0.48448237172E+02 -0.31696071909E+03  0.34851285951E+03  0.12500000000E+03 0.  0.
         25    1    1    2    0    0  0.45253437321E+02 -0.46261728074E+01 -0.75444535465E+02  0.15292531836E+03  0.12500000000E+03 0.  0.
</event>
<event>
 5    0  0.5771634E-005  0.2874818E+03  0.7546771E-02  0.1091671E+00
         21   -1    0    0  502  501  0.00000000000E+00  0.00000000000E+00  0.28900256600E+03  0.28900256600E+03  0.00000000000E+00 0. -1.
         21   -1    0    0  501  502 -0.00000000000E+00 -0.00000000000E+00 -0.28596906440E+03  0.28596906440E+03  0.00000000000E+00 0. -1.
         25    1    1    2    0    0  0.69793128981E+02  0.12641322467E+03 -0.33672383142E+02  0.19393352885E+03  0.12500000000E+03 0.  0.
         25    1    1    2    0    0 -0.14813090905E+03 -0.32285099025E+02  0.57702477967E+02  0.20479177180E+03  0.12500000000E+03 0.  0.
         25    1    1    2    0    0  0.78337780071E+02 -0.94128125645E+02 -0.20996593222E+02  0.17624632975E+03  0.12500000000E+03 0.  0.
</event>
<event>
 5    0  0.5771634E-005  0.2763753E+03  0.7546771E-02  0.1097685E+00
         21   -1    0    0  502  501  0.00000000000E+00  0.00000000000E+00  0.27212476737E+03  0.27212476737E+03  0.00000000000E+00 0. -1.
         21   -1    0    0  501  502 -0.00000000000E+00 -0.00000000000E+00 -0.28069232233E+03  0.28069232233E+03  0.00000000000E+00 0. -1.
         25    1    1    2    0    0  0.12886488006E+03 -0.63371153763E+02 -0.11094136968E+03  0.22035209994E+03  0.12500000000E+03 0.  0.
         25    1    1    2    0    0 -0.87741488505E+02  0.88829291491E+02  0.88835312905E+02  0.19775217989E+03  0.12500000000E+03 0.  0.
         25    1    1    2    0    0 -0.41123391560E+02 -0.25458137728E+02  0.13538501821E+02  0.13471280986E+03  0.12500000000E+03 0.  0.
</event>
<event>
 5    0  0.5771634E-005  0.5151222E+03  0.7546771E-02  0.1009905E+00
         21   -1    0    0  502  501  0.00000000000E+00  0.00000000000E+00  0.12195916280E+04  0.12195916280E+04  0.00000000000E+00 0. -1.
         21   -1    0    0  501  502 -0.00000000000E+00 -0.00000000000E+00 -0.21757353218E+03  0.21757353218E+03  0.00000000000E+00 0. -1.
         25    1    1    2    0    0  0.23889854550E+03  0.16404251473E+03  0.21077500173E+03  0.37951753982E+03  0.12500000000E+03 0.  0.
         25    1    1    2    0    0 -0.39039543901E+03  0.46671016872E+02  0.49607715142E+03  0.64521649295E+03  0.12500000000E+03 0.  0.
         25    1    1    2    0    0  0.15149689351E+03 -0.21071353160E+03  0.29516594269E+03  0.41243112742E+03  0.12500000000E+03 0.  0.
</event>
<event>
 5    0  0.5771634E-005  0.2344559E+03  0.7546771E-02  0.1123542E+00
         21   -1    0    0  502  501  0.00000000000E+00  0.00000000000E+00  0.14031905600E+03  0.14031905600E+03  0.00000000000E+00 0.  1.
         21   -1    0    0  501  502 -0.00000000000E+00 -0.00000000000E+00 -0.39174693694E+03  0.39174693694E+03  0.00000000000E+00 0.  1.
         25    1    1    2    0    0  0.43042484079E+02  0.85758494965E+02 -0.45187387066E+02  0.16393314138E+03  0.12500000000E+03 0.  0.
         25    1    1    2    0    0 -0.77577351799E+02  0.40729915637E+01 -0.10079340378E+03  0.17837921689E+03  0.12500000000E+03 0.  0.
         25    1    1    2    0    0  0.34534867720E+02 -0.89831486529E+02 -0.10544709009E+03  0.18975363467E+03  0.12500000000E+03 0.  0.
</event>
<event>
 5    0  0.5771634E-005  0.3447392E+03  0.7546771E-02  0.1064795E+00
         21   -1    0    0  502  501  0.00000000000E+00  0.00000000000E+00  0.71096507792E+03  0.71096507792E+03  0.00000000000E+00 0. -1.
         21   -1    0    0  501  502 -0.00000000000E+00 -0.00000000000E+00 -0.16716026588E+03  0.16716026588E+03  0.00000000000E+00 0. -1.
         25    1    1    2    0    0 -0.29769166091E+02  0.14630869391E+03  0.14530340404E+03  0.24296196490E+03  0.12500000000E+03 0.  0.
         25    1    1    2    0    0  0.20666897669E+03 -0.13571691538E+03  0.20687414528E+03  0.34576445600E+03  0.12500000000E+03 0.  0.
         25    1    1    2    0    0 -0.17689981060E+03 -0.10591778527E+02  0.19162726273E+03  0.28939892291E+03  0.12500000000E+03 0.  0.
</event>
<event>
 5    0  0.5771634E-005  0.3650625E+03  0.7546771E-02  0.1056597E+00
         21   -1    0    0  502  501  0.00000000000E+00  0.00000000000E+00  0.10639775970E+04  0.10639775970E+04  0.00000000000E+00 0. -1.
         21   -1    0    0  501  502 -0.00000000000E+00 -0.00000000000E+00 -0.12525696300E+03  0.12525696300E+03  0.00000000000E+00 0. -1.
         25    1    1    2    0    0  0.97301966876E+02  0.18165311210E+02  0.48674776316E+03  0.51219726301E+03  0.12500000000E+03 0.  0.
         25    1    1    2    0    0  0.24523414933E+02  0.28429118417E+02 -0.52888982451E+02  0.14082562664E+03  0.12500000000E+03 0.  0.
         25    1    1    2    0    0 -0.12182538181E+03 -0.46594429628E+02  0.50486185330E+03  0.53621167038E+03  0.12500000000E+03 0.  0.
</event>
<event>
 5    0  0.5771634E-005  0.3358975E+03  0.7546771E-02  0.1068557E+00
         21   -1    0    0  502  501  0.00000000000E+00  0.00000000000E+00  0.29042826597E+03  0.29042826597E+03  0.00000000000E+00 0.  1.
         21   -1    0    0  501  502 -0.00000000000E+00 -0.00000000000E+00 -0.38848534952E+03  0.38848534952E+03  0.00000000000E+00 0.  1.
         25    1    1    2    0    0 -0.10523249426E+03 -0.93552848720E+02 -0.23605528808E+02  0.18975835777E+03  0.12500000000E+03 0.  0.
         25    1    1    2    0    0 -0.45985778160E+02 -0.15565186267E+02 -0.19320773733E+03  0.23518332547E+03  0.12500000000E+03 0.  0.
         25    1    1    2    0    0  0.15121827242E+03  0.10911803499E+03  0.11875618259E+03  0.25397193226E+03  0.12500000000E+03 0.  0.
</event>
<event>
 5    0  0.6468258E-005  0.3301179E+03  0.7546771E-02  0.1071085E+00
         21   -1    0    0  502  501  0.00000000000E+00  0.00000000000E+00  0.45214106021E+03  0.45214106021E+03  0.00000000000E+00 0. -1.
         21   -1    0    0  501  502 -0.00000000000E+00 -0.00000000000E+00 -0.24102622853E+03  0.24102622853E+03  0.00000000000E+00 0. -1.
         25    1    1    2    0    0 -0.84093772148E+02  0.17791770059E+03  0.19809104058E+03  0.30592732970E+03  0.12500000000E+03 0.  0.
         25    1    1    2    0    0  0.13016704220E+03 -0.44191085501E+02 -0.42271321580E+02  0.19054704286E+03  0.12500000000E+03 0.  0.
         25    1    1    2    0    0 -0.46073270055E+02 -0.13372661508E+03  0.55295112678E+02  0.19669291620E+03  0.12500000000E+03 0.  0.
</event>
<event>
 5    0  0.5771634E-005  0.2456549E+03  0.7546771E-02  0.1116082E+00
         21   -1    0    0  502  501  0.00000000000E+00  0.00000000000E+00  0.24055881991E+04  0.24055881991E+04  0.00000000000E+00 0.  1.
         21   -1    0    0  501  502 -0.00000000000E+00 -0.00000000000E+00 -0.25085897084E+02  0.25085897084E+02  0.00000000000E+00 0.  1.
         25    1    1    2    0    0 -0.60299449239E+02 -0.19088610531E+02  0.70674194288E+03  0.72049259014E+03  0.12500000000E+03 0.  0.
         25    1    1    2    0    0  0.98308262244E+02  0.86074955326E+02  0.60691713085E+03  0.63328257207E+03  0.12500000000E+03 0.  0.
         25    1    1    2    0    0 -0.38008813005E+02 -0.66986344795E+02  0.10668432283E+04  0.10768989340E+04  0.12500000000E+03 0.  0.
</event>
<event>
 5    0  0.5771634E-005  0.5654293E+03  0.7546771E-02  0.9979844E-01
         21   -1    0    0  502  501  0.00000000000E+00  0.00000000000E+00  0.30901296200E+03  0.30901296200E+03  0.00000000000E+00 0.  1.
         21   -1    0    0  501  502 -0.00000000000E+00 -0.00000000000E+00 -0.10346177845E+04  0.10346177845E+04  0.00000000000E+00 0.  1.
         25    1    1    2    0    0 -0.23052540969E+03  0.23133130835E+03 -0.20111135038E+03  0.40339424139E+03  0.12500000000E+03 0.  0.
         25    1    1    2    0    0 -0.17093941673E+03  0.39961068971E+02 -0.34858084243E+03  0.40981797781E+03  0.12500000000E+03 0.  0.
         25    1    1    2    0    0  0.40146482642E+03 -0.27129237732E+03 -0.17591262972E+03  0.53041852733E+03  0.12500000000E+03 0.  0.
</event>
<event>
 5    0  0.5771634E-005  0.2361514E+03  0.7546771E-02  0.1122384E+00
         21   -1    0    0  502  501  0.00000000000E+00  0.00000000000E+00  0.10392830737E+04  0.10392830737E+04  0.00000000000E+00 0.  1.
         21   -1    0    0  501  502 -0.00000000000E+00 -0.00000000000E+00 -0.53659552889E+02  0.53659552889E+02  0.00000000000E+00 0.  1.
         25    1    1    2    0    0  0.12470578171E+02 -0.38340609199E+02  0.43325597560E+03  0.45272647153E+03  0.12500000000E+03 0.  0.
         25    1    1    2    0    0 -0.58862352263E+01 -0.58242101416E+02  0.38948680327E+03  0.41322119993E+03  0.12500000000E+03 0.  0.
         25    1    1    2    0    0 -0.65843429451E+01  0.96582710615E+02  0.16288074194E+03  0.22699495514E+03  0.12500000000E+03 0.  0.
</event>
<event>
 5    0  0.5771634E-005  0.2733955E+03  0.7546771E-02  0.1099352E+00
         21   -1    0    0  502  501  0.00000000000E+00  0.00000000000E+00  0.70023944632E+02  0.70023944632E+02  0.00000000000E+00 0. -1.
         21   -1    0    0  501  502 -0.00000000000E+00 -0.00000000000E+00 -0.10674222708E+04  0.10674222708E+04  0.00000000000E+00 0. -1.
         25    1    1    2    0    0 -0.32969339621E+02  0.10751317759E+03 -0.17057852291E+03  0.23951637352E+03  0.12500000000E+03 0.  0.
         25    1    1    2    0    0  0.72839425888E+02 -0.15364432037E+03 -0.48817507426E+03  0.53183837984E+03  0.12500000000E+03 0.  0.
         25    1    1    2    0    0 -0.39870086267E+02  0.46131142783E+02 -0.33864472897E+03  0.36609146204E+03  0.12500000000E+03 0.  0.
</event>
<event>
 5    0  0.5771634E-005  0.4609606E+03  0.7546771E-02  0.1024503E+00
         21   -1    0    0  502  501  0.00000000000E+00  0.00000000000E+00  0.79298078434E+03  0.79298078434E+03  0.00000000000E+00 0. -1.
         21   -1    0    0  501  502 -0.00000000000E+00 -0.00000000000E+00 -0.26795684816E+03  0.26795684816E+03  0.00000000000E+00 0. -1.
         25    1    1    2    0    0 -0.42978071831E+02 -0.10264823130E+03 -0.16782174839E+03  0.23700825572E+03  0.12500000000E+03 0.  0.
         25    1    1    2    0    0  0.13104100983E+03  0.20359287376E+02  0.59991352440E+03  0.62698284155E+03  0.12500000000E+03 0.  0.
         25    1    1    2    0    0 -0.88062937997E+02  0.82288943924E+02  0.92932160176E+02  0.19694653522E+03  0.12500000000E+03 0.  0.
</event>
<event>
 5    0  0.5771634E-005  0.3083878E+03  0.7546771E-02  0.1081121E+00
         21   -1    0    0  502  501  0.00000000000E+00  0.00000000000E+00  0.99448257546E+02  0.99448257546E+02  0.00000000000E+00 0.  1.
         21   -1    0    0  501  502 -0.00000000000E+00 -0.00000000000E+00 -0.95630695763E+03  0.95630695763E+03  0.00000000000E+00 0.  1.
         25    1    1    2    0    0  0.83904585014E+02  0.11648395474E+03 -0.32743380059E+03  0.37874316478E+03  0.12500000000E+03 0.  0.
         25    1    1    2    0    0 -0.36335589866E+02 -0.20218006256E+03 -0.42053050875E+03  0.48442539320E+03  0.12500000000E+03 0.  0.
         25    1    1    2    0    0 -0.47568995148E+02  0.85696107823E+02 -0.10889439074E+03  0.19258665720E+03  0.12500000000E+03 0.  0.
</event>
<event>
 5    0  0.5771634E-005  0.2713116E+03  0.7546771E-02  0.1100531E+00
         21   -1    0    0  502  501  0.00000000000E+00  0.00000000000E+00  0.25167518202E+03  0.25167518202E+03  0.00000000000E+00 0.  1.
         21   -1    0    0  501  502 -0.00000000000E+00 -0.00000000000E+00 -0.29248000846E+03  0.29248000846E+03  0.00000000000E+00 0.  1.
         25    1    1    2    0    0  0.95865854640E+02 -0.10970917472E+03 -0.57455047794E+02  0.20038075661E+03  0.12500000000E+03 0.  0.
         25    1    1    2    0    0 -0.87060699859E+01  0.70271203665E+02  0.90617469931E+02  0.16985394778E+03  0.12500000000E+03 0.  0.
         25    1    1    2    0    0 -0.87159784654E+02  0.39437971058E+02 -0.73967248576E+02  0.17392048610E+03  0.12500000000E+03 0.  0.
</event>
<event>
 5    0  0.5771634E-005  0.3885013E+03  0.7546771E-02  0.1047836E+00
         21   -1    0    0  502  501  0.00000000000E+00  0.00000000000E+00  0.21357207767E+03  0.21357207767E+03  0.00000000000E+00 0. -1.
         21   -1    0    0  501  502 -0.00000000000E+00 -0.00000000000E+00 -0.70670882974E+03  0.70670882974E+03  0.00000000000E+00 0. -1.
         25    1    1    2    0    0 -0.11002118534E+03  0.10318700816E+03  0.11492360930E+03  0.22712255689E+03  0.12500000000E+03 0.  0.
         25    1    1    2    0    0  0.10731208968E+03 -0.10601583468E+03 -0.27711483305E+03  0.33937129002E+03  0.12500000000E+03 0.  0.
         25    1    1    2    0    0  0.27090956636E+01  0.28288265256E+01 -0.33094552832E+03  0.35378706049E+03  0.12500000000E+03 0.  0.
</event>
<event>
 5    0  0.5771634E-005  0.4120493E+03  0.7546771E-02  0.1039685E+00
         21   -1    0    0  502  501  0.00000000000E+00  0.00000000000E+00  0.30494147160E+03  0.30494147160E+03  0.00000000000E+00 0. -1.
         21   -1    0    0  501  502 -0.00000000000E+00 -0.00000000000E+00 -0.55677772555E+03  0.55677772555E+03  0.00000000000E+00 0. -1.
         25    1    1    2    0    0  0.13447771941E+03 -0.88100894313E+01  0.20060106618E+03  0.27208025001E+03  0.12500000000E+03 0.  0.
         25    1    1    2    0    0  0.36199171406E+02  0.81187577445E+02 -0.16184664249E+03  0.22298237246E+03  0.12500000000E+03 0.  0.
         25    1    1    2    0    0 -0.17067689081E+03 -0.72377488014E+02 -0.29059067763E+03  0.36665657468E+03  0.12500000000E+03 0.  0.
</event>
<event>
 5    0  0.5771634E-005  0.3253313E+03  0.7546771E-02  0.1073221E+00
         21   -1    0    0  502  501  0.00000000000E+00  0.00000000000E+00  0.17336135327E+03  0.17336135327E+03  0.00000000000E+00 0.  1.
         21   -1    0    0  501  502 -0.00000000000E+00 -0.00000000000E+00 -0.61051941188E+03  0.61051941188E+03  0.00000000000E+00 0.  1.
         25    1    1    2    0    0 -0.65310366336E+02  0.46228843584E+02 -0.16244193813E+02  0.14930312710E+03  0.12500000000E+03 0.  0.
         25    1    1    2    0    0 -0.96742343920E+02  0.12943221869E+03 -0.20069958903E+03  0.28638628700E+03  0.12500000000E+03 0.  0.
         25    1    1    2    0    0  0.16205271026E+03 -0.17566106227E+03 -0.22021427576E+03  0.34819135105E+03  0.12500000000E+03 0.  0.
</event>
<event>
 5    0  0.5771634E-005  0.3083714E+03  0.7546771E-02  0.1081129E+00
         21   -1    0    0  502  501  0.00000000000E+00  0.00000000000E+00  0.19462579341E+04  0.19462579341E+04  0.00000000000E+00 0. -1.
         21   -1    0    0  501  502 -0.00000000000E+00 -0.00000000000E+00 -0.48859369227E+02  0.48859369227E+02  0.00000000000E+00 0. -1.
         25    1    1    2    0    0  0.93898167865E+02  0.12037160307E+03  0.74253860197E+03  0.76830642596E+03  0.12500000000E+03 0.  0.
         25    1    1    2    0    0 -0.12984790052E+03 -0.12748997349E+03  0.10017412556E+04  0.10257800514E+04  0.12500000000E+03 0.  0.
         25    1    1    2    0    0  0.35949732657E+02  0.71183704161E+01  0.15311870729E+03  0.20103082599E+03  0.12500000000E+03 0.  0.
</event>
<event>
 5    0  0.5771634E-005  0.3960789E+03  0.7546771E-02  0.1045146E+00
         21   -1    0    0  502  501  0.00000000000E+00  0.00000000000E+00  0.16135049838E+03  0.16135049838E+03  0.00000000000E+00 0. -1.
         21   -1    0    0  501  502 -0.00000000000E+00 -0.00000000000E+00 -0.97228376041E+03  0.97228376041E+03  0.00000000000E+00 0. -1.
         25    1    1    2    0    0  0.60464776677E+02 -0.21092741918E+03 -0.13756508229E+03  0.28756828275E+03  0.12500000000E+03 0.  0.
         25    1    1    2    0    0 -0.18010936283E+03  0.24108221185E+03 -0.35091387005E+03  0.47887948342E+03  0.12500000000E+03 0.  0.
         25    1    1    2    0    0  0.11964458615E+03 -0.30154792675E+02 -0.32245430970E+03  0.36718649262E+03  0.12500000000E+03 0.  0.
</event>
<event>
 5    0  0.5771634E-005  0.3437732E+03  0.7546771E-02  0.1065200E+00
         21   -1    0    0  502  501  0.00000000000E+00  0.00000000000E+00  0.64230229750E+03  0.64230229750E+03  0.00000000000E+00 0.  1.
         21   -1    0    0  501  502 -0.00000000000E+00 -0.00000000000E+00 -0.18399439502E+03  0.18399439502E+03  0.00000000000E+00 0.  1.
         25    1    1    2    0    0  0.19159964928E+03  0.13184384029E+03  0.13344524819E+03  0.29584769408E+03  0.12500000000E+03 0.  0.
         25    1    1    2    0    0 -0.13501953378E+03 -0.19508508081E+03  0.20266508280E+03  0.33613479297E+03  0.12500000000E+03 0.  0.
         25    1    1    2    0    0 -0.56580115503E+02  0.63241240528E+02  0.12219757149E+03  0.19431420548E+03  0.12500000000E+03 0.  0.
</event>
<event>
 5    0  0.5771634E-005  0.3644361E+03  0.7546771E-02  0.1056841E+00
         21   -1    0    0  502  501  0.00000000000E+00  0.00000000000E+00  0.16480504622E+03  0.16480504622E+03  0.00000000000E+00 0.  1.
         21   -1    0    0  501  502 -0.00000000000E+00 -0.00000000000E+00 -0.80588337272E+03  0.80588337272E+03  0.00000000000E+00 0.  1.
         25    1    1    2    0    0 -0.32461667323E+02 -0.97341167654E+02 -0.18840007058E+03  0.24829146051E+03  0.12500000000E+03 0.  0.
         25    1    1    2    0    0  0.11414359230E+03  0.12829393214E+03  0.31545397176E+02  0.21472821140E+03  0.12500000000E+03 0.  0.
         25    1    1    2    0    0 -0.81681924982E+02 -0.30952764491E+02 -0.48422365309E+03  0.50766874703E+03  0.12500000000E+03 0.  0.
</event>
<event>
 5    0  0.5771634E-005  0.2576171E+03  0.7546771E-02  0.1108583E+00
         21   -1    0    0  502  501  0.00000000000E+00  0.00000000000E+00  0.27914293931E+02  0.27914293931E+02  0.00000000000E+00 0. -1.
         21   -1    0    0  501  502 -0.00000000000E+00 -0.00000000000E+00 -0.23775111838E+04  0.23775111838E+04  0.00000000000E+00 0. -1.
         25    1    1    2    0    0  0.10687702394E+03  0.81146009619E+01 -0.74206044424E+03  0.76011002355E+03  0.12500000000E+03 0.  0.
         25    1    1    2    0    0 -0.37935926969E+01 -0.96556848467E+02 -0.91811063668E+03  0.93160600981E+03  0.12500000000E+03 0.  0.
         25    1    1    2    0    0 -0.10308343124E+03  0.88442247506E+02 -0.68942580899E+03  0.71370944441E+03  0.12500000000E+03 0.  0.
</event>
<event>
 5    0  0.5771634E-005  0.2190374E+03  0.7546771E-02  0.1134603E+00
         21   -1    0    0  502  501  0.00000000000E+00  0.00000000000E+00  0.59599032278E+03  0.59599032278E+03  0.00000000000E+00 0.  1.
         21   -1    0    0  501  502 -0.00000000000E+00 -0.00000000000E+00 -0.80500284558E+02  0.80500284558E+02  0.00000000000E+00 0.  1.
         25    1    1    2    0    0  0.53236208902E+02  0.19855129139E+02  0.30924228635E+03  0.33835500847E+03  0.12500000000E+03 0.  0.
         25    1    1    2    0    0 -0.28859469556E+02 -0.19985961641E+02  0.15146834354E+03  0.19949929008E+03  0.12500000000E+03 0.  0.
         25    1    1    2    0    0 -0.24376739346E+02  0.13083250200E+00  0.54779408332E+02  0.13863630879E+03  0.12500000000E+03 0.  0.
</event>
<event>
 5    0  0.6015757E-005  0.7928126E+03  0.7546771E-02  0.9570479E-01
         21   -1    0    0  502  501  0.00000000000E+00  0.00000000000E+00  0.69496424366E+03  0.69496424366E+03  0.00000000000E+00 0.  1.
         21   -1    0    0  501  502 -0.00000000000E+00 -0.00000000000E+00 -0.90443765291E+03  0.90443765291E+03  0.00000000000E+00 0.  1.
         25    1    1    2    0    0  0.10102745044E+03 -0.29111691818E+03 -0.12479562131E+00  0.33253664666E+03  0.12500000000E+03 0.  0.
         25    1    1    2    0    0  0.39361406807E+03  0.77841157783E+02 -0.49099873760E+03  0.64629408225E+03  0.12500000000E+03 0.  0.
         25    1    1    2    0    0 -0.49464151851E+03  0.21327576040E+03  0.28165012398E+03  0.62057116767E+03  0.12500000000E+03 0.  0.
</event>
<event>
 5    0  0.5771634E-005  0.3733204E+03  0.7546771E-02  0.1053431E+00
         21   -1    0    0  502  501  0.00000000000E+00  0.00000000000E+00  0.56842028255E+02  0.56842028255E+02  0.00000000000E+00 0. -1.
         21   -1    0    0  501  502 -0.00000000000E+00 -0.00000000000E+00 -0.24518498266E+04  0.24518498266E+04  0.00000000000E+00 0. -1.
         25    1    1    2    0    0  0.41433380674E+02  0.16938808024E+01 -0.36117135423E+03  0.38443379324E+03  0.12500000000E+03 0.  0.
         25    1    1    2    0    0  0.15875126427E+03  0.18790888990E+02 -0.23758395192E+03  0.31245190930E+03  0.12500000000E+03 0.  0.
         25    1    1    2    0    0 -0.20018464494E+03 -0.20484769792E+02 -0.17962524922E+04  0.18118061523E+04  0.12500000000E+03 0.  0.
</event>
<event>
 5    0  0.5771634E-005  0.4134544E+03  0.7546771E-02  0.1039218E+00
         21   -1    0    0  502  501  0.00000000000E+00  0.00000000000E+00  0.25186651447E+03  0.25186651447E+03  0.00000000000E+00 0. -1.
         21   -1    0    0  501  502 -0.00000000000E+00 -0.00000000000E+00 -0.67871095024E+03  0.67871095024E+03  0.00000000000E+00 0. -1.
         25    1    1    2    0    0  0.19626864604E+03 -0.45180125756E+02  0.11361123208E+03  0.26285953899E+03  0.12500000000E+03 0.  0.
         25    1    1    2    0    0  0.89664286167E+01  0.38129635829E+01 -0.86194312959E+02  0.15214925277E+03  0.12500000000E+03 0.  0.
         25    1    1    2    0    0 -0.20523507465E+03  0.41367162173E+02 -0.45426135489E+03  0.51556867295E+03  0.12500000000E+03 0.  0.
</event>
<event>
 5    0  0.5771634E-005  0.2182181E+03  0.7546771E-02  0.1135219E+00
         21   -1    0    0  502  501  0.00000000000E+00  0.00000000000E+00  0.58347730077E+03  0.58347730077E+03  0.00000000000E+00 0. -1.
         21   -1    0    0  501  502 -0.00000000000E+00 -0.00000000000E+00 -0.81612634704E+02  0.81612634704E+02  0.00000000000E+00 0. -1.
         25    1    1    2    0    0 -0.26500937804E+02  0.35692554109E+02  0.30953948760E+03  0.33677285001E+03  0.12500000000E+03 0.  0.
         25    1    1    2    0    0  0.52189860031E+02 -0.14151974923E+02  0.10841937979E+03  0.17407992934E+03  0.12500000000E+03 0.  0.
         25    1    1    2    0    0 -0.25688922227E+02 -0.21540579186E+02  0.83905798671E+02  0.15423715612E+03  0.12500000000E+03 0.  0.
</event>
<event>
 5    0  0.5771634E-005  0.4160008E+03  0.7546771E-02  0.1038376E+00
         21   -1    0    0  502  501  0.00000000000E+00  0.00000000000E+00  0.57818858246E+03  0.57818858246E+03  0.00000000000E+00 0.  1.
         21   -1    0    0  501  502 -0.00000000000E+00 -0.00000000000E+00 -0.29930839310E+03  0.29930839310E+03  0.00000000000E+00 0.  1.
         25    1    1    2    0    0  0.14325755313E+03 -0.37507416383E+01 -0.86895369710E+02  0.20907558411E+03  0.12500000000E+03 0.  0.
         25    1    1    2    0    0 -0.27669702848E+03  0.12012842427E+03  0.29602988456E+03  0.44073889826E+03  0.12500000000E+03 0.  0.
         25    1    1    2    0    0  0.13343947534E+03 -0.11637768264E+03  0.69745674517E+02  0.22768249320E+03  0.12500000000E+03 0.  0.
</event>
<event>
 5    0  0.7526083E-005  0.3770837E+03  0.7546771E-02  0.1052017E+00
         21   -1    0    0  502  501  0.00000000000E+00  0.00000000000E+00  0.88263533189E+03  0.88263533189E+03  0.00000000000E+00 0. -1.
         21   -1    0    0  501  502 -0.00000000000E+00 -0.00000000000E+00 -0.16109950516E+03  0.16109950516E+03  0.00000000000E+00 0. -1.
         25    1    1    2    0    0 -0.23356154185E+03  0.69782603440E+02  0.33617429607E+03  0.43365742575E+03  0.12500000000E+03 0.  0.
         25    1    1    2    0    0  0.12181246300E+03 -0.37809947161E+02  0.40070446047E+03  0.43869913710E+03  0.12500000000E+03 0.  0.
         25    1    1    2    0    0  0.11174907885E+03 -0.31972656279E+02 -0.15342929812E+02  0.17137827420E+03  0.12500000000E+03 0.  0.
</event>
<event>
 5    0  0.5771634E-005  0.2972792E+03  0.7546771E-02  0.1086609E+00
         21   -1    0    0  502  501  0.00000000000E+00  0.00000000000E+00  0.10016678680E+03  0.10016678680E+03  0.00000000000E+00 0. -1.
         21   -1    0    0  501  502 -0.00000000000E+00 -0.00000000000E+00 -0.88227789372E+03  0.88227789372E+03  0.00000000000E+00 0. -1.
         25    1    1    2    0    0  0.13822410054E+03 -0.79244664807E+02 -0.27518973813E+03  0.34167237354E+03  0.12500000000E+03 0.  0.
         25    1    1    2    0    0  0.13175713861E+02 -0.61528148519E+02 -0.26032987346E+03  0.29556040924E+03  0.12500000000E+03 0.  0.
         25    1    1    2    0    0 -0.15139981440E+03  0.14077281333E+03 -0.24659149533E+03  0.34521189774E+03  0.12500000000E+03 0.  0.
</event>
<event>
 5    0  0.5771634E-005  0.2611024E+03  0.7546771E-02  0.1106483E+00
         21   -1    0    0  502  501  0.00000000000E+00  0.00000000000E+00  0.20380801367E+02  0.20380801367E+02  0.00000000000E+00 0. -1.
         21   -1    0    0  501  502 -0.00000000000E+00 -0.00000000000E+00 -0.33450327116E+04  0.33450327116E+04  0.00000000000E+00 0. -1.
         25    1    1    2    0    0 -0.11732409497E+03 -0.54427319561E+02 -0.10744770108E+04  0.10894278880E+04  0.12500000000E+03 0.  0.
         25    1    1    2    0    0 -0.26583294700E+02 -0.69035455007E+01 -0.58634600843E+03  0.60015079114E+03  0.12500000000E+03 0.  0.
         25    1    1    2    0    0  0.14390738967E+03  0.61330865061E+02 -0.16638288910E+04  0.16758348339E+04  0.12500000000E+03 0.  0.
</event>
<event>
 5    0  0.5771634E-005  0.3081628E+03  0.7546771E-02  0.1081230E+00
         21   -1    0    0  502  501  0.00000000000E+00  0.00000000000E+00  0.67014354813E+03  0.67014354813E+03  0.00000000000E+00 0.  1.
         21   -1    0    0  501  502 -0.00000000000E+00 -0.00000000000E+00 -0.14170745351E+03  0.14170745351E+03  0.00000000000E+00 0.  1.
         25    1    1    2    0    0  0.75461290010E+02 -0.17930946836E+03  0.19876982748E+03  0.30492742751E+03  0.12500000000E+03 0.  0.
         25    1    1    2    0    0 -0.12098639577E+03  0.18181655689E+03  0.22647460853E+03  0.33854204559E+03  0.12500000000E+03 0.  0.
         25    1    1    2    0    0  0.45525105765E+02 -0.25070885321E+01  0.10319165861E+03  0.16838152855E+03  0.12500000000E+03 0.  0.
</event>
<event>
 5    0  0.5771634E-005  0.2786955E+03  0.7546771E-02  0.1096404E+00
         21   -1    0    0  502  501  0.00000000000E+00  0.00000000000E+00  0.53051171181E+03  0.53051171181E+03  0.00000000000E+00 0.  1.
         21   -1    0    0  501  502 -0.00000000000E+00 -0.00000000000E+00 -0.14640807149E+03  0.14640807149E+03  0.00000000000E+00 0.  1.
         25    1    1    2    0    0 -0.47374869736E+02 -0.97418218372E+02  0.35855178835E+01  0.16544649737E+03  0.12500000000E+03 0.  0.
         25    1    1    2    0    0  0.11249406497E+03 -0.16785462762E+01  0.21030805619E+03  0.26928091405E+03  0.12500000000E+03 0.  0.
         25    1    1    2    0    0 -0.65119195230E+02  0.99096764648E+02  0.17021006625E+03  0.24219237189E+03  0.12500000000E+03 0.  0.
</event>
<event>
 5    0  0.5771634E-005  0.4232066E+03  0.7546771E-02  0.1036028E+00
         21   -1    0    0  502  501  0.00000000000E+00  0.00000000000E+00  0.13731011010E+04  0.13731011010E+04  0.00000000000E+00 0.  1.
         21   -1    0    0  501  502 -0.00000000000E+00 -0.00000000000E+00 -0.13043747944E+03  0.13043747944E+03  0.00000000000E+00 0.  1.
         25    1    1    2    0    0 -0.11615479464E+03 -0.13132575730E+03  0.50036531368E+03  0.54472822397E+03  0.12500000000E+03 0.  0.
         25    1    1    2    0    0  0.16695348549E+03  0.30061343516E+03  0.58958424042E+03  0.69388506272E+03  0.12500000000E+03 0.  0.
         25    1    1    2    0    0 -0.50798690851E+02 -0.16928767786E+03  0.15271406743E+03  0.26492529373E+03  0.12500000000E+03 0.  0.
</event>
<event>
 5    0  0.5771634E-005  0.3257761E+03  0.7546771E-02  0.1073021E+00
         21   -1    0    0  502  501  0.00000000000E+00  0.00000000000E+00  0.31645715518E+03  0.31645715518E+03  0.00000000000E+00 0.  1.
         21   -1    0    0  501  502 -0.00000000000E+00 -0.00000000000E+00 -0.33536936819E+03  0.33536936819E+03  0.00000000000E+00 0.  1.
         25    1    1    2    0    0 -0.45323349584E+02  0.64073391940E+02  0.17033001502E+03  0.22538171973E+03  0.12500000000E+03 0.  0.
         25    1    1    2    0    0  0.70459328231E+01 -0.56988397887E+01  0.60045234201E+02  0.13896960853E+03  0.12500000000E+03 0.  0.
         25    1    1    2    0    0  0.38277416761E+02 -0.58374552152E+02 -0.24928746224E+03  0.28747519511E+03  0.12500000000E+03 0.  0.
</event>
<event>
 5    0  0.6200645E-005  0.2946978E+03  0.7546771E-02  0.1087922E+00
         21   -1    0    0  502  501  0.00000000000E+00  0.00000000000E+00  0.46254109699E+03  0.46254109699E+03  0.00000000000E+00 0.  1.
         21   -1    0    0  501  502 -0.00000000000E+00 -0.00000000000E+00 -0.18776011118E+03  0.18776011118E+03  0.00000000000E+00 0.  1.
         25    1    1    2    0    0  0.60830776991E+02 -0.15561929639E+01  0.26030279866E+03  0.29510227406E+03  0.12500000000E+03 0.  0.
         25    1    1    2    0    0 -0.80786207301E+02 -0.11080670823E+03  0.11625238386E+02  0.18591579827E+03  0.12500000000E+03 0.  0.
         25    1    1    2    0    0  0.19955430310E+02  0.11236290119E+03  0.28529487635E+01  0.16928313584E+03  0.12500000000E+03 0.  0.
</event>
<event>
 5    0  0.5771634E-005  0.3411535E+03  0.7546771E-02  0.1066306E+00
         21   -1    0    0  502  501  0.00000000000E+00  0.00000000000E+00  0.53601379100E+02  0.53601379100E+02  0.00000000000E+00 0.  1.
         21   -1    0    0  501  502 -0.00000000000E+00 -0.00000000000E+00 -0.21713191426E+04  0.21713191426E+04  0.00000000000E+00 0.  1.
         25    1    1    2    0    0  0.15987305879E+03 -0.96148891725E+01 -0.46213510166E+03  0.50482243731E+03  0.12500000000E+03 0.  0.
         25    1    1    2    0    0  0.22902884344E+02  0.46980249595E+02 -0.16878412797E+03  0.21643652145E+03  0.12500000000E+03 0.  0.
         25    1    1    2    0    0 -0.18277594314E+03 -0.37365360422E+02 -0.14867985338E+04  0.15036615629E+04  0.12500000000E+03 0.  0.
</event>
<event>
 5    0  0.5771634E-005  0.3034535E+03  0.7546771E-02  0.1083527E+00
         21   -1    0    0  502  501  0.00000000000E+00  0.00000000000E+00  0.10895567654E+04  0.10895567654E+04  0.00000000000E+00 0.  1.
         21   -1    0    0  501  502 -0.00000000000E+00 -0.00000000000E+00 -0.84515144937E+02  0.84515144937E+02  0.00000000000E+00 0.  1.
         25    1    1    2    0    0 -0.11211410109E+03 -0.18849072067E+02  0.58367897728E+03  0.60764381647E+03  0.12500000000E+03 0.  0.
         25    1    1    2    0    0  0.16209682045E+03 -0.70748292383E+02  0.25143030592E+03  0.33184770424E+03  0.12500000000E+03 0.  0.
         25    1    1    2    0    0 -0.49982719366E+02  0.89597364449E+02  0.16993233729E+03  0.23458038965E+03  0.12500000000E+03 0.  0.
</event>
<event>
 5    0  0.5771634E-005  0.2445227E+03  0.7546771E-02  0.1116816E+00
         21   -1    0    0  502  501  0.00000000000E+00  0.00000000000E+00  0.57081040564E+02  0.57081040564E+02  0.00000000000E+00 0.  1.
         21   -1    0    0  501  502 -0.00000000000E+00 -0.00000000000E+00 -0.10474817083E+04  0.10474817083E+04  0.00000000000E+00 0.  1.
         25    1    1    2    0    0 -0.51808548677E+02  0.57996824084E+02 -0.38296416970E+03  0.41028564756E+03  0.12500000000E+03 0.  0.
         25    1    1    2    0    0 -0.48754152688E+02 -0.16390284317E+02 -0.43322495221E+03  0.45382206649E+03  0.12500000000E+03 0.  0.
         25    1    1    2    0    0  0.10056270137E+03 -0.41606539768E+02 -0.17421154578E+03  0.24045503476E+03  0.12500000000E+03 0.  0.
</event>
<event>
 5    0  0.5771634E-005  0.3515219E+03  0.7546771E-02  0.1061992E+00
         21   -1    0    0  502  501  0.00000000000E+00  0.00000000000E+00  0.41447527323E+03  0.41447527323E+03  0.00000000000E+00 0.  1.
         21   -1    0    0  501  502 -0.00000000000E+00 -0.00000000000E+00 -0.29813036617E+03  0.29813036617E+03  0.00000000000E+00 0.  1.
         25    1    1    2    0    0  0.13364099487E+02 -0.28999573530E+02  0.37294742876E+02  0.13429621092E+03  0.12500000000E+03 0.  0.
         25    1    1    2    0    0 -0.19267684103E+03  0.18147298007E+03  0.10399002402E+03  0.31063762274E+03  0.12500000000E+03 0.  0.
         25    1    1    2    0    0  0.17931274154E+03 -0.15247340654E+03 -0.24939859830E+02  0.26767180574E+03  0.12500000000E+03 0.  0.
</event>
<event>
 5    0  0.5771634E-005  0.3254905E+03  0.7546771E-02  0.1073150E+00
         21   -1    0    0  502  501  0.00000000000E+00  0.00000000000E+00  0.95238521606E+03  0.95238521606E+03  0.00000000000E+00 0.  1.
         21   -1    0    0  501  502 -0.00000000000E+00 -0.00000000000E+00 -0.11124078148E+03  0.11124078148E+03  0.00000000000E+00 0.  1.
         25    1    1    2    0    0 -0.41705224951E+02  0.82914837674E+02  0.70430158154E+02  0.17087891407E+03  0.12500000000E+03 0.  0.
         25    1    1    2    0    0  0.11912500930E+03 -0.12257749296E+03  0.68714872989E+03  0.71903712464E+03  0.12500000000E+03 0.  0.
         25    1    1    2    0    0 -0.77419784348E+02  0.39662655282E+02  0.83565546534E+02  0.17370995884E+03  0.12500000000E+03 0.  0.
</event>
<event>
 5    0  0.5771634E-005  0.2681025E+03  0.7546771E-02  0.1102371E+00
         21   -1    0    0  502  501  0.00000000000E+00  0.00000000000E+00  0.40677275575E+03  0.40677275575E+03  0.00000000000E+00 0. -1.
         21   -1    0    0  501  502 -0.00000000000E+00 -0.00000000000E+00 -0.17670538290E+03  0.17670538290E+03  0.00000000000E+00 0. -1.
         25    1    1    2    0    0 -0.95090659997E+02  0.96625477824E+02  0.12700918213E+03  0.22390857270E+03  0.12500000000E+03 0.  0.
         25    1    1    2    0    0  0.52413676257E+02  0.41400331743E+02  0.90411533502E+02  0.16810837670E+03  0.12500000000E+03 0.  0.
         25    1    1    2    0    0  0.42676983740E+02 -0.13802580957E+03  0.12646657222E+02  0.19146118924E+03  0.12500000000E+03 0.  0.
</event>
<event>
 5    0  0.5771634E-005  0.2945427E+03  0.7546771E-02  0.1088001E+00
         21   -1    0    0  502  501  0.00000000000E+00  0.00000000000E+00  0.14562669265E+04  0.14562669265E+04  0.00000000000E+00 0.  1.
         21   -1    0    0  501  502 -0.00000000000E+00 -0.00000000000E+00 -0.59573837609E+02  0.59573837609E+02  0.00000000000E+00 0.  1.
         25    1    1    2    0    0  0.66787796417E+02  0.49937753186E+02  0.83010647595E+03  0.84359714933E+03  0.12500000000E+03 0.  0.
         25    1    1    2    0    0  0.13806261373E+02  0.90303407790E+02  0.28414542838E+03  0.32358761222E+03  0.12500000000E+03 0.  0.
         25    1    1    2    0    0 -0.80594057790E+02 -0.14024116098E+03  0.28244118454E+03  0.34865600254E+03  0.12500000000E+03 0.  0.
</event>
<event>
 5    0  0.5771634E-005  0.3975585E+03  0.7546771E-02  0.1044628E+00
         21   -1    0    0  502  501  0.00000000000E+00  0.00000000000E+00  0.30750021340E+03  0.30750021340E+03  0.00000000000E+00 0.  1.
         21   -1    0    0  501  502 -0.00000000000E+00 -0.00000000000E+00 -0.51399231546E+03  0.51399231546E+03  0.00000000000E+00 0.  1.
         25    1    1    2    0    0 -0.12054589479E+03  0.10001494957E+02 -0.39816756234E+03  0.43450402801E+03  0.12500000000E+03 0.  0.
         25    1    1    2    0    0  0.27281105887E+02  0.68686500276E+02  0.28578300404E+02  0.14799936930E+03  0.12500000000E+03 0.  0.
         25    1    1    2    0    0  0.93264788901E+02 -0.78687995233E+02  0.16309715988E+03  0.23898913156E+03  0.12500000000E+03 0.  0.
</event>
<event>
 5    0  0.5771634E-005  0.3164437E+03  0.7546771E-02  0.1077298E+00
         21   -1    0    0  502  501  0.00000000000E+00  0.00000000000E+00  0.11724930886E+03  0.11724930886E+03  0.00000000000E+00 0.  1.
         21   -1    0    0  501  502 -0.00000000000E+00 -0.00000000000E+00 -0.85404849445E+03  0.85404849445E+03  0.00000000000E+00 0.  1.
         25    1    1    2    0    0 -0.17736280454E+03 -0.82454719911E+02 -0.43151759081E+03  0.48998854726E+03  0.12500000000E+03 0.  0.
         25    1    1    2    0    0  0.92036371209E+02 -0.56783012335E+02 -0.11722007293E+03  0.20263402876E+03  0.12500000000E+03 0.  0.
         25    1    1    2    0    0  0.85326433329E+02  0.13923773225E+03 -0.18806152184E+03  0.27867522729E+03  0.12500000000E+03 0.  0.
</event>
<event>
 5    0  0.5771634E-005  0.2811241E+03  0.7546771E-02  0.1095077E+00
         21   -1    0    0  502  501  0.00000000000E+00  0.00000000000E+00  0.45839146850E+03  0.45839146850E+03  0.00000000000E+00 0. -1.
         21   -1    0    0  501  502 -0.00000000000E+00 -0.00000000000E+00 -0.17240890588E+03  0.17240890588E+03  0.00000000000E+00 0. -1.
         25    1    1    2    0    0 -0.11279976782E+03  0.20510560395E+02 -0.17129460887E+02  0.17047841253E+03  0.12500000000E+03 0.  0.
         25    1    1    2    0    0  0.10434940546E+03 -0.21399492922E+01  0.29055296680E+03  0.33307567356E+03  0.12500000000E+03 0.  0.
         25    1    1    2    0    0  0.84503623582E+01 -0.18370611103E+02  0.12559056704E+02  0.12724628828E+03  0.12500000000E+03 0.  0.
</event>
<event>
 5    0  0.5771634E-005  0.2057598E+03  0.7546771E-02  0.1144968E+00
         21   -1    0    0  502  501  0.00000000000E+00  0.00000000000E+00  0.33922761442E+02  0.33922761442E+02  0.00000000000E+00 0.  1.
         21   -1    0    0  501  502 -0.00000000000E+00 -0.00000000000E+00 -0.12480439326E+04  0.12480439326E+04  0.00000000000E+00 0.  1.
         25    1    1    2    0    0 -0.72080660397E+01 -0.22767688243E+02 -0.34683915741E+03  0.36944921838E+03  0.12500000000E+03 0.  0.
         25    1    1    2    0    0  0.23975306551E+02  0.42578937312E+02 -0.26728677329E+03  0.29909028804E+03  0.12500000000E+03 0.  0.
         25    1    1    2    0    0 -0.16767240512E+02 -0.19811249069E+02 -0.59999524042E+03  0.61342718759E+03  0.12500000000E+03 0.  0.
</event>
<event>
 5    0  0.5771634E-005  0.3639526E+03  0.7546771E-02  0.1057030E+00
         21   -1    0    0  502  501  0.00000000000E+00  0.00000000000E+00  0.70308147737E+02  0.70308147737E+02  0.00000000000E+00 0. -1.
         21   -1    0    0  501  502 -0.00000000000E+00 -0.00000000000E+00 -0.18840131845E+04  0.18840131845E+04  0.00000000000E+00 0. -1.
         25    1    1    2    0    0  0.14076795835E+03 -0.18442610555E+03 -0.48137531856E+03  0.54879486498E+03  0.12500000000E+03 0.  0.
         25    1    1    2    0    0  0.31227049872E+02  0.15697180298E+03 -0.90414164804E+03  0.92666735958E+03  0.12500000000E+03 0.  0.
         25    1    1    2    0    0 -0.17199500822E+03  0.27454302566E+02 -0.42818807011E+03  0.47885910764E+03  0.12500000000E+03 0.  0.
</event>
<event>
 5    0  0.5771634E-005  0.2919372E+03  0.7546771E-02  0.1089342E+00
         21   -1    0    0  502  501  0.00000000000E+00  0.00000000000E+00  0.74903005475E+02  0.74903005475E+02  0.00000000000E+00 0. -1.
         21   -1    0    0  501  502 -0.00000000000E+00 -0.00000000000E+00 -0.11378361763E+04  0.11378361763E+04  0.00000000000E+00 0. -1.
         25    1    1    2    0    0 -0.30001248171E+02  0.16769747615E+03 -0.26043849999E+03  0.33537401610E+03  0.12500000000E+03 0.  0.
         25    1    1    2    0    0 -0.18557007268E+02 -0.85994854867E+02 -0.61043810960E+03  0.62928464405E+03  0.12500000000E+03 0.  0.
         25    1    1    2    0    0  0.48558255439E+02 -0.81702621280E+02 -0.19205656121E+03  0.24808052161E+03  0.12500000000E+03 0.  0.
</event>
<event>
 5    0  0.5771634E-005  0.2546256E+03  0.7546771E-02  0.1110416E+00
         21   -1    0    0  502  501  0.00000000000E+00  0.00000000000E+00  0.86337696270E+02  0.86337696270E+02  0.00000000000E+00 0. -1.
         21   -1    0    0  501  502 -0.00000000000E+00 -0.00000000000E+00 -0.75093713631E+03  0.75093713631E+03  0.00000000000E+00 0. -1.
         25    1    1    2    0    0 -0.32222118778E+02 -0.26120690510E+02 -0.49543333234E+03  0.51263997328E+03  0.12500000000E+03 0.  0.
         25    1    1    2    0    0  0.60283777626E+02  0.29878338603E+02 -0.12477410828E+03  0.18899848428E+03  0.12500000000E+03 0.  0.
         25    1    1    2    0    0 -0.28061658848E+02 -0.37576480936E+01 -0.44391999417E+02  0.13563637502E+03  0.12500000000E+03 0.  0.
</event>
<event>
 5    0  0.5771634E-005  0.2087783E+03  0.7546771E-02  0.1142537E+00
         21   -1    0    0  502  501  0.00000000000E+00  0.00000000000E+00  0.56651040272E+03  0.56651040272E+03  0.00000000000E+00 0. -1.
         21   -1    0    0  501  502 -0.00000000000E+00 -0.00000000000E+00 -0.76941898066E+02  0.76941898066E+02  0.00000000000E+00 0. -1.
         25    1    1    2    0    0  0.11016133657E+02  0.34771840631E+02  0.15337508698E+03  0.20119481457E+03  0.12500000000E+03 0.  0.
         25    1    1    2    0    0  0.21164892010E+02 -0.20808445907E+01  0.70526694031E+02  0.14509065145E+03  0.12500000000E+03 0.  0.
         25    1    1    2    0    0 -0.32181025667E+02 -0.32690996040E+02  0.26566672365E+03  0.29716683477E+03  0.12500000000E+03 0.  0.
</event>
<event>
 5    0  0.5771634E-005  0.2275557E+03  0.7546771E-02  0.1128372E+00
         21   -1    0    0  502  501  0.00000000000E+00  0.00000000000E+00  0.56362290431E+03  0.56362290431E+03  0.00000000000E+00 0. -1.
         21   -1    0    0  501  502 -0.00000000000E+00 -0.00000000000E+00 -0.91872798761E+02  0.91872798761E+02  0.00000000000E+00 0. -1.
         25    1    1    2    0    0  0.41004669843E+02  0.28064275991E+02  0.74321433181E+02  0.15368038901E+03  0.12500000000E+03 0.  0.
         25    1    1    2    0    0 -0.84771438596E+02  0.93540162017E+01  0.12374913102E+03  0.19548028506E+03  0.12500000000E+03 0.  0.
         25    1    1    2    0    0  0.43766768753E+02 -0.37418292193E+02  0.27367954135E+03  0.30633502900E+03  0.12500000000E+03 0.  0.
</event>
<event>
 5    0  0.5771634E-005  0.2740517E+03  0.7546771E-02  0.1098983E+00
         21   -1    0    0  502  501  0.00000000000E+00  0.00000000000E+00  0.13763124074E+03  0.13763124074E+03  0.00000000000E+00 0. -1.
         21   -1    0    0  501  502 -0.00000000000E+00 -0.00000000000E+00 -0.54569261963E+03  0.54569261963E+03  0.00000000000E+00 0. -1.
         25    1    1    2    0    0  0.51596761604E+01  0.64783731181E+02 -0.70231747529E+02  0.15741998744E+03  0.12500000000E+03 0.  0.
         25    1    1    2    0    0  0.66839221104E+02  0.17249071114E+02 -0.33023367534E+03  0.35978367426E+03  0.12500000000E+03 0.  0.
         25    1    1    2    0    0 -0.71998897264E+02 -0.82032802296E+02 -0.75959560212E+01  0.16612019867E+03  0.12500000000E+03 0.  0.
</event>
<event>
 5    0  0.5771634E-005  0.3823634E+03  0.7546771E-02  0.1050064E+00
         21   -1    0    0  502  501  0.00000000000E+00  0.00000000000E+00  0.15169554033E+04  0.15169554033E+04  0.00000000000E+00 0. -1.
         21   -1    0    0  501  502 -0.00000000000E+00 -0.00000000000E+00 -0.96378399166E+02  0.96378399166E+02  0.00000000000E+00 0. -1.
         25    1    1    2    0    0  0.46107305846E+02  0.93761957649E+02  0.34576696690E+03  0.38222635146E+03  0.12500000000E+03 0.  0.
         25    1    1    2    0    0 -0.21685792878E+03 -0.15262871630E+03  0.91125431321E+03  0.95725247958E+03  0.12500000000E+03 0.  0.
         25    1    1    2    0    0  0.17075062294E+03  0.58866758647E+02  0.16355572400E+03  0.27385497140E+03  0.12500000000E+03 0.  0.
</event>
<event>
 5    0  0.5771634E-005  0.2936538E+03  0.7546771E-02  0.1088457E+00
         21   -1    0    0  502  501  0.00000000000E+00  0.00000000000E+00  0.97497410986E+03  0.97497410986E+03  0.00000000000E+00 0.  1.
         21   -1    0    0  501  502 -0.00000000000E+00 -0.00000000000E+00 -0.88445983236E+02  0.88445983236E+02  0.00000000000E+00 0.  1.
         25    1    1    2    0    0 -0.84801200419E+02  0.35205799243E+02  0.30400809915E+03  0.34128670680E+03  0.12500000000E+03 0.  0.
         25    1    1    2    0    0 -0.19329353071E+02 -0.13884783487E+03  0.12501202939E+03  0.22562214570E+03  0.12500000000E+03 0.  0.
         25    1    1    2    0    0  0.10413055349E+03  0.10364203563E+03  0.45750799808E+03  0.49651124059E+03  0.12500000000E+03 0.  0.
</event>
<event>
 5    0  0.5771634E-005  0.2635633E+03  0.7546771E-02  0.1105021E+00
         21   -1    0    0  502  501  0.00000000000E+00  0.00000000000E+00  0.52435295131E+03  0.52435295131E+03  0.00000000000E+00 0.  1.
         21   -1    0    0  501  502 -0.00000000000E+00 -0.00000000000E+00 -0.13247877384E+03  0.13247877384E+03  0.00000000000E+00 0.  1.
         25    1    1    2    0    0 -0.33358411505E+02  0.21846400630E+01 -0.25138064433E+02  0.13181228529E+03  0.12500000000E+03 0.  0.
         25    1    1    2    0    0  0.90468764266E+02 -0.28757069156E+02  0.12308789507E+03  0.19946728115E+03  0.12500000000E+03 0.  0.
         25    1    1    2    0    0 -0.57110352761E+02  0.26572429093E+02  0.29392434683E+03  0.32555215871E+03  0.12500000000E+03 0.  0.
</event>
<event>
 5    0  0.5771634E-005  0.5371268E+03  0.7546771E-02  0.1004518E+00
         21   -1    0    0  502  501  0.00000000000E+00  0.00000000000E+00  0.21223694562E+03  0.21223694562E+03  0.00000000000E+00 0. -1.
         21   -1    0    0  501  502 -0.00000000000E+00 -0.00000000000E+00 -0.13593542175E+04  0.13593542175E+04  0.00000000000E+00 0. -1.
         25    1    1    2    0    0 -0.17521098182E+03  0.29897834258E+03 -0.31157207941E+03  0.48248222574E+03  0.12500000000E+03 0.  0.
         25    1    1    2    0    0  0.31052420979E+03 -0.30308487918E+03 -0.77168601192E+03  0.89409732683E+03  0.12500000000E+03 0.  0.
         25    1    1    2    0    0 -0.13531322797E+03  0.41065366022E+01 -0.63859180530E+02  0.19501161054E+03  0.12500000000E+03 0.  0.
</event>
<event>
 5    0  0.5771634E-005  0.3116373E+03  0.7546771E-02  0.1079564E+00
         21   -1    0    0  502  501  0.00000000000E+00  0.00000000000E+00  0.22194814107E+03  0.22194814107E+03  0.00000000000E+00 0. -1.
         21   -1    0    0  501  502 -0.00000000000E+00 -0.00000000000E+00 -0.43756980342E+03  0.43756980342E+03  0.00000000000E+00 0. -1.
         25    1    1    2    0    0 -0.32295790491E+01  0.33744626809E+02  0.22064468718E+02  0.13138101385E+03  0.12500000000E+03 0.  0.
         25    1    1    2    0    0  0.51543092517E+02 -0.98218184532E+02 -0.31791347620E+03  0.35916219248E+03  0.12500000000E+03 0.  0.
         25    1    1    2    0    0 -0.48313513468E+02  0.64473557723E+02  0.80227345133E+02  0.16897473816E+03  0.12500000000E+03 0.  0.
</event>
<event>
 5    0  0.5771634E-005  0.3389167E+03  0.7546771E-02  0.1067258E+00
         21   -1    0    0  502  501  0.00000000000E+00  0.00000000000E+00  0.23386617759E+03  0.23386617759E+03  0.00000000000E+00 0.  1.
         21   -1    0    0  501  502 -0.00000000000E+00 -0.00000000000E+00 -0.49115494688E+03  0.49115494688E+03  0.00000000000E+00 0.  1.
         25    1    1    2    0    0  0.56134891979E+02 -0.17589245217E+03 -0.28138387247E+03  0.35901415643E+03  0.12500000000E+03 0.  0.
         25    1    1    2    0    0 -0.37610785737E+02  0.15527975051E+03 -0.61523555016E+02  0.21198235763E+03  0.12500000000E+03 0.  0.
         25    1    1    2    0    0 -0.18524106241E+02  0.20612701660E+02  0.85618658201E+02  0.15402461042E+03  0.12500000000E+03 0.  0.
</event>
<event>
 5    0  0.5771634E-005  0.2713738E+03  0.7546771E-02  0.1100496E+00
         21   -1    0    0  502  501  0.00000000000E+00  0.00000000000E+00  0.91998428798E+02  0.91998428798E+02  0.00000000000E+00 0. -1.
         21   -1    0    0  501  502 -0.00000000000E+00 -0.00000000000E+00 -0.80048911053E+03  0.80048911053E+03  0.00000000000E+00 0. -1.
         25    1    1    2    0    0  0.46334295405E+02 -0.14886611756E+02 -0.57565041391E+03  0.59107264966E+03  0.12500000000E+03 0.  0.
         25    1    1    2    0    0 -0.36923269144E+02 -0.36081853252E+02 -0.65779329722E+02  0.15038998689E+03  0.12500000000E+03 0.  0.
         25    1    1    2    0    0 -0.94110262606E+01  0.50968465008E+02 -0.67060938102E+02  0.15102490278E+03  0.12500000000E+03 0.  0.
</event>
<event>
 5    0  0.5771634E-005  0.3788872E+03  0.7546771E-02  0.1051346E+00
         21   -1    0    0  502  501  0.00000000000E+00  0.00000000000E+00  0.79213516737E+02  0.79213516737E+02  0.00000000000E+00 0.  1.
         21   -1    0    0  501  502 -0.00000000000E+00 -0.00000000000E+00 -0.18122602208E+04  0.18122602208E+04  0.00000000000E+00 0.  1.
         25    1    1    2    0    0  0.13304858831E+03 -0.10539053093E+03 -0.67981422225E+03  0.71174536713E+03  0.12500000000E+03 0.  0.
         25    1    1    2    0    0 -0.46885897705E+02 -0.73161801534E+02 -0.86730512626E+03  0.88056465898E+03  0.12500000000E+03 0.  0.
         25    1    1    2    0    0 -0.86162690608E+02  0.17855233246E+03 -0.18592735551E+03  0.29916371139E+03  0.12500000000E+03 0.  0.
</event>
<event>
 5    0  0.5771634E-005  0.2719042E+03  0.7546771E-02  0.1100195E+00
         21   -1    0    0  502  501  0.00000000000E+00  0.00000000000E+00  0.98942758948E+02  0.98942758948E+02  0.00000000000E+00 0. -1.
         21   -1    0    0  501  502 -0.00000000000E+00 -0.00000000000E+00 -0.74721898049E+03  0.74721898049E+03  0.00000000000E+00 0. -1.
         25    1    1    2    0    0 -0.84718135262E+02 -0.12195876590E+03 -0.31051632544E+03  0.36619187782E+03  0.12500000000E+03 0.  0.
         25    1    1    2    0    0  0.10173107379E+03  0.12825420227E+03 -0.15484812257E+03  0.25768448311E+03  0.12500000000E+03 0.  0.
         25    1    1    2    0    0 -0.17012938527E+02 -0.62954363738E+01 -0.18291177353E+03  0.22228537850E+03  0.12500000000E+03 0.  0.
</event>
<event>
 5    0  0.5771634E-005  0.4272335E+03  0.7546771E-02  0.1034737E+00
         21   -1    0    0  502  501  0.00000000000E+00  0.00000000000E+00  0.26461932331E+03  0.26461932331E+03  0.00000000000E+00 0. -1.
         21   -1    0    0  501  502 -0.00000000000E+00 -0.00000000000E+00 -0.68977747585E+03  0.68977747585E+03  0.00000000000E+00 0. -1.
         25    1    1    2    0    0 -0.19906152805E+03  0.20251667555E+02 -0.17368776833E+03  0.29296426891E+03  0.12500000000E+03 0.  0.
         25    1    1    2    0    0  0.37065001944E+03 -0.23122662501E+02 -0.11246204813E+03  0.40766261382E+03  0.12500000000E+03 0.  0.
         25    1    1    2    0    0 -0.17158849139E+03  0.28709949460E+01 -0.13900833608E+03  0.25376991643E+03  0.12500000000E+03 0.  0.
</event>
<event>
 5    0  0.5771634E-005  0.2348366E+03  0.7546771E-02  0.1123281E+00
         21   -1    0    0  502  501  0.00000000000E+00  0.00000000000E+00  0.14753675232E+04  0.14753675232E+04  0.00000000000E+00 0.  1.
         21   -1    0    0  501  502 -0.00000000000E+00 -0.00000000000E+00 -0.37379308621E+02  0.37379308621E+02  0.00000000000E+00 0.  1.
         25    1    1    2    0    0 -0.14180659333E+02  0.73154606535E+00  0.29635135212E+03  0.32194836568E+03  0.12500000000E+03 0.  0.
         25    1    1    2    0    0  0.11942149316E+03 -0.18727635484E+02  0.61364249162E+03  0.63780429983E+03  0.12500000000E+03 0.  0.
         25    1    1    2    0    0 -0.10524083383E+03  0.17996089419E+02  0.52799437084E+03  0.55299416631E+03  0.12500000000E+03 0.  0.
</event>
<event>
 5    0  0.5771634E-005  0.3727647E+03  0.7546771E-02  0.1053641E+00
         21   -1    0    0  502  501  0.00000000000E+00  0.00000000000E+00  0.17911112921E+03  0.17911112921E+03  0.00000000000E+00 0. -1.
         21   -1    0    0  501  502 -0.00000000000E+00 -0.00000000000E+00 -0.77579504120E+03  0.77579504120E+03  0.00000000000E+00 0. -1.
         25    1    1    2    0    0 -0.20279673787E+03  0.18158496183E+03 -0.13421968027E+03  0.32823701471E+03  0.12500000000E+03 0.  0.
         25    1    1    2    0    0  0.39054146012E+02 -0.15949532519E+03 -0.16530041123E+03  0.26441106450E+03  0.12500000000E+03 0.  0.
         25    1    1    2    0    0  0.16374259186E+03 -0.22089636647E+02 -0.29716382048E+03  0.36225809120E+03  0.12500000000E+03 0.  0.
</event>
<event>
 5    0  0.5771634E-005  0.2652076E+03  0.7546771E-02  0.1104054E+00
         21   -1    0    0  502  501  0.00000000000E+00  0.00000000000E+00  0.12870212568E+04  0.12870212568E+04  0.00000000000E+00 0. -1.
         21   -1    0    0  501  502 -0.00000000000E+00 -0.00000000000E+00 -0.54649492221E+02  0.54649492221E+02  0.00000000000E+00 0. -1.
         25    1    1    2    0    0  0.20017140772E+01 -0.15663805272E+02  0.14843372909E+03  0.19469703025E+03  0.12500000000E+03 0.  0.
         25    1    1    2    0    0 -0.47472613278E+02  0.28127210469E+02  0.94274043831E+03  0.95259084764E+03  0.12500000000E+03 0.  0.
         25    1    1    2    0    0  0.45470899200E+02 -0.12463405197E+02  0.14119759719E+03  0.19438287114E+03  0.12500000000E+03 0.  0.
</event>
<event>
 5    0  0.5771634E-005  0.4752186E+03  0.7546771E-02  0.1020458E+00
         21   -1    0    0  502  501  0.00000000000E+00  0.00000000000E+00  0.15782150197E+03  0.15782150197E+03  0.00000000000E+00 0. -1.
         21   -1    0    0  501  502 -0.00000000000E+00 -0.00000000000E+00 -0.14309377828E+04  0.14309377828E+04  0.00000000000E+00 0. -1.
         25    1    1    2    0    0  0.28765771550E+02 -0.80105472614E+02  0.18318266849E+02  0.15233159638E+03  0.12500000000E+03 0.  0.
         25    1    1    2    0    0 -0.76440864845E+02 -0.14469577554E+03 -0.12472838391E+03  0.24075349017E+03  0.12500000000E+03 0.  0.
         25    1    1    2    0    0  0.47675093296E+02  0.22480124816E+03 -0.11667061638E+04  0.11956741982E+04  0.12500000000E+03 0.  0.
</event>
<event>
 5    0  0.5772326E-005  0.3924794E+03  0.7546771E-02  0.1046415E+00
         21   -1    0    0  502  501  0.00000000000E+00  0.00000000000E+00  0.35606925495E+03  0.35606925495E+03  0.00000000000E+00 0. -1.
         21   -1    0    0  501  502 -0.00000000000E+00 -0.00000000000E+00 -0.43261279265E+03  0.43261279265E+03  0.00000000000E+00 0. -1.
         25    1    1    2    0    0  0.51930448907E+02  0.18992299637E+02 -0.24185760210E+03  0.27780852878E+03  0.12500000000E+03 0.  0.
         25    1    1    2    0    0  0.17368074946E+03 -0.51663496962E+02  0.10543310261E+03  0.24408043506E+03  0.12500000000E+03 0.  0.
         25    1    1    2    0    0 -0.22561119837E+03  0.32671197325E+02  0.59880961785E+02  0.26679308377E+03  0.12500000000E+03 0.  0.
</event>
<event>
 5    0  0.5771634E-005  0.4544179E+03  0.7546771E-02  0.1026413E+00
         21   -1    0    0  502  501  0.00000000000E+00  0.00000000000E+00  0.15923380985E+04  0.15923380985E+04  0.00000000000E+00 0. -1.
         21   -1    0    0  501  502 -0.00000000000E+00 -0.00000000000E+00 -0.12968076871E+03  0.12968076871E+03  0.00000000000E+00 0. -1.
         25    1    1    2    0    0 -0.26005351805E+03 -0.23440909118E+02  0.86057141770E+03  0.90795675746E+03  0.12500000000E+03 0.  0.
         25    1    1    2    0    0  0.25658396465E+03  0.18369221789E+03  0.42939450947E+03  0.54734158128E+03  0.12500000000E+03 0.  0.
         25    1    1    2    0    0  0.34695533968E+01 -0.16025130877E+03  0.17269140261E+03  0.26672052846E+03  0.12500000000E+03 0.  0.
</event>
<event>
 5    0  0.5771634E-005  0.2739252E+03  0.7546771E-02  0.1099054E+00
         21   -1    0    0  502  501  0.00000000000E+00  0.00000000000E+00  0.19921229380E+03  0.19921229380E+03  0.00000000000E+00 0.  1.
         21   -1    0    0  501  502 -0.00000000000E+00 -0.00000000000E+00 -0.37665868696E+03  0.37665868696E+03  0.00000000000E+00 0.  1.
         25    1    1    2    0    0  0.54948877792E+01 -0.26932269433E+01 -0.20032173786E+03  0.23620170601E+03  0.12500000000E+03 0.  0.
         25    1    1    2    0    0 -0.42243979924E+02 -0.34066448799E+01  0.11894366642E+03  0.17767598276E+03  0.12500000000E+03 0.  0.
         25    1    1    2    0    0  0.36749092144E+02  0.60998718232E+01 -0.96068321723E+02  0.16199329199E+03  0.12500000000E+03 0.  0.
</event>
<event>
 5    0  0.5771634E-005  0.4244480E+03  0.7546771E-02  0.1035628E+00
         21   -1    0    0  502  501  0.00000000000E+00  0.00000000000E+00  0.10526743460E+04  0.10526743460E+04  0.00000000000E+00 0. -1.
         21   -1    0    0  501  502 -0.00000000000E+00 -0.00000000000E+00 -0.17114131162E+03  0.17114131162E+03  0.00000000000E+00 0. -1.
         25    1    1    2    0    0 -0.23935207539E+03 -0.18265332736E+03  0.18844130823E+03  0.37654585463E+03  0.12500000000E+03 0.  0.
         25    1    1    2    0    0  0.10162611179E+02  0.83018882583E+02  0.73112270681E+02  0.16722983482E+03  0.12500000000E+03 0.  0.
         25    1    1    2    0    0  0.22918946421E+03  0.99634444775E+02  0.61997945545E+03  0.68003996814E+03  0.12500000000E+03 0.  0.
</event>
<event>
 5    0  0.5771634E-005  0.2674334E+03  0.7546771E-02  0.1102758E+00
         21   -1    0    0  502  501  0.00000000000E+00  0.00000000000E+00  0.72274057739E+03  0.72274057739E+03  0.00000000000E+00 0. -1.
         21   -1    0    0  501  502 -0.00000000000E+00 -0.00000000000E+00 -0.98957552804E+02  0.98957552804E+02  0.00000000000E+00 0. -1.
         25    1    1    2    0    0 -0.79877073528E+02  0.68616200857E+02  0.16246410863E+03  0.23045198304E+03  0.12500000000E+03 0.  0.
         25    1    1    2    0    0  0.10041823091E+03 -0.48780741539E+02  0.42670194331E+03  0.45843530652E+03  0.12500000000E+03 0.  0.
         25    1    1    2    0    0 -0.20541157380E+02 -0.19835459318E+02  0.34616972647E+02  0.13281084063E+03  0.12500000000E+03 0.  0.
</event>
<event>
 5    0  0.5771634E-005  0.2732768E+03  0.7546771E-02  0.1099419E+00
         21   -1    0    0  502  501  0.00000000000E+00  0.00000000000E+00  0.15457370625E+04  0.15457370625E+04  0.00000000000E+00 0. -1.
         21   -1    0    0  501  502 -0.00000000000E+00 -0.00000000000E+00 -0.48313654406E+02  0.48313654406E+02  0.00000000000E+00 0. -1.
         25    1    1    2    0    0  0.33137835077E+02  0.88013220433E+02  0.80888654230E+03  0.82387309787E+03  0.12500000000E+03 0.  0.
         25    1    1    2    0    0  0.42890022766E+02  0.28432980486E+02  0.15955536920E+03  0.20911935413E+03  0.12500000000E+03 0.  0.
         25    1    1    2    0    0 -0.76027857843E+02 -0.11644620092E+03  0.52898149661E+03  0.56105826492E+03  0.12500000000E+03 0.  0.
</event>
<event>
 5    0  0.5876002E-005  0.6422035E+03  0.7546771E-02  0.9821520E-01
         21   -1    0    0  502  501  0.00000000000E+00  0.00000000000E+00  0.83248973716E+03  0.83248973716E+03  0.00000000000E+00 0. -1.
         21   -1    0    0  501  502 -0.00000000000E+00 -0.00000000000E+00 -0.49541194805E+03  0.49541194805E+03  0.00000000000E+00 0. -1.
         25    1    1    2    0    0 -0.20454194473E+03  0.34460375142E+03  0.36714797979E+03  0.55768431187E+03  0.12500000000E+03 0.  0.
         25    1    1    2    0    0  0.48253779996E+02  0.14077356622E+03 -0.13261360078E+03  0.23528066504E+03  0.12500000000E+03 0.  0.
         25    1    1    2    0    0  0.15628816474E+03 -0.48537731764E+03  0.10254341011E+03  0.53493670829E+03  0.12500000000E+03 0.  0.
</event>
<event>
 5    0  0.5771634E-005  0.4752067E+03  0.7546771E-02  0.1020461E+00
         21   -1    0    0  502  501  0.00000000000E+00  0.00000000000E+00  0.38308095923E+03  0.38308095923E+03  0.00000000000E+00 0.  1.
         21   -1    0    0  501  502 -0.00000000000E+00 -0.00000000000E+00 -0.58948733226E+03  0.58948733226E+03  0.00000000000E+00 0.  1.
         25    1    1    2    0    0  0.15452286665E+03 -0.37786568645E+02  0.22258989860E+03  0.30079295877E+03  0.12500000000E+03 0.  0.
         25    1    1    2    0    0  0.25607508190E+01  0.12408302185E+03  0.15138600091E+02  0.17679742919E+03  0.12500000000E+03 0.  0.
         25    1    1    2    0    0 -0.15708361747E+03 -0.86296453201E+02 -0.44413487171E+03  0.49497790353E+03  0.12500000000E+03 0.  0.
</event>
<event>
 5    0  0.5771634E-005  0.2771202E+03  0.7546771E-02  0.1097272E+00
         21   -1    0    0  502  501  0.00000000000E+00  0.00000000000E+00  0.18087172272E+03  0.18087172272E+03  0.00000000000E+00 0. -1.
         21   -1    0    0  501  502 -0.00000000000E+00 -0.00000000000E+00 -0.42458588565E+03  0.42458588565E+03  0.00000000000E+00 0. -1.
         25    1    1    2    0    0  0.42339790826E+02 -0.11355016279E+03  0.28550278483E+02  0.17642680000E+03  0.12500000000E+03 0.  0.
         25    1    1    2    0    0 -0.10364146161E+03  0.93438267976E+02 -0.18613207098E+03  0.26408788374E+03  0.12500000000E+03 0.  0.
         25    1    1    2    0    0  0.61301670786E+02  0.20111894813E+02 -0.86132370426E+02  0.16494292464E+03  0.12500000000E+03 0.  0.
</event>
<event>
 5    0  0.5771634E-005  0.3692713E+03  0.7546771E-02  0.1054972E+00
         21   -1    0    0  502  501  0.00000000000E+00  0.00000000000E+00  0.61446571448E+03  0.61446571448E+03  0.00000000000E+00 0.  1.
         21   -1    0    0  501  502 -0.00000000000E+00 -0.00000000000E+00 -0.22191847167E+03  0.22191847167E+03  0.00000000000E+00 0.  1.
         25    1    1    2    0    0  0.13580130919E+03 -0.15361332278E+03  0.24108770129E+02  0.24134059192E+03  0.12500000000E+03 0.  0.
         25    1    1    2    0    0 -0.23442327436E+03  0.62625777938E+02  0.15593366991E+03  0.31435102837E+03  0.12500000000E+03 0.  0.
         25    1    1    2    0    0  0.98621965174E+02  0.90987544843E+02  0.21250480276E+03  0.28069256586E+03  0.12500000000E+03 0.  0.
</event>
<event>
 5    0  0.5771634E-005  0.4986842E+03  0.7546771E-02  0.1014123E+00
         21   -1    0    0  502  501  0.00000000000E+00  0.00000000000E+00  0.24122993846E+03  0.24122993846E+03  0.00000000000E+00 0.  1.
         21   -1    0    0  501  502 -0.00000000000E+00 -0.00000000000E+00 -0.10309081777E+04  0.10309081777E+04  0.00000000000E+00 0.  1.
         25    1    1    2    0    0  0.95071048751E+02  0.14701573133E+03 -0.13256464728E+03  0.25268659497E+03  0.12500000000E+03 0.  0.
         25    1    1    2    0    0 -0.38929286677E+02 -0.43512492370E+03 -0.32310505099E+03  0.55755812483E+03  0.12500000000E+03 0.  0.
         25    1    1    2    0    0 -0.56141762075E+02  0.28810919236E+03 -0.33400854097E+03  0.46189339638E+03  0.12500000000E+03 0.  0.
</event>
<event>
 5    0  0.5771634E-005  0.4423970E+03  0.7546771E-02  0.1030014E+00
         21   -1    0    0  502  501  0.00000000000E+00  0.00000000000E+00  0.27751380311E+03  0.27751380311E+03  0.00000000000E+00 0. -1.
         21   -1    0    0  501  502 -0.00000000000E+00 -0.00000000000E+00 -0.70524448427E+03  0.70524448427E+03  0.00000000000E+00 0. -1.
         25    1    1    2    0    0  0.11856259813E+03 -0.86078628626E+02  0.45422971171E+02  0.19787588608E+03  0.12500000000E+03 0.  0.
         25    1    1    2    0    0  0.41912325139E+02 -0.50865360900E+02 -0.51683583303E+03  0.53580612748E+03  0.12500000000E+03 0.  0.
         25    1    1    2    0    0 -0.16047492327E+03  0.13694398953E+03  0.43682180704E+02  0.24907627381E+03  0.12500000000E+03 0.  0.
</event>
<event>
 5    0  0.5771634E-005  0.3008894E+03  0.7546771E-02  0.1084797E+00
         21   -1    0    0  502  501  0.00000000000E+00  0.00000000000E+00  0.12860540920E+03  0.12860540920E+03  0.00000000000E+00 0.  1.
         21   -1    0    0  501  502 -0.00000000000E+00 -0.00000000000E+00 -0.70397054037E+03  0.70397054037E+03  0.00000000000E+00 0.  1.
         25    1    1    2    0    0 -0.52570915300E+02  0.65605321095E+01 -0.15032299160E+03  0.20255553194E+03  0.12500000000E+03 0.  0.
         25    1    1    2    0    0 -0.10479288394E+03 -0.11757514068E+03 -0.31909206553E+03  0.37716071974E+03  0.12500000000E+03 0.  0.
         25    1    1    2    0    0  0.15736379924E+03  0.11101460857E+03 -0.10595007405E+03  0.25285969789E+03  0.12500000000E+03 0.  0.
</event>
<event>
 5    0  0.5771634E-005  0.4559601E+03  0.7546771E-02  0.1025959E+00
         21   -1    0    0  502  501  0.00000000000E+00  0.00000000000E+00  0.89363380775E+02  0.89363380775E+02  0.00000000000E+00 0. -1.
         21   -1    0    0  501  502 -0.00000000000E+00 -0.00000000000E+00 -0.23264514817E+04  0.23264514817E+04  0.00000000000E+00 0. -1.
         25    1    1    2    0    0 -0.12207386914E+03  0.11749615493E+02 -0.10520884087E+04  0.10665622827E+04  0.12500000000E+03 0.  0.
         25    1    1    2    0    0  0.38224734968E+02 -0.26086927244E+03 -0.88240220410E+03  0.92939365043E+03  0.12500000000E+03 0.  0.
         25    1    1    2    0    0  0.83849134171E+02  0.24911965695E+03 -0.30259748807E+03  0.41985892936E+03  0.12500000000E+03 0.  0.
</event>
<event>
 5    0  0.5771634E-005  0.3834668E+03  0.7546771E-02  0.1049660E+00
         21   -1    0    0  502  501  0.00000000000E+00  0.00000000000E+00  0.14725003320E+04  0.14725003320E+04  0.00000000000E+00 0. -1.
         21   -1    0    0  501  502 -0.00000000000E+00 -0.00000000000E+00 -0.99861974371E+02  0.99861974371E+02  0.00000000000E+00 0. -1.
         25    1    1    2    0    0  0.15064342859E+03 -0.11507542589E+02  0.10179657065E+04  0.10366798183E+04  0.12500000000E+03 0.  0.
         25    1    1    2    0    0  0.72329408751E+02 -0.67589273764E+01  0.14216200294E+03  0.20276158796E+03  0.12500000000E+03 0.  0.
         25    1    1    2    0    0 -0.22297283734E+03  0.18266469965E+02  0.21251064814E+03  0.33292090005E+03  0.12500000000E+03 0.  0.
</event>
<event>
 5    0  0.6143812E-005  0.3344828E+03  0.7546771E-02  0.1069170E+00
         21   -1    0    0  502  501  0.00000000000E+00  0.00000000000E+00  0.44680300014E+03  0.44680300014E+03  0.00000000000E+00 0. -1.
         21   -1    0    0  501  502 -0.00000000000E+00 -0.00000000000E+00 -0.25039835700E+03  0.25039835700E+03  0.00000000000E+00 0. -1.
         25    1    1    2    0    0  0.25097559974E+02 -0.18844323545E+03  0.21149852431E+03  0.31064025221E+03  0.12500000000E+03 0.  0.
         25    1    1    2    0    0 -0.13770717267E+02  0.51604574869E+02 -0.11289164012E+03  0.17669801134E+03  0.12500000000E+03 0.  0.
         25    1    1    2    0    0 -0.11326842707E+02  0.13683866058E+03  0.97797758948E+02  0.20986309359E+03  0.12500000000E+03 0.  0.
</event>
<event>
 5    0  0.5771634E-005  0.2814053E+03  0.7546771E-02  0.1094924E+00
         21   -1    0    0  502  501  0.00000000000E+00  0.00000000000E+00  0.71047074002E+03  0.71047074002E+03  0.00000000000E+00 0.  1.
         21   -1    0    0  501  502 -0.00000000000E+00 -0.00000000000E+00 -0.11145980392E+03  0.11145980392E+03  0.00000000000E+00 0.  1.
         25    1    1    2    0    0 -0.62291343827E+02 -0.11699983050E+03  0.30578994169E+03  0.35595176681E+03  0.12500000000E+03 0.  0.
         25    1    1    2    0    0 -0.57943551070E-01  0.15233816186E+03  0.24417448515E+03  0.31377236672E+03  0.12500000000E+03 0.  0.
         25    1    1    2    0    0  0.62349287378E+02 -0.35338331365E+02  0.49046509253E+02  0.15220641041E+03  0.12500000000E+03 0.  0.
</event>
<event>
 5    0  0.5771634E-005  0.2267933E+03  0.7546771E-02  0.1128917E+00
         21   -1    0    0  502  501  0.00000000000E+00  0.00000000000E+00  0.39631527258E+02  0.39631527258E+02  0.00000000000E+00 0. -1.
         21   -1    0    0  501  502 -0.00000000000E+00 -0.00000000000E+00 -0.12978355401E+04  0.12978355401E+04  0.00000000000E+00 0. -1.
         25    1    1    2    0    0  0.40419682792E+01  0.79096969040E+01 -0.18967722197E+03  0.22733532358E+03  0.12500000000E+03 0.  0.
         25    1    1    2    0    0  0.58669693262E+02 -0.11956873329E+01 -0.74376068116E+03  0.75647109226E+03  0.12500000000E+03 0.  0.
         25    1    1    2    0    0 -0.62711661541E+02 -0.67140095711E+01 -0.32476610968E+03  0.35366065149E+03  0.12500000000E+03 0.  0.
</event>
<event>
 5    0  0.5771634E-005  0.3414386E+03  0.7546771E-02  0.1066185E+00
         21   -1    0    0  502  501  0.00000000000E+00  0.00000000000E+00  0.18650863599E+03  0.18650863599E+03  0.00000000000E+00 0.  1.
         21   -1    0    0  501  502 -0.00000000000E+00 -0.00000000000E+00 -0.62506644212E+03  0.62506644212E+03  0.00000000000E+00 0.  1.
         25    1    1    2    0    0  0.16544618519E+03  0.17399394132E+03 -0.11613227561E+03  0.29454717321E+03  0.12500000000E+03 0.  0.
         25    1    1    2    0    0 -0.16609839751E+02 -0.60653315317E+01 -0.18979342118E+03  0.22794564647E+03  0.12500000000E+03 0.  0.
         25    1    1    2    0    0 -0.14883634544E+03 -0.16792860978E+03 -0.13263210934E+03  0.28908225843E+03  0.12500000000E+03 0.  0.
</event>
<event>
 5    0  0.5771634E-005  0.2225362E+03  0.7546771E-02  0.1132006E+00
         21   -1    0    0  502  501  0.00000000000E+00  0.00000000000E+00  0.18677240169E+04  0.18677240169E+04  0.00000000000E+00 0. -1.
         21   -1    0    0  501  502 -0.00000000000E+00 -0.00000000000E+00 -0.26514808028E+02  0.26514808028E+02  0.00000000000E+00 0. -1.
         25    1    1    2    0    0 -0.24428645582E+02 -0.74082725894E+02  0.52981938265E+03  0.54992598341E+03  0.12500000000E+03 0.  0.
         25    1    1    2    0    0 -0.47644708997E+02  0.23795094097E+02  0.76437812840E+03  0.77636019216E+03  0.12500000000E+03 0.  0.
         25    1    1    2    0    0  0.72073354579E+02  0.50287631797E+02  0.54701169783E+03  0.56795264936E+03  0.12500000000E+03 0.  0.
</event>
<event>
 5    0  0.5771634E-005  0.2945872E+03  0.7546771E-02  0.1087978E+00
         21   -1    0    0  502  501  0.00000000000E+00  0.00000000000E+00  0.80265165515E+02  0.80265165515E+02  0.00000000000E+00 0. -1.
         21   -1    0    0  501  502 -0.00000000000E+00 -0.00000000000E+00 -0.10811868582E+04  0.10811868582E+04  0.00000000000E+00 0. -1.
         25    1    1    2    0    0  0.47596318254E+02  0.30828844750E+02 -0.10089541916E+03  0.17035466764E+03  0.12500000000E+03 0.  0.
         25    1    1    2    0    0 -0.10982993492E+03 -0.44736920498E+02 -0.15120781521E+03  0.22924399674E+03  0.12500000000E+03 0.  0.
         25    1    1    2    0    0  0.62233616662E+02  0.13908075747E+02 -0.74881845827E+03  0.76185335929E+03  0.12500000000E+03 0.  0.
</event>
<event>
 5    0  0.5771634E-005  0.2254405E+03  0.7546771E-02  0.1129891E+00
         21   -1    0    0  502  501  0.00000000000E+00  0.00000000000E+00  0.17402534731E+03  0.17402534731E+03  0.00000000000E+00 0.  1.
         21   -1    0    0  501  502 -0.00000000000E+00 -0.00000000000E+00 -0.29204601688E+03  0.29204601688E+03  0.00000000000E+00 0.  1.
         25    1    1    2    0    0  0.47661884323E+02  0.43570192978E+02 -0.10328153358E+03  0.17453392825E+03  0.12500000000E+03 0.  0.
         25    1    1    2    0    0  0.40959377694E+02 -0.39149552629E+02 -0.16542669550E+02  0.13823537177E+03  0.12500000000E+03 0.  0.
         25    1    1    2    0    0 -0.88621262017E+02 -0.44206403490E+01  0.18035335611E+01  0.15330206416E+03  0.12500000000E+03 0.  0.
</event>
<event>
 5    0  0.5771634E-005  0.2877383E+03  0.7546771E-02  0.1091536E+00
         21   -1    0    0  502  501  0.00000000000E+00  0.00000000000E+00  0.90495567622E+03  0.90495567622E+03  0.00000000000E+00 0. -1.
         21   -1    0    0  501  502 -0.00000000000E+00 -0.00000000000E+00 -0.91488823141E+02  0.91488823141E+02  0.00000000000E+00 0. -1.
         25    1    1    2    0    0 -0.92932955430E+02  0.48308527889E+02  0.26614635447E+03  0.31213639658E+03  0.12500000000E+03 0.  0.
         25    1    1    2    0    0 -0.63929314408E+02 -0.89201219573E+02  0.10444182019E+03  0.19641005224E+03  0.12500000000E+03 0.  0.
         25    1    1    2    0    0  0.15686226984E+03  0.40892691684E+02  0.44287867841E+03  0.48789805054E+03  0.12500000000E+03 0.  0.
</event>
<event>
 5    0  0.5771634E-005  0.4159006E+03  0.7546771E-02  0.1038409E+00
         21   -1    0    0  502  501  0.00000000000E+00  0.00000000000E+00  0.46480277679E+03  0.46480277679E+03  0.00000000000E+00 0. -1.
         21   -1    0    0  501  502 -0.00000000000E+00 -0.00000000000E+00 -0.37214343475E+03  0.37214343475E+03  0.00000000000E+00 0. -1.
         25    1    1    2    0    0  0.13788604109E+03  0.14853341173E+02 -0.21740258287E+03  0.28656947693E+03  0.12500000000E+03 0.  0.
         25    1    1    2    0    0 -0.38551004022E+02  0.16700608897E+03  0.15880421076E+03  0.26499243578E+03  0.12500000000E+03 0.  0.
         25    1    1    2    0    0 -0.99335037067E+02 -0.18185943015E+03  0.15125771415E+03  0.28538429882E+03  0.12500000000E+03 0.  0.
</event>
<event>
 5    0  0.5771634E-005  0.2779037E+03  0.7546771E-02  0.1096839E+00
         21   -1    0    0  502  501  0.00000000000E+00  0.00000000000E+00  0.37235093504E+03  0.37235093504E+03  0.00000000000E+00 0.  1.
         21   -1    0    0  501  502 -0.00000000000E+00 -0.00000000000E+00 -0.20741313671E+03  0.20741313671E+03  0.00000000000E+00 0.  1.
         25    1    1    2    0    0  0.15585113062E+03 -0.78984913946E+02 -0.24216544313E+02  0.21619350722E+03  0.12500000000E+03 0.  0.
         25    1    1    2    0    0 -0.79163769331E+02  0.10237057796E+02  0.83684087911E+02  0.17029306004E+03  0.12500000000E+03 0.  0.
         25    1    1    2    0    0 -0.76687361290E+02  0.68747856150E+02  0.10547025474E+03  0.19327750449E+03  0.12500000000E+03 0.  0.
</event>
<event>
 5    0  0.5771634E-005  0.3143399E+03  0.7546771E-02  0.1078284E+00
         21   -1    0    0  502  501  0.00000000000E+00  0.00000000000E+00  0.20561106277E+04  0.20561106277E+04  0.00000000000E+00 0.  1.
         21   -1    0    0  501  502 -0.00000000000E+00 -0.00000000000E+00 -0.48056549994E+02  0.48056549994E+02  0.00000000000E+00 0.  1.
         25    1    1    2    0    0 -0.15085360274E+03  0.11507632174E+03  0.10925646752E+04  0.11159399351E+04  0.12500000000E+03 0.  0.
         25    1    1    2    0    0  0.28296989740E+02 -0.83474860702E+01  0.15871391500E+03  0.20417028914E+03  0.12500000000E+03 0.  0.
         25    1    1    2    0    0  0.12255661300E+03 -0.10672883567E+03  0.75677548756E+03  0.78405695350E+03  0.12500000000E+03 0.  0.
</event>
<event>
 5    0  0.5771634E-005  0.3293164E+03  0.7546771E-02  0.1071440E+00
         21   -1    0    0  502  501  0.00000000000E+00  0.00000000000E+00  0.42447312441E+02  0.42447312441E+02  0.00000000000E+00 0. -1.
         21   -1    0    0  501  502 -0.00000000000E+00 -0.00000000000E+00 -0.25549153959E+04  0.25549153959E+04  0.00000000000E+00 0. -1.
         25    1    1    2    0    0  0.47252361254E+01  0.86840986324E+02 -0.36122456171E+03  0.39201003653E+03  0.12500000000E+03 0.  0.
         25    1    1    2    0    0 -0.75827176759E+02 -0.11340247280E+03 -0.33067876201E+03  0.37892390425E+03  0.12500000000E+03 0.  0.
         25    1    1    2    0    0  0.71101940634E+02  0.26561486477E+02 -0.18205647597E+04  0.18264287675E+04  0.12500000000E+03 0.  0.
</event>
<event>
 5    0  0.5771634E-005  0.3143400E+03  0.7546771E-02  0.1078284E+00
         21   -1    0    0  502  501  0.00000000000E+00  0.00000000000E+00  0.80972470165E+03  0.80972470165E+03  0.00000000000E+00 0. -1.
         21   -1    0    0  501  502 -0.00000000000E+00 -0.00000000000E+00 -0.12202871743E+03  0.12202871743E+03  0.00000000000E+00 0. -1.
         25    1    1    2    0    0  0.78452023211E+02 -0.17183756261E+03  0.21573482176E+03  0.31280885728E+03  0.12500000000E+03 0.  0.
         25    1    1    2    0    0 -0.13007728380E+02  0.20262282884E+03  0.37711732247E+03  0.44617001992E+03  0.12500000000E+03 0.  0.
         25    1    1    2    0    0 -0.65444294831E+02 -0.30785266229E+02  0.94843839988E+02  0.17277454189E+03  0.12500000000E+03 0.  0.
</event>
<event>
 5    0  0.5771634E-005  0.2616551E+03  0.7546771E-02  0.1106153E+00
         21   -1    0    0  502  501  0.00000000000E+00  0.00000000000E+00  0.14799410534E+04  0.14799410534E+04  0.00000000000E+00 0.  1.
         21   -1    0    0  501  502 -0.00000000000E+00 -0.00000000000E+00 -0.46260890587E+02  0.46260890587E+02  0.00000000000E+00 0.  1.
         25    1    1    2    0    0 -0.12411850344E+03  0.56192136387E+02  0.57201454126E+03  0.60115604838E+03  0.12500000000E+03 0.  0.
         25    1    1    2    0    0  0.50752659119E+02 -0.54423155853E+02  0.19777211460E+03  0.24551277281E+03  0.12500000000E+03 0.  0.
         25    1    1    2    0    0  0.73365844323E+02 -0.17689805341E+01  0.66389350697E+03  0.67953312281E+03  0.12500000000E+03 0.  0.
</event>
<event>
 5    0  0.5771634E-005  0.2449880E+03  0.7546771E-02  0.1116514E+00
         21   -1    0    0  502  501  0.00000000000E+00  0.00000000000E+00  0.24111264719E+03  0.24111264719E+03  0.00000000000E+00 0. -1.
         21   -1    0    0  501  502 -0.00000000000E+00 -0.00000000000E+00 -0.24892557646E+03  0.24892557646E+03  0.00000000000E+00 0. -1.
         25    1    1    2    0    0  0.45729243732E+02  0.21432719760E+01  0.22195957398E+02  0.13495709641E+03  0.12500000000E+03 0.  0.
         25    1    1    2    0    0  0.49579080793E+02  0.67209541589E+02 -0.87456255003E+02  0.17392183380E+03  0.12500000000E+03 0.  0.
         25    1    1    2    0    0 -0.95308324524E+02 -0.69352813565E+02  0.57447368329E+02  0.18115929344E+03  0.12500000000E+03 0.  0.
</event>
<event>
 5    0  0.5771634E-005  0.5015360E+03  0.7546771E-02  0.1013379E+00
         21   -1    0    0  502  501  0.00000000000E+00  0.00000000000E+00  0.22942372629E+03  0.22942372629E+03  0.00000000000E+00 0. -1.
         21   -1    0    0  501  502 -0.00000000000E+00 -0.00000000000E+00 -0.10963922139E+04  0.10963922139E+04  0.00000000000E+00 0. -1.
         25    1    1    2    0    0 -0.13690569175E+03 -0.20803856923E+03 -0.45376080153E+03  0.53249138935E+03  0.12500000000E+03 0.  0.
         25    1    1    2    0    0 -0.11271821648E+03  0.25999784141E+03 -0.22794223401E+02  0.31056215237E+03  0.12500000000E+03 0.  0.
         25    1    1    2    0    0  0.24962390823E+03 -0.51959272181E+02 -0.39041346264E+03  0.48276239843E+03  0.12500000000E+03 0.  0.
</event>
<event>
 5    0  0.5771634E-005  0.2727289E+03  0.7546771E-02  0.1099728E+00
         21   -1    0    0  502  501  0.00000000000E+00  0.00000000000E+00  0.37655801963E+02  0.37655801963E+02  0.00000000000E+00 0. -1.
         21   -1    0    0  501  502 -0.00000000000E+00 -0.00000000000E+00 -0.19752886846E+04  0.19752886846E+04  0.00000000000E+00 0. -1.
         25    1    1    2    0    0 -0.31426005681E+02  0.39075576290E+02 -0.26048818341E+03  0.29324663373E+03  0.12500000000E+03 0.  0.
         25    1    1    2    0    0  0.69541477813E+02 -0.14985831042E+03 -0.99825174544E+03  0.10195219849E+04  0.12500000000E+03 0.  0.
         25    1    1    2    0    0 -0.38115472132E+02  0.11078273413E+03 -0.67889295380E+03  0.70017586799E+03  0.12500000000E+03 0.  0.
</event>
<event>
 5    0  0.6165721E-005  0.4071271E+03  0.7546771E-02  0.1041339E+00
         21   -1    0    0  502  501  0.00000000000E+00  0.00000000000E+00  0.43170701911E+03  0.43170701911E+03  0.00000000000E+00 0. -1.
         21   -1    0    0  501  502 -0.00000000000E+00 -0.00000000000E+00 -0.38394670819E+03  0.38394670819E+03  0.00000000000E+00 0. -1.
         25    1    1    2    0    0  0.10999993935E+03  0.18269610790E+03  0.12769714997E+03  0.27822547800E+03  0.12500000000E+03 0.  0.
         25    1    1    2    0    0  0.70128007837E+01 -0.15990238832E+03  0.14810469603E+03  0.25135225114E+03  0.12500000000E+03 0.  0.
         25    1    1    2    0    0 -0.11701274013E+03 -0.22793719579E+02 -0.22804153507E+03  0.28607599816E+03  0.12500000000E+03 0.  0.
</event>
<event>
 5    0  0.5771634E-005  0.3577228E+03  0.7546771E-02  0.1059489E+00
         21   -1    0    0  502  501  0.00000000000E+00  0.00000000000E+00  0.30234126682E+03  0.30234126682E+03  0.00000000000E+00 0. -1.
         21   -1    0    0  501  502 -0.00000000000E+00 -0.00000000000E+00 -0.42324894262E+03  0.42324894262E+03  0.00000000000E+00 0. -1.
         25    1    1    2    0    0  0.26246283558E+03 -0.36425115848E+01  0.59957131650E+02  0.29684990414E+03  0.12500000000E+03 0.  0.
         25    1    1    2    0    0 -0.90546573889E+02 -0.23491973862E+02 -0.14183604114E+03  0.21093368021E+03  0.12500000000E+03 0.  0.
         25    1    1    2    0    0 -0.17191626169E+03  0.27134485447E+02 -0.39028766315E+02  0.21780662510E+03  0.12500000000E+03 0.  0.
</event>
<event>
 5    0  0.5771634E-005  0.2096941E+03  0.7546771E-02  0.1141808E+00
         21   -1    0    0  502  501  0.00000000000E+00  0.00000000000E+00  0.41996057237E+03  0.41996057237E+03  0.00000000000E+00 0.  1.
         21   -1    0    0  501  502 -0.00000000000E+00 -0.00000000000E+00 -0.10470418074E+03  0.10470418074E+03  0.00000000000E+00 0.  1.
         25    1    1    2    0    0 -0.62406166436E+02  0.22945735901E+02  0.15291259531E+03  0.20839457337E+03  0.12500000000E+03 0.  0.
         25    1    1    2    0    0  0.36649461884E+02 -0.50176343554E+02  0.68226696025E+02  0.15537287588E+03  0.12500000000E+03 0.  0.
         25    1    1    2    0    0  0.25756704553E+02  0.27230607653E+02  0.94117100286E+02  0.16089730386E+03  0.12500000000E+03 0.  0.
</event>
<event>
 5    0  0.5771634E-005  0.2873652E+03  0.7546771E-02  0.1091733E+00
         21   -1    0    0  502  501  0.00000000000E+00  0.00000000000E+00  0.27756996746E+03  0.27756996746E+03  0.00000000000E+00 0. -1.
         21   -1    0    0  501  502 -0.00000000000E+00 -0.00000000000E+00 -0.29750603391E+03  0.29750603391E+03  0.00000000000E+00 0. -1.
         25    1    1    2    0    0 -0.59750117768E+02  0.10338040075E+03 -0.46569209484E+02  0.17902869911E+03  0.12500000000E+03 0.  0.
         25    1    1    2    0    0 -0.93183065082E+02  0.22312572158E+02 -0.15156769122E+02  0.15822661642E+03  0.12500000000E+03 0.  0.
         25    1    1    2    0    0  0.15293318285E+03 -0.12569297291E+03  0.41789912157E+02  0.23782068584E+03  0.12500000000E+03 0.  0.
</event>
<event>
 5    0  0.5771634E-005  0.2388369E+03  0.7546771E-02  0.1120570E+00
         21   -1    0    0  502  501  0.00000000000E+00  0.00000000000E+00  0.46033019563E+03  0.46033019563E+03  0.00000000000E+00 0. -1.
         21   -1    0    0  501  502 -0.00000000000E+00 -0.00000000000E+00 -0.12391772077E+03  0.12391772077E+03  0.00000000000E+00 0. -1.
         25    1    1    2    0    0 -0.10417380106E+02 -0.85944877705E+02  0.10332956006E+03  0.18383971767E+03  0.12500000000E+03 0.  0.
         25    1    1    2    0    0  0.62743847466E+02  0.70813852890E+02  0.36157243206E+02  0.16088423910E+03  0.12500000000E+03 0.  0.
         25    1    1    2    0    0 -0.52326467360E+02  0.15131024815E+02  0.19692567160E+03  0.23952395962E+03  0.12500000000E+03 0.  0.
</event>
<event>
 5    0  0.5771634E-005  0.4313021E+03  0.7546771E-02  0.1033449E+00
         21   -1    0    0  502  501  0.00000000000E+00  0.00000000000E+00  0.17040185060E+04  0.17040185060E+04  0.00000000000E+00 0.  1.
         21   -1    0    0  501  502 -0.00000000000E+00 -0.00000000000E+00 -0.10916636449E+03  0.10916636449E+03  0.00000000000E+00 0.  1.
         25    1    1    2    0    0 -0.10182657721E+02  0.36656409689E+02  0.31263955900E+03  0.33884490957E+03  0.12500000000E+03 0.  0.
         25    1    1    2    0    0  0.18422989052E+03 -0.24140427312E+03  0.28765896986E+03  0.43656541157E+03  0.12500000000E+03 0.  0.
         25    1    1    2    0    0 -0.17404723280E+03  0.20474786343E+03  0.99455361270E+03  0.10377745494E+04  0.12500000000E+03 0.  0.
</event>
<event>
 5    0  0.5771634E-005  0.3294613E+03  0.7546771E-02  0.1071375E+00
         21   -1    0    0  502  501  0.00000000000E+00  0.00000000000E+00  0.14598384815E+04  0.14598384815E+04  0.00000000000E+00 0. -1.
         21   -1    0    0  501  502 -0.00000000000E+00 -0.00000000000E+00 -0.74353965659E+02  0.74353965659E+02  0.00000000000E+00 0. -1.
         25    1    1    2    0    0  0.47860915864E+02 -0.85508272888E+02  0.89230413013E+03  0.90632995793E+03  0.12500000000E+03 0.  0.
         25    1    1    2    0    0 -0.23008442189E+02  0.12000473601E+03  0.45946507170E+03  0.49159299953E+03  0.12500000000E+03 0.  0.
         25    1    1    2    0    0 -0.24852473675E+02 -0.34496463120E+02  0.33715313975E+02  0.13626948966E+03  0.12500000000E+03 0.  0.
</event>
<event>
 5    0  0.5807758E-005  0.2564184E+03  0.7546771E-02  0.1109314E+00
         21   -1    0    0  502  501  0.00000000000E+00  0.00000000000E+00  0.77554080166E+02  0.77554080166E+02  0.00000000000E+00 0. -1.
         21   -1    0    0  501  502 -0.00000000000E+00 -0.00000000000E+00 -0.84780045964E+03  0.84780045964E+03  0.00000000000E+00 0. -1.
         25    1    1    2    0    0 -0.44222860174E+02  0.22945209689E+02 -0.13712329026E+03  0.19211960010E+03  0.12500000000E+03 0.  0.
         25    1    1    2    0    0  0.14952525956E+03 -0.42965948178E+02 -0.40933223692E+03  0.45539187095E+03  0.12500000000E+03 0.  0.
         25    1    1    2    0    0 -0.10530239938E+03  0.20020738489E+02 -0.22379085229E+03  0.27784306875E+03  0.12500000000E+03 0.  0.
</event>
<event>
 5    0  0.5771634E-005  0.3561650E+03  0.7546771E-02  0.1060113E+00
         21   -1    0    0  502  501  0.00000000000E+00  0.00000000000E+00  0.65115311289E+02  0.65115311289E+02  0.00000000000E+00 0. -1.
         21   -1    0    0  501  502 -0.00000000000E+00 -0.00000000000E+00 -0.19481367679E+04  0.19481367679E+04  0.00000000000E+00 0. -1.
         25    1    1    2    0    0  0.55056174921E+02 -0.18421488170E+02 -0.87178833136E+02  0.16308182784E+03  0.12500000000E+03 0.  0.
         25    1    1    2    0    0  0.15122119049E+03  0.18336533876E+02 -0.64975635936E+03  0.67897894184E+03  0.12500000000E+03 0.  0.
         25    1    1    2    0    0 -0.20627736541E+03  0.84954293941E-01 -0.11460862642E+04  0.11711913096E+04  0.12500000000E+03 0.  0.
</event>
<event>
 5    0  0.5771634E-005  0.3494401E+03  0.7546771E-02  0.1062845E+00
         21   -1    0    0  502  501  0.00000000000E+00  0.00000000000E+00  0.51345489249E+03  0.51345489249E+03  0.00000000000E+00 0. -1.
         21   -1    0    0  501  502 -0.00000000000E+00 -0.00000000000E+00 -0.23781716634E+03  0.23781716634E+03  0.00000000000E+00 0. -1.
         25    1    1    2    0    0  0.10948793734E+03  0.81628129203E+02  0.27295836826E+03  0.32982121021E+03  0.12500000000E+03 0.  0.
         25    1    1    2    0    0 -0.21523694929E+03 -0.60390084038E+02  0.82272987425E+01  0.25625494148E+03  0.12500000000E+03 0.  0.
         25    1    1    2    0    0  0.10574901194E+03 -0.21238045165E+02 -0.55479408432E+01  0.16519590714E+03  0.12500000000E+03 0.  0.
</event>
<event>
 5    0  0.5771634E-005  0.2647146E+03  0.7546771E-02  0.1104343E+00
         21   -1    0    0  502  501  0.00000000000E+00  0.00000000000E+00  0.34753004531E+03  0.34753004531E+03  0.00000000000E+00 0. -1.
         21   -1    0    0  501  502 -0.00000000000E+00 -0.00000000000E+00 -0.20163388499E+03  0.20163388499E+03  0.00000000000E+00 0. -1.
         25    1    1    2    0    0 -0.11345309526E+03  0.77355773078E+02  0.91919886276E+02  0.20719504325E+03  0.12500000000E+03 0.  0.
         25    1    1    2    0    0  0.71945324679E+02  0.16412957750E+02  0.97096426592E+02  0.17463742721E+03  0.12500000000E+03 0.  0.
         25    1    1    2    0    0  0.41507770585E+02 -0.93768730828E+02 -0.43120152548E+02  0.16733145985E+03  0.12500000000E+03 0.  0.
</event>
<event>
 5    0  0.5771634E-005  0.2133100E+03  0.7546771E-02  0.1138971E+00
         21   -1    0    0  502  501  0.00000000000E+00  0.00000000000E+00  0.33405864934E+02  0.33405864934E+02  0.00000000000E+00 0.  1.
         21   -1    0    0  501  502 -0.00000000000E+00 -0.00000000000E+00 -0.13620712138E+04  0.13620712138E+04  0.00000000000E+00 0.  1.
         25    1    1    2    0    0  0.29150580671E+02 -0.71129627279E+02 -0.55458922145E+03  0.57367533046E+03  0.12500000000E+03 0.  0.
         25    1    1    2    0    0 -0.32083698563E+02  0.23348575966E+02 -0.49813203703E+03  0.51510682972E+03  0.12500000000E+03 0.  0.
         25    1    1    2    0    0  0.29331178926E+01  0.47781051313E+02 -0.27594409038E+03  0.30669491855E+03  0.12500000000E+03 0.  0.
</event>
<event>
 5    0  0.5771634E-005  0.2366757E+03  0.7546771E-02  0.1122027E+00
         21   -1    0    0  502  501  0.00000000000E+00  0.00000000000E+00  0.31401112000E+03  0.31401112000E+03  0.00000000000E+00 0.  1.
         21   -1    0    0  501  502 -0.00000000000E+00 -0.00000000000E+00 -0.17838670568E+03  0.17838670568E+03  0.00000000000E+00 0.  1.
         25    1    1    2    0    0  0.48067702607E+02  0.27997317938E+02  0.53091432625E+02  0.14675848890E+03  0.12500000000E+03 0.  0.
         25    1    1    2    0    0  0.37816655453E+02  0.75289808679E+02  0.52978899659E+02  0.15978240995E+03  0.12500000000E+03 0.  0.
         25    1    1    2    0    0 -0.85884358060E+02 -0.10328712662E+03  0.29554082042E+02  0.18585692683E+03  0.12500000000E+03 0.  0.
</event>
<event>
 5    0  0.5771634E-005  0.2173477E+03  0.7546771E-02  0.1135876E+00
         21   -1    0    0  502  501  0.00000000000E+00  0.00000000000E+00  0.23315218960E+02  0.23315218960E+02  0.00000000000E+00 0. -1.
         21   -1    0    0  501  502 -0.00000000000E+00 -0.00000000000E+00 -0.20261444611E+04  0.20261444611E+04  0.00000000000E+00 0. -1.
         25    1    1    2    0    0  0.11363338990E+02 -0.79587682929E+02 -0.67698582247E+03  0.69310758803E+03  0.12500000000E+03 0.  0.
         25    1    1    2    0    0  0.19002569917E+02  0.78932461379E+02 -0.54640188604E+03  0.56636688832E+03  0.12500000000E+03 0.  0.
         25    1    1    2    0    0 -0.30365908907E+02  0.65522155073E+00 -0.77944153360E+03  0.78998520368E+03  0.12500000000E+03 0.  0.
</event>
<event>
 5    0  0.5771634E-005  0.3356882E+03  0.7546771E-02  0.1068647E+00
         21   -1    0    0  502  501  0.00000000000E+00  0.00000000000E+00  0.67524194467E+02  0.67524194467E+02  0.00000000000E+00 0.  1.
         21   -1    0    0  501  502 -0.00000000000E+00 -0.00000000000E+00 -0.16688325295E+04  0.16688325295E+04  0.00000000000E+00 0.  1.
         25    1    1    2    0    0 -0.45962894226E+02  0.47523768819E+02 -0.65413782473E+03  0.66924762980E+03  0.12500000000E+03 0.  0.
         25    1    1    2    0    0  0.88175167957E+02  0.10214017383E+03 -0.12824590037E+03  0.22423087726E+03  0.12500000000E+03 0.  0.
         25    1    1    2    0    0 -0.42212273730E+02 -0.14966394265E+03 -0.81892460988E+03  0.84287821685E+03  0.12500000000E+03 0.  0.
</event>
<event>
 5    0  0.5771634E-005  0.4820671E+03  0.7546771E-02  0.1018569E+00
         21   -1    0    0  502  501  0.00000000000E+00  0.00000000000E+00  0.20109360705E+03  0.20109360705E+03  0.00000000000E+00 0. -1.
         21   -1    0    0  501  502 -0.00000000000E+00 -0.00000000000E+00 -0.11556244702E+04  0.11556244702E+04  0.00000000000E+00 0. -1.
         25    1    1    2    0    0  0.22885540901E+02 -0.51373245684E+02  0.11830732224E+03  0.18106512875E+03  0.12500000000E+03 0.  0.
         25    1    1    2    0    0 -0.69098650164E+02 -0.16165380746E+03 -0.63741272451E+03  0.67292388744E+03  0.12500000000E+03 0.  0.
         25    1    1    2    0    0  0.46213109263E+02  0.21302705314E+03 -0.43542546090E+03  0.50272906106E+03  0.12500000000E+03 0.  0.
</event>
<event>
 5    0  0.5771634E-005  0.4084874E+03  0.7546771E-02  0.1040880E+00
         21   -1    0    0  502  501  0.00000000000E+00  0.00000000000E+00  0.55842109674E+03  0.55842109674E+03  0.00000000000E+00 0. -1.
         21   -1    0    0  501  502 -0.00000000000E+00 -0.00000000000E+00 -0.29881029008E+03  0.29881029008E+03  0.00000000000E+00 0. -1.
         25    1    1    2    0    0  0.78292352165E+02  0.11622155823E+03 -0.39860609538E+02  0.19196617201E+03  0.12500000000E+03 0.  0.
         25    1    1    2    0    0 -0.27755658251E+03 -0.15643590048E+03  0.10671083559E+03  0.35849972090E+03  0.12500000000E+03 0.  0.
         25    1    1    2    0    0  0.19926423034E+03  0.40214342252E+02  0.19276058061E+03  0.30676549391E+03  0.12500000000E+03 0.  0.
</event>
<event>
 5    0  0.7408665E-005  0.2756239E+03  0.7546771E-02  0.1098103E+00
         21   -1    0    0  502  501  0.00000000000E+00  0.00000000000E+00  0.40213333709E+03  0.40213333709E+03  0.00000000000E+00 0. -1.
         21   -1    0    0  501  502 -0.00000000000E+00 -0.00000000000E+00 -0.18891379298E+03  0.18891379298E+03  0.00000000000E+00 0. -1.
         25    1    1    2    0    0  0.16999502889E+02  0.31403968709E+02  0.16848695648E+03  0.21280988430E+03  0.12500000000E+03 0.  0.
         25    1    1    2    0    0 -0.15418331651E+02 -0.14997842264E+03 -0.13628876275E+02  0.19632116156E+03  0.12500000000E+03 0.  0.
         25    1    1    2    0    0 -0.15811712382E+01  0.11857445393E+03  0.58361463907E+02  0.18191608422E+03  0.12500000000E+03 0.  0.
</event>
<event>
 5    0  0.5771634E-005  0.4883976E+03  0.7546771E-02  0.1016852E+00
         21   -1    0    0  502  501  0.00000000000E+00  0.00000000000E+00  0.46723814865E+03  0.46723814865E+03  0.00000000000E+00 0.  1.
         21   -1    0    0  501  502 -0.00000000000E+00 -0.00000000000E+00 -0.51051527635E+03  0.51051527635E+03  0.00000000000E+00 0.  1.
         25    1    1    2    0    0  0.34431879453E+03  0.55382621584E+02 -0.14634235929E+03  0.39832618940E+03  0.12500000000E+03 0.  0.
         25    1    1    2    0    0 -0.37613249266E+03  0.43633691120E+02  0.11876143750E+03  0.41606349283E+03  0.12500000000E+03 0.  0.
         25    1    1    2    0    0  0.31813698130E+02 -0.99016312705E+02 -0.15696205914E+02  0.16336374277E+03  0.12500000000E+03 0.  0.
</event>
<event>
 5    0  0.5771634E-005  0.4253059E+03  0.7546771E-02  0.1035353E+00
         21   -1    0    0  502  501  0.00000000000E+00  0.00000000000E+00  0.41422648626E+03  0.41422648626E+03  0.00000000000E+00 0.  1.
         21   -1    0    0  501  502 -0.00000000000E+00 -0.00000000000E+00 -0.43668158037E+03  0.43668158037E+03  0.00000000000E+00 0.  1.
         25    1    1    2    0    0 -0.23881728489E+02  0.49027567889E+02 -0.10287499316E+02  0.13676575599E+03  0.12500000000E+03 0.  0.
         25    1    1    2    0    0  0.10252941168E+03  0.25635050911E+03 -0.16160963634E+03  0.34346839496E+03  0.12500000000E+03 0.  0.
         25    1    1    2    0    0 -0.78647683188E+02 -0.30537807700E+03  0.14944204154E+03  0.37067391568E+03  0.12500000000E+03 0.  0.
</event>
<event>
 5    0  0.5853556E-005  0.2675193E+03  0.7546771E-02  0.1102708E+00
         21   -1    0    0  502  501  0.00000000000E+00  0.00000000000E+00  0.20342672921E+03  0.20342672921E+03  0.00000000000E+00 0. -1.
         21   -1    0    0  501  502 -0.00000000000E+00 -0.00000000000E+00 -0.35180526502E+03  0.35180526502E+03  0.00000000000E+00 0. -1.
         25    1    1    2    0    0  0.83438332262E+02 -0.34353144693E+00  0.26976755353E+02  0.15269190756E+03  0.12500000000E+03 0.  0.
         25    1    1    2    0    0 -0.27335785439E+02  0.41538605291E+02  0.43222903642E+02  0.14130081491E+03  0.12500000000E+03 0.  0.
         25    1    1    2    0    0 -0.56102546823E+02 -0.41195073844E+02 -0.21857819480E+03  0.26123927177E+03  0.12500000000E+03 0.  0.
</event>
<event>
 5    0  0.5771634E-005  0.3674683E+03  0.7546771E-02  0.1055665E+00
         21   -1    0    0  502  501  0.00000000000E+00  0.00000000000E+00  0.61895670372E+02  0.61895670372E+02  0.00000000000E+00 0. -1.
         21   -1    0    0  501  502 -0.00000000000E+00 -0.00000000000E+00 -0.21816217103E+04  0.21816217103E+04  0.00000000000E+00 0. -1.
         25    1    1    2    0    0  0.14556378665E+03  0.16977336282E+03 -0.82802548900E+03  0.86675430263E+03  0.12500000000E+03 0.  0.
         25    1    1    2    0    0 -0.95768726186E+02 -0.21798608167E+03 -0.11272419060E+04  0.11588739774E+04  0.12500000000E+03 0.  0.
         25    1    1    2    0    0 -0.49795060468E+02  0.48212718846E+02 -0.16445864490E+03  0.21788910066E+03  0.12500000000E+03 0.  0.
</event>
<event>
 5    0  0.5771634E-005  0.4253881E+03  0.7546771E-02  0.1035327E+00
         21   -1    0    0  502  501  0.00000000000E+00  0.00000000000E+00  0.43249488200E+04  0.43249488200E+04  0.00000000000E+00 0.  1.
         21   -1    0    0  501  502 -0.00000000000E+00 -0.00000000000E+00 -0.41839805795E+02  0.41839805795E+02  0.00000000000E+00 0.  1.
         25    1    1    2    0    0  0.81725645265E+02  0.19287547660E+03  0.74133906214E+03  0.78044130825E+03  0.12500000000E+03 0.  0.
         25    1    1    2    0    0 -0.88275977889E+02  0.76732616885E+02  0.24139893678E+04  0.24200516958E+04  0.12500000000E+03 0.  0.
         25    1    1    2    0    0  0.65503326237E+01 -0.26960809349E+03  0.11277805843E+04  0.11662956218E+04  0.12500000000E+03 0.  0.
</event>
<event>
 5    0  0.5771634E-005  0.4593926E+03  0.7546771E-02  0.1024958E+00
         21   -1    0    0  502  501  0.00000000000E+00  0.00000000000E+00  0.22437449032E+03  0.22437449032E+03  0.00000000000E+00 0. -1.
         21   -1    0    0  501  502 -0.00000000000E+00 -0.00000000000E+00 -0.94057733173E+03  0.94057733173E+03  0.00000000000E+00 0. -1.
         25    1    1    2    0    0  0.39155338110E+02  0.15966863186E+03  0.83937862416E+02  0.22292998284E+03  0.12500000000E+03 0.  0.
         25    1    1    2    0    0  0.12053403389E+03 -0.10632672831E+03 -0.13423606325E+03  0.24388142028E+03  0.12500000000E+03 0.  0.
         25    1    1    2    0    0 -0.15968937200E+03 -0.53341903548E+02 -0.66590464057E+03  0.69814041893E+03  0.12500000000E+03 0.  0.
</event>
<event>
 5    0  0.5771634E-005  0.2708858E+03  0.7546771E-02  0.1100774E+00
         21   -1    0    0  502  501  0.00000000000E+00  0.00000000000E+00  0.25023067017E+03  0.25023067017E+03  0.00000000000E+00 0. -1.
         21   -1    0    0  501  502 -0.00000000000E+00 -0.00000000000E+00 -0.29324582226E+03  0.29324582226E+03  0.00000000000E+00 0. -1.
         25    1    1    2    0    0 -0.49165031804E+02  0.80640949486E+02  0.12551563879E+02  0.15717094147E+03  0.12500000000E+03 0.  0.
         25    1    1    2    0    0 -0.39196702353E+02  0.27434532038E+02  0.79173229931E+02  0.15550702673E+03  0.12500000000E+03 0.  0.
         25    1    1    2    0    0  0.88361734157E+02 -0.10807548152E+03 -0.13473994590E+03  0.23079852424E+03  0.12500000000E+03 0.  0.
</event>
<event>
 5    0  0.5974564E-005  0.3411314E+03  0.7546771E-02  0.1066315E+00
         21   -1    0    0  502  501  0.00000000000E+00  0.00000000000E+00  0.43866804199E+03  0.43866804199E+03  0.00000000000E+00 0. -1.
         21   -1    0    0  501  502 -0.00000000000E+00 -0.00000000000E+00 -0.26528168760E+03  0.26528168760E+03  0.00000000000E+00 0. -1.
         25    1    1    2    0    0  0.80931279573E+01  0.63096741996E+02 -0.10943636115E+03  0.17789888901E+03  0.12500000000E+03 0.  0.
         25    1    1    2    0    0  0.15873525554E+03 -0.10519732280E+03  0.11520770311E+03  0.25526686610E+03  0.12500000000E+03 0.  0.
         25    1    1    2    0    0 -0.16682838349E+03  0.42100580799E+02  0.16761501243E+03  0.27078397448E+03  0.12500000000E+03 0.  0.
</event>
<event>
 5    0  0.5771634E-005  0.2270585E+03  0.7546771E-02  0.1128727E+00
         21   -1    0    0  502  501  0.00000000000E+00  0.00000000000E+00  0.68939879432E+03  0.68939879432E+03  0.00000000000E+00 0. -1.
         21   -1    0    0  501  502 -0.00000000000E+00 -0.00000000000E+00 -0.74783347353E+02  0.74783347353E+02  0.00000000000E+00 0. -1.
         25    1    1    2    0    0 -0.33642955276E+02 -0.35007895452E+02  0.28761665424E+03  0.31734167860E+03  0.12500000000E+03 0.  0.
         25    1    1    2    0    0 -0.35405837539E+02 -0.47735037865E+01  0.63916874595E+02  0.14486796239E+03  0.12500000000E+03 0.  0.
         25    1    1    2    0    0  0.69048792815E+02  0.39781399239E+02  0.26308191813E+03  0.30197250068E+03  0.12500000000E+03 0.  0.
</event>
<event>
 5    0  0.5771634E-005  0.3064605E+03  0.7546771E-02  0.1082055E+00
         21   -1    0    0  502  501  0.00000000000E+00  0.00000000000E+00  0.50626188620E+03  0.50626188620E+03  0.00000000000E+00 0. -1.
         21   -1    0    0  501  502 -0.00000000000E+00 -0.00000000000E+00 -0.18551278196E+03  0.18551278196E+03  0.00000000000E+00 0. -1.
         25    1    1    2    0    0 -0.11096392620E+02 -0.71789092990E+02  0.20777262339E+03  0.25312302707E+03  0.12500000000E+03 0.  0.
         25    1    1    2    0    0 -0.11626304391E+03  0.11364724605E+03  0.14687126068E+03  0.25224781293E+03  0.12500000000E+03 0.  0.
         25    1    1    2    0    0  0.12735943653E+03 -0.41858153061E+02 -0.33894779831E+02  0.18640382816E+03  0.12500000000E+03 0.  0.
</event>
<event>
 5    0  0.5771634E-005  0.4417031E+03  0.7546771E-02  0.1030226E+00
         21   -1    0    0  502  501  0.00000000000E+00  0.00000000000E+00  0.10667907180E+03  0.10667907180E+03  0.00000000000E+00 0.  1.
         21   -1    0    0  501  502 -0.00000000000E+00 -0.00000000000E+00 -0.18288649997E+04  0.18288649997E+04  0.00000000000E+00 0.  1.
         25    1    1    2    0    0 -0.35430663449E+02 -0.16859037827E+02 -0.25735775251E+03  0.28878637753E+03  0.12500000000E+03 0.  0.
         25    1    1    2    0    0 -0.15168673704E+03 -0.13738778742E+03 -0.13126310623E+04  0.13343573644E+04  0.12500000000E+03 0.  0.
         25    1    1    2    0    0  0.18711740049E+03  0.15424682525E+03 -0.15219711312E+03  0.31240032955E+03  0.12500000000E+03 0.  0.
</event>
<event>
 5    0  0.6673677E-005  0.6854211E+03  0.7546771E-02  0.9742494E-01
         21   -1    0    0  502  501  0.00000000000E+00  0.00000000000E+00  0.64745547220E+03  0.64745547220E+03  0.00000000000E+00 0.  1.
         21   -1    0    0  501  502 -0.00000000000E+00 -0.00000000000E+00 -0.72561295876E+03  0.72561295876E+03  0.00000000000E+00 0.  1.
         25    1    1    2    0    0 -0.33280745685E+03 -0.11680506997E+03 -0.19080901492E+02  0.37469095066E+03  0.12500000000E+03 0.  0.
         25    1    1    2    0    0  0.17771262793E+03  0.42812723394E+03 -0.29160110508E+03  0.56172138205E+03  0.12500000000E+03 0.  0.
         25    1    1    2    0    0  0.15509482891E+03 -0.31132216398E+03  0.23252452000E+03  0.43665609825E+03  0.12500000000E+03 0.  0.
</event>
<event>
 5    0  0.7207160E-005  0.2948880E+03  0.7546771E-02  0.1087824E+00
         21   -1    0    0  502  501  0.00000000000E+00  0.00000000000E+00  0.16986113449E+03  0.16986113449E+03  0.00000000000E+00 0. -1.
         21   -1    0    0  501  502 -0.00000000000E+00 -0.00000000000E+00 -0.51194120540E+03  0.51194120540E+03  0.00000000000E+00 0. -1.
         25    1    1    2    0    0 -0.10418802910E+03 -0.54891331922E+01 -0.20100086371E+03  0.25867281110E+03  0.12500000000E+03 0.  0.
         25    1    1    2    0    0 -0.59132887593E+02  0.90795544024E+02 -0.12225635280E+02  0.16587644609E+03  0.12500000000E+03 0.  0.
         25    1    1    2    0    0  0.16332091670E+03 -0.85306410832E+02 -0.12885357192E+03  0.25725308269E+03  0.12500000000E+03 0.  0.
</event>
<event>
 5    0  0.5771634E-005  0.2247035E+03  0.7546771E-02  0.1130424E+00
         21   -1    0    0  502  501  0.00000000000E+00  0.00000000000E+00  0.76226827279E+03  0.76226827279E+03  0.00000000000E+00 0.  1.
         21   -1    0    0  501  502 -0.00000000000E+00 -0.00000000000E+00 -0.66238714635E+02  0.66238714635E+02  0.00000000000E+00 0.  1.
         25    1    1    2    0    0 -0.10391894842E+03 -0.17736870295E+02  0.28386749042E+03  0.32759654535E+03  0.12500000000E+03 0.  0.
         25    1    1    2    0    0  0.88951770145E+02  0.16998210779E+02  0.27006801305E+03  0.31106765864E+03  0.12500000000E+03 0.  0.
         25    1    1    2    0    0  0.14967178277E+02  0.73865951604E+00  0.14209405469E+03  0.18984278343E+03  0.12500000000E+03 0.  0.
</event>
<event>
 5    0  0.5771634E-005  0.3354596E+03  0.7546771E-02  0.1068746E+00
         21   -1    0    0  502  501  0.00000000000E+00  0.00000000000E+00  0.79078418812E+03  0.79078418812E+03  0.00000000000E+00 0. -1.
         21   -1    0    0  501  502 -0.00000000000E+00 -0.00000000000E+00 -0.14230575635E+03  0.14230575635E+03  0.00000000000E+00 0. -1.
         25    1    1    2    0    0 -0.86023046329E+02 -0.62710727679E+02  0.14721409710E+02  0.16484635201E+03  0.12500000000E+03 0.  0.
         25    1    1    2    0    0 -0.11652865410E+03 -0.24738802025E+02  0.18691794407E+03  0.25446857049E+03  0.12500000000E+03 0.  0.
         25    1    1    2    0    0  0.20255170043E+03  0.87449529704E+02  0.44683907799E+03  0.51377502198E+03  0.12500000000E+03 0.  0.
</event>
<event>
 5    0  0.5771634E-005  0.2775378E+03  0.7546771E-02  0.1097041E+00
         21   -1    0    0  502  501  0.00000000000E+00  0.00000000000E+00  0.48978118815E+03  0.48978118815E+03  0.00000000000E+00 0. -1.
         21   -1    0    0  501  502 -0.00000000000E+00 -0.00000000000E+00 -0.15726870519E+03  0.15726870519E+03  0.00000000000E+00 0. -1.
         25    1    1    2    0    0  0.75779172908E+02  0.13330012298E+01 -0.45983274691E+02  0.15324399332E+03  0.12500000000E+03 0.  0.
         25    1    1    2    0    0 -0.33212804751E+02 -0.41730194619E+02  0.31246649517E+03  0.34074155917E+03  0.12500000000E+03 0.  0.
         25    1    1    2    0    0 -0.42566368157E+02  0.40397193390E+02  0.66029262481E+02  0.15306434084E+03  0.12500000000E+03 0.  0.
</event>
<event>
 5    0  0.5771634E-005  0.3437401E+03  0.7546771E-02  0.1065214E+00
         21   -1    0    0  502  501  0.00000000000E+00  0.00000000000E+00  0.17390954477E+03  0.17390954477E+03  0.00000000000E+00 0.  1.
         21   -1    0    0  501  502 -0.00000000000E+00 -0.00000000000E+00 -0.67941781353E+03  0.67941781353E+03  0.00000000000E+00 0.  1.
         25    1    1    2    0    0 -0.51020307519E+02  0.67881358813E+02 -0.26409431962E+03  0.30427250994E+03  0.12500000000E+03 0.  0.
         25    1    1    2    0    0  0.21642982673E+03 -0.73061783948E+02 -0.21938998729E+03  0.34049502301E+03  0.12500000000E+03 0.  0.
         25    1    1    2    0    0 -0.16540951921E+03  0.51804251347E+01 -0.22023961856E+02  0.20855982534E+03  0.12500000000E+03 0.  0.
</event>
<event>
 5    0  0.6174979E-005  0.3411193E+03  0.7546771E-02  0.1066320E+00
         21   -1    0    0  502  501  0.00000000000E+00  0.00000000000E+00  0.65196825828E+03  0.65196825828E+03  0.00000000000E+00 0. -1.
         21   -1    0    0  501  502 -0.00000000000E+00 -0.00000000000E+00 -0.17847857211E+03  0.17847857211E+03  0.00000000000E+00 0. -1.
         25    1    1    2    0    0  0.22223181084E+02  0.20568459984E+03  0.11919362252E+03  0.26950351397E+03  0.12500000000E+03 0.  0.
         25    1    1    2    0    0 -0.12697136685E+03 -0.59050738914E+02  0.26362992057E+03  0.32362702728E+03  0.12500000000E+03 0.  0.
         25    1    1    2    0    0  0.10474818577E+03 -0.14663386093E+03  0.90666143070E+02  0.23731628914E+03  0.12500000000E+03 0.  0.
</event>
<event>
 5    0  0.5771634E-005  0.5062813E+03  0.7546771E-02  0.1012152E+00
         21   -1    0    0  502  501  0.00000000000E+00  0.00000000000E+00  0.28346953096E+03  0.28346953096E+03  0.00000000000E+00 0.  1.
         21   -1    0    0  501  502 -0.00000000000E+00 -0.00000000000E+00 -0.90422669700E+03  0.90422669700E+03  0.00000000000E+00 0.  1.
         25    1    1    2    0    0 -0.22591725052E+03  0.87257560727E+02  0.17057643718E+03  0.32151797291E+03  0.12500000000E+03 0.  0.
         25    1    1    2    0    0  0.13798413020E+03 -0.49698868851E+02 -0.48247304741E+03  0.51953328982E+03  0.12500000000E+03 0.  0.
         25    1    1    2    0    0  0.87933120317E+02 -0.37558691876E+02 -0.30886055580E+03  0.34664496522E+03  0.12500000000E+03 0.  0.
</event>
<event>
 5    0  0.5771634E-005  0.6765299E+03  0.7546771E-02  0.9758233E-01
         21   -1    0    0  502  501  0.00000000000E+00  0.00000000000E+00  0.13607088266E+04  0.13607088266E+04  0.00000000000E+00 0.  1.
         21   -1    0    0  501  502 -0.00000000000E+00 -0.00000000000E+00 -0.33636342899E+03  0.33636342899E+03  0.00000000000E+00 0.  1.
         25    1    1    2    0    0  0.14478889282E+03  0.64663973874E+01  0.19401192138E+03  0.27252754616E+03  0.12500000000E+03 0.  0.
         25    1    1    2    0    0  0.44779663798E+03 -0.20366707434E+03  0.26336393252E+03  0.57182835458E+03  0.12500000000E+03 0.  0.
         25    1    1    2    0    0 -0.59258553080E+03  0.19720067696E+03  0.56696954367E+03  0.85271635480E+03  0.12500000000E+03 0.  0.
</event>
<event>
 5    0  0.5771634E-005  0.3134550E+03  0.7546771E-02  0.1078702E+00
         21   -1    0    0  502  501  0.00000000000E+00  0.00000000000E+00  0.35861408725E+02  0.35861408725E+02  0.00000000000E+00 0. -1.
         21   -1    0    0  501  502 -0.00000000000E+00 -0.00000000000E+00 -0.27398264231E+04  0.27398264231E+04  0.00000000000E+00 0. -1.
         25    1    1    2    0    0 -0.14879667786E+03 -0.14587382620E+02 -0.18195503246E+04  0.18299567281E+04  0.12500000000E+03 0.  0.
         25    1    1    2    0    0  0.10779902776E+03  0.44266373723E+01 -0.69851804241E+03  0.71776923943E+03  0.12500000000E+03 0.  0.
         25    1    1    2    0    0  0.40997650098E+02  0.10160745248E+02 -0.18589664737E+03  0.22796186427E+03  0.12500000000E+03 0.  0.
</event>
<event>
 5    0  0.5771634E-005  0.4764491E+03  0.7546771E-02  0.1020116E+00
         21   -1    0    0  502  501  0.00000000000E+00  0.00000000000E+00  0.59598332883E+03  0.59598332883E+03  0.00000000000E+00 0.  1.
         21   -1    0    0  501  502 -0.00000000000E+00 -0.00000000000E+00 -0.38088946437E+03  0.38088946437E+03  0.00000000000E+00 0.  1.
         25    1    1    2    0    0  0.13601938293E+03 -0.82128252571E+02 -0.63229987496E+02  0.21182387430E+03  0.12500000000E+03 0.  0.
         25    1    1    2    0    0 -0.37021911744E+03  0.84535888587E+02  0.29830318727E+03  0.49881690319E+03  0.12500000000E+03 0.  0.
         25    1    1    2    0    0  0.23419973451E+03 -0.24076360158E+01 -0.19979335311E+02  0.26623201572E+03  0.12500000000E+03 0.  0.
</event>
<event>
 5    0  0.5771634E-005  0.2275983E+03  0.7546771E-02  0.1128342E+00
         21   -1    0    0  502  501  0.00000000000E+00  0.00000000000E+00  0.15094275881E+03  0.15094275881E+03  0.00000000000E+00 0.  1.
         21   -1    0    0  501  502 -0.00000000000E+00 -0.00000000000E+00 -0.34318309271E+03  0.34318309271E+03  0.00000000000E+00 0.  1.
         25    1    1    2    0    0 -0.87288045871E+01 -0.74832275361E+01 -0.20371042627E+02  0.12716984745E+03  0.12500000000E+03 0.  0.
         25    1    1    2    0    0  0.87985073417E+02 -0.48696615180E+02 -0.12006664244E+03  0.20038396169E+03  0.12500000000E+03 0.  0.
         25    1    1    2    0    0 -0.79256268830E+02  0.56179842716E+02 -0.51802648835E+02  0.16657204238E+03  0.12500000000E+03 0.  0.
</event>
<event>
 5    0  0.5771634E-005  0.3570234E+03  0.7546771E-02  0.1059769E+00
         21   -1    0    0  502  501  0.00000000000E+00  0.00000000000E+00  0.87497716425E+02  0.87497716425E+02  0.00000000000E+00 0.  1.
         21   -1    0    0  501  502 -0.00000000000E+00 -0.00000000000E+00 -0.14567888403E+04  0.14567888403E+04  0.00000000000E+00 0.  1.
         25    1    1    2    0    0  0.18063005703E+02  0.47155086199E+02 -0.11753100081E+03  0.17885304158E+03  0.12500000000E+03 0.  0.
         25    1    1    2    0    0 -0.72167478210E+02  0.11199255647E+03 -0.12985032481E+03  0.22413519239E+03  0.12500000000E+03 0.  0.
         25    1    1    2    0    0  0.54104472507E+02 -0.15914764267E+03 -0.11219097982E+04  0.11412983227E+04  0.12500000000E+03 0.  0.
</event>
<event>
 5    0  0.5771634E-005  0.3217384E+03  0.7546771E-02  0.1074852E+00
         21   -1    0    0  502  501  0.00000000000E+00  0.00000000000E+00  0.18197213124E+03  0.18197213124E+03  0.00000000000E+00 0.  1.
         21   -1    0    0  501  502 -0.00000000000E+00 -0.00000000000E+00 -0.56885421796E+03  0.56885421796E+03  0.00000000000E+00 0.  1.
         25    1    1    2    0    0 -0.13398481948E+02  0.62354154656E+02  0.20467849745E+02  0.14181499496E+03  0.12500000000E+03 0.  0.
         25    1    1    2    0    0  0.53961081423E+02  0.10365410713E+03 -0.26351162387E+02  0.17313392502E+03  0.12500000000E+03 0.  0.
         25    1    1    2    0    0 -0.40562599475E+02 -0.16600826179E+03 -0.38099877407E+03  0.43587742922E+03  0.12500000000E+03 0.  0.
</event>
<event>
 5    0  0.5771634E-005  0.2975246E+03  0.7546771E-02  0.1086485E+00
         21   -1    0    0  502  501  0.00000000000E+00  0.00000000000E+00  0.16397638954E+03  0.16397638954E+03  0.00000000000E+00 0.  1.
         21   -1    0    0  501  502 -0.00000000000E+00 -0.00000000000E+00 -0.53983933805E+03  0.53983933805E+03  0.00000000000E+00 0.  1.
         25    1    1    2    0    0 -0.11059507039E+03 -0.29336729153E+02 -0.31323806969E+02  0.17233134989E+03  0.12500000000E+03 0.  0.
         25    1    1    2    0    0  0.17122579928E+02  0.13963326830E+03 -0.78489376229E+02  0.20390246330E+03  0.12500000000E+03 0.  0.
         25    1    1    2    0    0  0.93472490463E+02 -0.11029653914E+03 -0.26604976531E+03  0.32758191440E+03  0.12500000000E+03 0.  0.
</event>
<event>
 5    0  0.5771634E-005  0.3200967E+03  0.7546771E-02  0.1075605E+00
         21   -1    0    0  502  501  0.00000000000E+00  0.00000000000E+00  0.21529847286E+03  0.21529847286E+03  0.00000000000E+00 0.  1.
         21   -1    0    0  501  502 -0.00000000000E+00 -0.00000000000E+00 -0.47590633972E+03  0.47590633972E+03  0.00000000000E+00 0.  1.
         25    1    1    2    0    0 -0.13309761734E+03  0.60049315359E+02 -0.29334074423E+02  0.19443863798E+03  0.12500000000E+03 0.  0.
         25    1    1    2    0    0  0.12433605128E+03  0.10812330877E+03 -0.35459265855E+02  0.20983913621E+03  0.12500000000E+03 0.  0.
         25    1    1    2    0    0  0.87615660550E+01 -0.16817262413E+03 -0.19581452658E+03  0.28692703840E+03  0.12500000000E+03 0.  0.
</event>
<event>
 5    0  0.5771634E-005  0.2856643E+03  0.7546771E-02  0.1092635E+00
         21   -1    0    0  502  501  0.00000000000E+00  0.00000000000E+00  0.63349275346E+03  0.63349275346E+03  0.00000000000E+00 0.  1.
         21   -1    0    0  501  502 -0.00000000000E+00 -0.00000000000E+00 -0.12881612417E+03  0.12881612417E+03  0.00000000000E+00 0.  1.
         25    1    1    2    0    0  0.94993105339E+02  0.11985415118E+02  0.12745479016E+03  0.20257606910E+03  0.12500000000E+03 0.  0.
         25    1    1    2    0    0 -0.20590115484E+03 -0.26736181160E+02  0.18705166631E+03  0.30614283401E+03  0.12500000000E+03 0.  0.
         25    1    1    2    0    0  0.11090804951E+03  0.14750766042E+02  0.19017017282E+03  0.25358997452E+03  0.12500000000E+03 0.  0.
</event>
<event>
 5    0  0.5771634E-005  0.3063669E+03  0.7546771E-02  0.1082100E+00
         21   -1    0    0  502  501  0.00000000000E+00  0.00000000000E+00  0.16340397094E+04  0.16340397094E+04  0.00000000000E+00 0. -1.
         21   -1    0    0  501  502 -0.00000000000E+00 -0.00000000000E+00 -0.57440868410E+02  0.57440868410E+02  0.00000000000E+00 0. -1.
         25    1    1    2    0    0  0.65638779114E+02 -0.90563580604E+02  0.33888691402E+03  0.37812637035E+03  0.12500000000E+03 0.  0.
         25    1    1    2    0    0 -0.19256804350E+02 -0.19239260443E+02  0.99385031025E+02  0.16199801865E+03  0.12500000000E+03 0.  0.
         25    1    1    2    0    0 -0.46381974763E+02  0.10980284105E+03  0.11383268959E+04  0.11513561888E+04  0.12500000000E+03 0.  0.
</event>
<event>
 5    0  0.5771634E-005  0.2903771E+03  0.7546771E-02  0.1090152E+00
         21   -1    0    0  502  501  0.00000000000E+00  0.00000000000E+00  0.36528500654E+03  0.36528500654E+03  0.00000000000E+00 0. -1.
         21   -1    0    0  501  502 -0.00000000000E+00 -0.00000000000E+00 -0.23083035786E+03  0.23083035786E+03  0.00000000000E+00 0. -1.
         25    1    1    2    0    0 -0.29744747418E+02 -0.42731955052E+02 -0.34648589113E+02  0.13977229593E+03  0.12500000000E+03 0.  0.
         25    1    1    2    0    0 -0.13611974960E+03  0.23122178572E+02  0.16321582751E+03  0.24764415543E+03  0.12500000000E+03 0.  0.
         25    1    1    2    0    0  0.16586449701E+03  0.19609776480E+02  0.58874102928E+01  0.20869891304E+03  0.12500000000E+03 0.  0.
</event>
<event>
 5    0  0.5771634E-005  0.3480984E+03  0.7546771E-02  0.1063398E+00
         21   -1    0    0  502  501  0.00000000000E+00  0.00000000000E+00  0.28186380090E+03  0.28186380090E+03  0.00000000000E+00 0.  1.
         21   -1    0    0  501  502 -0.00000000000E+00 -0.00000000000E+00 -0.42989739555E+03  0.42989739555E+03  0.00000000000E+00 0.  1.
         25    1    1    2    0    0  0.49319945381E+02 -0.92698228977E+02 -0.13897245447E+03  0.21439160844E+03  0.12500000000E+03 0.  0.
         25    1    1    2    0    0 -0.17541226043E+03 -0.72537904416E+02  0.77062819988E+02  0.23998934749E+03  0.12500000000E+03 0.  0.
         25    1    1    2    0    0  0.12609231505E+03  0.16523613339E+03 -0.86123960169E+02  0.25738024052E+03  0.12500000000E+03 0.  0.
</event>
<event>
 5    0  0.5771634E-005  0.2668540E+03  0.7546771E-02  0.1103094E+00
         21   -1    0    0  502  501  0.00000000000E+00  0.00000000000E+00  0.58205085758E+03  0.58205085758E+03  0.00000000000E+00 0. -1.
         21   -1    0    0  501  502 -0.00000000000E+00 -0.00000000000E+00 -0.12234510240E+03  0.12234510240E+03  0.00000000000E+00 0. -1.
         25    1    1    2    0    0 -0.82010432402E+02  0.13922469113E+03  0.27862243958E+03  0.34549195284E+03  0.12500000000E+03 0.  0.
         25    1    1    2    0    0  0.34951512022E+02 -0.52681575870E+02  0.13169778512E+03  0.19226612607E+03  0.12500000000E+03 0.  0.
         25    1    1    2    0    0  0.47058920380E+02 -0.86543115255E+02  0.49385530492E+02  0.16663788107E+03  0.12500000000E+03 0.  0.
</event>
<event>
 5    0  0.5771634E-005  0.3750201E+03  0.7546771E-02  0.1052790E+00
         21   -1    0    0  502  501  0.00000000000E+00  0.00000000000E+00  0.30810263028E+03  0.30810263028E+03  0.00000000000E+00 0.  1.
         21   -1    0    0  501  502 -0.00000000000E+00 -0.00000000000E+00 -0.45647157926E+03  0.45647157926E+03  0.00000000000E+00 0.  1.
         25    1    1    2    0    0 -0.26421842322E+03  0.60340102373E+02 -0.22987553855E+03  0.37672279775E+03  0.12500000000E+03 0.  0.
         25    1    1    2    0    0  0.11975529423E+03  0.55950493358E+01  0.65333907152E+02  0.18511119495E+03  0.12500000000E+03 0.  0.
         25    1    1    2    0    0  0.14446312900E+03 -0.65935151709E+02  0.16172682415E+02  0.20274021685E+03  0.12500000000E+03 0.  0.
</event>
<event>
 5    0  0.5771634E-005  0.2701971E+03  0.7546771E-02  0.1101167E+00
         21   -1    0    0  502  501  0.00000000000E+00  0.00000000000E+00  0.38494387238E+03  0.38494387238E+03  0.00000000000E+00 0.  1.
         21   -1    0    0  501  502 -0.00000000000E+00 -0.00000000000E+00 -0.18965480608E+03  0.18965480608E+03  0.00000000000E+00 0.  1.
         25    1    1    2    0    0  0.17419909927E+02 -0.84664392562E+02  0.15556443555E+03  0.21747828912E+03  0.12500000000E+03 0.  0.
         25    1    1    2    0    0  0.14429365563E+01 -0.69267653758E+02  0.63747217392E+02  0.15648896973E+03  0.12500000000E+03 0.  0.
         25    1    1    2    0    0 -0.18862846484E+02  0.15393204632E+03 -0.24022586644E+02  0.20063141960E+03  0.12500000000E+03 0.  0.
</event>
<event>
 5    0  0.5771634E-005  0.3900792E+03  0.7546771E-02  0.1047270E+00
         21   -1    0    0  502  501  0.00000000000E+00  0.00000000000E+00  0.12176102284E+04  0.12176102284E+04  0.00000000000E+00 0. -1.
         21   -1    0    0  501  502 -0.00000000000E+00 -0.00000000000E+00 -0.12496754726E+03  0.12496754726E+03  0.00000000000E+00 0. -1.
         25    1    1    2    0    0  0.17692660522E+03  0.13553084712E+03  0.32244519996E+03  0.41142136689E+03  0.12500000000E+03 0.  0.
         25    1    1    2    0    0 -0.21721806892E+02 -0.13116184228E+03  0.69427494065E+03  0.71785650306E+03  0.12500000000E+03 0.  0.
         25    1    1    2    0    0 -0.15520479833E+03 -0.43690048323E+01  0.75922540561E+02  0.21329990575E+03  0.12500000000E+03 0.  0.
</event>
<event>
 5    0  0.5771634E-005  0.4793390E+03  0.7546771E-02  0.1019317E+00
         21   -1    0    0  502  501  0.00000000000E+00  0.00000000000E+00  0.75591833179E+03  0.75591833179E+03  0.00000000000E+00 0.  1.
         21   -1    0    0  501  502 -0.00000000000E+00 -0.00000000000E+00 -0.30395593617E+03  0.30395593617E+03  0.00000000000E+00 0.  1.
         25    1    1    2    0    0 -0.59539623752E+02  0.22726264201E+03 -0.15807035278E+03  0.30952303901E+03  0.12500000000E+03 0.  0.
         25    1    1    2    0    0 -0.50601051366E+02  0.53584036192E+01  0.29716737803E+03  0.32637804683E+03  0.12500000000E+03 0.  0.
         25    1    1    2    0    0  0.11014067512E+03 -0.23262104563E+03  0.31286537037E+03  0.42397318212E+03  0.12500000000E+03 0.  0.
</event>
<event>
 5    0  0.5771634E-005  0.3045354E+03  0.7546771E-02  0.1082995E+00
         21   -1    0    0  502  501  0.00000000000E+00  0.00000000000E+00  0.17625264095E+03  0.17625264095E+03  0.00000000000E+00 0.  1.
         21   -1    0    0  501  502 -0.00000000000E+00 -0.00000000000E+00 -0.52618689390E+03  0.52618689390E+03  0.00000000000E+00 0.  1.
         25    1    1    2    0    0 -0.58537295131E+02  0.10897826428E+03 -0.25189321328E+03  0.30721013640E+03  0.12500000000E+03 0.  0.
         25    1    1    2    0    0 -0.96124830694E+02 -0.22543903877E+02 -0.52483399976E+01  0.15937614549E+03  0.12500000000E+03 0.  0.
         25    1    1    2    0    0  0.15466212582E+03 -0.86434360398E+02 -0.92792699664E+02  0.23585325296E+03  0.12500000000E+03 0.  0.
</event>
<event>
 5    0  0.5771634E-005  0.4177788E+03  0.7546771E-02  0.1037792E+00
         21   -1    0    0  502  501  0.00000000000E+00  0.00000000000E+00  0.50214856586E+03  0.50214856586E+03  0.00000000000E+00 0.  1.
         21   -1    0    0  501  502 -0.00000000000E+00 -0.00000000000E+00 -0.34758469891E+03  0.34758469891E+03  0.00000000000E+00 0.  1.
         25    1    1    2    0    0 -0.13793271941E+03 -0.28743463820E+03 -0.10127585208E+03  0.35710769319E+03  0.12500000000E+03 0.  0.
         25    1    1    2    0    0  0.52324204036E+02  0.15280791147E+03  0.65237754058E+02  0.21440392881E+03  0.12500000000E+03 0.  0.
         25    1    1    2    0    0  0.85608515379E+02  0.13462672673E+03  0.19060196497E+03  0.27822164277E+03  0.12500000000E+03 0.  0.
</event>
<event>
 5    0  0.5771634E-005  0.2937206E+03  0.7546771E-02  0.1088422E+00
         21   -1    0    0  502  501  0.00000000000E+00  0.00000000000E+00  0.76046920693E+03  0.76046920693E+03  0.00000000000E+00 0.  1.
         21   -1    0    0  501  502 -0.00000000000E+00 -0.00000000000E+00 -0.11344547438E+03  0.11344547438E+03  0.00000000000E+00 0.  1.
         25    1    1    2    0    0 -0.47939338816E+02 -0.19097088579E+03  0.14608768219E+03  0.27519932833E+03  0.12500000000E+03 0.  0.
         25    1    1    2    0    0 -0.29864099295E+01  0.12287554541E+03  0.29657869192E+03  0.34451594855E+03  0.12500000000E+03 0.  0.
         25    1    1    2    0    0  0.50925748745E+02  0.68095340371E+02  0.20435735843E+03  0.25419940442E+03  0.12500000000E+03 0.  0.
</event>
<event>
 5    0  0.5771634E-005  0.4456548E+03  0.7546771E-02  0.1029026E+00
         21   -1    0    0  502  501  0.00000000000E+00  0.00000000000E+00  0.13598892325E+04  0.13598892325E+04  0.00000000000E+00 0. -1.
         21   -1    0    0  501  502 -0.00000000000E+00 -0.00000000000E+00 -0.14604731582E+03  0.14604731582E+03  0.00000000000E+00 0. -1.
         25    1    1    2    0    0  0.71264821701E+02 -0.11110637157E+03  0.47529752748E+03  0.50887723495E+03  0.12500000000E+03 0.  0.
         25    1    1    2    0    0  0.52395665202E+02  0.33183694745E+03  0.55407386484E+03  0.65991204954E+03  0.12500000000E+03 0.  0.
         25    1    1    2    0    0 -0.12366048690E+03 -0.22073057587E+03  0.18447052431E+03  0.33714726379E+03  0.12500000000E+03 0.  0.
</event>
<event>
 5    0  0.5771634E-005  0.2922678E+03  0.7546771E-02  0.1089171E+00
         21   -1    0    0  502  501  0.00000000000E+00  0.00000000000E+00  0.51471108121E+02  0.51471108121E+02  0.00000000000E+00 0. -1.
         21   -1    0    0  501  502 -0.00000000000E+00 -0.00000000000E+00 -0.16595807614E+04  0.16595807614E+04  0.00000000000E+00 0. -1.
         25    1    1    2    0    0  0.98014333659E+02 -0.30674065563E+02 -0.24351915800E+03  0.29235986081E+03  0.12500000000E+03 0.  0.
         25    1    1    2    0    0 -0.48614390306E+02 -0.11664047581E+03 -0.47869268241E+03  0.51062710831E+03  0.12500000000E+03 0.  0.
         25    1    1    2    0    0 -0.49399943353E+02  0.14731454137E+03 -0.88589781291E+03  0.90806490045E+03  0.12500000000E+03 0.  0.
</event>
<event>
 5    0  0.5771634E-005  0.3240937E+03  0.7546771E-02  0.1073781E+00
         21   -1    0    0  502  501  0.00000000000E+00  0.00000000000E+00  0.17088575067E+03  0.17088575067E+03  0.00000000000E+00 0. -1.
         21   -1    0    0  501  502 -0.00000000000E+00 -0.00000000000E+00 -0.61466065075E+03  0.61466065075E+03  0.00000000000E+00 0. -1.
         25    1    1    2    0    0 -0.15682468322E+03  0.69048510510E+02  0.35202019307E+02  0.21500200054E+03  0.12500000000E+03 0.  0.
         25    1    1    2    0    0  0.46019062506E+02 -0.47146046398E+02 -0.22951794751E+03  0.26952549422E+03  0.12500000000E+03 0.  0.
         25    1    1    2    0    0  0.11080562071E+03 -0.21902464112E+02 -0.24945897189E+03  0.30101890667E+03  0.12500000000E+03 0.  0.
</event>
<event>
 5    0  0.5771634E-005  0.3773695E+03  0.7546771E-02  0.1051910E+00
         21   -1    0    0  502  501  0.00000000000E+00  0.00000000000E+00  0.48167962569E+03  0.48167962569E+03  0.00000000000E+00 0.  1.
         21   -1    0    0  501  502 -0.00000000000E+00 -0.00000000000E+00 -0.29564823062E+03  0.29564823062E+03  0.00000000000E+00 0.  1.
         25    1    1    2    0    0  0.19895647291E+03  0.10063623414E+02 -0.13966902235E+02  0.23559505297E+03  0.12500000000E+03 0.  0.
         25    1    1    2    0    0 -0.14872313779E+03 -0.13162791412E+03  0.26035161732E+03  0.35050312999E+03  0.12500000000E+03 0.  0.
         25    1    1    2    0    0 -0.50233335114E+02  0.12156429071E+03 -0.60353320016E+02  0.19122967335E+03  0.12500000000E+03 0.  0.
</event>
<event>
 5    0  0.5771634E-005  0.2585602E+03  0.7546771E-02  0.1108011E+00
         21   -1    0    0  502  501  0.00000000000E+00  0.00000000000E+00  0.25064514255E+03  0.25064514255E+03  0.00000000000E+00 0.  1.
         21   -1    0    0  501  502 -0.00000000000E+00 -0.00000000000E+00 -0.26672520645E+03  0.26672520645E+03  0.00000000000E+00 0.  1.
         25    1    1    2    0    0 -0.19957979093E+02 -0.12458365918E+02  0.61352716341E+02  0.14121858098E+03  0.12500000000E+03 0.  0.
         25    1    1    2    0    0 -0.12692276827E+02  0.11316440040E+03  0.41028401170E+02  0.17399886526E+03  0.12500000000E+03 0.  0.
         25    1    1    2    0    0  0.32650255920E+02 -0.10070603448E+03 -0.11846118142E+03  0.20215290276E+03  0.12500000000E+03 0.  0.
</event>
<event>
 5    0  0.5771634E-005  0.4668796E+03  0.7546771E-02  0.1022805E+00
         21   -1    0    0  502  501  0.00000000000E+00  0.00000000000E+00  0.76680394434E+03  0.76680394434E+03  0.00000000000E+00 0. -1.
         21   -1    0    0  501  502 -0.00000000000E+00 -0.00000000000E+00 -0.28426634590E+03  0.28426634590E+03  0.00000000000E+00 0. -1.
         25    1    1    2    0    0  0.10782339619E+03  0.11757340169E+03  0.66123282386E+02  0.21318226480E+03  0.12500000000E+03 0.  0.
         25    1    1    2    0    0  0.20590557076E+03 -0.22838096799E+02 -0.57111390811E+02  0.24860690597E+03  0.12500000000E+03 0.  0.
         25    1    1    2    0    0 -0.31372896695E+03 -0.94735304895E+02  0.47352570687E+03  0.58928111947E+03  0.12500000000E+03 0.  0.
</event>
<event>
 5    0  0.5771634E-005  0.7335604E+03  0.7546771E-02  0.9661500E-01
         21   -1    0    0  502  501  0.00000000000E+00  0.00000000000E+00  0.11043878490E+04  0.11043878490E+04  0.00000000000E+00 0.  1.
         21   -1    0    0  501  502 -0.00000000000E+00 -0.00000000000E+00 -0.48724803561E+03  0.48724803561E+03  0.00000000000E+00 0.  1.
         25    1    1    2    0    0 -0.41293567187E+03  0.10975314848E+03  0.95288801916E+02  0.45526539346E+03  0.12500000000E+03 0.  0.
         25    1    1    2    0    0 -0.25227637264E+03 -0.13276285829E+03  0.27557833930E+03  0.41573761656E+03  0.12500000000E+03 0.  0.
         25    1    1    2    0    0  0.66521204451E+03  0.23009709806E+02  0.24627267220E+03  0.72063287462E+03  0.12500000000E+03 0.  0.
</event>
<event>
 5    0  0.5771634E-005  0.2951881E+03  0.7546771E-02  0.1087671E+00
         21   -1    0    0  502  501  0.00000000000E+00  0.00000000000E+00  0.27285115194E+02  0.27285115194E+02  0.00000000000E+00 0.  1.
         21   -1    0    0  501  502 -0.00000000000E+00 -0.00000000000E+00 -0.31935364847E+04  0.31935364847E+04  0.00000000000E+00 0.  1.
         25    1    1    2    0    0 -0.72520142724E+02  0.16776339869E+03 -0.14167373485E+04  0.14339363457E+04  0.12500000000E+03 0.  0.
         25    1    1    2    0    0  0.61860619134E+02 -0.61416011947E+02 -0.12871913914E+04  0.12961810602E+04  0.12500000000E+03 0.  0.
         25    1    1    2    0    0  0.10659523590E+02 -0.10634738674E+03 -0.46232262966E+03  0.49070419400E+03  0.12500000000E+03 0.  0.
</event>
<event>
 5    0  0.5771634E-005  0.2386768E+03  0.7546771E-02  0.1120677E+00
         21   -1    0    0  502  501  0.00000000000E+00  0.00000000000E+00  0.12301486204E+04  0.12301486204E+04  0.00000000000E+00 0.  1.
         21   -1    0    0  501  502 -0.00000000000E+00 -0.00000000000E+00 -0.46308724620E+02  0.46308724620E+02  0.00000000000E+00 0.  1.
         25    1    1    2    0    0 -0.53345368908E+02 -0.84273339326E+02  0.23220137545E+03  0.28194006964E+03  0.12500000000E+03 0.  0.
         25    1    1    2    0    0 -0.24667449733E+01  0.46169410448E+02  0.31180199917E+03  0.33909170732E+03  0.12500000000E+03 0.  0.
         25    1    1    2    0    0  0.55812113882E+02  0.38103928878E+02  0.63983652112E+03  0.65542556801E+03  0.12500000000E+03 0.  0.
</event>
<event>
 5    0  0.5771634E-005  0.4814381E+03  0.7546771E-02  0.1018741E+00
         21   -1    0    0  502  501  0.00000000000E+00  0.00000000000E+00  0.10122852535E+04  0.10122852535E+04  0.00000000000E+00 0.  1.
         21   -1    0    0  501  502 -0.00000000000E+00 -0.00000000000E+00 -0.22896974028E+03  0.22896974028E+03  0.00000000000E+00 0.  1.
         25    1    1    2    0    0  0.30288819527E+02 -0.40672023852E+03  0.35723657733E+03  0.55640069841E+03  0.12500000000E+03 0.  0.
         25    1    1    2    0    0  0.16832726272E+01  0.37908534656E+03  0.27753374738E+03  0.48616716705E+03  0.12500000000E+03 0.  0.
         25    1    1    2    0    0 -0.31972092155E+02  0.27634891961E+02  0.14854518851E+03  0.19868712832E+03  0.12500000000E+03 0.  0.
</event>
<event>
 5    0  0.5771634E-005  0.2945067E+03  0.7546771E-02  0.1088019E+00
         21   -1    0    0  502  501  0.00000000000E+00  0.00000000000E+00  0.95066982328E+03  0.95066982328E+03  0.00000000000E+00 0. -1.
         21   -1    0    0  501  502 -0.00000000000E+00 -0.00000000000E+00 -0.91234811159E+02  0.91234811159E+02  0.00000000000E+00 0. -1.
         25    1    1    2    0    0  0.86961610538E+02  0.10814259711E+03  0.32727374637E+03  0.37681593395E+03  0.12500000000E+03 0.  0.
         25    1    1    2    0    0  0.33047400534E+02 -0.56231892602E+02  0.44006909065E+03  0.46210384219E+03  0.12500000000E+03 0.  0.
         25    1    1    2    0    0 -0.12000901107E+03 -0.51910704513E+02  0.92092175111E+02  0.20298485830E+03  0.12500000000E+03 0.  0.
</event>
<event>
 5    0  0.5771634E-005  0.3579602E+03  0.7546771E-02  0.1059394E+00
         21   -1    0    0  502  501  0.00000000000E+00  0.00000000000E+00  0.17763101279E+04  0.17763101279E+04  0.00000000000E+00 0. -1.
         21   -1    0    0  501  502 -0.00000000000E+00 -0.00000000000E+00 -0.72135766911E+02  0.72135766911E+02  0.00000000000E+00 0. -1.
         25    1    1    2    0    0  0.17161676844E+03  0.28812538108E+02  0.10571856086E+04  0.10786792334E+04  0.12500000000E+03 0.  0.
         25    1    1    2    0    0 -0.17733032307E+03 -0.74545390266E+02  0.20336629406E+03  0.30657121237E+03  0.12500000000E+03 0.  0.
         25    1    1    2    0    0  0.57135546351E+01  0.45732852158E+02  0.44362245830E+03  0.46319544900E+03  0.12500000000E+03 0.  0.
</event>
<event>
 5    0  0.5771634E-005  0.2904296E+03  0.7546771E-02  0.1090125E+00
         21   -1    0    0  502  501  0.00000000000E+00  0.00000000000E+00  0.85487292789E+02  0.85487292789E+02  0.00000000000E+00 0. -1.
         21   -1    0    0  501  502 -0.00000000000E+00 -0.00000000000E+00 -0.98668888813E+03  0.98668888813E+03  0.00000000000E+00 0. -1.
         25    1    1    2    0    0 -0.13729994084E+03 -0.26623652596E+01 -0.33106501610E+03  0.37958847036E+03  0.12500000000E+03 0.  0.
         25    1    1    2    0    0  0.13814810719E+03  0.55469113002E+02 -0.50686700345E+03  0.54286359355E+03  0.12500000000E+03 0.  0.
         25    1    1    2    0    0 -0.84816635158E+00 -0.52806747743E+02 -0.63269575792E+02  0.14972411701E+03  0.12500000000E+03 0.  0.
</event>
<event>
 5    0  0.5771634E-005  0.2961136E+03  0.7546771E-02  0.1087200E+00
         21   -1    0    0  502  501  0.00000000000E+00  0.00000000000E+00  0.71760734836E+03  0.71760734836E+03  0.00000000000E+00 0.  1.
         21   -1    0    0  501  502 -0.00000000000E+00 -0.00000000000E+00 -0.12218837011E+03  0.12218837011E+03  0.00000000000E+00 0.  1.
         25    1    1    2    0    0 -0.10876620194E+03  0.10445272037E+03  0.18204629914E+03  0.26740664261E+03  0.12500000000E+03 0.  0.
         25    1    1    2    0    0  0.11125876521E+03 -0.57548646858E+02  0.40096688337E+03  0.43828050510E+03  0.12500000000E+03 0.  0.
         25    1    1    2    0    0 -0.24925632699E+01 -0.46904073512E+02  0.12405795737E+02  0.13410857076E+03  0.12500000000E+03 0.  0.
</event>
<event>
 5    0  0.5771634E-005  0.3011237E+03  0.7546771E-02  0.1084680E+00
         21   -1    0    0  502  501  0.00000000000E+00  0.00000000000E+00  0.22180276252E+03  0.22180276252E+03  0.00000000000E+00 0.  1.
         21   -1    0    0  501  502 -0.00000000000E+00 -0.00000000000E+00 -0.40881127528E+03  0.40881127528E+03  0.00000000000E+00 0.  1.
         25    1    1    2    0    0 -0.51888999955E+02 -0.69970496377E+02 -0.12832634450E+02  0.15289870891E+03  0.12500000000E+03 0.  0.
         25    1    1    2    0    0 -0.10423677881E+03  0.13330192719E+03 -0.87689337870E+01  0.21056258939E+03  0.12500000000E+03 0.  0.
         25    1    1    2    0    0  0.15612577877E+03 -0.63331430814E+02 -0.16540694452E+03  0.26715273950E+03  0.12500000000E+03 0.  0.
</event>
<event>
 5    0  0.5771634E-005  0.2573102E+03  0.7546771E-02  0.1108770E+00
         21   -1    0    0  502  501  0.00000000000E+00  0.00000000000E+00  0.43316025121E+02  0.43316025121E+02  0.00000000000E+00 0. -1.
         21   -1    0    0  501  502 -0.00000000000E+00 -0.00000000000E+00 -0.15285001473E+04  0.15285001473E+04  0.00000000000E+00 0. -1.
         25    1    1    2    0    0 -0.17232255663E+02  0.68989929548E+02 -0.15565471357E+03  0.21191968024E+03  0.12500000000E+03 0.  0.
         25    1    1    2    0    0 -0.57969549648E-01 -0.90740826395E+02 -0.82755736831E+03  0.84184921380E+03  0.12500000000E+03 0.  0.
         25    1    1    2    0    0  0.17290225213E+02  0.21750896848E+02 -0.50197204034E+03  0.51804727843E+03  0.12500000000E+03 0.  0.
</event>
<event>
 5    0  0.5771634E-005  0.2321376E+03  0.7546771E-02  0.1125144E+00
         21   -1    0    0  502  501  0.00000000000E+00  0.00000000000E+00  0.23523480068E+03  0.23523480068E+03  0.00000000000E+00 0.  1.
         21   -1    0    0  501  502 -0.00000000000E+00 -0.00000000000E+00 -0.22908109252E+03  0.22908109252E+03  0.00000000000E+00 0.  1.
         25    1    1    2    0    0  0.55747827191E+02  0.74355600434E+02 -0.34260428513E+02  0.15948464664E+03  0.12500000000E+03 0.  0.
         25    1    1    2    0    0  0.23217012049E+02 -0.65239590912E+02 -0.21070592567E+02  0.14444446594E+03  0.12500000000E+03 0.  0.
         25    1    1    2    0    0 -0.78964839239E+02 -0.91160095214E+01  0.61484729234E+02  0.16038678061E+03  0.12500000000E+03 0.  0.
</event>
<event>
 5    0  0.5771634E-005  0.2594489E+03  0.7546771E-02  0.1107475E+00
         21   -1    0    0  502  501  0.00000000000E+00  0.00000000000E+00  0.65915372137E+02  0.65915372137E+02  0.00000000000E+00 0. -1.
         21   -1    0    0  501  502 -0.00000000000E+00 -0.00000000000E+00 -0.10212141444E+04  0.10212141444E+04  0.00000000000E+00 0. -1.
         25    1    1    2    0    0 -0.10565655837E+03 -0.17080809919E+02 -0.20149829190E+03  0.26015692194E+03  0.12500000000E+03 0.  0.
         25    1    1    2    0    0  0.13905085414E+03  0.70387119768E+02 -0.42392135739E+03  0.46864037802E+03  0.12500000000E+03 0.  0.
         25    1    1    2    0    0 -0.33394295763E+02 -0.53306309849E+02 -0.32987912299E+03  0.35833221658E+03  0.12500000000E+03 0.  0.
</event>
<event>
 5    0  0.5771634E-005  0.3292666E+03  0.7546771E-02  0.1071462E+00
         21   -1    0    0  502  501  0.00000000000E+00  0.00000000000E+00  0.10355504150E+03  0.10355504150E+03  0.00000000000E+00 0.  1.
         21   -1    0    0  501  502 -0.00000000000E+00 -0.00000000000E+00 -0.10469454567E+04  0.10469454567E+04  0.00000000000E+00 0.  1.
         25    1    1    2    0    0  0.11772691623E+02  0.30115800072E+02 -0.26264766889E+03  0.29266765393E+03  0.12500000000E+03 0.  0.
         25    1    1    2    0    0 -0.67249278331E+02  0.20518666108E+03 -0.31041994463E+03  0.39825817424E+03  0.12500000000E+03 0.  0.
         25    1    1    2    0    0  0.55476586708E+02 -0.23530246115E+03 -0.37032280166E+03  0.45957467002E+03  0.12500000000E+03 0.  0.
</event>
<event>
 5    0  0.5771634E-005  0.4477596E+03  0.7546771E-02  0.1028392E+00
         21   -1    0    0  502  501  0.00000000000E+00  0.00000000000E+00  0.22748289082E+04  0.22748289082E+04  0.00000000000E+00 0.  1.
         21   -1    0    0  501  502 -0.00000000000E+00 -0.00000000000E+00 -0.88133499850E+02  0.88133499850E+02  0.00000000000E+00 0.  1.
         25    1    1    2    0    0 -0.53022918631E+02 -0.25472087791E+03  0.12212991292E+04  0.12549465002E+04  0.12500000000E+03 0.  0.
         25    1    1    2    0    0  0.14237436180E+03  0.26900791102E+03  0.86094226474E+03  0.92167363980E+03  0.12500000000E+03 0.  0.
         25    1    1    2    0    0 -0.89351443168E+02 -0.14287033116E+02  0.10445401442E+03  0.18634226799E+03  0.12500000000E+03 0.  0.
</event>
<event>
 5    0  0.5771634E-005  0.2625149E+03  0.7546771E-02  0.1105642E+00
         21   -1    0    0  502  501  0.00000000000E+00  0.00000000000E+00  0.49113317208E+02  0.49113317208E+02  0.00000000000E+00 0.  1.
         21   -1    0    0  501  502 -0.00000000000E+00 -0.00000000000E+00 -0.14031648359E+04  0.14031648359E+04  0.00000000000E+00 0.  1.
         25    1    1    2    0    0 -0.10382014700E+03 -0.13183053921E+02 -0.35540637954E+03  0.39101292876E+03  0.12500000000E+03 0.  0.
         25    1    1    2    0    0  0.51652251334E+02 -0.11826066067E+01 -0.15089208898E+03  0.20263952266E+03  0.12500000000E+03 0.  0.
         25    1    1    2    0    0  0.52167895670E+02  0.14365660528E+02 -0.84775305018E+03  0.85862570170E+03  0.12500000000E+03 0.  0.
</event>
<event>
 5    0  0.6462371E-005  0.3470387E+03  0.7546771E-02  0.1063837E+00
         21   -1    0    0  502  501  0.00000000000E+00  0.00000000000E+00  0.40392862027E+03  0.40392862027E+03  0.00000000000E+00 0.  1.
         21   -1    0    0  501  502 -0.00000000000E+00 -0.00000000000E+00 -0.29816122990E+03  0.29816122990E+03  0.00000000000E+00 0.  1.
         25    1    1    2    0    0 -0.68852491251E+02  0.97605001359E+02  0.27277035778E+03  0.32294902063E+03  0.12500000000E+03 0.  0.
         25    1    1    2    0    0  0.66066680584E+02 -0.98943317779E+02 -0.25953235513E+01  0.17258714356E+03  0.12500000000E+03 0.  0.
         25    1    1    2    0    0  0.27858106665E+01  0.13383164194E+01 -0.16440764387E+03  0.20655368598E+03  0.12500000000E+03 0.  0.
</event>
<event>
 5    0  0.5771634E-005  0.2631426E+03  0.7546771E-02  0.1105270E+00
         21   -1    0    0  502  501  0.00000000000E+00  0.00000000000E+00  0.41447833713E+03  0.41447833713E+03  0.00000000000E+00 0.  1.
         21   -1    0    0  501  502 -0.00000000000E+00 -0.00000000000E+00 -0.16706307746E+03  0.16706307746E+03  0.00000000000E+00 0.  1.
         25    1    1    2    0    0  0.80712548726E+02 -0.59863405502E+02  0.94276581294E+02  0.18604090040E+03  0.12500000000E+03 0.  0.
         25    1    1    2    0    0 -0.16402989153E+03  0.11674773761E+02  0.95104400129E+02  0.22740262220E+03  0.12500000000E+03 0.  0.
         25    1    1    2    0    0  0.83317342809E+02  0.48188631741E+02  0.58034278252E+02  0.16809789200E+03  0.12500000000E+03 0.  0.
</event>
<event>
 5    0  0.5771634E-005  0.2328349E+03  0.7546771E-02  0.1124660E+00
         21   -1    0    0  502  501  0.00000000000E+00  0.00000000000E+00  0.92080845901E+02  0.92080845901E+02  0.00000000000E+00 0.  1.
         21   -1    0    0  501  502 -0.00000000000E+00 -0.00000000000E+00 -0.58874432970E+03  0.58874432970E+03  0.00000000000E+00 0.  1.
         25    1    1    2    0    0  0.66421763831E+02  0.32496730386E+02 -0.10043840542E+03  0.17658075059E+03  0.12500000000E+03 0.  0.
         25    1    1    2    0    0  0.31836325720E+02 -0.60980211707E+02 -0.24191364834E+03  0.28085467970E+03  0.12500000000E+03 0.  0.
         25    1    1    2    0    0 -0.98258089551E+02  0.28483481321E+02 -0.15431143004E+03  0.22338974532E+03  0.12500000000E+03 0.  0.
</event>
<event>
 5    0  0.5771634E-005  0.2571321E+03  0.7546771E-02  0.1108879E+00
         21   -1    0    0  502  501  0.00000000000E+00  0.00000000000E+00  0.27254397665E+03  0.27254397665E+03  0.00000000000E+00 0.  1.
         21   -1    0    0  501  502 -0.00000000000E+00 -0.00000000000E+00 -0.24259176545E+03  0.24259176545E+03  0.00000000000E+00 0.  1.
         25    1    1    2    0    0  0.26002500377E+02  0.60652212646E+02  0.52127380242E+01  0.14144608005E+03  0.12500000000E+03 0.  0.
         25    1    1    2    0    0  0.10372435019E+03  0.15045022616E+02  0.62459459717E+02  0.17467477676E+03  0.12500000000E+03 0.  0.
         25    1    1    2    0    0 -0.12972685056E+03 -0.75697235262E+02 -0.37719986539E+02  0.19901488529E+03  0.12500000000E+03 0.  0.
</event>
<event>
 5    0  0.6582554E-005  0.2944498E+03  0.7546771E-02  0.1088048E+00
         21   -1    0    0  502  501  0.00000000000E+00  0.00000000000E+00  0.43633983433E+03  0.43633983433E+03  0.00000000000E+00 0. -1.
         21   -1    0    0  501  502 -0.00000000000E+00 -0.00000000000E+00 -0.19869991511E+03  0.19869991511E+03  0.00000000000E+00 0. -1.
         25    1    1    2    0    0  0.51318614309E+02  0.69663260523E+02  0.18707811478E+03  0.24105972511E+03  0.12500000000E+03 0.  0.
         25    1    1    2    0    0 -0.48256479485E+02 -0.17893508035E+03  0.14228789418E+02  0.22399533308E+03  0.12500000000E+03 0.  0.
         25    1    1    2    0    0 -0.30621348243E+01  0.10927181983E+03  0.36333015026E+02  0.16998469125E+03  0.12500000000E+03 0.  0.
</event>
<event>
 5    0  0.5771634E-005  0.2803265E+03  0.7546771E-02  0.1095511E+00
         21   -1    0    0  502  501  0.00000000000E+00  0.00000000000E+00  0.17963208921E+03  0.17963208921E+03  0.00000000000E+00 0.  1.
         21   -1    0    0  501  502 -0.00000000000E+00 -0.00000000000E+00 -0.43746615762E+03  0.43746615762E+03  0.00000000000E+00 0.  1.
         25    1    1    2    0    0  0.11364082920E+03  0.11846205068E+02 -0.14274145104E+03  0.22148293948E+03  0.12500000000E+03 0.  0.
         25    1    1    2    0    0 -0.48428728804E+02 -0.10290166004E+03 -0.14793462538E+03  0.22459685394E+03  0.12500000000E+03 0.  0.
         25    1    1    2    0    0 -0.65212100392E+02  0.91055454974E+02  0.32842008005E+02  0.17101845341E+03  0.12500000000E+03 0.  0.
</event>
<event>
 5    0  0.5771634E-005  0.3032101E+03  0.7546771E-02  0.1083647E+00
         21   -1    0    0  502  501  0.00000000000E+00  0.00000000000E+00  0.35636048756E+02  0.35636048756E+02  0.00000000000E+00 0. -1.
         21   -1    0    0  501  502 -0.00000000000E+00 -0.00000000000E+00 -0.25798700498E+04  0.25798700498E+04  0.00000000000E+00 0. -1.
         25    1    1    2    0    0 -0.18220018088E+03  0.58962015590E+02 -0.14033944273E+04  0.14219051810E+04  0.12500000000E+03 0.  0.
         25    1    1    2    0    0  0.68875030617E+02 -0.10319264118E+03 -0.60203832870E+03  0.62726998992E+03  0.12500000000E+03 0.  0.
         25    1    1    2    0    0  0.11332515026E+03  0.44230625591E+02 -0.53880124498E+03  0.56633092756E+03  0.12500000000E+03 0.  0.
</event>
<event>
 5    0  0.5771634E-005  0.3296234E+03  0.7546771E-02  0.1071304E+00
         21   -1    0    0  502  501  0.00000000000E+00  0.00000000000E+00  0.15041290910E+03  0.15041290910E+03  0.00000000000E+00 0.  1.
         21   -1    0    0  501  502 -0.00000000000E+00 -0.00000000000E+00 -0.72235551877E+03  0.72235551877E+03  0.00000000000E+00 0.  1.
         25    1    1    2    0    0 -0.28158574699E+02 -0.77353104122E+01 -0.12113856204E+03  0.17650011776E+03  0.12500000000E+03 0.  0.
         25    1    1    2    0    0  0.17445148054E+03 -0.15769589430E+03 -0.29967884237E+03  0.40091610433E+03  0.12500000000E+03 0.  0.
         25    1    1    2    0    0 -0.14629290584E+03  0.16543120472E+03 -0.15112520526E+03  0.29535220578E+03  0.12500000000E+03 0.  0.
</event>
<event>
 5    0  0.5771634E-005  0.6754655E+03  0.7546771E-02  0.9760135E-01
         21   -1    0    0  502  501  0.00000000000E+00  0.00000000000E+00  0.69111742643E+03  0.69111742643E+03  0.00000000000E+00 0. -1.
         21   -1    0    0  501  502 -0.00000000000E+00 -0.00000000000E+00 -0.66016795498E+03  0.66016795498E+03  0.00000000000E+00 0. -1.
         25    1    1    2    0    0  0.23657760603E+03  0.37496539337E+03 -0.44127110389E+03  0.63789748159E+03  0.12500000000E+03 0.  0.
         25    1    1    2    0    0 -0.14335552344E+03 -0.24881667160E+03  0.38057159841E+03  0.49286943878E+03  0.12500000000E+03 0.  0.
         25    1    1    2    0    0 -0.93222082593E+02 -0.12614872176E+03  0.91648976938E+02  0.22051846104E+03  0.12500000000E+03 0.  0.
</event>
<event>
 5    0  0.5771634E-005  0.2376308E+03  0.7546771E-02  0.1121381E+00
         21   -1    0    0  502  501  0.00000000000E+00  0.00000000000E+00  0.78831209817E+03  0.78831209817E+03  0.00000000000E+00 0. -1.
         21   -1    0    0  501  502 -0.00000000000E+00 -0.00000000000E+00 -0.71632046707E+02  0.71632046707E+02  0.00000000000E+00 0. -1.
         25    1    1    2    0    0  0.10589202782E+02  0.34806159134E+02  0.15091171815E+03  0.19930616298E+03  0.12500000000E+03 0.  0.
         25    1    1    2    0    0 -0.94198202612E+02 -0.38194948140E+02  0.15653147704E+03  0.22463138414E+03  0.12500000000E+03 0.  0.
         25    1    1    2    0    0  0.83608999831E+02  0.33887890056E+01  0.40923685628E+03  0.43600659775E+03  0.12500000000E+03 0.  0.
</event>
<event>
 5    0  0.5771634E-005  0.4336756E+03  0.7546771E-02  0.1032705E+00
         21   -1    0    0  502  501  0.00000000000E+00  0.00000000000E+00  0.14425117362E+04  0.14425117362E+04  0.00000000000E+00 0. -1.
         21   -1    0    0  501  502 -0.00000000000E+00 -0.00000000000E+00 -0.13037991766E+03  0.13037991766E+03  0.00000000000E+00 0. -1.
         25    1    1    2    0    0  0.15202493448E+03  0.93664435354E+02  0.10647265410E+04  0.10868082693E+04  0.12500000000E+03 0.  0.
         25    1    1    2    0    0 -0.59103218823E+02 -0.11665747367E+03 -0.13440894283E+02  0.18140511095E+03  0.12500000000E+03 0.  0.
         25    1    1    2    0    0 -0.92921715658E+02  0.22993038315E+02  0.26084617189E+03  0.30467827366E+03  0.12500000000E+03 0.  0.
</event>
<event>
 5    0  0.5771634E-005  0.2625507E+03  0.7546771E-02  0.1105620E+00
         21   -1    0    0  502  501  0.00000000000E+00  0.00000000000E+00  0.22952379500E+03  0.22952379500E+03  0.00000000000E+00 0. -1.
         21   -1    0    0  501  502 -0.00000000000E+00 -0.00000000000E+00 -0.30033001319E+03  0.30033001319E+03  0.00000000000E+00 0. -1.
         25    1    1    2    0    0 -0.73146731691E+02 -0.22338002164E+02 -0.34333900504E+02  0.15050995788E+03  0.12500000000E+03 0.  0.
         25    1    1    2    0    0  0.14253921797E+03  0.68824990920E+02 -0.88506622936E+02  0.22025605630E+03  0.12500000000E+03 0.  0.
         25    1    1    2    0    0 -0.69392486280E+02 -0.46486988756E+02  0.52034305251E+02  0.15908779400E+03  0.12500000000E+03 0.  0.
</event>
<event>
 5    0  0.5771634E-005  0.2576090E+03  0.7546771E-02  0.1108588E+00
         21   -1    0    0  502  501  0.00000000000E+00  0.00000000000E+00  0.46539975633E+03  0.46539975633E+03  0.00000000000E+00 0. -1.
         21   -1    0    0  501  502 -0.00000000000E+00 -0.00000000000E+00 -0.14259230068E+03  0.14259230068E+03  0.00000000000E+00 0. -1.
         25    1    1    2    0    0 -0.25338637149E+02  0.98862107506E+02  0.11933894902E+02  0.16181217717E+03  0.12500000000E+03 0.  0.
         25    1    1    2    0    0 -0.54806985126E+02  0.77353676249E+01  0.14614057053E+03  0.20011423709E+03  0.12500000000E+03 0.  0.
         25    1    1    2    0    0  0.80145622275E+02 -0.10659747513E+03  0.16473299022E+03  0.24606564275E+03  0.12500000000E+03 0.  0.
</event>
<event>
 5    0  0.5771634E-005  0.4649215E+03  0.7546771E-02  0.1023363E+00
         21   -1    0    0  502  501  0.00000000000E+00  0.00000000000E+00  0.14637250725E+03  0.14637250725E+03  0.00000000000E+00 0.  1.
         21   -1    0    0  501  502 -0.00000000000E+00 -0.00000000000E+00 -0.14767257013E+04  0.14767257013E+04  0.00000000000E+00 0.  1.
         25    1    1    2    0    0 -0.34336939945E+03  0.46770734003E+02 -0.31861069594E+03  0.48706038805E+03  0.12500000000E+03 0.  0.
         25    1    1    2    0    0  0.15186365776E+03  0.90073952822E+02 -0.25873893504E+03  0.33726358243E+03  0.12500000000E+03 0.  0.
         25    1    1    2    0    0  0.19150574169E+03 -0.13684468683E+03 -0.75300356311E+03  0.79877423811E+03  0.12500000000E+03 0.  0.
</event>
<event>
 5    0  0.5771634E-005  0.3453656E+03  0.7546771E-02  0.1064533E+00
         21   -1    0    0  502  501  0.00000000000E+00  0.00000000000E+00  0.27122449504E+03  0.27122449504E+03  0.00000000000E+00 0. -1.
         21   -1    0    0  501  502 -0.00000000000E+00 -0.00000000000E+00 -0.43977372018E+03  0.43977372018E+03  0.00000000000E+00 0. -1.
         25    1    1    2    0    0  0.21308058004E+03 -0.17828999700E+02 -0.83953846253E+01  0.24782390786E+03  0.12500000000E+03 0.  0.
         25    1    1    2    0    0  0.14180107011E+02 -0.71058815397E+01  0.42609730087E+02  0.13301187197E+03  0.12500000000E+03 0.  0.
         25    1    1    2    0    0 -0.22726068705E+03  0.24934881240E+02 -0.20276357061E+03  0.33016243540E+03  0.12500000000E+03 0.  0.
</event>
<event>
 5    0  0.5771634E-005  0.2458690E+03  0.7546771E-02  0.1115944E+00
         21   -1    0    0  502  501  0.00000000000E+00  0.00000000000E+00  0.37548631000E+03  0.37548631000E+03  0.00000000000E+00 0.  1.
         21   -1    0    0  501  502 -0.00000000000E+00 -0.00000000000E+00 -0.16099536763E+03  0.16099536763E+03  0.00000000000E+00 0.  1.
         25    1    1    2    0    0  0.10840828188E+03  0.51823971319E+02  0.19971451685E+02  0.17453348809E+03  0.12500000000E+03 0.  0.
         25    1    1    2    0    0 -0.11775484095E+03 -0.67447963069E+01  0.10367614571E+03  0.20071232656E+03  0.12500000000E+03 0.  0.
         25    1    1    2    0    0  0.93465590666E+01 -0.45079175012E+02  0.90843344974E+02  0.16123586298E+03  0.12500000000E+03 0.  0.
</event>
<event>
 5    0  0.5771634E-005  0.2543781E+03  0.7546771E-02  0.1110569E+00
         21   -1    0    0  502  501  0.00000000000E+00  0.00000000000E+00  0.35619735100E+03  0.35619735100E+03  0.00000000000E+00 0.  1.
         21   -1    0    0  501  502 -0.00000000000E+00 -0.00000000000E+00 -0.18166390227E+03  0.18166390227E+03  0.00000000000E+00 0.  1.
         25    1    1    2    0    0  0.97490889359E+02 -0.87086035394E+02  0.32887574241E+01  0.18089849915E+03  0.12500000000E+03 0.  0.
         25    1    1    2    0    0 -0.36410006459E+02  0.11726180833E+02  0.14729402314E+03  0.19693583000E+03  0.12500000000E+03 0.  0.
         25    1    1    2    0    0 -0.61080882900E+02  0.75359854561E+02  0.23950668167E+02  0.16002692411E+03  0.12500000000E+03 0.  0.
</event>
<event>
 5    0  0.5771634E-005  0.4158211E+03  0.7546771E-02  0.1038435E+00
         21   -1    0    0  502  501  0.00000000000E+00  0.00000000000E+00  0.17248337651E+04  0.17248337651E+04  0.00000000000E+00 0. -1.
         21   -1    0    0  501  502 -0.00000000000E+00 -0.00000000000E+00 -0.10024569101E+03  0.10024569101E+03  0.00000000000E+00 0. -1.
         25    1    1    2    0    0 -0.23115835893E+02  0.33022559095E+02  0.37993346746E+03  0.40199411808E+03  0.12500000000E+03 0.  0.
         25    1    1    2    0    0  0.17207713617E+03 -0.28885599168E+03  0.53577927439E+03  0.64477341414E+03  0.12500000000E+03 0.  0.
         25    1    1    2    0    0 -0.14896130027E+03  0.25583343258E+03  0.70887533222E+03  0.77831192387E+03  0.12500000000E+03 0.  0.
</event>
<event>
 5    0  0.5771634E-005  0.2572793E+03  0.7546771E-02  0.1108789E+00
         21   -1    0    0  502  501  0.00000000000E+00  0.00000000000E+00  0.59557012613E+03  0.59557012613E+03  0.00000000000E+00 0.  1.
         21   -1    0    0  501  502 -0.00000000000E+00 -0.00000000000E+00 -0.11114166131E+03  0.11114166131E+03  0.00000000000E+00 0.  1.
         25    1    1    2    0    0 -0.92782326179E+02 -0.18032918203E+02  0.16383061720E+03  0.22671395485E+03  0.12500000000E+03 0.  0.
         25    1    1    2    0    0 -0.19809801036E+02 -0.91446351190E+02  0.15120811911E+03  0.21735629424E+03  0.12500000000E+03 0.  0.
         25    1    1    2    0    0  0.11259212721E+03  0.10947926939E+03  0.16938972851E+03  0.26264153834E+03  0.12500000000E+03 0.  0.
</event>
<event>
 5    0  0.5771634E-005  0.2509365E+03  0.7546771E-02  0.1112714E+00
         21   -1    0    0  502  501  0.00000000000E+00  0.00000000000E+00  0.26841108396E+03  0.26841108396E+03  0.00000000000E+00 0.  1.
         21   -1    0    0  501  502 -0.00000000000E+00 -0.00000000000E+00 -0.23459950953E+03  0.23459950953E+03  0.00000000000E+00 0.  1.
         25    1    1    2    0    0  0.20237688397E+02 -0.62865234197E+02  0.27412542933E+01  0.14140055225E+03  0.12500000000E+03 0.  0.
         25    1    1    2    0    0  0.14423452301E+02  0.12651642179E+03 -0.62958319020E+02  0.18921731129E+03  0.12500000000E+03 0.  0.
         25    1    1    2    0    0 -0.34661140698E+02 -0.63651187596E+02  0.94028639157E+02  0.17239272995E+03  0.12500000000E+03 0.  0.
</event>
<event>
 5    0  0.5771634E-005  0.3858003E+03  0.7546771E-02  0.1048811E+00
         21   -1    0    0  502  501  0.00000000000E+00  0.00000000000E+00  0.99927435248E+02  0.99927435248E+02  0.00000000000E+00 0.  1.
         21   -1    0    0  501  502 -0.00000000000E+00 -0.00000000000E+00 -0.14894996092E+04  0.14894996092E+04  0.00000000000E+00 0.  1.
         25    1    1    2    0    0  0.25578222940E+03 -0.60297816846E+02 -0.57282421441E+03  0.64250521882E+03  0.12500000000E+03 0.  0.
         25    1    1    2    0    0 -0.62727267648E+01 -0.40963578368E+02 -0.83695034033E+02  0.15603595924E+03  0.12500000000E+03 0.  0.
         25    1    1    2    0    0 -0.24950950263E+03  0.10126139521E+03 -0.73305292552E+03  0.79088586641E+03  0.12500000000E+03 0.  0.
</event>
<event>
 5    0  0.5771634E-005  0.3148765E+03  0.7546771E-02  0.1078032E+00
         21   -1    0    0  502  501  0.00000000000E+00  0.00000000000E+00  0.25179010070E+03  0.25179010070E+03  0.00000000000E+00 0.  1.
         21   -1    0    0  501  502 -0.00000000000E+00 -0.00000000000E+00 -0.39376931096E+03  0.39376931096E+03  0.00000000000E+00 0.  1.
         25    1    1    2    0    0  0.50135753063E+02 -0.26303269092E+02  0.11403032320E+03  0.17841908617E+03  0.12500000000E+03 0.  0.
         25    1    1    2    0    0 -0.28992352077E+02  0.32204944131E+02 -0.30393475327E+03  0.33148008862E+03  0.12500000000E+03 0.  0.
         25    1    1    2    0    0 -0.21143400985E+02 -0.59016750388E+01  0.47925219804E+02  0.13566023687E+03  0.12500000000E+03 0.  0.
</event>
<event>
 5    0  0.5771634E-005  0.3698123E+03  0.7546771E-02  0.1054765E+00
         21   -1    0    0  502  501  0.00000000000E+00  0.00000000000E+00  0.11245640832E+03  0.11245640832E+03  0.00000000000E+00 0. -1.
         21   -1    0    0  501  502 -0.00000000000E+00 -0.00000000000E+00 -0.12161260034E+04  0.12161260034E+04  0.00000000000E+00 0. -1.
         25    1    1    2    0    0  0.72318965910E+02  0.12057741823E+03 -0.79458939105E+03  0.81655755889E+03  0.12500000000E+03 0.  0.
         25    1    1    2    0    0  0.71786228366E+02 -0.12815737897E+03 -0.24245529758E+03  0.30981792668E+03  0.12500000000E+03 0.  0.
         25    1    1    2    0    0 -0.14410519428E+03  0.75799607401E+01 -0.66624906454E+02  0.20220692615E+03  0.12500000000E+03 0.  0.
</event>
<event>
 5    0  0.5771634E-005  0.4071277E+03  0.7546771E-02  0.1041339E+00
         21   -1    0    0  502  501  0.00000000000E+00  0.00000000000E+00  0.58349859699E+03  0.58349859699E+03  0.00000000000E+00 0. -1.
         21   -1    0    0  501  502 -0.00000000000E+00 -0.00000000000E+00 -0.28406741069E+03  0.28406741069E+03  0.00000000000E+00 0. -1.
         25    1    1    2    0    0 -0.16346254342E+03 -0.18503525239E+03  0.32002571147E+03  0.42308332953E+03  0.12500000000E+03 0.  0.
         25    1    1    2    0    0  0.12748959041E+03 -0.33601108835E+02 -0.49871310818E+02  0.18840057808E+03  0.12500000000E+03 0.  0.
         25    1    1    2    0    0  0.35972953007E+02  0.21863636122E+03  0.29276785656E+02  0.25608210007E+03  0.12500000000E+03 0.  0.
</event>
<event>
 5    0  0.5771634E-005  0.4897905E+03  0.7546771E-02  0.1016479E+00
         21   -1    0    0  502  501  0.00000000000E+00  0.00000000000E+00  0.65282594228E+03  0.65282594228E+03  0.00000000000E+00 0. -1.
         21   -1    0    0  501  502 -0.00000000000E+00 -0.00000000000E+00 -0.36747119503E+03  0.36747119503E+03  0.00000000000E+00 0. -1.
         25    1    1    2    0    0 -0.13390363556E+03 -0.16498510515E+03  0.28942850174E+02  0.24821957440E+03  0.12500000000E+03 0.  0.
         25    1    1    2    0    0  0.28565052031E+03  0.34258982161E+03  0.16840517481E+03  0.49289888266E+03  0.12500000000E+03 0.  0.
         25    1    1    2    0    0 -0.15174688475E+03 -0.17760471646E+03  0.88006722267E+02  0.27917868025E+03  0.12500000000E+03 0.  0.
</event>
<event>
 5    0  0.5771634E-005  0.2432188E+03  0.7546771E-02  0.1117667E+00
         21   -1    0    0  502  501  0.00000000000E+00  0.00000000000E+00  0.39693202649E+03  0.39693202649E+03  0.00000000000E+00 0.  1.
         21   -1    0    0  501  502 -0.00000000000E+00 -0.00000000000E+00 -0.14903150773E+03  0.14903150773E+03  0.00000000000E+00 0.  1.
         25    1    1    2    0    0 -0.69262984417E+02  0.23971112332E+02  0.16062899357E+03  0.21632995357E+03  0.12500000000E+03 0.  0.
         25    1    1    2    0    0 -0.23099081197E+02 -0.27963675013E+02  0.11261088737E+03  0.17210969359E+03  0.12500000000E+03 0.  0.
         25    1    1    2    0    0  0.92362065614E+02  0.39925626811E+01 -0.25339362180E+02  0.15752388707E+03  0.12500000000E+03 0.  0.
</event>
<event>
 5    0  0.5771634E-005  0.2859452E+03  0.7546771E-02  0.1092485E+00
         21   -1    0    0  502  501  0.00000000000E+00  0.00000000000E+00  0.11210828702E+03  0.11210828702E+03  0.00000000000E+00 0. -1.
         21   -1    0    0  501  502 -0.00000000000E+00 -0.00000000000E+00 -0.72933650589E+03  0.72933650589E+03  0.00000000000E+00 0. -1.
         25    1    1    2    0    0 -0.29509140077E+02  0.10717742604E+03 -0.78603551744E+02  0.18482778024E+03  0.12500000000E+03 0.  0.
         25    1    1    2    0    0  0.90275203997E+02 -0.96180230647E+02 -0.46435129221E+03  0.49864553723E+03  0.12500000000E+03 0.  0.
         25    1    1    2    0    0 -0.60766063920E+02 -0.10997195396E+02 -0.74273374908E+02  0.15797147543E+03  0.12500000000E+03 0.  0.
</event>
<event>
 5    0  0.5771634E-005  0.2729865E+03  0.7546771E-02  0.1099582E+00
         21   -1    0    0  502  501  0.00000000000E+00  0.00000000000E+00  0.14976605336E+03  0.14976605336E+03  0.00000000000E+00 0.  1.
         21   -1    0    0  501  502 -0.00000000000E+00 -0.00000000000E+00 -0.49758703144E+03  0.49758703144E+03  0.00000000000E+00 0.  1.
         25    1    1    2    0    0 -0.13435541421E+03 -0.22454959170E+02 -0.27855031298E+02  0.18696658869E+03  0.12500000000E+03 0.  0.
         25    1    1    2    0    0  0.11206144024E+03  0.82813283492E+02 -0.21411532336E+03  0.28440495426E+03  0.12500000000E+03 0.  0.
         25    1    1    2    0    0  0.22293973967E+02 -0.60358324323E+02 -0.10585062342E+03  0.17598154184E+03  0.12500000000E+03 0.  0.
</event>
<event>
 5    0  0.5771634E-005  0.5642615E+03  0.7546771E-02  0.9982458E-01
         21   -1    0    0  502  501  0.00000000000E+00  0.00000000000E+00  0.15325544294E+04  0.15325544294E+04  0.00000000000E+00 0. -1.
         21   -1    0    0  501  502 -0.00000000000E+00 -0.00000000000E+00 -0.20775189924E+03  0.20775189924E+03  0.00000000000E+00 0. -1.
         25    1    1    2    0    0  0.11390900198E+03 -0.14617816493E+03  0.21282849768E+03  0.30864913099E+03  0.12500000000E+03 0.  0.
         25    1    1    2    0    0  0.15319204833E+03  0.23648798638E+03  0.33638864174E+02  0.31008215775E+03  0.12500000000E+03 0.  0.
         25    1    1    2    0    0 -0.26710105030E+03 -0.90309821449E+02  0.10783351683E+04  0.11215750399E+04  0.12500000000E+03 0.  0.
</event>
<event>
 5    0  0.5771634E-005  0.2468417E+03  0.7546771E-02  0.1115317E+00
         21   -1    0    0  502  501  0.00000000000E+00  0.00000000000E+00  0.13594624097E+03  0.13594624097E+03  0.00000000000E+00 0.  1.
         21   -1    0    0  501  502 -0.00000000000E+00 -0.00000000000E+00 -0.44819792702E+03  0.44819792702E+03  0.00000000000E+00 0.  1.
         25    1    1    2    0    0  0.84612299356E+02 -0.49222424514E+01 -0.46284597666E+02  0.15795801231E+03  0.12500000000E+03 0.  0.
         25    1    1    2    0    0 -0.58194340678E+02  0.53057352563E+02 -0.24773951666E+03  0.28844675776E+03  0.12500000000E+03 0.  0.
         25    1    1    2    0    0 -0.26417958678E+02 -0.48135110111E+02 -0.18227571725E+02  0.13773939791E+03  0.12500000000E+03 0.  0.
</event>
<event>
 5    0  0.5771634E-005  0.2599183E+03  0.7546771E-02  0.1107192E+00
         21   -1    0    0  502  501  0.00000000000E+00  0.00000000000E+00  0.35637595654E+03  0.35637595654E+03  0.00000000000E+00 0. -1.
         21   -1    0    0  501  502 -0.00000000000E+00 -0.00000000000E+00 -0.18956812637E+03  0.18956812637E+03  0.00000000000E+00 0. -1.
         25    1    1    2    0    0 -0.19552448303E+02  0.15390612219E+02  0.94214321550E+02  0.15849450326E+03  0.12500000000E+03 0.  0.
         25    1    1    2    0    0  0.48177863990E+02 -0.11302571729E+02 -0.10343559585E+03  0.16962540257E+03  0.12500000000E+03 0.  0.
         25    1    1    2    0    0 -0.28625415687E+02 -0.40880404897E+01  0.17602910448E+03  0.21782417708E+03  0.12500000000E+03 0.  0.
</event>
<event>
 5    0  0.5771634E-005  0.2571029E+03  0.7546771E-02  0.1108896E+00
         21   -1    0    0  502  501  0.00000000000E+00  0.00000000000E+00  0.80858865345E+03  0.80858865345E+03  0.00000000000E+00 0. -1.
         21   -1    0    0  501  502 -0.00000000000E+00 -0.00000000000E+00 -0.81749711530E+02  0.81749711530E+02  0.00000000000E+00 0. -1.
         25    1    1    2    0    0  0.11809622735E+01  0.13903727213E+03  0.28414195644E+03  0.34013880861E+03  0.12500000000E+03 0.  0.
         25    1    1    2    0    0 -0.71850884441E+02 -0.92251351760E+02  0.18929412981E+03  0.25520605220E+03  0.12500000000E+03 0.  0.
         25    1    1    2    0    0  0.70669922167E+02 -0.46785920370E+02  0.25340285566E+03  0.29499350417E+03  0.12500000000E+03 0.  0.
</event>
<event>
 5    0  0.5771634E-005  0.3203451E+03  0.7546771E-02  0.1075491E+00
         21   -1    0    0  502  501  0.00000000000E+00  0.00000000000E+00  0.45354047597E+03  0.45354047597E+03  0.00000000000E+00 0.  1.
         21   -1    0    0  501  502 -0.00000000000E+00 -0.00000000000E+00 -0.22626641684E+03  0.22626641684E+03  0.00000000000E+00 0.  1.
         25    1    1    2    0    0 -0.23555159604E+03 -0.37939750853E+02  0.14916855697E+03  0.30789647202E+03  0.12500000000E+03 0.  0.
         25    1    1    2    0    0  0.18200430962E+03  0.47661864266E+02  0.64443928952E+02  0.23489410807E+03  0.12500000000E+03 0.  0.
         25    1    1    2    0    0  0.53547286416E+02 -0.97221134128E+01  0.13661573211E+02  0.13701631273E+03  0.12500000000E+03 0.  0.
</event>
<event>
 5    0  0.5771634E-005  0.6014555E+03  0.7546771E-02  0.9902391E-01
         21   -1    0    0  502  501  0.00000000000E+00  0.00000000000E+00  0.61246363727E+03  0.61246363727E+03  0.00000000000E+00 0.  1.
         21   -1    0    0  501  502 -0.00000000000E+00 -0.00000000000E+00 -0.59064525173E+03  0.59064525173E+03  0.00000000000E+00 0.  1.
         25    1    1    2    0    0  0.65158407680E+02 -0.52792555348E+02 -0.55445791184E+01  0.15062673849E+03  0.12500000000E+03 0.  0.
         25    1    1    2    0    0 -0.42386306725E+03  0.33879051625E+03 -0.86600070255E+02  0.56352771524E+03  0.12500000000E+03 0.  0.
         25    1    1    2    0    0  0.35870465958E+03 -0.28599796090E+03  0.11396303490E+03  0.48895443526E+03  0.12500000000E+03 0.  0.
</event>
<event>
 5    0  0.5771634E-005  0.3416261E+03  0.7546771E-02  0.1066105E+00
         21   -1    0    0  502  501  0.00000000000E+00  0.00000000000E+00  0.96391841516E+02  0.96391841516E+02  0.00000000000E+00 0. -1.
         21   -1    0    0  501  502 -0.00000000000E+00 -0.00000000000E+00 -0.12107706983E+04  0.12107706983E+04  0.00000000000E+00 0. -1.
         25    1    1    2    0    0 -0.57123660758E+02  0.44420814775E+02 -0.28511445983E+03  0.31961160274E+03  0.12500000000E+03 0.  0.
         25    1    1    2    0    0 -0.17232702523E+03  0.19229815048E+02 -0.59022692651E+03  0.62774135931E+03  0.12500000000E+03 0.  0.
         25    1    1    2    0    0  0.22945068599E+03 -0.63650629823E+02 -0.23903747045E+03  0.35980957777E+03  0.12500000000E+03 0.  0.
</event>
<event>
 5    0  0.5771634E-005  0.3252511E+03  0.7546771E-02  0.1073258E+00
         21   -1    0    0  502  501  0.00000000000E+00  0.00000000000E+00  0.14714089970E+03  0.14714089970E+03  0.00000000000E+00 0.  1.
         21   -1    0    0  501  502 -0.00000000000E+00 -0.00000000000E+00 -0.71895902754E+03  0.71895902754E+03  0.00000000000E+00 0.  1.
         25    1    1    2    0    0 -0.70517589807E+02 -0.94737367869E+02 -0.24065088700E+03  0.29577989918E+03  0.12500000000E+03 0.  0.
         25    1    1    2    0    0 -0.29136758885E+01 -0.81863870003E+02 -0.30588369575E+03  0.34044091711E+03  0.12500000000E+03 0.  0.
         25    1    1    2    0    0  0.73431265695E+02  0.17660123787E+03 -0.25283545086E+02  0.22987911095E+03  0.12500000000E+03 0.  0.
</event>
<event>
 5    0  0.5771634E-005  0.3418817E+03  0.7546771E-02  0.1065997E+00
         21   -1    0    0  502  501  0.00000000000E+00  0.00000000000E+00  0.20771923501E+03  0.20771923501E+03  0.00000000000E+00 0. -1.
         21   -1    0    0  501  502 -0.00000000000E+00 -0.00000000000E+00 -0.56269755114E+03  0.56269755114E+03  0.00000000000E+00 0. -1.
         25    1    1    2    0    0  0.82751703523E+02 -0.24834805281E+03 -0.26122599944E+03  0.39036985354E+03  0.12500000000E+03 0.  0.
         25    1    1    2    0    0 -0.35242700593E+02  0.14657114654E+03 -0.21101380039E+02  0.19696552283E+03  0.12500000000E+03 0.  0.
         25    1    1    2    0    0 -0.47509002930E+02  0.10177690627E+03 -0.72650936652E+02  0.18308140978E+03  0.12500000000E+03 0.  0.
</event>
<event>
 5    0  0.5771634E-005  0.3863297E+03  0.7546771E-02  0.1048619E+00
         21   -1    0    0  502  501  0.00000000000E+00  0.00000000000E+00  0.91910035800E+02  0.91910035800E+02  0.00000000000E+00 0.  1.
         21   -1    0    0  501  502 -0.00000000000E+00 -0.00000000000E+00 -0.16238774853E+04  0.16238774853E+04  0.00000000000E+00 0.  1.
         25    1    1    2    0    0 -0.11544040715E+03  0.16354927246E+03 -0.53816721987E+03  0.58764258582E+03  0.12500000000E+03 0.  0.
         25    1    1    2    0    0  0.48559622364E+02  0.11079035183E+03 -0.61657442943E+03  0.64064152691E+03  0.12500000000E+03 0.  0.
         25    1    1    2    0    0  0.66880784786E+02 -0.27433962429E+03 -0.37722580018E+03  0.48750340835E+03  0.12500000000E+03 0.  0.
</event>
<event>
 5    0  0.5912306E-005  0.3014631E+03  0.7546771E-02  0.1084512E+00
         21   -1    0    0  502  501  0.00000000000E+00  0.00000000000E+00  0.73146480010E+02  0.73146480010E+02  0.00000000000E+00 0.  1.
         21   -1    0    0  501  502 -0.00000000000E+00 -0.00000000000E+00 -0.12424382388E+04  0.12424382388E+04  0.00000000000E+00 0.  1.
         25    1    1    2    0    0 -0.41331491331E+02 -0.67663562298E+02 -0.12475685358E+03  0.19358698911E+03  0.12500000000E+03 0.  0.
         25    1    1    2    0    0 -0.12281975634E+03  0.18298834959E+02 -0.30087996366E+03  0.34867361879E+03  0.12500000000E+03 0.  0.
         25    1    1    2    0    0  0.16415124767E+03  0.49364727339E+02 -0.74365494155E+03  0.77332411090E+03  0.12500000000E+03 0.  0.
</event>
<event>
 5    0  0.5771634E-005  0.4326878E+03  0.7546771E-02  0.1033014E+00
         21   -1    0    0  502  501  0.00000000000E+00  0.00000000000E+00  0.37986969275E+03  0.37986969275E+03  0.00000000000E+00 0. -1.
         21   -1    0    0  501  502 -0.00000000000E+00 -0.00000000000E+00 -0.49284986930E+03  0.49284986930E+03  0.00000000000E+00 0. -1.
         25    1    1    2    0    0 -0.33993142593E+03 -0.44396644682E+01 -0.35607221903E+02  0.36395873283E+03  0.12500000000E+03 0.  0.
         25    1    1    2    0    0  0.11168853372E+03 -0.29345022633E+02 -0.16006462039E+03  0.23362607222E+03  0.12500000000E+03 0.  0.
         25    1    1    2    0    0  0.22824289221E+03  0.33784687101E+02  0.82691665740E+02  0.27513475700E+03  0.12500000000E+03 0.  0.
</event>
<event>
 5    0  0.5771634E-005  0.3642744E+03  0.7546771E-02  0.1056904E+00
         21   -1    0    0  502  501  0.00000000000E+00  0.00000000000E+00  0.40630159715E+03  0.40630159715E+03  0.00000000000E+00 0.  1.
         21   -1    0    0  501  502 -0.00000000000E+00 -0.00000000000E+00 -0.32659449709E+03  0.32659449709E+03  0.00000000000E+00 0.  1.
         25    1    1    2    0    0  0.10649606249E+03 -0.51490671259E+02 -0.18036741217E+03  0.24929922568E+03  0.12500000000E+03 0.  0.
         25    1    1    2    0    0 -0.11307888495E+03 -0.85063110603E+02  0.34878197083E+02  0.19200014489E+03  0.12500000000E+03 0.  0.
         25    1    1    2    0    0  0.65828224530E+01  0.13655378186E+03  0.22519631515E+03  0.29159672366E+03  0.12500000000E+03 0.  0.
</event>
<event>
 5    0  0.5771634E-005  0.2752219E+03  0.7546771E-02  0.1098328E+00
         21   -1    0    0  502  501  0.00000000000E+00  0.00000000000E+00  0.92141087148E+02  0.92141087148E+02  0.00000000000E+00 0. -1.
         21   -1    0    0  501  502 -0.00000000000E+00 -0.00000000000E+00 -0.82207709276E+03  0.82207709276E+03  0.00000000000E+00 0. -1.
         25    1    1    2    0    0  0.82751434864E+02 -0.10123386015E+03 -0.40019426549E+03  0.43917712207E+03  0.12500000000E+03 0.  0.
         25    1    1    2    0    0 -0.42402034332E+02 -0.45529510970E+02 -0.17900150929E+03  0.22701852174E+03  0.12500000000E+03 0.  0.
         25    1    1    2    0    0 -0.40349400532E+02  0.14676337112E+03 -0.15074023083E+03  0.24802253611E+03  0.12500000000E+03 0.  0.
</event>
<event>
 5    0  0.5771634E-005  0.3393405E+03  0.7546771E-02  0.1067077E+00
         21   -1    0    0  502  501  0.00000000000E+00  0.00000000000E+00  0.17323577317E+03  0.17323577317E+03  0.00000000000E+00 0.  1.
         21   -1    0    0  501  502 -0.00000000000E+00 -0.00000000000E+00 -0.66471257313E+03  0.66471257313E+03  0.00000000000E+00 0.  1.
         25    1    1    2    0    0  0.26992031426E+02 -0.41061778977E+02 -0.21920093398E+03  0.25707720419E+03  0.12500000000E+03 0.  0.
         25    1    1    2    0    0  0.15752214930E+03  0.67597551279E+01 -0.29189845655E+03  0.35452592394E+03  0.12500000000E+03 0.  0.
         25    1    1    2    0    0 -0.18451418073E+03  0.34302023850E+02  0.19622590577E+02  0.22634521818E+03  0.12500000000E+03 0.  0.
</event>
<event>
 5    0  0.5771634E-005  0.2556971E+03  0.7546771E-02  0.1109756E+00
         21   -1    0    0  502  501  0.00000000000E+00  0.00000000000E+00  0.20693076889E+04  0.20693076889E+04  0.00000000000E+00 0.  1.
         21   -1    0    0  501  502 -0.00000000000E+00 -0.00000000000E+00 -0.31595599145E+02  0.31595599145E+02  0.00000000000E+00 0.  1.
         25    1    1    2    0    0  0.34114793216E+02  0.69497039333E+02  0.10555299693E+04  0.10657214335E+04  0.12500000000E+03 0.  0.
         25    1    1    2    0    0 -0.34795383700E+02 -0.13352131650E+03  0.53566925035E+03  0.56710246558E+03  0.12500000000E+03 0.  0.
         25    1    1    2    0    0  0.68059048382E+00  0.64024277169E+02  0.44651287002E+03  0.46807938895E+03  0.12500000000E+03 0.  0.
</event>
<event>
 5    0  0.9348304E-005  0.3477475E+03  0.7546771E-02  0.1063543E+00
         21   -1    0    0  502  501  0.00000000000E+00  0.00000000000E+00  0.20850271640E+03  0.20850271640E+03  0.00000000000E+00 0.  1.
         21   -1    0    0  501  502 -0.00000000000E+00 -0.00000000000E+00 -0.57998432864E+03  0.57998432864E+03  0.00000000000E+00 0.  1.
         25    1    1    2    0    0  0.12359655204E+03  0.96754511718E+01  0.81135309037E+01  0.17624003920E+03  0.12500000000E+03 0.  0.
         25    1    1    2    0    0 -0.26253179573E+03 -0.19622973223E+02 -0.25655372620E+03  0.38826900376E+03  0.12500000000E+03 0.  0.
         25    1    1    2    0    0  0.13893524369E+03  0.99475220513E+01 -0.12304141694E+03  0.22397800208E+03  0.12500000000E+03 0.  0.
</event>
<event>
 5    0  0.5771634E-005  0.2530025E+03  0.7546771E-02  0.1111422E+00
         21   -1    0    0  502  501  0.00000000000E+00  0.00000000000E+00  0.14382433839E+03  0.14382433839E+03  0.00000000000E+00 0.  1.
         21   -1    0    0  501  502 -0.00000000000E+00 -0.00000000000E+00 -0.44505872671E+03  0.44505872671E+03  0.00000000000E+00 0.  1.
         25    1    1    2    0    0  0.56034805579E+02 -0.46452978321E+02 -0.97264149179E+02  0.17430746785E+03  0.12500000000E+03 0.  0.
         25    1    1    2    0    0 -0.10387567448E+03  0.55679998866E+02 -0.22036119152E+03  0.27941809667E+03  0.12500000000E+03 0.  0.
         25    1    1    2    0    0  0.47840868899E+02 -0.92270205450E+01  0.16390952378E+02  0.13515750059E+03  0.12500000000E+03 0.  0.
</event>
<event>
 5    0  0.7042801E-005  0.4431237E+03  0.7546771E-02  0.1029793E+00
         21   -1    0    0  502  501  0.00000000000E+00  0.00000000000E+00  0.37381831663E+03  0.37381831663E+03  0.00000000000E+00 0. -1.
         21   -1    0    0  501  502 -0.00000000000E+00 -0.00000000000E+00 -0.52527831089E+03  0.52527831089E+03  0.00000000000E+00 0. -1.
         25    1    1    2    0    0 -0.10316598905E+03 -0.12722398629E+02 -0.35688833319E+03  0.39217261899E+03  0.12500000000E+03 0.  0.
         25    1    1    2    0    0 -0.16567513914E+02  0.17988248216E+03  0.12746604986E+03  0.25397791985E+03  0.12500000000E+03 0.  0.
         25    1    1    2    0    0  0.11973350296E+03 -0.16716008353E+03  0.77962289068E+02  0.25294608867E+03  0.12500000000E+03 0.  0.
</event>
<event>
 5    0  0.5771634E-005  0.2397128E+03  0.7546771E-02  0.1119984E+00
         21   -1    0    0  502  501  0.00000000000E+00  0.00000000000E+00  0.55139275830E+03  0.55139275830E+03  0.00000000000E+00 0. -1.
         21   -1    0    0  501  502 -0.00000000000E+00 -0.00000000000E+00 -0.10421290869E+03  0.10421290869E+03  0.00000000000E+00 0. -1.
         25    1    1    2    0    0  0.37968122394E+02 -0.15729443257E+01  0.42952340041E+02  0.13752801892E+03  0.12500000000E+03 0.  0.
         25    1    1    2    0    0 -0.65547020796E+02  0.29985829823E+02  0.72722947280E+02  0.16158338091E+03  0.12500000000E+03 0.  0.
         25    1    1    2    0    0  0.27578898403E+02 -0.28412885497E+02  0.33150456229E+03  0.35649426716E+03  0.12500000000E+03 0.  0.
</event>
<event>
 5    0  0.5771634E-005  0.2483065E+03  0.7546771E-02  0.1114380E+00
         21   -1    0    0  502  501  0.00000000000E+00  0.00000000000E+00  0.79926584565E+03  0.79926584565E+03  0.00000000000E+00 0. -1.
         21   -1    0    0  501  502 -0.00000000000E+00 -0.00000000000E+00 -0.77140959975E+02  0.77140959975E+02  0.00000000000E+00 0. -1.
         25    1    1    2    0    0 -0.95910600371E+02 -0.86969819277E+02  0.17709123094E+03  0.25248543880E+03  0.12500000000E+03 0.  0.
         25    1    1    2    0    0  0.20737186459E+01  0.17366166901E+01  0.24452193205E+03  0.27463301222E+03  0.12500000000E+03 0.  0.
         25    1    1    2    0    0  0.93836881725E+02  0.85233202587E+02  0.30051172269E+03  0.34928835461E+03  0.12500000000E+03 0.  0.
</event>
<event>
 5    0  0.5771634E-005  0.3001040E+03  0.7546771E-02  0.1085189E+00
         21   -1    0    0  502  501  0.00000000000E+00  0.00000000000E+00  0.97352773452E+02  0.97352773452E+02  0.00000000000E+00 0. -1.
         21   -1    0    0  501  502 -0.00000000000E+00 -0.00000000000E+00 -0.92511394557E+03  0.92511394557E+03  0.00000000000E+00 0. -1.
         25    1    1    2    0    0  0.14011455919E+03  0.77410614810E+02 -0.31619454965E+03  0.37580378685E+03  0.12500000000E+03 0.  0.
         25    1    1    2    0    0  0.39797870638E+02  0.45376937467E+02 -0.13211067472E+03  0.19162767894E+03  0.12500000000E+03 0.  0.
         25    1    1    2    0    0 -0.17991242983E+03 -0.12278755228E+03 -0.37945594775E+03  0.45503525324E+03  0.12500000000E+03 0.  0.
</event>
<event>
 5    0  0.5771634E-005  0.2166779E+03  0.7546771E-02  0.1136384E+00
         21   -1    0    0  502  501  0.00000000000E+00  0.00000000000E+00  0.32926024847E+03  0.32926024847E+03  0.00000000000E+00 0. -1.
         21   -1    0    0  501  502 -0.00000000000E+00 -0.00000000000E+00 -0.14259028562E+03  0.14259028562E+03  0.00000000000E+00 0. -1.
         25    1    1    2    0    0  0.29504058504E+02  0.30625646662E+02  0.19029837886E+02  0.13339997913E+03  0.12500000000E+03 0.  0.
         25    1    1    2    0    0 -0.43413062412E+02 -0.77383572862E+02  0.12457643989E+03  0.19752772138E+03  0.12500000000E+03 0.  0.
         25    1    1    2    0    0  0.13909003908E+02  0.46757926200E+02  0.43063685083E+02  0.14092283358E+03  0.12500000000E+03 0.  0.
</event>
<event>
 5    0  0.5834481E-005  0.3463103E+03  0.7546771E-02  0.1064140E+00
         21   -1    0    0  502  501  0.00000000000E+00  0.00000000000E+00  0.70449300095E+03  0.70449300095E+03  0.00000000000E+00 0. -1.
         21   -1    0    0  501  502 -0.00000000000E+00 -0.00000000000E+00 -0.17023709823E+03  0.17023709823E+03  0.00000000000E+00 0. -1.
         25    1    1    2    0    0 -0.95356744855E+02  0.10991023070E+03  0.66587963498E+02  0.20305694887E+03  0.12500000000E+03 0.  0.
         25    1    1    2    0    0 -0.11676605231E+03 -0.14996442228E+03  0.17425624108E+03  0.28655518923E+03  0.12500000000E+03 0.  0.
         25    1    1    2    0    0  0.21212279716E+03  0.40054191589E+02  0.29341169814E+03  0.38511796108E+03  0.12500000000E+03 0.  0.
</event>
<event>
 5    0  0.5771634E-005  0.3034292E+03  0.7546771E-02  0.1083539E+00
         21   -1    0    0  502  501  0.00000000000E+00  0.00000000000E+00  0.30065454175E+03  0.30065454175E+03  0.00000000000E+00 0.  1.
         21   -1    0    0  501  502 -0.00000000000E+00 -0.00000000000E+00 -0.30622940546E+03  0.30622940546E+03  0.00000000000E+00 0.  1.
         25    1    1    2    0    0  0.28731149147E+01  0.75606210093E+02 -0.16386203943E+03  0.21954571678E+03  0.12500000000E+03 0.  0.
         25    1    1    2    0    0  0.67916405188E+02  0.56331672212E+02  0.36195175760E+02  0.15722908807E+03  0.12500000000E+03 0.  0.
         25    1    1    2    0    0 -0.70789520103E+02 -0.13193788230E+03  0.12209199995E+03  0.23010914235E+03  0.12500000000E+03 0.  0.
</event>
<event>
 5    0  0.5771634E-005  0.3080187E+03  0.7546771E-02  0.1081299E+00
         21   -1    0    0  502  501  0.00000000000E+00  0.00000000000E+00  0.18444974672E+03  0.18444974672E+03  0.00000000000E+00 0. -1.
         21   -1    0    0  501  502 -0.00000000000E+00 -0.00000000000E+00 -0.51437044198E+03  0.51437044198E+03  0.00000000000E+00 0. -1.
         25    1    1    2    0    0  0.15635982035E+03  0.28106830439E+02 -0.26596634508E+03  0.33406808296E+03  0.12500000000E+03 0.  0.
         25    1    1    2    0    0 -0.16494706871E+03 -0.80328846392E+02 -0.55004371477E+02  0.22871541251E+03  0.12500000000E+03 0.  0.
         25    1    1    2    0    0  0.85872483656E+01  0.52222015954E+02 -0.89499787104E+01  0.13603669323E+03  0.12500000000E+03 0.  0.
</event>
<event>
 5    0  0.5771634E-005  0.2814355E+03  0.7546771E-02  0.1094907E+00
         21   -1    0    0  502  501  0.00000000000E+00  0.00000000000E+00  0.33429904301E+03  0.33429904301E+03  0.00000000000E+00 0.  1.
         21   -1    0    0  501  502 -0.00000000000E+00 -0.00000000000E+00 -0.23693133735E+03  0.23693133735E+03  0.00000000000E+00 0.  1.
         25    1    1    2    0    0 -0.12238140221E+03  0.64573158238E+02  0.82432241066E+02  0.20387980464E+03  0.12500000000E+03 0.  0.
         25    1    1    2    0    0  0.17683360273E+03 -0.29395582529E+02 -0.27555002427E+02  0.22026915691E+03  0.12500000000E+03 0.  0.
         25    1    1    2    0    0 -0.54452200519E+02 -0.35177575709E+02  0.42490467025E+02  0.14708141882E+03  0.12500000000E+03 0.  0.
</event>
<event>
 5    0  0.6400142E-005  0.4483326E+03  0.7546771E-02  0.1028220E+00
         21   -1    0    0  502  501  0.00000000000E+00  0.00000000000E+00  0.68224107927E+03  0.68224107927E+03  0.00000000000E+00 0. -1.
         21   -1    0    0  501  502 -0.00000000000E+00 -0.00000000000E+00 -0.29462038669E+03  0.29462038669E+03  0.00000000000E+00 0. -1.
         25    1    1    2    0    0 -0.27725622746E+02  0.22432086197E+03 -0.23550179650E+02  0.25936108080E+03  0.12500000000E+03 0.  0.
         25    1    1    2    0    0 -0.37580332677E+02 -0.31258746025E+03  0.81781844768E+02  0.34847736202E+03  0.12500000000E+03 0.  0.
         25    1    1    2    0    0  0.65305955422E+02  0.88266598279E+02  0.32938902746E+03  0.36902302313E+03  0.12500000000E+03 0.  0.
</event>
<event>
 5    0  0.5771634E-005  0.2270125E+03  0.7546771E-02  0.1128760E+00
         21   -1    0    0  502  501  0.00000000000E+00  0.00000000000E+00  0.27738027410E+04  0.27738027410E+04  0.00000000000E+00 0.  1.
         21   -1    0    0  501  502 -0.00000000000E+00 -0.00000000000E+00 -0.18579076305E+02  0.18579076305E+02  0.00000000000E+00 0.  1.
         25    1    1    2    0    0 -0.67731357581E+02 -0.49283643270E+02  0.61946342960E+03  0.63747655244E+03  0.12500000000E+03 0.  0.
         25    1    1    2    0    0 -0.12410731898E+02  0.54726138936E+02  0.93478644578E+03  0.94477493392E+03  0.12500000000E+03 0.  0.
         25    1    1    2    0    0  0.80142089479E+02 -0.54424956662E+01  0.12009737894E+04  0.12101303310E+04  0.12500000000E+03 0.  0.
</event>
<event>
 5    0  0.5771634E-005  0.2236812E+03  0.7546771E-02  0.1131168E+00
         21   -1    0    0  502  501  0.00000000000E+00  0.00000000000E+00  0.11135265919E+03  0.11135265919E+03  0.00000000000E+00 0.  1.
         21   -1    0    0  501  502 -0.00000000000E+00 -0.00000000000E+00 -0.44932289424E+03  0.44932289424E+03  0.00000000000E+00 0.  1.
         25    1    1    2    0    0  0.23064784585E+02  0.56668315965E+02 -0.79831072758E+02  0.16044090033E+03  0.12500000000E+03 0.  0.
         25    1    1    2    0    0  0.29535067413E+02  0.37038574109E+02 -0.72867119515E+02  0.15224583175E+03  0.12500000000E+03 0.  0.
         25    1    1    2    0    0 -0.52599851999E+02 -0.93706890073E+02 -0.18527204278E+03  0.24798882135E+03  0.12500000000E+03 0.  0.
</event>
<event>
 5    0  0.6802719E-005  0.2956265E+03  0.7546771E-02  0.1087448E+00
         21   -1    0    0  502  501  0.00000000000E+00  0.00000000000E+00  0.28452151054E+03  0.28452151054E+03  0.00000000000E+00 0. -1.
         21   -1    0    0  501  502 -0.00000000000E+00 -0.00000000000E+00 -0.30716492136E+03  0.30716492136E+03  0.00000000000E+00 0. -1.
         25    1    1    2    0    0  0.10962816664E+03  0.25302974634E+02  0.28802596899E+02  0.17062580413E+03  0.12500000000E+03 0.  0.
         25    1    1    2    0    0 -0.16424832720E+03 -0.11289728797E+03 -0.94172309843E+02  0.25341021005E+03  0.12500000000E+03 0.  0.
         25    1    1    2    0    0  0.54620160564E+02  0.87594313332E+02  0.42726302119E+02  0.16765041772E+03  0.12500000000E+03 0.  0.
</event>
<event>
 5    0  0.5771634E-005  0.2599149E+03  0.7546771E-02  0.1107194E+00
         21   -1    0    0  502  501  0.00000000000E+00  0.00000000000E+00  0.12204286771E+03  0.12204286771E+03  0.00000000000E+00 0.  1.
         21   -1    0    0  501  502 -0.00000000000E+00 -0.00000000000E+00 -0.55354105645E+03  0.55354105645E+03  0.00000000000E+00 0.  1.
         25    1    1    2    0    0  0.44875584747E+02  0.69575045340E+02 -0.16163980867E+03  0.22046980017E+03  0.12500000000E+03 0.  0.
         25    1    1    2    0    0  0.19627556776E+02 -0.14253996014E+03 -0.77146189218E+02  0.20561958986E+03  0.12500000000E+03 0.  0.
         25    1    1    2    0    0 -0.64503141522E+02  0.72964914804E+02 -0.19271219086E+03  0.24949453414E+03  0.12500000000E+03 0.  0.
</event>
<event>
 5    0  0.5771634E-005  0.3003818E+03  0.7546771E-02  0.1085050E+00
         21   -1    0    0  502  501  0.00000000000E+00  0.00000000000E+00  0.15294759301E+04  0.15294759301E+04  0.00000000000E+00 0.  1.
         21   -1    0    0  501  502 -0.00000000000E+00 -0.00000000000E+00 -0.58993550123E+02  0.58993550123E+02  0.00000000000E+00 0.  1.
         25    1    1    2    0    0  0.12023455169E+03 -0.30472384064E+01  0.25691157336E+03  0.30999062826E+03  0.12500000000E+03 0.  0.
         25    1    1    2    0    0  0.62849990575E+02 -0.70702034405E+02  0.34337293686E+03  0.37746373701E+03  0.12500000000E+03 0.  0.
         25    1    1    2    0    0 -0.18308454227E+03  0.73749272811E+02  0.87019786978E+03  0.90101511498E+03  0.12500000000E+03 0.  0.
</event>
<event>
 5    0  0.5771634E-005  0.4038726E+03  0.7546771E-02  0.1042447E+00
         21   -1    0    0  502  501  0.00000000000E+00  0.00000000000E+00  0.84572239318E+03  0.84572239318E+03  0.00000000000E+00 0.  1.
         21   -1    0    0  501  502 -0.00000000000E+00 -0.00000000000E+00 -0.19286837522E+03  0.19286837522E+03  0.00000000000E+00 0.  1.
         25    1    1    2    0    0 -0.20426582578E+02 -0.15030948140E+02 -0.14018003505E+03  0.18952207498E+03  0.12500000000E+03 0.  0.
         25    1    1    2    0    0  0.15657964603E+02  0.87778534400E+02  0.48528830479E+03  0.50899899973E+03  0.12500000000E+03 0.  0.
         25    1    1    2    0    0  0.47686179756E+01 -0.72747586261E+02  0.30774574821E+03  0.34006969369E+03  0.12500000000E+03 0.  0.
</event>
<event>
 5    0  0.5884377E-005  0.3666546E+03  0.7546771E-02  0.1055980E+00
         21   -1    0    0  502  501  0.00000000000E+00  0.00000000000E+00  0.26493186071E+03  0.26493186071E+03  0.00000000000E+00 0. -1.
         21   -1    0    0  501  502 -0.00000000000E+00 -0.00000000000E+00 -0.50743466900E+03  0.50743466900E+03  0.00000000000E+00 0. -1.
         25    1    1    2    0    0 -0.23535723404E+03  0.26003082336E+02 -0.16685283411E+03  0.31549018393E+03  0.12500000000E+03 0.  0.
         25    1    1    2    0    0  0.15491393531E+03 -0.78183260758E+01 -0.18467189853E+03  0.27163976822E+03  0.12500000000E+03 0.  0.
         25    1    1    2    0    0  0.80443298738E+02 -0.18184756261E+02  0.10902192436E+03  0.18523657755E+03  0.12500000000E+03 0.  0.
</event>
<event>
 5    0  0.5771634E-005  0.2282069E+03  0.7546771E-02  0.1127908E+00
         21   -1    0    0  502  501  0.00000000000E+00  0.00000000000E+00  0.30283280442E+03  0.30283280442E+03  0.00000000000E+00 0. -1.
         21   -1    0    0  501  502 -0.00000000000E+00 -0.00000000000E+00 -0.17197076069E+03  0.17197076069E+03  0.00000000000E+00 0. -1.
         25    1    1    2    0    0 -0.77901431571E+02  0.15403053695E+02  0.11932543970E+03  0.19018266920E+03  0.12500000000E+03 0.  0.
         25    1    1    2    0    0  0.57354302193E+02  0.33749548507E+01  0.56743179299E+02  0.14881429601E+03  0.12500000000E+03 0.  0.
         25    1    1    2    0    0  0.20547129377E+02 -0.18778008545E+02 -0.45206575267E+02  0.13580659991E+03  0.12500000000E+03 0.  0.
</event>
<event>
 5    0  0.5771634E-005  0.3224003E+03  0.7546771E-02  0.1074550E+00
         21   -1    0    0  502  501  0.00000000000E+00  0.00000000000E+00  0.71331970360E+03  0.71331970360E+03  0.00000000000E+00 0.  1.
         21   -1    0    0  501  502 -0.00000000000E+00 -0.00000000000E+00 -0.14571580102E+03  0.14571580102E+03  0.00000000000E+00 0.  1.
         25    1    1    2    0    0  0.98947863988E+02  0.13815991684E+03  0.53813077340E+01  0.21102796233E+03  0.12500000000E+03 0.  0.
         25    1    1    2    0    0 -0.33329270140E+02 -0.70756154800E+01  0.22649195187E+03  0.26093008421E+03  0.12500000000E+03 0.  0.
         25    1    1    2    0    0 -0.65618593848E+02 -0.13108430136E+03  0.33573064298E+03  0.38707745809E+03  0.12500000000E+03 0.  0.
</event>
<event>
 5    0  0.5771634E-005  0.4115729E+03  0.7546771E-02  0.1039844E+00
         21   -1    0    0  502  501  0.00000000000E+00  0.00000000000E+00  0.44263990954E+03  0.44263990954E+03  0.00000000000E+00 0.  1.
         21   -1    0    0  501  502 -0.00000000000E+00 -0.00000000000E+00 -0.38268644321E+03  0.38268644321E+03  0.00000000000E+00 0.  1.
         25    1    1    2    0    0 -0.20891824170E+02 -0.32700355849E+03 -0.60634278680E+02  0.35590632382E+03  0.12500000000E+03 0.  0.
         25    1    1    2    0    0  0.35993938421E+02  0.15938935172E+03  0.15420042372E+03  0.25710561977E+03  0.12500000000E+03 0.  0.
         25    1    1    2    0    0 -0.15102114251E+02  0.16761420677E+03 -0.33612678709E+02  0.21231440916E+03  0.12500000000E+03 0.  0.
</event>
<event>
 5    0  0.5771634E-005  0.5649110E+03  0.7546771E-02  0.9981004E-01
         21   -1    0    0  502  501  0.00000000000E+00  0.00000000000E+00  0.59553891338E+03  0.59553891338E+03  0.00000000000E+00 0.  1.
         21   -1    0    0  501  502 -0.00000000000E+00 -0.00000000000E+00 -0.53585823183E+03  0.53585823183E+03  0.00000000000E+00 0.  1.
         25    1    1    2    0    0  0.12905903164E+03 -0.17351670055E+03 -0.16282914349E+03  0.29816540542E+03  0.12500000000E+03 0.  0.
         25    1    1    2    0    0  0.18189665233E+03 -0.19605565537E+03  0.23641442865E+02  0.29615558403E+03  0.12500000000E+03 0.  0.
         25    1    1    2    0    0 -0.31095568397E+03  0.36957235592E+03  0.19886838217E+03  0.53707615576E+03  0.12500000000E+03 0.  0.
</event>
<event>
 5    0  0.5771634E-005  0.3518283E+03  0.7546771E-02  0.1061867E+00
         21   -1    0    0  502  501  0.00000000000E+00  0.00000000000E+00  0.64576272904E+03  0.64576272904E+03  0.00000000000E+00 0.  1.
         21   -1    0    0  501  502 -0.00000000000E+00 -0.00000000000E+00 -0.19168517442E+03  0.19168517442E+03  0.00000000000E+00 0.  1.
         25    1    1    2    0    0 -0.62556295337E+02  0.26592244939E+03  0.11206893454E+03  0.32064386048E+03  0.12500000000E+03 0.  0.
         25    1    1    2    0    0  0.40228881939E+02 -0.15638534042E+03  0.25861537346E+03  0.32951729701E+03  0.12500000000E+03 0.  0.
         25    1    1    2    0    0  0.22327413397E+02 -0.10953710897E+03  0.83393246632E+02  0.18728674597E+03  0.12500000000E+03 0.  0.
</event>
<event>
 5    0  0.5771634E-005  0.3489041E+03  0.7546771E-02  0.1063066E+00
         21   -1    0    0  502  501  0.00000000000E+00  0.00000000000E+00  0.10177167908E+04  0.10177167908E+04  0.00000000000E+00 0. -1.
         21   -1    0    0  501  502 -0.00000000000E+00 -0.00000000000E+00 -0.11961485828E+03  0.11961485828E+03  0.00000000000E+00 0. -1.
         25    1    1    2    0    0  0.90667594390E+02  0.10806994515E+03  0.23428792731E+03  0.30069180003E+03  0.12500000000E+03 0.  0.
         25    1    1    2    0    0 -0.14663979383E+03 -0.18177420865E+03  0.16023374303E+03  0.30958834679E+03  0.12500000000E+03 0.  0.
         25    1    1    2    0    0  0.55972199440E+02  0.73704263501E+02  0.50358026214E+03  0.52705150221E+03  0.12500000000E+03 0.  0.
</event>
<event>
 5    0  0.5771634E-005  0.2430638E+03  0.7546771E-02  0.1117768E+00
         21   -1    0    0  502  501  0.00000000000E+00  0.00000000000E+00  0.21149221657E+03  0.21149221657E+03  0.00000000000E+00 0.  1.
         21   -1    0    0  501  502 -0.00000000000E+00 -0.00000000000E+00 -0.27934836640E+03  0.27934836640E+03  0.00000000000E+00 0.  1.
         25    1    1    2    0    0  0.79918466235E+02  0.97518518383E+02  0.39551028995E+02  0.18189586737E+03  0.12500000000E+03 0.  0.
         25    1    1    2    0    0 -0.70440727759E+01 -0.24854887368E+02 -0.42957150478E+02  0.13467628286E+03  0.12500000000E+03 0.  0.
         25    1    1    2    0    0 -0.72874393459E+02 -0.72663631015E+02 -0.64450028347E+02  0.17426843274E+03  0.12500000000E+03 0.  0.
</event>
<event>
 5    0  0.5771634E-005  0.2746224E+03  0.7546771E-02  0.1098663E+00
         21   -1    0    0  502  501  0.00000000000E+00  0.00000000000E+00  0.19112732392E+03  0.19112732392E+03  0.00000000000E+00 0. -1.
         21   -1    0    0  501  502 -0.00000000000E+00 -0.00000000000E+00 -0.39459264049E+03  0.39459264049E+03  0.00000000000E+00 0. -1.
         25    1    1    2    0    0 -0.13808844632E+03  0.33019703738E+01 -0.10699263176E+03  0.21482957261E+03  0.12500000000E+03 0.  0.
         25    1    1    2    0    0  0.12301188560E+03 -0.61074765775E+02  0.24068186355E+02  0.18726005609E+03  0.12500000000E+03 0.  0.
         25    1    1    2    0    0  0.15076560725E+02  0.57772795402E+02 -0.12054087116E+03  0.18363033571E+03  0.12500000000E+03 0.  0.
</event>
<event>
 5    0  0.5771634E-005  0.3088788E+03  0.7546771E-02  0.1080885E+00
         21   -1    0    0  502  501  0.00000000000E+00  0.00000000000E+00  0.18537467720E+03  0.18537467720E+03  0.00000000000E+00 0.  1.
         21   -1    0    0  501  502 -0.00000000000E+00 -0.00000000000E+00 -0.51466627309E+03  0.51466627309E+03  0.00000000000E+00 0. -1.
         25    1    1    2    0    0 -0.57150229165E+02 -0.20473705057E+03 -0.94910050958E+02  0.26422779253E+03  0.12500000000E+03 0.  0.
         25    1    1    2    0    0  0.11696300248E+02  0.19346683234E+03 -0.11977541724E+03  0.25987952830E+03  0.12500000000E+03 0.  0.
         25    1    1    2    0    0  0.45453928917E+02  0.11270218232E+02 -0.11460612768E+03  0.17593362946E+03  0.12500000000E+03 0.  0.
</event>
<event>
 5    0  0.5771634E-005  0.2511523E+03  0.7546771E-02  0.1112579E+00
         21   -1    0    0  502  501  0.00000000000E+00  0.00000000000E+00  0.21052621642E+03  0.21052621642E+03  0.00000000000E+00 0.  1.
         21   -1    0    0  501  502 -0.00000000000E+00 -0.00000000000E+00 -0.29961816439E+03  0.29961816439E+03  0.00000000000E+00 0.  1.
         25    1    1    2    0    0  0.13744064641E+03 -0.35383649586E+02 -0.78473253541E+02  0.20475591680E+03  0.12500000000E+03 0.  0.
         25    1    1    2    0    0 -0.90718419532E+02  0.56619930528E+02 -0.34732856932E+02  0.16812798555E+03  0.12500000000E+03 0.  0.
         25    1    1    2    0    0 -0.46722226878E+02 -0.21236280942E+02  0.24114162503E+02  0.13726047846E+03  0.12500000000E+03 0.  0.
</event>
<event>
 5    0  0.5771634E-005  0.4202029E+03  0.7546771E-02  0.1037000E+00
         21   -1    0    0  502  501  0.00000000000E+00  0.00000000000E+00  0.56948926168E+03  0.56948926168E+03  0.00000000000E+00 0.  1.
         21   -1    0    0  501  502 -0.00000000000E+00 -0.00000000000E+00 -0.31005055144E+03  0.31005055144E+03  0.00000000000E+00 0.  1.
         25    1    1    2    0    0 -0.28446276094E+03  0.17783575430E+03 -0.40820281042E+01  0.35803111712E+03  0.12500000000E+03 0.  0.
         25    1    1    2    0    0  0.84545628162E+02 -0.57152645926E+02  0.18448012189E+03  0.24509651884E+03  0.12500000000E+03 0.  0.
         25    1    1    2    0    0  0.19991713278E+03 -0.12068310838E+03  0.79040616457E+02  0.27641217715E+03  0.12500000000E+03 0.  0.
</event>
<event>
 5    0  0.6333560E-005  0.3240290E+03  0.7546771E-02  0.1073810E+00
         21   -1    0    0  502  501  0.00000000000E+00  0.00000000000E+00  0.23900790143E+03  0.23900790143E+03  0.00000000000E+00 0.  1.
         21   -1    0    0  501  502 -0.00000000000E+00 -0.00000000000E+00 -0.43929430413E+03  0.43929430413E+03  0.00000000000E+00 0.  1.
         25    1    1    2    0    0 -0.87868062630E+02 -0.10058174950E+03 -0.89360679576E+02  0.20358736654E+03  0.12500000000E+03 0.  0.
         25    1    1    2    0    0  0.14087207917E+03 -0.10173664377E+03 -0.82515567208E+02  0.22941034459E+03  0.12500000000E+03 0.  0.
         25    1    1    2    0    0 -0.53004016540E+02  0.20231839326E+03 -0.28410155912E+02  0.24530449442E+03  0.12500000000E+03 0.  0.
</event>
<event>
 5    0  0.5771634E-005  0.3319508E+03  0.7546771E-02  0.1070277E+00
         21   -1    0    0  502  501  0.00000000000E+00  0.00000000000E+00  0.20520560506E+04  0.20520560506E+04  0.00000000000E+00 0.  1.
         21   -1    0    0  501  502 -0.00000000000E+00 -0.00000000000E+00 -0.53698029130E+02  0.53698029130E+02  0.00000000000E+00 0.  1.
         25    1    1    2    0    0 -0.54563728248E+02 -0.97536839282E+02  0.31647979396E+03  0.35815512762E+03  0.12500000000E+03 0.  0.
         25    1    1    2    0    0 -0.10390691392E+03  0.29839583880E+02  0.24810794217E+03  0.29811004427E+03  0.12500000000E+03 0.  0.
         25    1    1    2    0    0  0.15847064217E+03  0.67697255402E+02  0.14337702853E+04  0.14494889078E+04  0.12500000000E+03 0.  0.
</event>
<event>
 5    0  0.5771634E-005  0.2547819E+03  0.7546771E-02  0.1110320E+00
         21   -1    0    0  502  501  0.00000000000E+00  0.00000000000E+00  0.29823634192E+03  0.29823634192E+03  0.00000000000E+00 0. -1.
         21   -1    0    0  501  502 -0.00000000000E+00 -0.00000000000E+00 -0.21765888999E+03  0.21765888999E+03  0.00000000000E+00 0. -1.
         25    1    1    2    0    0 -0.19124305711E+01  0.83572672776E+02 -0.71572110387E+02  0.16654013333E+03  0.12500000000E+03 0.  0.
         25    1    1    2    0    0  0.14228830439E+02  0.43799649455E+02  0.86344242609E+02  0.15874884926E+03  0.12500000000E+03 0.  0.
         25    1    1    2    0    0 -0.12316399868E+02 -0.12737232223E+03  0.65805319714E+02  0.19060624932E+03  0.12500000000E+03 0.  0.
</event>
<event>
 5    0  0.5771634E-005  0.3030040E+03  0.7546771E-02  0.1083749E+00
         21   -1    0    0  502  501  0.00000000000E+00  0.00000000000E+00  0.70618332949E+03  0.70618332949E+03  0.00000000000E+00 0. -1.
         21   -1    0    0  501  502 -0.00000000000E+00 -0.00000000000E+00 -0.13001071324E+03  0.13001071324E+03  0.00000000000E+00 0. -1.
         25    1    1    2    0    0 -0.11379450136E+03  0.52202227963E+02  0.37015203820E+03  0.41025820226E+03  0.12500000000E+03 0.  0.
         25    1    1    2    0    0  0.96658537583E+02  0.71504711017E+02  0.17527949226E+03  0.24658405665E+03  0.12500000000E+03 0.  0.
         25    1    1    2    0    0  0.17135963775E+02 -0.12370693898E+03  0.30741085795E+02  0.17935178383E+03  0.12500000000E+03 0.  0.
</event>
<event>
 5    0  0.5771634E-005  0.3513858E+03  0.7546771E-02  0.1062048E+00
         21   -1    0    0  502  501  0.00000000000E+00  0.00000000000E+00  0.18907034046E+03  0.18907034046E+03  0.00000000000E+00 0.  1.
         21   -1    0    0  501  502 -0.00000000000E+00 -0.00000000000E+00 -0.65304798176E+03  0.65304798176E+03  0.00000000000E+00 0.  1.
         25    1    1    2    0    0 -0.16819323496E+03  0.74212828175E+02 -0.17346503682E+03  0.28197806147E+03  0.12500000000E+03 0.  0.
         25    1    1    2    0    0  0.13107281751E+03  0.13174222398E+03 -0.19951691994E+03  0.29994682597E+03  0.12500000000E+03 0.  0.
         25    1    1    2    0    0  0.37120417450E+02 -0.20595505215E+03 -0.90995684534E+02  0.26019343478E+03  0.12500000000E+03 0.  0.
</event>
<event>
 5    0  0.5771634E-005  0.3830280E+03  0.7546771E-02  0.1049820E+00
         21   -1    0    0  502  501  0.00000000000E+00  0.00000000000E+00  0.17491749060E+03  0.17491749060E+03  0.00000000000E+00 0.  1.
         21   -1    0    0  501  502 -0.00000000000E+00 -0.00000000000E+00 -0.83874100527E+03  0.83874100527E+03  0.00000000000E+00 0.  1.
         25    1    1    2    0    0 -0.59338086355E+02 -0.12985547379E+02 -0.20889653195E+03  0.25090315660E+03  0.12500000000E+03 0.  0.
         25    1    1    2    0    0 -0.11547985983E+03 -0.17722321667E+03 -0.26555000441E+02  0.24713120928E+03  0.12500000000E+03 0.  0.
         25    1    1    2    0    0  0.17481794618E+03  0.19020876405E+03 -0.42837198228E+03  0.51562412999E+03  0.12500000000E+03 0.  0.
</event>
<event>
 5    0  0.5771634E-005  0.2937965E+03  0.7546771E-02  0.1088383E+00
         21   -1    0    0  502  501  0.00000000000E+00  0.00000000000E+00  0.66379833857E+02  0.66379833857E+02  0.00000000000E+00 0. -1.
         21   -1    0    0  501  502 -0.00000000000E+00 -0.00000000000E+00 -0.13003405356E+04  0.13003405356E+04  0.00000000000E+00 0. -1.
         25    1    1    2    0    0  0.84583445051E+02 -0.97126393186E+01 -0.11379696568E+03  0.18927082167E+03  0.12500000000E+03 0.  0.
         25    1    1    2    0    0 -0.78205994328E+02 -0.10745111405E+03 -0.70622712642E+03  0.72941323922E+03  0.12500000000E+03 0.  0.
         25    1    1    2    0    0 -0.63774507222E+01  0.11716375337E+03 -0.41393660960E+03  0.44803630852E+03  0.12500000000E+03 0.  0.
</event>
<event>
 5    0  0.5771634E-005  0.3144630E+03  0.7546771E-02  0.1078226E+00
         21   -1    0    0  502  501  0.00000000000E+00  0.00000000000E+00  0.34960004191E+03  0.34960004191E+03  0.00000000000E+00 0. -1.
         21   -1    0    0  501  502 -0.00000000000E+00 -0.00000000000E+00 -0.28285743823E+03  0.28285743823E+03  0.00000000000E+00 0. -1.
         25    1    1    2    0    0  0.77608506327E+02  0.11546535023E+03  0.11750844788E+03  0.22088133167E+03  0.12500000000E+03 0.  0.
         25    1    1    2    0    0  0.82357555356E+02  0.82261278536E+01  0.43098443427E+02  0.15599010202E+03  0.12500000000E+03 0.  0.
         25    1    1    2    0    0 -0.15996606168E+03 -0.12369147808E+03 -0.93864287636E+02  0.25558604644E+03  0.12500000000E+03 0.  0.
</event>
<event>
 5    0  0.5771634E-005  0.3314668E+03  0.7546771E-02  0.1070490E+00
         21   -1    0    0  502  501  0.00000000000E+00  0.00000000000E+00  0.20724458536E+04  0.20724458536E+04  0.00000000000E+00 0. -1.
         21   -1    0    0  501  502 -0.00000000000E+00 -0.00000000000E+00 -0.53014774540E+02  0.53014774540E+02  0.00000000000E+00 0. -1.
         25    1    1    2    0    0 -0.16361773868E+03  0.21049565770E+03  0.98410650195E+03  0.10272145801E+04  0.12500000000E+03 0.  0.
         25    1    1    2    0    0  0.72065659036E+02 -0.10979785056E+03  0.53486986300E+03  0.56476525880E+03  0.12500000000E+03 0.  0.
         25    1    1    2    0    0  0.91552079649E+02 -0.10069780714E+03  0.50045471413E+03  0.53348078930E+03  0.12500000000E+03 0.  0.
</event>
<event>
 5    0  0.5771634E-005  0.3420997E+03  0.7546771E-02  0.1065905E+00
         21   -1    0    0  502  501  0.00000000000E+00  0.00000000000E+00  0.17813325843E+03  0.17813325843E+03  0.00000000000E+00 0. -1.
         21   -1    0    0  501  502 -0.00000000000E+00 -0.00000000000E+00 -0.65699243852E+03  0.65699243852E+03  0.00000000000E+00 0. -1.
         25    1    1    2    0    0 -0.71378421453E+02  0.95918152607E+02 -0.30409252033E+03  0.34984629764E+03  0.12500000000E+03 0.  0.
         25    1    1    2    0    0  0.95666090690E+02 -0.10157920200E+02 -0.26412754862E+03  0.30764191228E+03  0.12500000000E+03 0.  0.
         25    1    1    2    0    0 -0.24287669237E+02 -0.85760232407E+02  0.89360888862E+02  0.17763748703E+03  0.12500000000E+03 0.  0.
</event>
<event>
 5    0  0.5871067E-005  0.5406167E+03  0.7546771E-02  0.1003689E+00
         21   -1    0    0  502  501  0.00000000000E+00  0.00000000000E+00  0.15212432327E+03  0.15212432327E+03  0.00000000000E+00 0. -1.
         21   -1    0    0  501  502 -0.00000000000E+00 -0.00000000000E+00 -0.19212338416E+04  0.19212338416E+04  0.00000000000E+00 0. -1.
         25    1    1    2    0    0 -0.24877157702E+03 -0.10434072301E+03 -0.67381635518E+03  0.73649695486E+03  0.12500000000E+03 0.  0.
         25    1    1    2    0    0  0.20190844996E+03 -0.10842388992E+03 -0.10495812871E+04  0.10815584313E+04  0.12500000000E+03 0.  0.
         25    1    1    2    0    0  0.46863127067E+02  0.21276461293E+03 -0.45711876017E+02  0.25530277868E+03  0.12500000000E+03 0.  0.
</event>
<event>
 5    0  0.5771634E-005  0.4681288E+03  0.7546771E-02  0.1022450E+00
         21   -1    0    0  502  501  0.00000000000E+00  0.00000000000E+00  0.25491668993E+03  0.25491668993E+03  0.00000000000E+00 0. -1.
         21   -1    0    0  501  502 -0.00000000000E+00 -0.00000000000E+00 -0.85967136142E+03  0.85967136142E+03  0.00000000000E+00 0. -1.
         25    1    1    2    0    0  0.35161533488E+03  0.12283261105E+03 -0.15073488488E+03  0.42079353557E+03  0.12500000000E+03 0.  0.
         25    1    1    2    0    0 -0.20228203396E+03  0.10760657881E+02 -0.37612684820E+03  0.44511820785E+03  0.12500000000E+03 0.  0.
         25    1    1    2    0    0 -0.14933330092E+03 -0.13359326893E+03 -0.77892938401E+02  0.24867630792E+03  0.12500000000E+03 0.  0.
</event>
<event>
 5    0  0.5771634E-005  0.3819889E+03  0.7546771E-02  0.1050201E+00
         21   -1    0    0  502  501  0.00000000000E+00  0.00000000000E+00  0.13950030702E+03  0.13950030702E+03  0.00000000000E+00 0.  1.
         21   -1    0    0  501  502 -0.00000000000E+00 -0.00000000000E+00 -0.10459870015E+04  0.10459870015E+04  0.00000000000E+00 0.  1.
         25    1    1    2    0    0 -0.17009295221E+03 -0.14222660008E+03 -0.44424235965E+03  0.51199247287E+03  0.12500000000E+03 0.  0.
         25    1    1    2    0    0  0.45021265807E+02  0.16143284667E+03 -0.44881210927E+03  0.49512098298E+03  0.12500000000E+03 0.  0.
         25    1    1    2    0    0  0.12507168640E+03 -0.19206246586E+02 -0.13432225603E+02  0.17837385272E+03  0.12500000000E+03 0.  0.
</event>
<event>
 5    0  0.5771634E-005  0.3286015E+03  0.7546771E-02  0.1071757E+00
         21   -1    0    0  502  501  0.00000000000E+00  0.00000000000E+00  0.33143137698E+03  0.33143137698E+03  0.00000000000E+00 0.  1.
         21   -1    0    0  501  502 -0.00000000000E+00 -0.00000000000E+00 -0.32579571400E+03  0.32579571400E+03  0.00000000000E+00 0.  1.
         25    1    1    2    0    0  0.13351017627E+03 -0.96447050512E+02  0.90240001697E+02  0.22559977532E+03  0.12500000000E+03 0.  0.
         25    1    1    2    0    0 -0.20571785686E+03  0.12084000473E+02 -0.10555126358E+03  0.26311960957E+03  0.12500000000E+03 0.  0.
         25    1    1    2    0    0  0.72207680585E+02  0.84363050040E+02  0.20946924869E+02  0.16850770608E+03  0.12500000000E+03 0.  0.
</event>
<event>
 5    0  0.5771634E-005  0.2378337E+03  0.7546771E-02  0.1121244E+00
         21   -1    0    0  502  501  0.00000000000E+00  0.00000000000E+00  0.29209449869E+03  0.29209449869E+03  0.00000000000E+00 0. -1.
         21   -1    0    0  501  502 -0.00000000000E+00 -0.00000000000E+00 -0.19365261894E+03  0.19365261894E+03  0.00000000000E+00 0. -1.
         25    1    1    2    0    0  0.75222205084E+01  0.59320250792E+02 -0.47978766087E+02  0.14663709609E+03  0.12500000000E+03 0.  0.
         25    1    1    2    0    0  0.10285050973E+02 -0.20319174833E+02  0.16218113994E+03  0.20602517635E+03  0.12500000000E+03 0.  0.
         25    1    1    2    0    0 -0.17807271482E+02 -0.39001075959E+02 -0.15760494098E+02  0.13308484518E+03  0.12500000000E+03 0.  0.
</event>
<event>
 5    0  0.6133850E-005  0.6887785E+03  0.7546771E-02  0.9736617E-01
         21   -1    0    0  502  501  0.00000000000E+00  0.00000000000E+00  0.11843393339E+04  0.11843393339E+04  0.00000000000E+00 0. -1.
         21   -1    0    0  501  502 -0.00000000000E+00 -0.00000000000E+00 -0.40057420839E+03  0.40057420839E+03  0.00000000000E+00 0. -1.
         25    1    1    2    0    0 -0.49673212010E+03 -0.20699282073E+03  0.48416154751E+03  0.73459256126E+03  0.12500000000E+03 0.  0.
         25    1    1    2    0    0  0.39096618304E+03  0.13041758116E+03  0.44429707916E+03  0.61877960237E+03  0.12500000000E+03 0.  0.
         25    1    1    2    0    0  0.10576593706E+03  0.76575239573E+02 -0.14469350115E+03  0.23154137866E+03  0.12500000000E+03 0.  0.
</event>
<event>
 5    0  0.5771634E-005  0.3598212E+03  0.7546771E-02  0.1058655E+00
         21   -1    0    0  502  501  0.00000000000E+00  0.00000000000E+00  0.65172978247E+03  0.65172978247E+03  0.00000000000E+00 0. -1.
         21   -1    0    0  501  502 -0.00000000000E+00 -0.00000000000E+00 -0.19865795885E+03  0.19865795885E+03  0.00000000000E+00 0. -1.
         25    1    1    2    0    0  0.28920494151E+02  0.62813063326E+02  0.24997826476E+03  0.28791666982E+03  0.12500000000E+03 0.  0.
         25    1    1    2    0    0  0.15248043721E+03 -0.92639306107E+02  0.25378069591E+03  0.33445771987E+03  0.12500000000E+03 0.  0.
         25    1    1    2    0    0 -0.18140093136E+03  0.29826242781E+02 -0.50687137053E+02  0.22801335163E+03  0.12500000000E+03 0.  0.
</event>
<event>
 5    0  0.5771634E-005  0.2784344E+03  0.7546771E-02  0.1096547E+00
         21   -1    0    0  502  501  0.00000000000E+00  0.00000000000E+00  0.22289848927E+03  0.22289848927E+03  0.00000000000E+00 0. -1.
         21   -1    0    0  501  502 -0.00000000000E+00 -0.00000000000E+00 -0.34780718487E+03  0.34780718487E+03  0.00000000000E+00 0. -1.
         25    1    1    2    0    0  0.86001244069E+02 -0.70403548137E+02 -0.76646130738E+02  0.18399049684E+03  0.12500000000E+03 0.  0.
         25    1    1    2    0    0 -0.15959853388E+03  0.10562921337E+03  0.38008069454E+01  0.22862342152E+03  0.12500000000E+03 0.  0.
         25    1    1    2    0    0  0.73597289810E+02 -0.35225665232E+02 -0.52063371808E+02  0.15809175577E+03  0.12500000000E+03 0.  0.
</event>
<event>
 5    0  0.5771634E-005  0.3492679E+03  0.7546771E-02  0.1062916E+00
         21   -1    0    0  502  501  0.00000000000E+00  0.00000000000E+00  0.20973233518E+04  0.20973233518E+04  0.00000000000E+00 0. -1.
         21   -1    0    0  501  502 -0.00000000000E+00 -0.00000000000E+00 -0.58163702043E+02  0.58163702043E+02  0.00000000000E+00 0. -1.
         25    1    1    2    0    0  0.83257293207E+00 -0.74325491819E+02  0.10522023464E+04  0.10622051354E+04  0.12500000000E+03 0.  0.
         25    1    1    2    0    0  0.10508513166E+03  0.20211220880E+03  0.48991443500E+03  0.55455692536E+03  0.12500000000E+03 0.  0.
         25    1    1    2    0    0 -0.10591770460E+03 -0.12778671698E+03  0.49704286834E+03  0.53872499306E+03  0.12500000000E+03 0.  0.
</event>
<event>
 5    0  0.5771634E-005  0.2985700E+03  0.7546771E-02  0.1085958E+00
         21   -1    0    0  502  501  0.00000000000E+00  0.00000000000E+00  0.54449053514E+03  0.54449053514E+03  0.00000000000E+00 0. -1.
         21   -1    0    0  501  502 -0.00000000000E+00 -0.00000000000E+00 -0.16372014269E+03  0.16372014269E+03  0.00000000000E+00 0. -1.
         25    1    1    2    0    0 -0.87801514002E+02 -0.74830350844E+02  0.10791110599E+03  0.20144104365E+03  0.12500000000E+03 0.  0.
         25    1    1    2    0    0  0.11556552525E+03  0.11377061958E+02 -0.28746624295E+02  0.17302079810E+03  0.12500000000E+03 0.  0.
         25    1    1    2    0    0 -0.27764011248E+02  0.63453288886E+02  0.30160591076E+03  0.33374883609E+03  0.12500000000E+03 0.  0.
</event>
<event>
 5    0  0.5771634E-005  0.3768435E+03  0.7546771E-02  0.1052107E+00
         21   -1    0    0  502  501  0.00000000000E+00  0.00000000000E+00  0.59384697080E+02  0.59384697080E+02  0.00000000000E+00 0. -1.
         21   -1    0    0  501  502 -0.00000000000E+00 -0.00000000000E+00 -0.23913744360E+04  0.23913744360E+04  0.00000000000E+00 0. -1.
         25    1    1    2    0    0 -0.49470431901E+02 -0.18624400329E+03 -0.36004861711E+03  0.42707629187E+03  0.12500000000E+03 0.  0.
         25    1    1    2    0    0  0.92049569548E+02  0.15075377859E+03 -0.17476577405E+04  0.17610032376E+04  0.12500000000E+03 0.  0.
         25    1    1    2    0    0 -0.42579137646E+02  0.35490224697E+02 -0.22428338140E+03  0.26267960367E+03  0.12500000000E+03 0.  0.
</event>
<event>
 5    0  0.5771634E-005  0.2462190E+03  0.7546771E-02  0.1115718E+00
         21   -1    0    0  502  501  0.00000000000E+00  0.00000000000E+00  0.46609684674E+02  0.46609684674E+02  0.00000000000E+00 0.  1.
         21   -1    0    0  501  502 -0.00000000000E+00 -0.00000000000E+00 -0.13006700260E+04  0.13006700260E+04  0.00000000000E+00 0.  1.
         25    1    1    2    0    0  0.21601486644E+02  0.19019410386E+02 -0.39062175977E+03  0.41114318845E+03  0.12500000000E+03 0.  0.
         25    1    1    2    0    0  0.11107693650E+02 -0.12131810069E+03 -0.28070848153E+03  0.33055062247E+03  0.12500000000E+03 0.  0.
         25    1    1    2    0    0 -0.32709180294E+02  0.10229869030E+03 -0.58273010005E+03  0.60558589979E+03  0.12500000000E+03 0.  0.
</event>
<event>
 5    0  0.5771634E-005  0.3432254E+03  0.7546771E-02  0.1065430E+00
         21   -1    0    0  502  501  0.00000000000E+00  0.00000000000E+00  0.90795265241E+02  0.90795265241E+02  0.00000000000E+00 0. -1.
         21   -1    0    0  501  502 -0.00000000000E+00 -0.00000000000E+00 -0.12974648623E+04  0.12974648623E+04  0.00000000000E+00 0. -1.
         25    1    1    2    0    0  0.14800338657E+03  0.65829128782E+02 -0.25784546848E+03  0.32916221267E+03  0.12500000000E+03 0.  0.
         25    1    1    2    0    0  0.43001683720E+02 -0.15419816578E+03 -0.27266965355E+03  0.33999993985E+03  0.12500000000E+03 0.  0.
         25    1    1    2    0    0 -0.19100507029E+03  0.88369036996E+02 -0.67615447502E+03  0.71909797501E+03  0.12500000000E+03 0.  0.
</event>
<event>
 5    0  0.5771634E-005  0.6866048E+03  0.7546771E-02  0.9740418E-01
         21   -1    0    0  502  501  0.00000000000E+00  0.00000000000E+00  0.23800881002E+03  0.23800881002E+03  0.00000000000E+00 0. -1.
         21   -1    0    0  501  502 -0.00000000000E+00 -0.00000000000E+00 -0.19807086279E+04  0.19807086279E+04  0.00000000000E+00 0. -1.
         25    1    1    2    0    0  0.18637463362E+03 -0.56511159735E+03 -0.11301356516E+04  0.12833231130E+04  0.12500000000E+03 0.  0.
         25    1    1    2    0    0  0.52139162839E+02  0.12921896288E+03 -0.22662563260E+03  0.29393912639E+03  0.12500000000E+03 0.  0.
         25    1    1    2    0    0 -0.23851379646E+03  0.43589263447E+03 -0.38593853372E+03  0.64145519851E+03  0.12500000000E+03 0.  0.
</event>
<event>
 5    0  0.5771634E-005  0.4885841E+03  0.7546771E-02  0.1016802E+00
         21   -1    0    0  502  501  0.00000000000E+00  0.00000000000E+00  0.14645949283E+03  0.14645949283E+03  0.00000000000E+00 0.  1.
         21   -1    0    0  501  502 -0.00000000000E+00 -0.00000000000E+00 -0.16299005446E+04  0.16299005446E+04  0.00000000000E+00 0.  1.
         25    1    1    2    0    0 -0.19254928963E+03  0.15569605303E+03 -0.58409322353E+03  0.64661146266E+03  0.12500000000E+03 0.  0.
         25    1    1    2    0    0  0.15524568527E+02  0.18410904150E+02 -0.83469148609E+03  0.84434285132E+03  0.12500000000E+03 0.  0.
         25    1    1    2    0    0  0.17702472110E+03 -0.17410695718E+03 -0.64656342183E+02  0.28540572350E+03  0.12500000000E+03 0.  0.
</event>
<event>
 5    0  0.5771634E-005  0.3956349E+03  0.7546771E-02  0.1045302E+00
         21   -1    0    0  502  501  0.00000000000E+00  0.00000000000E+00  0.34503417091E+03  0.34503417091E+03  0.00000000000E+00 0.  1.
         21   -1    0    0  501  502 -0.00000000000E+00 -0.00000000000E+00 -0.45365644572E+03  0.45365644572E+03  0.00000000000E+00 0.  1.
         25    1    1    2    0    0  0.29668312734E+03 -0.10629349807E+03  0.44976054257E+02  0.34200443161E+03  0.12500000000E+03 0.  0.
         25    1    1    2    0    0 -0.15260418355E+03  0.86491384281E+02 -0.15422729549E+03  0.26491480718E+03  0.12500000000E+03 0.  0.
         25    1    1    2    0    0 -0.14407894380E+03  0.19802113793E+02  0.62896642648E+00  0.19177137783E+03  0.12500000000E+03 0.  0.
</event>
<event>
 5    0  0.5771634E-005  0.2988721E+03  0.7546771E-02  0.1085806E+00
         21   -1    0    0  502  501  0.00000000000E+00  0.00000000000E+00  0.10983882433E+03  0.10983882433E+03  0.00000000000E+00 0. -1.
         21   -1    0    0  501  502 -0.00000000000E+00 -0.00000000000E+00 -0.81323268257E+03  0.81323268257E+03  0.00000000000E+00 0. -1.
         25    1    1    2    0    0  0.12576972426E+03  0.49924829035E+02 -0.32319109254E+03  0.37200536877E+03  0.12500000000E+03 0.  0.
         25    1    1    2    0    0  0.66858682782E+02 -0.45213358052E+02 -0.23875708556E+03  0.28132592684E+03  0.12500000000E+03 0.  0.
         25    1    1    2    0    0 -0.19262840704E+03 -0.47114709825E+01 -0.14144568014E+03  0.26974021129E+03  0.12500000000E+03 0.  0.
</event>
<event>
 5    0  0.5771634E-005  0.5066206E+03  0.7546771E-02  0.1012065E+00
         21   -1    0    0  502  501  0.00000000000E+00  0.00000000000E+00  0.12509276552E+04  0.12509276552E+04  0.00000000000E+00 0.  1.
         21   -1    0    0  501  502 -0.00000000000E+00 -0.00000000000E+00 -0.20517931762E+03  0.20517931762E+03  0.00000000000E+00 0.  1.
         25    1    1    2    0    0  0.15875695636E+03 -0.88804382688E+02  0.58966724636E+03  0.62962087879E+03  0.12500000000E+03 0.  0.
         25    1    1    2    0    0 -0.42968864705E+02  0.23484957279E+03  0.52635011984E+03  0.59132909097E+03  0.12500000000E+03 0.  0.
         25    1    1    2    0    0 -0.11578809166E+03 -0.14604519010E+03 -0.70269028591E+02  0.23515700309E+03  0.12500000000E+03 0.  0.
</event>
<event>
 5    0  0.5771634E-005  0.2877581E+03  0.7546771E-02  0.1091525E+00
         21   -1    0    0  502  501  0.00000000000E+00  0.00000000000E+00  0.45449323930E+03  0.45449323930E+03  0.00000000000E+00 0. -1.
         21   -1    0    0  501  502 -0.00000000000E+00 -0.00000000000E+00 -0.18219136498E+03  0.18219136498E+03  0.00000000000E+00 0. -1.
         25    1    1    2    0    0  0.16175341785E+02 -0.47606947893E+02  0.25321877162E+03  0.28683237173E+03  0.12500000000E+03 0.  0.
         25    1    1    2    0    0  0.21686585870E+02  0.13993058338E+03  0.19714784993E+02  0.18990668476E+03  0.12500000000E+03 0.  0.
         25    1    1    2    0    0 -0.37861927655E+02 -0.92323635483E+02 -0.63168229689E+00  0.15994554779E+03  0.12500000000E+03 0.  0.
</event>
<event>
 5    0  0.5771634E-005  0.2823586E+03  0.7546771E-02  0.1094408E+00
         21   -1    0    0  502  501  0.00000000000E+00  0.00000000000E+00  0.79392518164E+02  0.79392518164E+02  0.00000000000E+00 0. -1.
         21   -1    0    0  501  502 -0.00000000000E+00 -0.00000000000E+00 -0.10042051650E+04  0.10042051650E+04  0.00000000000E+00 0. -1.
         25    1    1    2    0    0  0.30943820629E+02 -0.12192418493E+03 -0.12624467908E+03  0.21768267249E+03  0.12500000000E+03 0.  0.
         25    1    1    2    0    0  0.74875902685E+02  0.44746768993E+02 -0.32681078513E+03  0.36060915603E+03  0.12500000000E+03 0.  0.
         25    1    1    2    0    0 -0.10581972331E+03  0.77177415940E+02 -0.47175718264E+03  0.50530585465E+03  0.12500000000E+03 0.  0.
</event>
<event>
 5    0  0.5771634E-005  0.3138729E+03  0.7546771E-02  0.1078504E+00
         21   -1    0    0  502  501  0.00000000000E+00  0.00000000000E+00  0.58408103498E+03  0.58408103498E+03  0.00000000000E+00 0. -1.
         21   -1    0    0  501  502 -0.00000000000E+00 -0.00000000000E+00 -0.16866873098E+03  0.16866873098E+03  0.00000000000E+00 0. -1.
         25    1    1    2    0    0  0.25839588833E+01  0.86935264142E+02 -0.41738812400E+02  0.15789726234E+03  0.12500000000E+03 0.  0.
         25    1    1    2    0    0  0.61291921921E+02 -0.87782699839E+02  0.62622398390E+02  0.17609391490E+03  0.12500000000E+03 0.  0.
         25    1    1    2    0    0 -0.63875880804E+02  0.84743569741E+00  0.39452871801E+03  0.41875858873E+03  0.12500000000E+03 0.  0.
</event>
<event>
 5    0  0.5771634E-005  0.3404620E+03  0.7546771E-02  0.1066599E+00
         21   -1    0    0  502  501  0.00000000000E+00  0.00000000000E+00  0.29225126669E+03  0.29225126669E+03  0.00000000000E+00 0.  1.
         21   -1    0    0  501  502 -0.00000000000E+00 -0.00000000000E+00 -0.39662578435E+03  0.39662578435E+03  0.00000000000E+00 0.  1.
         25    1    1    2    0    0  0.10819242706E+03 -0.21555831264E+02  0.53076962258E+02  0.17496405075E+03  0.12500000000E+03 0.  0.
         25    1    1    2    0    0  0.12479143182E+03  0.44958833570E+02 -0.16854795970E+03  0.24824909444E+03  0.12500000000E+03 0.  0.
         25    1    1    2    0    0 -0.23298385887E+03 -0.23403002306E+02  0.11096479775E+02  0.26566390586E+03  0.12500000000E+03 0.  0.
</event>
<event>
 5    0  0.6139604E-005  0.2838768E+03  0.7546771E-02  0.1093590E+00
         21   -1    0    0  502  501  0.00000000000E+00  0.00000000000E+00  0.54322340449E+03  0.54322340449E+03  0.00000000000E+00 0.  1.
         21   -1    0    0  501  502 -0.00000000000E+00 -0.00000000000E+00 -0.14834792325E+03  0.14834792325E+03  0.00000000000E+00 0.  1.
         25    1    1    2    0    0 -0.15657790237E+03 -0.69021975519E+02  0.87692914142E+02  0.22933756736E+03  0.12500000000E+03 0.  0.
         25    1    1    2    0    0  0.81194905019E+01  0.40550811315E+02  0.19789176270E+03  0.23768980661E+03  0.12500000000E+03 0.  0.
         25    1    1    2    0    0  0.14845841186E+03  0.28471164205E+02  0.10929080440E+03  0.22454395376E+03  0.12500000000E+03 0.  0.
</event>
<event>
 5    0  0.5771634E-005  0.4937187E+03  0.7546771E-02  0.1015432E+00
         21   -1    0    0  502  501  0.00000000000E+00  0.00000000000E+00  0.84136374972E+03  0.84136374972E+03  0.00000000000E+00 0.  1.
         21   -1    0    0  501  502 -0.00000000000E+00 -0.00000000000E+00 -0.28971795701E+03  0.28971795701E+03  0.00000000000E+00 0.  1.
         25    1    1    2    0    0 -0.16249219820E+03  0.10843440513E+03 -0.18720400410E+03  0.29804710004E+03  0.12500000000E+03 0.  0.
         25    1    1    2    0    0  0.72262032223E+02 -0.44374452717E+02  0.59111611589E+03  0.61010995388E+03  0.12500000000E+03 0.  0.
         25    1    1    2    0    0  0.90230165981E+02 -0.64059952411E+02  0.14773368091E+03  0.22292465281E+03  0.12500000000E+03 0.  0.
</event>
<event>
 5    0  0.5771634E-005  0.6452292E+03  0.7546771E-02  0.9815773E-01
         21   -1    0    0  502  501  0.00000000000E+00  0.00000000000E+00  0.42268562584E+03  0.42268562584E+03  0.00000000000E+00 0. -1.
         21   -1    0    0  501  502 -0.00000000000E+00 -0.00000000000E+00 -0.98494180541E+03  0.98494180541E+03  0.00000000000E+00 0.  1.
         25    1    1    2    0    0 -0.50629493747E+03  0.23947247271E+03 -0.23043607876E+03  0.61839098901E+03  0.12500000000E+03 0.  0.
         25    1    1    2    0    0  0.29010801215E+03 -0.10084981689E+03 -0.37476531682E+03  0.50040722114E+03  0.12500000000E+03 0.  0.
         25    1    1    2    0    0  0.21618692532E+03 -0.13862265582E+03  0.42945216006E+02  0.28882922110E+03  0.12500000000E+03 0.  0.
</event>
<event>
 5    0  0.5771634E-005  0.2635300E+03  0.7546771E-02  0.1105041E+00
         21   -1    0    0  502  501  0.00000000000E+00  0.00000000000E+00  0.11480844720E+03  0.11480844720E+03  0.00000000000E+00 0.  1.
         21   -1    0    0  501  502 -0.00000000000E+00 -0.00000000000E+00 -0.60490365687E+03  0.60490365687E+03  0.00000000000E+00 0.  1.
         25    1    1    2    0    0  0.47059403442E+02  0.33719389187E+02 -0.11779650323E+03  0.18125286435E+03  0.12500000000E+03 0.  0.
         25    1    1    2    0    0 -0.65094309905E+01  0.11988090969E+03 -0.10258391424E+03  0.20140075636E+03  0.12500000000E+03 0.  0.
         25    1    1    2    0    0 -0.40549972452E+02 -0.15360029888E+03 -0.26971479220E+03  0.33705848337E+03  0.12500000000E+03 0.  0.
</event>
<event>
 5    0  0.5771634E-005  0.5366052E+03  0.7546771E-02  0.1004643E+00
         21   -1    0    0  502  501  0.00000000000E+00  0.00000000000E+00  0.11649303168E+04  0.11649303168E+04  0.00000000000E+00 0.  1.
         21   -1    0    0  501  502 -0.00000000000E+00 -0.00000000000E+00 -0.24717802655E+03  0.24717802655E+03  0.00000000000E+00 0.  1.
         25    1    1    2    0    0 -0.80188804230E+02  0.47976101770E+02  0.25449859082E+03  0.29854058919E+03  0.12500000000E+03 0.  0.
         25    1    1    2    0    0  0.31295637501E+03  0.15202885771E+03 -0.27147029014E+01  0.36971182811E+03  0.12500000000E+03 0.  0.
         25    1    1    2    0    0 -0.23276757078E+03 -0.20000495948E+03  0.66596840237E+03  0.74385592609E+03  0.12500000000E+03 0.  0.
</event>
<event>
 5    0  0.5771634E-005  0.4304820E+03  0.7546771E-02  0.1033708E+00
         21   -1    0    0  502  501  0.00000000000E+00  0.00000000000E+00  0.40747387741E+03  0.40747387741E+03  0.00000000000E+00 0.  1.
         21   -1    0    0  501  502 -0.00000000000E+00 -0.00000000000E+00 -0.45478926579E+03  0.45478926579E+03  0.00000000000E+00 0.  1.
         25    1    1    2    0    0 -0.75816946150E+02 -0.86022972039E+02 -0.35632205389E+03  0.39463726019E+03  0.12500000000E+03 0.  0.
         25    1    1    2    0    0  0.14936152616E+03  0.58443909732E+02  0.18053712433E+03  0.27192500684E+03  0.12500000000E+03 0.  0.
         25    1    1    2    0    0 -0.73544580015E+02  0.27579062306E+02  0.12846954116E+03  0.19570087617E+03  0.12500000000E+03 0.  0.
</event>
<event>
 5    0  0.5771634E-005  0.3066991E+03  0.7546771E-02  0.1081939E+00
         21   -1    0    0  502  501  0.00000000000E+00  0.00000000000E+00  0.93373596392E+03  0.93373596392E+03  0.00000000000E+00 0.  1.
         21   -1    0    0  501  502 -0.00000000000E+00 -0.00000000000E+00 -0.10073974802E+03  0.10073974802E+03  0.00000000000E+00 0.  1.
         25    1    1    2    0    0  0.68852343655E+02  0.56846101226E+02  0.39982766128E+02  0.15873167938E+03  0.12500000000E+03 0.  0.
         25    1    1    2    0    0  0.12878458353E+02 -0.70571866334E+02  0.65912646839E+03  0.67469915099E+03  0.12500000000E+03 0.  0.
         25    1    1    2    0    0 -0.81730802008E+02  0.13725765108E+02  0.13388698138E+03  0.20104488158E+03  0.12500000000E+03 0.  0.
</event>
<event>
 5    0  0.5771634E-005  0.3097622E+03  0.7546771E-02  0.1080460E+00
         21   -1    0    0  502  501  0.00000000000E+00  0.00000000000E+00  0.21108162921E+03  0.21108162921E+03  0.00000000000E+00 0.  1.
         21   -1    0    0  501  502 -0.00000000000E+00 -0.00000000000E+00 -0.45457603265E+03  0.45457603265E+03  0.00000000000E+00 0.  1.
         25    1    1    2    0    0  0.16433673160E+02 -0.71944013774E+01  0.76548014818E+02  0.14766998205E+03  0.12500000000E+03 0.  0.
         25    1    1    2    0    0  0.13571401301E+02  0.15898886847E+03 -0.20457369968E+03  0.28798791959E+03  0.12500000000E+03 0.  0.
         25    1    1    2    0    0 -0.30005074462E+02 -0.15179446709E+03 -0.11546871859E+03  0.22999976023E+03  0.12500000000E+03 0.  0.
</event>
<event>
 5    0  0.5771634E-005  0.2933736E+03  0.7546771E-02  0.1088601E+00
         21   -1    0    0  502  501  0.00000000000E+00  0.00000000000E+00  0.16794918345E+03  0.16794918345E+03  0.00000000000E+00 0.  1.
         21   -1    0    0  501  502 -0.00000000000E+00 -0.00000000000E+00 -0.51246487973E+03  0.51246487973E+03  0.00000000000E+00 0.  1.
         25    1    1    2    0    0 -0.12601155801E+03  0.13994844032E+03 -0.11637805317E+03  0.25423085957E+03  0.12500000000E+03 0.  0.
         25    1    1    2    0    0 -0.22732172489E+02 -0.83376645657E+02 -0.61104232320E+02  0.16378993838E+03  0.12500000000E+03 0.  0.
         25    1    1    2    0    0  0.14874373050E+03 -0.56571794660E+02 -0.16703341079E+03  0.26239326523E+03  0.12500000000E+03 0.  0.
</event>
<event>
 5    0  0.5771634E-005  0.3497812E+03  0.7546771E-02  0.1062705E+00
         21   -1    0    0  502  501  0.00000000000E+00  0.00000000000E+00  0.15063464533E+04  0.15063464533E+04  0.00000000000E+00 0. -1.
         21   -1    0    0  501  502 -0.00000000000E+00 -0.00000000000E+00 -0.81220942162E+02  0.81220942162E+02  0.00000000000E+00 0. -1.
         25    1    1    2    0    0 -0.89548471557E+02 -0.19238936375E+03  0.30793408186E+03  0.39431078456E+03  0.12500000000E+03 0.  0.
         25    1    1    2    0    0  0.99506195134E+02  0.23535399837E+03  0.81691477969E+03  0.86502470757E+03  0.12500000000E+03 0.  0.
         25    1    1    2    0    0 -0.99577235771E+01 -0.42964634617E+02  0.30027664958E+03  0.32823190334E+03  0.12500000000E+03 0.  0.
</event>
<event>
 5    0  0.5771634E-005  0.2079647E+03  0.7546771E-02  0.1143188E+00
         21   -1    0    0  502  501  0.00000000000E+00  0.00000000000E+00  0.28434006575E+03  0.28434006575E+03  0.00000000000E+00 0. -1.
         21   -1    0    0  501  502 -0.00000000000E+00 -0.00000000000E+00 -0.15210423693E+03  0.15210423693E+03  0.00000000000E+00 0. -1.
         25    1    1    2    0    0 -0.23963168541E+02  0.19946667531E+02  0.45675318927E+02  0.13668700652E+03  0.12500000000E+03 0.  0.
         25    1    1    2    0    0  0.48869708963E+02  0.47411094066E+02  0.51715270356E+02  0.15144480672E+03  0.12500000000E+03 0.  0.
         25    1    1    2    0    0 -0.24906540423E+02 -0.67357761597E+02  0.34845239535E+02  0.14831248943E+03  0.12500000000E+03 0.  0.
</event>
<event>
 5    0  0.5771634E-005  0.2338008E+03  0.7546771E-02  0.1123993E+00
         21   -1    0    0  502  501  0.00000000000E+00  0.00000000000E+00  0.36543977869E+02  0.36543977869E+02  0.00000000000E+00 0.  1.
         21   -1    0    0  501  502 -0.00000000000E+00 -0.00000000000E+00 -0.14958088091E+04  0.14958088091E+04  0.00000000000E+00 0.  1.
         25    1    1    2    0    0 -0.85193102843E+02 -0.45778985779E+02 -0.63112923289E+03  0.65061716003E+03  0.12500000000E+03 0.  0.
         25    1    1    2    0    0 -0.24016416739E+02  0.47968649649E+02 -0.40318349515E+03  0.42551111664E+03  0.12500000000E+03 0.  0.
         25    1    1    2    0    0  0.10920951958E+03 -0.21896638701E+01 -0.42495210318E+03  0.45622451030E+03  0.12500000000E+03 0.  0.
</event>
<event>
 5    0  0.5771634E-005  0.2302687E+03  0.7546771E-02  0.1126451E+00
         21   -1    0    0  502  501  0.00000000000E+00  0.00000000000E+00  0.66196103761E+03  0.66196103761E+03  0.00000000000E+00 0.  1.
         21   -1    0    0  501  502 -0.00000000000E+00 -0.00000000000E+00 -0.80100884422E+02  0.80100884422E+02  0.00000000000E+00 0.  1.
         25    1    1    2    0    0 -0.84805010452E+02  0.33855188524E+02  0.21071507577E+03  0.26146492450E+03  0.12500000000E+03 0.  0.
         25    1    1    2    0    0  0.11486355075E+03  0.31674712671E+01  0.23283623098E+03  0.28816901052E+03  0.12500000000E+03 0.  0.
         25    1    1    2    0    0 -0.30058540298E+02 -0.37022659791E+02  0.13830884643E+03  0.19242798701E+03  0.12500000000E+03 0.  0.
</event>
<event>
 5    0  0.5771634E-005  0.3756358E+03  0.7546771E-02  0.1052559E+00
         21   -1    0    0  502  501  0.00000000000E+00  0.00000000000E+00  0.16082815166E+03  0.16082815166E+03  0.00000000000E+00 0. -1.
         21   -1    0    0  501  502 -0.00000000000E+00 -0.00000000000E+00 -0.87734810000E+03  0.87734810000E+03  0.00000000000E+00 0. -1.
         25    1    1    2    0    0 -0.11735139957E+03 -0.19457555299E+03 -0.27297676198E+02  0.26077032025E+03  0.12500000000E+03 0.  0.
         25    1    1    2    0    0 -0.75509059706E+01  0.74099138964E+02 -0.26490675646E+03  0.30223879333E+03  0.12500000000E+03 0.  0.
         25    1    1    2    0    0  0.12490230554E+03  0.12047641402E+03 -0.42431551567E+03  0.47516713807E+03  0.12500000000E+03 0.  0.
</event>
<event>
 5    0  0.5771634E-005  0.3291260E+03  0.7546771E-02  0.1071524E+00
         21   -1    0    0  502  501  0.00000000000E+00  0.00000000000E+00  0.92170870018E+02  0.92170870018E+02  0.00000000000E+00 0.  1.
         21   -1    0    0  501  502 -0.00000000000E+00 -0.00000000000E+00 -0.11752509254E+04  0.11752509254E+04  0.00000000000E+00 0.  1.
         25    1    1    2    0    0 -0.45611309681E+02 -0.15902645426E+03 -0.16489575092E+03  0.26492529777E+03  0.12500000000E+03 0.  0.
         25    1    1    2    0    0  0.12750841292E+03  0.16260774029E+03 -0.44563844766E+03  0.50687108677E+03  0.12500000000E+03 0.  0.
         25    1    1    2    0    0 -0.81897103243E+02 -0.35812860337E+01 -0.47254585676E+03  0.49562541084E+03  0.12500000000E+03 0.  0.
</event>
<event>
 5    0  0.5771634E-005  0.2645994E+03  0.7546771E-02  0.1104411E+00
         21   -1    0    0  502  501  0.00000000000E+00  0.00000000000E+00  0.10110389068E+03  0.10110389068E+03  0.00000000000E+00 0.  1.
         21   -1    0    0  501  502 -0.00000000000E+00 -0.00000000000E+00 -0.69248393302E+03  0.69248393302E+03  0.00000000000E+00 0.  1.
         25    1    1    2    0    0 -0.14536602004E+03 -0.78238604826E+02 -0.20573086607E+03  0.29189509815E+03  0.12500000000E+03 0.  0.
         25    1    1    2    0    0  0.77260961743E+02  0.51757357144E+02 -0.28677283918E+03  0.32636136646E+03  0.12500000000E+03 0.  0.
         25    1    1    2    0    0  0.68105058300E+02  0.26481247682E+02 -0.98876337088E+02  0.17533135909E+03  0.12500000000E+03 0.  0.
</event>
<event>
 5    0  0.5771634E-005  0.2577880E+03  0.7546771E-02  0.1108480E+00
         21   -1    0    0  502  501  0.00000000000E+00  0.00000000000E+00  0.87862109698E+03  0.87862109698E+03  0.00000000000E+00 0. -1.
         21   -1    0    0  501  502 -0.00000000000E+00 -0.00000000000E+00 -0.75635190257E+02  0.75635190257E+02  0.00000000000E+00 0. -1.
         25    1    1    2    0    0 -0.77081389509E+02 -0.58983375278E+02  0.31743206547E+03  0.35469521473E+03  0.12500000000E+03 0.  0.
         25    1    1    2    0    0 -0.71127116448E+02 -0.91929722623E+01  0.16849765234E+03  0.22172062664E+03  0.12500000000E+03 0.  0.
         25    1    1    2    0    0  0.14820850596E+03  0.68176347540E+02  0.31705618892E+03  0.37784044587E+03  0.12500000000E+03 0.  0.
</event>
<event>
 5    0  0.5771634E-005  0.2789073E+03  0.7546771E-02  0.1096287E+00
         21   -1    0    0  502  501  0.00000000000E+00  0.00000000000E+00  0.27721114647E+03  0.27721114647E+03  0.00000000000E+00 0.  1.
         21   -1    0    0  501  502 -0.00000000000E+00 -0.00000000000E+00 -0.28061381522E+03  0.28061381522E+03  0.00000000000E+00 0.  1.
         25    1    1    2    0    0  0.98715503004E+02  0.39824289788E+02  0.60867299650E+02  0.17510154984E+03  0.12500000000E+03 0.  0.
         25    1    1    2    0    0 -0.72643888886E+02 -0.14784229164E+03 -0.10530123902E+02  0.20705159091E+03  0.12500000000E+03 0.  0.
         25    1    1    2    0    0 -0.26071614118E+02  0.10801800185E+03 -0.53739844501E+02  0.17567182094E+03  0.12500000000E+03 0.  0.
</event>
<event>
 5    0  0.5771634E-005  0.3126415E+03  0.7546771E-02  0.1079087E+00
         21   -1    0    0  502  501  0.00000000000E+00  0.00000000000E+00  0.38029786858E+03  0.38029786858E+03  0.00000000000E+00 0.  1.
         21   -1    0    0  501  502 -0.00000000000E+00 -0.00000000000E+00 -0.25702145899E+03  0.25702145899E+03  0.00000000000E+00 0.  1.
         25    1    1    2    0    0 -0.18602273663E+03  0.11339567434E+03  0.41398498464E+02  0.25456212047E+03  0.12500000000E+03 0.  0.
         25    1    1    2    0    0  0.19080934482E+03 -0.56645951919E+02  0.68113759331E+02  0.24470687393E+03  0.12500000000E+03 0.  0.
         25    1    1    2    0    0 -0.47866081953E+01 -0.56749722426E+02  0.13764151792E+02  0.13805033317E+03  0.12500000000E+03 0.  0.
</event>
<event>
 5    0  0.5771634E-005  0.3070353E+03  0.7546771E-02  0.1081776E+00
         21   -1    0    0  502  501  0.00000000000E+00  0.00000000000E+00  0.61439355646E+02  0.61439355646E+02  0.00000000000E+00 0.  1.
         21   -1    0    0  501  502 -0.00000000000E+00 -0.00000000000E+00 -0.15343696466E+04  0.15343696466E+04  0.00000000000E+00 0.  1.
         25    1    1    2    0    0  0.33205748702E+02 -0.47490142666E+02 -0.30967291283E+03  0.33893988897E+03  0.12500000000E+03 0.  0.
         25    1    1    2    0    0 -0.19890579323E+03 -0.58816436565E+02 -0.56101337342E+03  0.61105146505E+03  0.12500000000E+03 0.  0.
         25    1    1    2    0    0  0.16570004453E+03  0.10630657923E+03 -0.60224400469E+03  0.64581764820E+03  0.12500000000E+03 0.  0.
</event>
<event>
 5    0  0.5771634E-005  0.2852025E+03  0.7546771E-02  0.1092881E+00
         21   -1    0    0  502  501  0.00000000000E+00  0.00000000000E+00  0.18442743083E+04  0.18442743083E+04  0.00000000000E+00 0.  1.
         21   -1    0    0  501  502 -0.00000000000E+00 -0.00000000000E+00 -0.44104312551E+02  0.44104312551E+02  0.00000000000E+00 0.  1.
         25    1    1    2    0    0  0.16026955461E+03 -0.11511894612E+03  0.56642503114E+03  0.61269977786E+03  0.12500000000E+03 0.  0.
         25    1    1    2    0    0 -0.87736637357E+02  0.34091939554E+02  0.67411654949E+03  0.69203908861E+03  0.12500000000E+03 0.  0.
         25    1    1    2    0    0 -0.72532917253E+02  0.81027006565E+02  0.55962841517E+03  0.58363975443E+03  0.12500000000E+03 0.  0.
</event>
<event>
 5    0  0.5816935E-005  0.2825614E+03  0.7546771E-02  0.1094298E+00
         21   -1    0    0  502  501  0.00000000000E+00  0.00000000000E+00  0.45891759874E+03  0.45891759874E+03  0.00000000000E+00 0. -1.
         21   -1    0    0  501  502 -0.00000000000E+00 -0.00000000000E+00 -0.17397663825E+03  0.17397663825E+03  0.00000000000E+00 0. -1.
         25    1    1    2    0    0  0.66768652310E+02  0.88634078659E+02  0.16145679775E+03  0.23239481572E+03  0.12500000000E+03 0.  0.
         25    1    1    2    0    0  0.50095705959E+02 -0.21968383437E+02 -0.52449329410E+02  0.14617839027E+03  0.12500000000E+03 0.  0.
         25    1    1    2    0    0 -0.11686435827E+03 -0.66665695222E+02  0.17593349215E+03  0.25432103101E+03  0.12500000000E+03 0.  0.
</event>
<event>
 5    0  0.5771634E-005  0.3292568E+03  0.7546771E-02  0.1071466E+00
         21   -1    0    0  502  501  0.00000000000E+00  0.00000000000E+00  0.46162286605E+02  0.46162286605E+02  0.00000000000E+00 0. -1.
         21   -1    0    0  501  502 -0.00000000000E+00 -0.00000000000E+00 -0.23484543372E+04  0.23484543372E+04  0.00000000000E+00 0. -1.
         25    1    1    2    0    0 -0.24039475399E+02 -0.87824039288E+02 -0.24017794350E+03  0.28565959252E+03  0.12500000000E+03 0.  0.
         25    1    1    2    0    0 -0.96391099254E+02 -0.54894323620E+02 -0.42811228962E+03  0.45957563393E+03  0.12500000000E+03 0.  0.
         25    1    1    2    0    0  0.12043057465E+03  0.14271836291E+03 -0.16340018175E+04  0.16493813974E+04  0.12500000000E+03 0.  0.
</event>
<event>
 5    0  0.5771634E-005  0.3775300E+03  0.7546771E-02  0.1051850E+00
         21   -1    0    0  502  501  0.00000000000E+00  0.00000000000E+00  0.46077331701E+03  0.46077331701E+03  0.00000000000E+00 0.  1.
         21   -1    0    0  501  502 -0.00000000000E+00 -0.00000000000E+00 -0.30932549408E+03  0.30932549408E+03  0.00000000000E+00 0.  1.
         25    1    1    2    0    0 -0.80030605996E+02  0.15531178960E+03  0.22026735279E+03  0.30768385819E+03  0.12500000000E+03 0.  0.
         25    1    1    2    0    0 -0.89853230326E+02 -0.60472933991E+02 -0.14394433499E+03  0.21926137444E+03  0.12500000000E+03 0.  0.
         25    1    1    2    0    0  0.16988383632E+03 -0.94838855606E+02  0.75124805123E+02  0.24315357847E+03  0.12500000000E+03 0.  0.
</event>
<event>
 5    0  0.5771634E-005  0.4166093E+03  0.7546771E-02  0.1038176E+00
         21   -1    0    0  502  501  0.00000000000E+00  0.00000000000E+00  0.25794581527E+03  0.25794581527E+03  0.00000000000E+00 0. -1.
         21   -1    0    0  501  502 -0.00000000000E+00 -0.00000000000E+00 -0.67286745787E+03  0.67286745787E+03  0.00000000000E+00 0. -1.
         25    1    1    2    0    0 -0.19980312800E+03  0.50789602838E+02 -0.30023233294E+03  0.38505236976E+03  0.12500000000E+03 0.  0.
         25    1    1    2    0    0  0.29519780465E+03  0.60138329762E+02 -0.91626345474E+01  0.32629329820E+03  0.12500000000E+03 0.  0.
         25    1    1    2    0    0 -0.95394676643E+02 -0.11092793260E+03 -0.10552667512E+03  0.21946760518E+03  0.12500000000E+03 0.  0.
</event>
<event>
 5    0  0.5771634E-005  0.2769858E+03  0.7546771E-02  0.1097347E+00
         21   -1    0    0  502  501  0.00000000000E+00  0.00000000000E+00  0.43034947545E+02  0.43034947545E+02  0.00000000000E+00 0. -1.
         21   -1    0    0  501  502 -0.00000000000E+00 -0.00000000000E+00 -0.17827636786E+04  0.17827636786E+04  0.00000000000E+00 0. -1.
         25    1    1    2    0    0 -0.58047688578E+02 -0.52606730228E+02 -0.32361133967E+03  0.35564912677E+03  0.12500000000E+03 0.  0.
         25    1    1    2    0    0  0.52630582719E+02  0.14856406451E+03 -0.47386704866E+03  0.51479727982E+03  0.12500000000E+03 0.  0.
         25    1    1    2    0    0  0.54171058591E+01 -0.95957334277E+02 -0.94225034270E+03  0.95535221952E+03  0.12500000000E+03 0.  0.
</event>
<event>
 5    0  0.5771634E-005  0.3351769E+03  0.7546771E-02  0.1068869E+00
         21   -1    0    0  502  501  0.00000000000E+00  0.00000000000E+00  0.50405804760E+02  0.50405804760E+02  0.00000000000E+00 0.  1.
         21   -1    0    0  501  502 -0.00000000000E+00 -0.00000000000E+00 -0.22287815029E+04  0.22287815029E+04  0.00000000000E+00 0.  1.
         25    1    1    2    0    0  0.15385976110E+03  0.34843457059E+02 -0.77202819942E+03  0.79783421416E+03  0.12500000000E+03 0.  0.
         25    1    1    2    0    0 -0.22944043576E+03 -0.12749782117E+03 -0.81949228987E+03  0.86953506032E+03  0.12500000000E+03 0.  0.
         25    1    1    2    0    0  0.75580674657E+02  0.92654364114E+02 -0.58685520880E+03  0.61181803313E+03  0.12500000000E+03 0.  0.
</event>
<event>
 5    0  0.5771634E-005  0.2734917E+03  0.7546771E-02  0.1099298E+00
         21   -1    0    0  502  501  0.00000000000E+00  0.00000000000E+00  0.38467196892E+03  0.38467196892E+03  0.00000000000E+00 0.  1.
         21   -1    0    0  501  502 -0.00000000000E+00 -0.00000000000E+00 -0.19444541940E+03  0.19444541940E+03  0.00000000000E+00 0.  1.
         25    1    1    2    0    0  0.54573797909E+02 -0.39891471197E+02  0.20141330901E+02  0.14352805337E+03  0.12500000000E+03 0.  0.
         25    1    1    2    0    0 -0.14603667900E+03  0.10685775053E+03  0.42405134846E+02  0.22398322688E+03  0.12500000000E+03 0.  0.
         25    1    1    2    0    0  0.91462881089E+02 -0.66966279336E+02  0.12768008376E+03  0.21160610808E+03  0.12500000000E+03 0.  0.
</event>
<event>
 5    0  0.5771634E-005  0.2728267E+03  0.7546771E-02  0.1099673E+00
         21   -1    0    0  502  501  0.00000000000E+00  0.00000000000E+00  0.47351692764E+03  0.47351692764E+03  0.00000000000E+00 0.  1.
         21   -1    0    0  501  502 -0.00000000000E+00 -0.00000000000E+00 -0.15719482062E+03  0.15719482062E+03  0.00000000000E+00 0.  1.
         25    1    1    2    0    0  0.75231132848E+02 -0.58392329721E+02  0.15903370380E+03  0.22357572870E+03  0.12500000000E+03 0.  0.
         25    1    1    2    0    0 -0.94705517259E+02 -0.39370367534E+02 -0.26160399590E+02  0.16379416151E+03  0.12500000000E+03 0.  0.
         25    1    1    2    0    0  0.19474384410E+02  0.97762697255E+02  0.18344880281E+03  0.24334185804E+03  0.12500000000E+03 0.  0.
</event>
<event>
 5    0  0.5771634E-005  0.3530966E+03  0.7546771E-02  0.1061351E+00
         21   -1    0    0  502  501  0.00000000000E+00  0.00000000000E+00  0.47694633331E+03  0.47694633331E+03  0.00000000000E+00 0. -1.
         21   -1    0    0  501  502 -0.00000000000E+00 -0.00000000000E+00 -0.26140715479E+03  0.26140715479E+03  0.00000000000E+00 0. -1.
         25    1    1    2    0    0  0.22452693973E+02 -0.21402423956E+03  0.68594001551E+02  0.25814847595E+03  0.12500000000E+03 0.  0.
         25    1    1    2    0    0  0.81715883643E+02  0.26464629331E+02  0.17354653148E+03  0.23048049990E+03  0.12500000000E+03 0.  0.
         25    1    1    2    0    0 -0.10416857762E+03  0.18755961023E+03 -0.26601354523E+02  0.24972451224E+03  0.12500000000E+03 0.  0.
</event>
<event>
 5    0  0.5771634E-005  0.2615806E+03  0.7546771E-02  0.1106197E+00
         21   -1    0    0  502  501  0.00000000000E+00  0.00000000000E+00  0.30176932779E+03  0.30176932779E+03  0.00000000000E+00 0. -1.
         21   -1    0    0  501  502 -0.00000000000E+00 -0.00000000000E+00 -0.22674410204E+03  0.22674410204E+03  0.00000000000E+00 0. -1.
         25    1    1    2    0    0 -0.12622007707E+03  0.36118985867E+01  0.75806243871E+02  0.19317386023E+03  0.12500000000E+03 0.  0.
         25    1    1    2    0    0  0.11324730986E+03 -0.52028659138E+02 -0.62424926401E+02  0.18722661669E+03  0.12500000000E+03 0.  0.
         25    1    1    2    0    0  0.12972767208E+02  0.48416760551E+02  0.61643908274E+02  0.14811295291E+03  0.12500000000E+03 0.  0.
</event>
<event>
 5    0  0.5771634E-005  0.4687428E+03  0.7546771E-02  0.1022276E+00
         21   -1    0    0  502  501  0.00000000000E+00  0.00000000000E+00  0.71309890257E+03  0.71309890257E+03  0.00000000000E+00 0. -1.
         21   -1    0    0  501  502 -0.00000000000E+00 -0.00000000000E+00 -0.30811973798E+03  0.30811973798E+03  0.00000000000E+00 0. -1.
         25    1    1    2    0    0 -0.30786078304E+03 -0.24812472985E+03  0.32490314049E+03  0.52681229484E+03  0.12500000000E+03 0.  0.
         25    1    1    2    0    0  0.19417051804E+03  0.86471068577E+02  0.84089591912E+02  0.26052925986E+03  0.12500000000E+03 0.  0.
         25    1    1    2    0    0  0.11369026501E+03  0.16165366127E+03 -0.40135678131E+01  0.23387708585E+03  0.12500000000E+03 0.  0.
</event>
<event>
 5    0  0.5771634E-005  0.3534849E+03  0.7546771E-02  0.1061194E+00
         21   -1    0    0  502  501  0.00000000000E+00  0.00000000000E+00  0.85171214275E+02  0.85171214275E+02  0.00000000000E+00 0.  1.
         21   -1    0    0  501  502 -0.00000000000E+00 -0.00000000000E+00 -0.14670637024E+04  0.14670637024E+04  0.00000000000E+00 0.  1.
         25    1    1    2    0    0 -0.15106257341E+03  0.11119395776E+03 -0.51695032231E+03  0.56395623329E+03  0.12500000000E+03 0.  0.
         25    1    1    2    0    0  0.28346540420E+02 -0.11131961255E+03 -0.86810736682E+02  0.19067429427E+03  0.12500000000E+03 0.  0.
         25    1    1    2    0    0  0.12271603299E+03  0.12565478958E+00 -0.77813142912E+03  0.79760438911E+03  0.12500000000E+03 0.  0.
</event>
<event>
 5    0  0.5771634E-005  0.2938958E+03  0.7546771E-02  0.1088332E+00
         21   -1    0    0  502  501  0.00000000000E+00  0.00000000000E+00  0.92647256741E+03  0.92647256741E+03  0.00000000000E+00 0. -1.
         21   -1    0    0  501  502 -0.00000000000E+00 -0.00000000000E+00 -0.93229679650E+02  0.93229679650E+02  0.00000000000E+00 0. -1.
         25    1    1    2    0    0 -0.15135950526E+03  0.31032639086E+02  0.16898655904E+03  0.26087196411E+03  0.12500000000E+03 0.  0.
         25    1    1    2    0    0  0.12554917150E+03 -0.94894911122E+02  0.25055126341E+03  0.32119865226E+03  0.12500000000E+03 0.  0.
         25    1    1    2    0    0  0.25810333758E+02  0.63862272036E+02  0.41370506531E+03  0.43763163069E+03  0.12500000000E+03 0.  0.
</event>
<event>
 5    0  0.5771634E-005  0.2867703E+03  0.7546771E-02  0.1092048E+00
         21   -1    0    0  502  501  0.00000000000E+00  0.00000000000E+00  0.65138044445E+03  0.65138044445E+03  0.00000000000E+00 0.  1.
         21   -1    0    0  501  502 -0.00000000000E+00 -0.00000000000E+00 -0.12625066012E+03  0.12625066012E+03  0.00000000000E+00 0.  1.
         25    1    1    2    0    0 -0.44624373338E+02 -0.61509605146E+02  0.85591026356E+02  0.16948625317E+03  0.12500000000E+03 0.  0.
         25    1    1    2    0    0 -0.50717947925E+01 -0.84046143923E+02  0.30713417966E+02  0.15381089511E+03  0.12500000000E+03 0.  0.
         25    1    1    2    0    0  0.49696168131E+02  0.14555574907E+03  0.40882534001E+03  0.45433395630E+03  0.12500000000E+03 0.  0.
</event>
<event>
 5    0  0.5771634E-005  0.3193822E+03  0.7546771E-02  0.1075934E+00
         21   -1    0    0  502  501  0.00000000000E+00  0.00000000000E+00  0.67502969404E+03  0.67502969404E+03  0.00000000000E+00 0.  1.
         21   -1    0    0  501  502 -0.00000000000E+00 -0.00000000000E+00 -0.15111184459E+03  0.15111184459E+03  0.00000000000E+00 0.  1.
         25    1    1    2    0    0  0.17664841679E+03  0.40670556397E+02  0.27243253675E+03  0.35029022880E+03  0.12500000000E+03 0.  0.
         25    1    1    2    0    0 -0.12360583893E+03  0.10481642180E+03  0.13647180876E+03  0.24599682982E+03  0.12500000000E+03 0.  0.
         25    1    1    2    0    0 -0.53042577853E+02 -0.14548697819E+03  0.11501350395E+03  0.22985448001E+03  0.12500000000E+03 0.  0.
</event>
<event>
 5    0  0.5771634E-005  0.3590098E+03  0.7546771E-02  0.1058977E+00
         21   -1    0    0  502  501  0.00000000000E+00  0.00000000000E+00  0.84227510635E+03  0.84227510635E+03  0.00000000000E+00 0.  1.
         21   -1    0    0  501  502 -0.00000000000E+00 -0.00000000000E+00 -0.15302366934E+03  0.15302366934E+03  0.00000000000E+00 0.  1.
         25    1    1    2    0    0  0.44580453298E+02 -0.10199739285E+03 -0.32508023277E+02  0.17050705716E+03  0.12500000000E+03 0.  0.
         25    1    1    2    0    0  0.48980799161E+02  0.83854052352E+02  0.61434264936E+03  0.63440721277E+03  0.12500000000E+03 0.  0.
         25    1    1    2    0    0 -0.93561252459E+02  0.18143340497E+02  0.10741681092E+03  0.19038450577E+03  0.12500000000E+03 0.  0.
</event>
<event>
 5    0  0.5771634E-005  0.2834279E+03  0.7546771E-02  0.1093831E+00
         21   -1    0    0  502  501  0.00000000000E+00  0.00000000000E+00  0.14734318290E+03  0.14734318290E+03  0.00000000000E+00 0. -1.
         21   -1    0    0  501  502 -0.00000000000E+00 -0.00000000000E+00 -0.54519906069E+03  0.54519906069E+03  0.00000000000E+00 0. -1.
         25    1    1    2    0    0 -0.13219035138E+03 -0.16781806393E+02 -0.20938819200E+03  0.27789266448E+03  0.12500000000E+03 0.  0.
         25    1    1    2    0    0  0.49288724123E+02 -0.10780916592E+03 -0.11041935962E+03  0.20462069680E+03  0.12500000000E+03 0.  0.
         25    1    1    2    0    0  0.82901627257E+02  0.12459097231E+03 -0.78048326164E+02  0.21002888230E+03  0.12500000000E+03 0.  0.
</event>
<event>
 5    0  0.5771634E-005  0.3368776E+03  0.7546771E-02  0.1068134E+00
         21   -1    0    0  502  501  0.00000000000E+00  0.00000000000E+00  0.48696692082E+03  0.48696692082E+03  0.00000000000E+00 0.  1.
         21   -1    0    0  501  502 -0.00000000000E+00 -0.00000000000E+00 -0.23304769615E+03  0.23304769615E+03  0.00000000000E+00 0.  1.
         25    1    1    2    0    0  0.61497168197E+02  0.51715159689E+02  0.46040591877E+02  0.15556701301E+03  0.12500000000E+03 0.  0.
         25    1    1    2    0    0 -0.22885756454E+02 -0.27462908865E+02 -0.14056009670E+03  0.19146830024E+03  0.12500000000E+03 0.  0.
         25    1    1    2    0    0 -0.38611411743E+02 -0.24252250824E+02  0.34843872950E+03  0.37297930372E+03  0.12500000000E+03 0.  0.
</event>
<event>
 5    0  0.5771634E-005  0.3368779E+03  0.7546771E-02  0.1068134E+00
         21   -1    0    0  502  501  0.00000000000E+00  0.00000000000E+00  0.82949504025E+03  0.82949504025E+03  0.00000000000E+00 0.  1.
         21   -1    0    0  501  502 -0.00000000000E+00 -0.00000000000E+00 -0.13681423196E+03  0.13681423196E+03  0.00000000000E+00 0.  1.
         25    1    1    2    0    0  0.26753706163E+01  0.13296986286E+02  0.41796970320E+03  0.43647180922E+03  0.12500000000E+03 0.  0.
         25    1    1    2    0    0 -0.89248873591E+02  0.11076596274E+03 -0.34750919476E+01  0.18939782523E+03  0.12500000000E+03 0.  0.
         25    1    1    2    0    0  0.86573502975E+02 -0.12406294903E+03  0.27818619704E+03  0.34043963776E+03  0.12500000000E+03 0.  0.
</event>
<event>
 5    0  0.5771634E-005  0.4421800E+03  0.7546771E-02  0.1030080E+00
         21   -1    0    0  502  501  0.00000000000E+00  0.00000000000E+00  0.29824719253E+03  0.29824719253E+03  0.00000000000E+00 0. -1.
         21   -1    0    0  501  502 -0.00000000000E+00 -0.00000000000E+00 -0.65557421771E+03  0.65557421771E+03  0.00000000000E+00 0. -1.
         25    1    1    2    0    0 -0.14909552073E+03 -0.60234828424E+02  0.18536126517E+02  0.20451478392E+03  0.12500000000E+03 0.  0.
         25    1    1    2    0    0 -0.15293429403E+03  0.16521888200E+03 -0.30425108921E+03  0.39859741914E+03  0.12500000000E+03 0.  0.
         25    1    1    2    0    0  0.30202981475E+03 -0.10498405358E+03 -0.71612062491E+02  0.35070920718E+03  0.12500000000E+03 0.  0.
</event>
<event>
 5    0  0.5891580E-005  0.3892164E+03  0.7546771E-02  0.1047579E+00
         21   -1    0    0  502  501  0.00000000000E+00  0.00000000000E+00  0.42848414195E+03  0.42848414195E+03  0.00000000000E+00 0. -1.
         21   -1    0    0  501  502 -0.00000000000E+00 -0.00000000000E+00 -0.35354727869E+03  0.35354727869E+03  0.00000000000E+00 0. -1.
         25    1    1    2    0    0  0.96700419174E+02 -0.21781569121E+03 -0.43897829372E+02  0.27266585014E+03  0.12500000000E+03 0.  0.
         25    1    1    2    0    0  0.39516667014E+02  0.11675576881E+03 -0.10290309856E+03  0.20348838840E+03  0.12500000000E+03 0.  0.
         25    1    1    2    0    0 -0.13621708619E+03  0.10105992241E+03  0.22173779119E+03  0.30587718210E+03  0.12500000000E+03 0.  0.
</event>
<event>
 5    0  0.5771634E-005  0.2699249E+03  0.7546771E-02  0.1101323E+00
         21   -1    0    0  502  501  0.00000000000E+00  0.00000000000E+00  0.18023929980E+03  0.18023929980E+03  0.00000000000E+00 0. -1.
         21   -1    0    0  501  502 -0.00000000000E+00 -0.00000000000E+00 -0.40423729058E+03  0.40423729058E+03  0.00000000000E+00 0. -1.
         25    1    1    2    0    0 -0.39493172801E+02 -0.30337673123E+02 -0.22123165661E+03  0.25893731093E+03  0.12500000000E+03 0.  0.
         25    1    1    2    0    0 -0.27645625177E+02 -0.63982787836E+02  0.42414249193E+02  0.14927171958E+03  0.12500000000E+03 0.  0.
         25    1    1    2    0    0  0.67138797978E+02  0.94320460959E+02 -0.45180583359E+02  0.17626755987E+03  0.12500000000E+03 0.  0.
</event>
<event>
 5    0  0.5771634E-005  0.3084152E+03  0.7546771E-02  0.1081108E+00
         21   -1    0    0  502  501  0.00000000000E+00  0.00000000000E+00  0.14041930405E+03  0.14041930405E+03  0.00000000000E+00 0. -1.
         21   -1    0    0  501  502 -0.00000000000E+00 -0.00000000000E+00 -0.67739908430E+03  0.67739908430E+03  0.00000000000E+00 0. -1.
         25    1    1    2    0    0 -0.13818285028E+03 -0.27899161723E+02 -0.17857514241E+02  0.18925314832E+03  0.12500000000E+03 0.  0.
         25    1    1    2    0    0  0.96509324023E+02 -0.37428178061E+02 -0.42249105124E+03  0.45259099253E+03  0.12500000000E+03 0.  0.
         25    1    1    2    0    0  0.41673526256E+02  0.65327339785E+02 -0.96631214768E+02  0.17597424749E+03  0.12500000000E+03 0.  0.
</event>
<event>
 5    0  0.5771634E-005  0.3297793E+03  0.7546771E-02  0.1071235E+00
         21   -1    0    0  502  501  0.00000000000E+00  0.00000000000E+00  0.11215963280E+03  0.11215963280E+03  0.00000000000E+00 0. -1.
         21   -1    0    0  501  502 -0.00000000000E+00 -0.00000000000E+00 -0.96963910353E+03  0.96963910353E+03  0.00000000000E+00 0. -1.
         25    1    1    2    0    0 -0.15016706479E+03 -0.11057196944E+03 -0.39831460006E+03  0.45722623327E+03  0.12500000000E+03 0.  0.
         25    1    1    2    0    0  0.13473578688E+03  0.13254688838E+03 -0.44049934086E+03  0.49536560153E+03  0.12500000000E+03 0.  0.
         25    1    1    2    0    0  0.15431277907E+02 -0.21974918934E+02 -0.18665529813E+02  0.12920690153E+03  0.12500000000E+03 0.  0.
</event>
<event>
 5    0  0.5771634E-005  0.4972302E+03  0.7546771E-02  0.1014504E+00
         21   -1    0    0  502  501  0.00000000000E+00  0.00000000000E+00  0.44488073968E+03  0.44488073968E+03  0.00000000000E+00 0. -1.
         21   -1    0    0  501  502 -0.00000000000E+00 -0.00000000000E+00 -0.55573955159E+03  0.55573955159E+03  0.00000000000E+00 0. -1.
         25    1    1    2    0    0 -0.14420285804E+03  0.33400053856E+03 -0.15345365029E+03  0.41415437558E+03  0.12500000000E+03 0.  0.
         25    1    1    2    0    0 -0.10076508122E+03 -0.22491824240E+03  0.81368673452E+02  0.28807582054E+03  0.12500000000E+03 0.  0.
         25    1    1    2    0    0  0.24496793926E+03 -0.10908229616E+03 -0.38773835076E+02  0.29839009515E+03  0.12500000000E+03 0.  0.
</event>
<event>
 5    0  0.5771634E-005  0.4553938E+03  0.7546771E-02  0.1026126E+00
         21   -1    0    0  502  501  0.00000000000E+00  0.00000000000E+00  0.94447123630E+03  0.94447123630E+03  0.00000000000E+00 0.  1.
         21   -1    0    0  501  502 -0.00000000000E+00 -0.00000000000E+00 -0.21957635257E+03  0.21957635257E+03  0.00000000000E+00 0.  1.
         25    1    1    2    0    0  0.87392500714E+02 -0.92008046082E+02 -0.46752350552E+02  0.18415675933E+03  0.12500000000E+03 0.  0.
         25    1    1    2    0    0  0.10966800730E+03 -0.17185362042E+03  0.21743636924E+03  0.32320939551E+03  0.12500000000E+03 0.  0.
         25    1    1    2    0    0 -0.19706050802E+03  0.26386166650E+03  0.55421086505E+03  0.65668143403E+03  0.12500000000E+03 0.  0.
</event>
<event>
 5    0  0.5771634E-005  0.3772210E+03  0.7546771E-02  0.1051966E+00
         21   -1    0    0  502  501  0.00000000000E+00  0.00000000000E+00  0.18819536729E+04  0.18819536729E+04  0.00000000000E+00 0.  1.
         21   -1    0    0  501  502 -0.00000000000E+00 -0.00000000000E+00 -0.75610622517E+02  0.75610622517E+02  0.00000000000E+00 0.  1.
         25    1    1    2    0    0 -0.26969138705E+02 -0.16608794633E+02  0.59723951941E+02  0.14210959481E+03  0.12500000000E+03 0.  0.
         25    1    1    2    0    0  0.66851671293E+02 -0.18975970157E+03  0.10726509697E+04  0.10984912349E+04  0.12500000000E+03 0.  0.
         25    1    1    2    0    0 -0.39882532587E+02  0.20636849621E+03  0.67396812869E+03  0.71696346569E+03  0.12500000000E+03 0.  0.
</event>
<event>
 5    0  0.5771634E-005  0.4464449E+03  0.7546771E-02  0.1028788E+00
         21   -1    0    0  502  501  0.00000000000E+00  0.00000000000E+00  0.29046793475E+03  0.29046793475E+03  0.00000000000E+00 0.  1.
         21   -1    0    0  501  502 -0.00000000000E+00 -0.00000000000E+00 -0.68617926016E+03  0.68617926016E+03  0.00000000000E+00 0.  1.
         25    1    1    2    0    0  0.10378357669E+03 -0.21842283963E+03 -0.47329909455E+03  0.54600054997E+03  0.12500000000E+03 0.  0.
         25    1    1    2    0    0  0.20910593066E+02  0.10894661385E+03 -0.64299847803E+02  0.17907006450E+03  0.12500000000E+03 0.  0.
         25    1    1    2    0    0 -0.12469416976E+03  0.10947622579E+03  0.14188761695E+03  0.25157658044E+03  0.12500000000E+03 0.  0.
</event>
<event>
 5    0  0.5771634E-005  0.2632007E+03  0.7546771E-02  0.1105235E+00
         21   -1    0    0  502  501  0.00000000000E+00  0.00000000000E+00  0.85544626293E+03  0.85544626293E+03  0.00000000000E+00 0.  1.
         21   -1    0    0  501  502 -0.00000000000E+00 -0.00000000000E+00 -0.80980640443E+02  0.80980640443E+02  0.00000000000E+00 0.  1.
         25    1    1    2    0    0 -0.34833418124E+02  0.67599829950E+01  0.21205422568E+03  0.24869873144E+03  0.12500000000E+03 0.  0.
         25    1    1    2    0    0  0.48741981983E+02  0.84208366292E+02  0.73232484616E+02  0.17451311287E+03  0.12500000000E+03 0.  0.
         25    1    1    2    0    0 -0.13908563859E+02 -0.90968349287E+02  0.48917891219E+03  0.51321505906E+03  0.12500000000E+03 0.  0.
</event>
<event>
 5    0  0.5771634E-005  0.2813136E+03  0.7546771E-02  0.1094974E+00
         21   -1    0    0  502  501  0.00000000000E+00  0.00000000000E+00  0.87618011584E+02  0.87618011584E+02  0.00000000000E+00 0. -1.
         21   -1    0    0  501  502 -0.00000000000E+00 -0.00000000000E+00 -0.90320859466E+03  0.90320859466E+03  0.00000000000E+00 0. -1.
         25    1    1    2    0    0  0.38419796362E+02 -0.97422239878E+02 -0.38429400649E+03  0.41746144373E+03  0.12500000000E+03 0.  0.
         25    1    1    2    0    0 -0.14547903836E+02 -0.58028365652E+02 -0.59600189151E+02  0.15085130186E+03  0.12500000000E+03 0.  0.
         25    1    1    2    0    0 -0.23871892526E+02  0.15545060553E+03 -0.37169638744E+03  0.42251386065E+03  0.12500000000E+03 0.  0.
</event>
<event>
 5    0  0.5771634E-005  0.3451972E+03  0.7546771E-02  0.1064604E+00
         21   -1    0    0  502  501  0.00000000000E+00  0.00000000000E+00  0.99872334273E+02  0.99872334273E+02  0.00000000000E+00 0. -1.
         21   -1    0    0  501  502 -0.00000000000E+00 -0.00000000000E+00 -0.11931345170E+04  0.11931345170E+04  0.00000000000E+00 0. -1.
         25    1    1    2    0    0 -0.27947003035E+02 -0.77853034977E+02 -0.62147700965E+03  0.63929711681E+03  0.12500000000E+03 0.  0.
         25    1    1    2    0    0 -0.10108613424E+03 -0.10621443762E+03 -0.23716865733E+03  0.30557140789E+03  0.12500000000E+03 0.  0.
         25    1    1    2    0    0  0.12903313728E+03  0.18406747260E+03 -0.23461651579E+03  0.34813832663E+03  0.12500000000E+03 0.  0.
</event>
<event>
 5    0  0.5771634E-005  0.3348680E+03  0.7546771E-02  0.1069003E+00
         21   -1    0    0  502  501  0.00000000000E+00  0.00000000000E+00  0.16292834496E+04  0.16292834496E+04  0.00000000000E+00 0.  1.
         21   -1    0    0  501  502 -0.00000000000E+00 -0.00000000000E+00 -0.68825702318E+02  0.68825702318E+02  0.00000000000E+00 0.  1.
         25    1    1    2    0    0  0.74230882957E+02 -0.14822689742E+03  0.37352364659E+03  0.42734804512E+03  0.12500000000E+03 0.  0.
         25    1    1    2    0    0 -0.15106558874E+03  0.81374449232E+01  0.28327294663E+03  0.34460933302E+03  0.12500000000E+03 0.  0.
         25    1    1    2    0    0  0.76834705781E+02  0.14008945250E+03  0.90366115402E+03  0.92615177374E+03  0.12500000000E+03 0.  0.
</event>
<event>
 5    0  0.5771634E-005  0.2562000E+03  0.7546771E-02  0.1109448E+00
         21   -1    0    0  502  501  0.00000000000E+00  0.00000000000E+00  0.27521071352E+03  0.27521071352E+03  0.00000000000E+00 0. -1.
         21   -1    0    0  501  502 -0.00000000000E+00 -0.00000000000E+00 -0.23850249838E+03  0.23850249838E+03  0.00000000000E+00 0. -1.
         25    1    1    2    0    0  0.70078938202E+02 -0.10097511521E+03  0.32012468918E+02  0.17820446021E+03  0.12500000000E+03 0.  0.
         25    1    1    2    0    0 -0.12339838133E+03  0.30083492449E+02 -0.23217956174E+02  0.17971157592E+03  0.12500000000E+03 0.  0.
         25    1    1    2    0    0  0.53319443127E+02  0.70891622764E+02  0.27913702394E+02  0.15579717576E+03  0.12500000000E+03 0.  0.
</event>
<event>
 5    0  0.5771634E-005  0.2330622E+03  0.7546771E-02  0.1124503E+00
         21   -1    0    0  502  501  0.00000000000E+00  0.00000000000E+00  0.95383891504E+02  0.95383891504E+02  0.00000000000E+00 0.  1.
         21   -1    0    0  501  502 -0.00000000000E+00 -0.00000000000E+00 -0.56946705602E+03  0.56946705602E+03  0.00000000000E+00 0.  1.
         25    1    1    2    0    0  0.11763295764E+02  0.76350190142E+02 -0.15195454017E+03  0.21138332228E+03  0.12500000000E+03 0.  0.
         25    1    1    2    0    0  0.42060281780E+02  0.22841476473E+02 -0.21693833599E+03  0.25490790881E+03  0.12500000000E+03 0.  0.
         25    1    1    2    0    0 -0.53823577545E+02 -0.99191666615E+02 -0.10519028836E+03  0.19855971644E+03  0.12500000000E+03 0.  0.
</event>
<event>
 5    0  0.5771634E-005  0.5710110E+03  0.7546771E-02  0.9967444E-01
         21   -1    0    0  502  501  0.00000000000E+00  0.00000000000E+00  0.64161660886E+03  0.64161660886E+03  0.00000000000E+00 0. -1.
         21   -1    0    0  501  502 -0.00000000000E+00 -0.00000000000E+00 -0.50817508721E+03  0.50817508721E+03  0.00000000000E+00 0. -1.
         25    1    1    2    0    0 -0.73182509913E+02  0.26363166787E+02  0.21140806576E+03  0.25762194509E+03  0.12500000000E+03 0.  0.
         25    1    1    2    0    0  0.79739112281E+02 -0.41729020597E+03  0.84268543956E+02  0.45079444265E+03  0.12500000000E+03 0.  0.
         25    1    1    2    0    0 -0.65566023685E+01  0.39092703919E+03 -0.16223508808E+03  0.44137530833E+03  0.12500000000E+03 0.  0.
</event>
<event>
 5    0  0.5771634E-005  0.3717034E+03  0.7546771E-02  0.1054044E+00
         21   -1    0    0  502  501  0.00000000000E+00  0.00000000000E+00  0.24951540180E+03  0.24951540180E+03  0.00000000000E+00 0. -1.
         21   -1    0    0  501  502 -0.00000000000E+00 -0.00000000000E+00 -0.55372701987E+03  0.55372701987E+03  0.00000000000E+00 0. -1.
         25    1    1    2    0    0  0.17443368405E+03 -0.94168769576E+02  0.11282483549E+03  0.26009481117E+03  0.12500000000E+03 0.  0.
         25    1    1    2    0    0 -0.67954641303E+02  0.97294811585E+02 -0.28210513420E+03  0.33059404165E+03  0.12500000000E+03 0.  0.
         25    1    1    2    0    0 -0.10647904275E+03 -0.31260420093E+01 -0.13493131937E+03  0.21255356885E+03  0.12500000000E+03 0.  0.
</event>
<event>
 5    0  0.5771634E-005  0.2215507E+03  0.7546771E-02  0.1132732E+00
         21   -1    0    0  502  501  0.00000000000E+00  0.00000000000E+00  0.15976575865E+03  0.15976575865E+03  0.00000000000E+00 0. -1.
         21   -1    0    0  501  502 -0.00000000000E+00 -0.00000000000E+00 -0.30722934580E+03  0.30722934580E+03  0.00000000000E+00 0. -1.
         25    1    1    2    0    0 -0.80548156327E+02  0.41242565544E+02 -0.97814062054E+02  0.18270617241E+03  0.12500000000E+03 0.  0.
         25    1    1    2    0    0  0.75927346662E+02  0.45987618723E+01 -0.18650944662E+02  0.14750921435E+03  0.12500000000E+03 0.  0.
         25    1    1    2    0    0  0.46208096653E+01 -0.45841327417E+02 -0.30998580431E+02  0.13677971769E+03  0.12500000000E+03 0.  0.
</event>
<event>
 5    0  0.5771634E-005  0.5795868E+03  0.7546771E-02  0.9948686E-01
         21   -1    0    0  502  501  0.00000000000E+00  0.00000000000E+00  0.18433228843E+04  0.18433228843E+04  0.00000000000E+00 0.  1.
         21   -1    0    0  501  502 -0.00000000000E+00 -0.00000000000E+00 -0.18223655295E+03  0.18223655295E+03  0.00000000000E+00 0.  1.
         25    1    1    2    0    0 -0.43244643586E+01 -0.13773465452E+03  0.16053011587E+02  0.18674109143E+03  0.12500000000E+03 0.  0.
         25    1    1    2    0    0 -0.22824035698E+03  0.28860386654E+03  0.40196308676E+03  0.55909317243E+03  0.12500000000E+03 0.  0.
         25    1    1    2    0    0  0.23256482134E+03 -0.15086921203E+03  0.12430702330E+04  0.12797251734E+04  0.12500000000E+03 0.  0.
</event>
<event>
 5    0  0.5771634E-005  0.3655385E+03  0.7546771E-02  0.1056412E+00
         21   -1    0    0  502  501  0.00000000000E+00  0.00000000000E+00  0.92998503704E+03  0.92998503704E+03  0.00000000000E+00 0. -1.
         21   -1    0    0  501  502 -0.00000000000E+00 -0.00000000000E+00 -0.14367800433E+03  0.14367800433E+03  0.00000000000E+00 0. -1.
         25    1    1    2    0    0  0.81783544479E+02  0.49090678933E+02  0.59887099640E+03  0.61916872760E+03  0.12500000000E+03 0.  0.
         25    1    1    2    0    0  0.11841849411E+00 -0.14322631021E+02  0.25691050021E+03  0.28606495224E+03  0.12500000000E+03 0.  0.
         25    1    1    2    0    0 -0.81901962973E+02 -0.34768047912E+02 -0.69474463897E+02  0.16842936154E+03  0.12500000000E+03 0.  0.
</event>
<event>
 5    0  0.5771634E-005  0.2169282E+03  0.7546771E-02  0.1136194E+00
         21   -1    0    0  502  501  0.00000000000E+00  0.00000000000E+00  0.33431235434E+03  0.33431235434E+03  0.00000000000E+00 0. -1.
         21   -1    0    0  501  502 -0.00000000000E+00 -0.00000000000E+00 -0.14076006731E+03  0.14076006731E+03  0.00000000000E+00 0. -1.
         25    1    1    2    0    0  0.47300381073E+02 -0.75948960217E+02  0.80291745697E+02  0.17342818408E+03  0.12500000000E+03 0.  0.
         25    1    1    2    0    0 -0.51530819853E+01  0.22448927202E+02  0.93803386571E+02  0.15797019946E+03  0.12500000000E+03 0.  0.
         25    1    1    2    0    0 -0.42147299087E+02  0.53500033015E+02  0.19457154753E+02  0.14367403810E+03  0.12500000000E+03 0.  0.
</event>
<event>
 5    0  0.5771634E-005  0.4128762E+03  0.7546771E-02  0.1039410E+00
         21   -1    0    0  502  501  0.00000000000E+00  0.00000000000E+00  0.16665389675E+03  0.16665389675E+03  0.00000000000E+00 0.  1.
         21   -1    0    0  501  502 -0.00000000000E+00 -0.00000000000E+00 -0.10228791501E+04  0.10228791501E+04  0.00000000000E+00 0.  1.
         25    1    1    2    0    0 -0.16665558666E+02 -0.44651285365E+02 -0.36523209158E+03  0.38896138478E+03  0.12500000000E+03 0.  0.
         25    1    1    2    0    0  0.90987428084E+02  0.85711990038E+02  0.91319761527E+02  0.19897124453E+03  0.12500000000E+03 0.  0.
         25    1    1    2    0    0 -0.74321869417E+02 -0.41060704673E+02 -0.58231292333E+03  0.60160041757E+03  0.12500000000E+03 0.  0.
</event>
<event>
 5    0  0.5771634E-005  0.2588817E+03  0.7546771E-02  0.1107817E+00
         21   -1    0    0  502  501  0.00000000000E+00  0.00000000000E+00  0.51294846293E+03  0.51294846293E+03  0.00000000000E+00 0. -1.
         21   -1    0    0  501  502 -0.00000000000E+00 -0.00000000000E+00 -0.13065585390E+03  0.13065585390E+03  0.00000000000E+00 0. -1.
         25    1    1    2    0    0  0.94371374925E+02 -0.37965677229E+02  0.82855158157E+02  0.18121072343E+03  0.12500000000E+03 0.  0.
         25    1    1    2    0    0 -0.12901840157E+03 -0.49826256709E+02  0.21459576062E+03  0.28426175310E+03  0.12500000000E+03 0.  0.
         25    1    1    2    0    0  0.34647026648E+02  0.87791933937E+02  0.84841690260E+02  0.17813184029E+03  0.12500000000E+03 0.  0.
</event>
<event>
 5    0  0.5771634E-005  0.2369171E+03  0.7546771E-02  0.1121864E+00
         21   -1    0    0  502  501  0.00000000000E+00  0.00000000000E+00  0.87346136557E+03  0.87346136557E+03  0.00000000000E+00 0.  1.
         21   -1    0    0  501  502 -0.00000000000E+00 -0.00000000000E+00 -0.64261234331E+02  0.64261234331E+02  0.00000000000E+00 0.  1.
         25    1    1    2    0    0 -0.96646847526E+01  0.13644018349E+03  0.30652098219E+03  0.35817515592E+03  0.12500000000E+03 0.  0.
         25    1    1    2    0    0  0.11108834177E+02 -0.47837132019E+02  0.21207965040E+03  0.25102704139E+03  0.12500000000E+03 0.  0.
         25    1    1    2    0    0 -0.14441494239E+01 -0.88603051466E+02  0.29059949865E+03  0.32852040258E+03  0.12500000000E+03 0.  0.
</event>
<event>
 5    0  0.6354378E-005  0.4442587E+03  0.7546771E-02  0.1029448E+00
         21   -1    0    0  502  501  0.00000000000E+00  0.00000000000E+00  0.26485590429E+03  0.26485590429E+03  0.00000000000E+00 0.  1.
         21   -1    0    0  501  502 -0.00000000000E+00 -0.00000000000E+00 -0.74518193307E+03  0.74518193307E+03  0.00000000000E+00 0.  1.
         25    1    1    2    0    0  0.20973552927E+03 -0.20733271144E+03 -0.25954132951E+03  0.41226514186E+03  0.12500000000E+03 0.  0.
         25    1    1    2    0    0 -0.17858918055E+03  0.95507888288E+02 -0.32124778364E+03  0.39980118888E+03  0.12500000000E+03 0.  0.
         25    1    1    2    0    0 -0.31146348721E+02  0.11182482315E+03  0.10046308437E+03  0.19797150662E+03  0.12500000000E+03 0.  0.
</event>
<event>
 5    0  0.5771634E-005  0.3128674E+03  0.7546771E-02  0.1078980E+00
         21   -1    0    0  502  501  0.00000000000E+00  0.00000000000E+00  0.90455760389E+02  0.90455760389E+02  0.00000000000E+00 0. -1.
         21   -1    0    0  501  502 -0.00000000000E+00 -0.00000000000E+00 -0.10821423052E+04  0.10821423052E+04  0.00000000000E+00 0. -1.
         25    1    1    2    0    0  0.63225937628E+02 -0.15624234701E+03 -0.46511979522E+03  0.51026523897E+03  0.12500000000E+03 0.  0.
         25    1    1    2    0    0 -0.23467658368E+02 -0.30353373743E+02 -0.35080671066E+03  0.37438270063E+03  0.12500000000E+03 0.  0.
         25    1    1    2    0    0 -0.39758279260E+02  0.18659572075E+03 -0.17576003891E+03  0.28795012597E+03  0.12500000000E+03 0.  0.
</event>
<event>
 5    0  0.5771634E-005  0.2730723E+03  0.7546771E-02  0.1099534E+00
         21   -1    0    0  502  501  0.00000000000E+00  0.00000000000E+00  0.26657469553E+03  0.26657469553E+03  0.00000000000E+00 0. -1.
         21   -1    0    0  501  502 -0.00000000000E+00 -0.00000000000E+00 -0.27972820915E+03  0.27972820915E+03  0.00000000000E+00 0. -1.
         25    1    1    2    0    0 -0.14776090182E+03 -0.47939216498E+02  0.85926686175E+02  0.21711712964E+03  0.12500000000E+03 0.  0.
         25    1    1    2    0    0  0.92206102446E+02  0.69813012250E+02 -0.25083009626E+02  0.17213360909E+03  0.12500000000E+03 0.  0.
         25    1    1    2    0    0  0.55554799375E+02 -0.21873795752E+02 -0.73997190167E+02  0.15705216594E+03  0.12500000000E+03 0.  0.
</event>
<event>
 5    0  0.5771634E-005  0.2350244E+03  0.7546771E-02  0.1123152E+00
         21   -1    0    0  502  501  0.00000000000E+00  0.00000000000E+00  0.13069591443E+04  0.13069591443E+04  0.00000000000E+00 0.  1.
         21   -1    0    0  501  502 -0.00000000000E+00 -0.00000000000E+00 -0.42263355014E+02  0.42263355014E+02  0.00000000000E+00 0.  1.
         25    1    1    2    0    0  0.34005329118E+02  0.56974787115E+02  0.48456216992E+03  0.50480489824E+03  0.12500000000E+03 0.  0.
         25    1    1    2    0    0  0.46672064730E+02 -0.32322301915E+02  0.56664196299E+03  0.58303612842E+03  0.12500000000E+03 0.  0.
         25    1    1    2    0    0 -0.80677393847E+02 -0.24652485200E+02  0.21349165643E+03  0.26138147270E+03  0.12500000000E+03 0.  0.
</event>
<event>
 5    0  0.5771634E-005  0.3189141E+03  0.7546771E-02  0.1076150E+00
         21   -1    0    0  502  501  0.00000000000E+00  0.00000000000E+00  0.62921466455E+02  0.62921466455E+02  0.00000000000E+00 0. -1.
         21   -1    0    0  501  502 -0.00000000000E+00 -0.00000000000E+00 -0.16163989882E+04  0.16163989882E+04  0.00000000000E+00 0. -1.
         25    1    1    2    0    0  0.18855657754E+03 -0.96647249048E+02 -0.68333418410E+03  0.72626777489E+03  0.12500000000E+03 0.  0.
         25    1    1    2    0    0 -0.15830113645E+03 -0.28467656725E+02 -0.38095993252E+03  0.43200130494E+03  0.12500000000E+03 0.  0.
         25    1    1    2    0    0 -0.30255441086E+02  0.12511490577E+03 -0.48918340513E+03  0.52105137484E+03  0.12500000000E+03 0.  0.
</event>
<event>
 5    0  0.5771634E-005  0.3819458E+03  0.7546771E-02  0.1050217E+00
         21   -1    0    0  502  501  0.00000000000E+00  0.00000000000E+00  0.17789666474E+03  0.17789666474E+03  0.00000000000E+00 0.  1.
         21   -1    0    0  501  502 -0.00000000000E+00 -0.00000000000E+00 -0.82004101511E+03  0.82004101511E+03  0.00000000000E+00 0.  1.
         25    1    1    2    0    0  0.89607399660E+02 -0.87843664383E+01 -0.12051392797E+03  0.19558951404E+03  0.12500000000E+03 0.  0.
         25    1    1    2    0    0 -0.99646331547E+02 -0.16565949061E+02  0.85391299954E+02  0.18199037383E+03  0.12500000000E+03 0.  0.
         25    1    1    2    0    0  0.10038931887E+02  0.25350315499E+02 -0.60702172236E+03  0.62035779198E+03  0.12500000000E+03 0.  0.
</event>
<event>
 5    0  0.5771634E-005  0.2144667E+03  0.7546771E-02  0.1138077E+00
         21   -1    0    0  502  501  0.00000000000E+00  0.00000000000E+00  0.14003228958E+03  0.14003228958E+03  0.00000000000E+00 0. -1.
         21   -1    0    0  501  502 -0.00000000000E+00 -0.00000000000E+00 -0.32846681345E+03  0.32846681345E+03  0.00000000000E+00 0. -1.
         25    1    1    2    0    0 -0.49346936039E+02 -0.17321743947E+02 -0.83564483323E+02  0.15919543267E+03  0.12500000000E+03 0.  0.
         25    1    1    2    0    0 -0.31752846021E+02 -0.27905399563E+02 -0.25012830542E+02  0.13430411850E+03  0.12500000000E+03 0.  0.
         25    1    1    2    0    0  0.81099782059E+02  0.45227143510E+02 -0.79857210001E+02  0.17499955185E+03  0.12500000000E+03 0.  0.
</event>
<event>
 5    0  0.5771634E-005  0.2564750E+03  0.7546771E-02  0.1109280E+00
         21   -1    0    0  502  501  0.00000000000E+00  0.00000000000E+00  0.14737098985E+03  0.14737098985E+03  0.00000000000E+00 0.  1.
         21   -1    0    0  501  502 -0.00000000000E+00 -0.00000000000E+00 -0.44635255610E+03  0.44635255610E+03  0.00000000000E+00 0.  1.
         25    1    1    2    0    0  0.55297418503E+02 -0.15659534943E+03 -0.12558011772E+03  0.24284825287E+03  0.12500000000E+03 0.  0.
         25    1    1    2    0    0 -0.30280835968E+02  0.10503002165E+03 -0.77654209122E+02  0.18331233092E+03  0.12500000000E+03 0.  0.
         25    1    1    2    0    0 -0.25016582535E+02  0.51565327779E+02 -0.95747239411E+02  0.16756296215E+03  0.12500000000E+03 0.  0.
</event>
<event>
 5    0  0.5771634E-005  0.2507001E+03  0.7546771E-02  0.1112863E+00
         21   -1    0    0  502  501  0.00000000000E+00  0.00000000000E+00  0.15815414718E+02  0.15815414718E+02  0.00000000000E+00 0. -1.
         21   -1    0    0  501  502 -0.00000000000E+00 -0.00000000000E+00 -0.39740043227E+04  0.39740043227E+04  0.00000000000E+00 0. -1.
         25    1    1    2    0    0  0.80599876184E+02  0.76461096180E+02 -0.18935572889E+04  0.19009278907E+04  0.12500000000E+03 0.  0.
         25    1    1    2    0    0 -0.85009429924E+02 -0.12893503662E+02 -0.14756863308E+04  0.14834648606E+04  0.12500000000E+03 0.  0.
         25    1    1    2    0    0  0.44095537405E+01 -0.63567592518E+02 -0.58894528823E+03  0.60542698611E+03  0.12500000000E+03 0.  0.
</event>
<event>
 5    0  0.5771634E-005  0.4546457E+03  0.7546771E-02  0.1026346E+00
         21   -1    0    0  502  501  0.00000000000E+00  0.00000000000E+00  0.40470411142E+03  0.40470411142E+03  0.00000000000E+00 0.  1.
         21   -1    0    0  501  502 -0.00000000000E+00 -0.00000000000E+00 -0.51075030278E+03  0.51075030278E+03  0.00000000000E+00 0.  1.
         25    1    1    2    0    0 -0.20704218629E+03  0.20659918747E+03 -0.13969748569E+03  0.34740477641E+03  0.12500000000E+03 0.  0.
         25    1    1    2    0    0 -0.11671177057E+02 -0.16311852354E+03  0.18003878804E+03  0.27346450280E+03  0.12500000000E+03 0.  0.
         25    1    1    2    0    0  0.21871336334E+03 -0.43480663929E+02 -0.14638749370E+03  0.29458513498E+03  0.12500000000E+03 0.  0.
</event>
<event>
 5    0  0.5771634E-005  0.2767666E+03  0.7546771E-02  0.1097468E+00
         21   -1    0    0  502  501  0.00000000000E+00  0.00000000000E+00  0.44642189691E+03  0.44642189691E+03  0.00000000000E+00 0.  1.
         21   -1    0    0  501  502 -0.00000000000E+00 -0.00000000000E+00 -0.17158600776E+03  0.17158600776E+03  0.00000000000E+00 0.  1.
         25    1    1    2    0    0 -0.12266015856E+02  0.77745291081E+02  0.13737169418E+03  0.20171952754E+03  0.12500000000E+03 0.  0.
         25    1    1    2    0    0  0.12031054005E+03 -0.34226674443E+02 -0.27296743756E+02  0.17893072266E+03  0.12500000000E+03 0.  0.
         25    1    1    2    0    0 -0.10804452419E+03 -0.43518616639E+02  0.16476093873E+03  0.23735765446E+03  0.12500000000E+03 0.  0.
</event>
<event>
 5    0  0.5771634E-005  0.3013608E+03  0.7546771E-02  0.1084562E+00
         21   -1    0    0  502  501  0.00000000000E+00  0.00000000000E+00  0.20028274377E+03  0.20028274377E+03  0.00000000000E+00 0.  1.
         21   -1    0    0  501  502 -0.00000000000E+00 -0.00000000000E+00 -0.45345075681E+03  0.45345075681E+03  0.00000000000E+00 0.  1.
         25    1    1    2    0    0  0.41101368632E+02  0.18378673925E+03 -0.15598310439E+03  0.27463178418E+03  0.12500000000E+03 0.  0.
         25    1    1    2    0    0 -0.87552238728E+02 -0.39076831287E+02 -0.91618449115E+02  0.18223976917E+03  0.12500000000E+03 0.  0.
         25    1    1    2    0    0  0.46450870096E+02 -0.14470990796E+03 -0.55664595280E+01  0.19686194723E+03  0.12500000000E+03 0.  0.
</event>
<event>
 5    0  0.5771634E-005  0.3520852E+03  0.7546771E-02  0.1061762E+00
         21   -1    0    0  502  501  0.00000000000E+00  0.00000000000E+00  0.87467029864E+02  0.87467029864E+02  0.00000000000E+00 0. -1.
         21   -1    0    0  501  502 -0.00000000000E+00 -0.00000000000E+00 -0.14172654631E+04  0.14172654631E+04  0.00000000000E+00 0. -1.
         25    1    1    2    0    0  0.18569639668E+03 -0.33872487753E+02 -0.24738277278E+03  0.33534121941E+03  0.12500000000E+03 0.  0.
         25    1    1    2    0    0  0.43193115598E+02  0.71251205671E+02 -0.61254933299E+03  0.63070124853E+03  0.12500000000E+03 0.  0.
         25    1    1    2    0    0 -0.22888951228E+03 -0.37378717917E+02 -0.46986632749E+03  0.53869002506E+03  0.12500000000E+03 0.  0.
</event>
<event>
 5    0  0.6635803E-005  0.2770343E+03  0.7546771E-02  0.1097320E+00
         21   -1    0    0  502  501  0.00000000000E+00  0.00000000000E+00  0.16630692948E+03  0.16630692948E+03  0.00000000000E+00 0.  1.
         21   -1    0    0  501  502 -0.00000000000E+00 -0.00000000000E+00 -0.46148406388E+03  0.46148406388E+03  0.00000000000E+00 0.  1.
         25    1    1    2    0    0 -0.15424211594E+03 -0.85917772266E+02 -0.91190220092E+02  0.23476190100E+03  0.12500000000E+03 0.  0.
         25    1    1    2    0    0  0.45952858433E+02  0.63903501260E+02 -0.16544470098E+03  0.22179330863E+03  0.12500000000E+03 0.  0.
         25    1    1    2    0    0  0.10828925751E+03  0.22014271005E+02 -0.38542213319E+02  0.17123578372E+03  0.12500000000E+03 0.  0.
</event>
<event>
 5    0  0.5771634E-005  0.2673398E+03  0.7546771E-02  0.1102812E+00
         21   -1    0    0  502  501  0.00000000000E+00  0.00000000000E+00  0.10834460023E+04  0.10834460023E+04  0.00000000000E+00 0. -1.
         21   -1    0    0  501  502 -0.00000000000E+00 -0.00000000000E+00 -0.65965989497E+02  0.65965989497E+02  0.00000000000E+00 0. -1.
         25    1    1    2    0    0  0.68408106203E+02  0.10176779108E+03  0.47807931056E+03  0.50913768224E+03  0.12500000000E+03 0.  0.
         25    1    1    2    0    0  0.63499627723E+02 -0.13730870938E+02  0.18708102426E+03  0.23419019872E+03  0.12500000000E+03 0.  0.
         25    1    1    2    0    0 -0.13190773393E+03 -0.88036920140E+02  0.35231967797E+03  0.40608411082E+03  0.12500000000E+03 0.  0.
</event>
<event>
 5    0  0.5771634E-005  0.2425912E+03  0.7546771E-02  0.1118079E+00
         21   -1    0    0  502  501  0.00000000000E+00  0.00000000000E+00  0.16682307057E+03  0.16682307057E+03  0.00000000000E+00 0.  1.
         21   -1    0    0  501  502 -0.00000000000E+00 -0.00000000000E+00 -0.35277200139E+03  0.35277200139E+03  0.00000000000E+00 0.  1.
         25    1    1    2    0    0  0.83617320069E+02 -0.25010073922E+02 -0.19085196591E+03  0.24426795308E+03  0.12500000000E+03 0.  0.
         25    1    1    2    0    0 -0.77074147545E+02  0.15685161654E+02  0.19477349597E+02  0.14896582045E+03  0.12500000000E+03 0.  0.
         25    1    1    2    0    0 -0.65431725242E+01  0.93249122685E+01 -0.14574314512E+02  0.12636129842E+03  0.12500000000E+03 0.  0.
</event>
<event>
 5    0  0.5771634E-005  0.2795726E+03  0.7546771E-02  0.1095923E+00
         21   -1    0    0  502  501  0.00000000000E+00  0.00000000000E+00  0.26833543695E+03  0.26833543695E+03  0.00000000000E+00 0.  1.
         21   -1    0    0  501  502 -0.00000000000E+00 -0.00000000000E+00 -0.29128032739E+03  0.29128032739E+03  0.00000000000E+00 0.  1.
         25    1    1    2    0    0  0.10952235379E+03  0.19258173161E+02 -0.23622268735E+02  0.16896459627E+03  0.12500000000E+03 0.  0.
         25    1    1    2    0    0  0.63539736831E+02  0.52457159117E+01  0.80081703814E+02  0.16156390370E+03  0.12500000000E+03 0.  0.
         25    1    1    2    0    0 -0.17306209062E+03 -0.24503889072E+02 -0.79404325512E+02  0.22908726437E+03  0.12500000000E+03 0.  0.
</event>
<event>
 5    0  0.6001056E-005  0.2898323E+03  0.7546771E-02  0.1090437E+00
         21   -1    0    0  502  501  0.00000000000E+00  0.00000000000E+00  0.22006472444E+03  0.22006472444E+03  0.00000000000E+00 0.  1.
         21   -1    0    0  501  502 -0.00000000000E+00 -0.00000000000E+00 -0.38171838172E+03  0.38171838172E+03  0.00000000000E+00 0.  1.
         25    1    1    2    0    0  0.30942649987E+02 -0.17508240378E+03 -0.79427640154E+02  0.23139802445E+03  0.12500000000E+03 0.  0.
         25    1    1    2    0    0 -0.26091782942E+02  0.69246296473E+02 -0.13492882625E+03  0.19825896919E+03  0.12500000000E+03 0.  0.
         25    1    1    2    0    0 -0.48508670447E+01  0.10583610730E+03  0.52702809122E+02  0.17212611251E+03  0.12500000000E+03 0.  0.
</event>
<event>
 5    0  0.5771634E-005  0.2954746E+03  0.7546771E-02  0.1087525E+00
         21   -1    0    0  502  501  0.00000000000E+00  0.00000000000E+00  0.15143715580E+03  0.15143715580E+03  0.00000000000E+00 0.  1.
         21   -1    0    0  501  502 -0.00000000000E+00 -0.00000000000E+00 -0.57651150957E+03  0.57651150957E+03  0.00000000000E+00 0.  1.
         25    1    1    2    0    0  0.12214762770E+02  0.58791556351E+02 -0.53690693980E+02  0.14870554175E+03  0.12500000000E+03 0.  0.
         25    1    1    2    0    0 -0.59692343495E+02 -0.44005552666E+02 -0.41348121897E+03  0.43828230968E+03  0.12500000000E+03 0.  0.
         25    1    1    2    0    0  0.47477580725E+02 -0.14786003686E+02  0.42097559182E+02  0.14096081394E+03  0.12500000000E+03 0.  0.
</event>
<event>
 5    0  0.5771634E-005  0.2845351E+03  0.7546771E-02  0.1093237E+00
         21   -1    0    0  502  501  0.00000000000E+00  0.00000000000E+00  0.12451519354E+04  0.12451519354E+04  0.00000000000E+00 0.  1.
         21   -1    0    0  501  502 -0.00000000000E+00 -0.00000000000E+00 -0.65020358549E+02  0.65020358549E+02  0.00000000000E+00 0.  1.
         25    1    1    2    0    0  0.91737543269E+02  0.69912133809E+02  0.54492324280E+03  0.57085008877E+03  0.12500000000E+03 0.  0.
         25    1    1    2    0    0  0.58369532781E+02 -0.99381824515E+01  0.42163618285E+03  0.44374298926E+03  0.12500000000E+03 0.  0.
         25    1    1    2    0    0 -0.15010707605E+03 -0.59973951357E+02  0.21357215122E+03  0.29557921594E+03  0.12500000000E+03 0.  0.
</event>
<event>
 5    0  0.5771634E-005  0.3024189E+03  0.7546771E-02  0.1084038E+00
         21   -1    0    0  502  501  0.00000000000E+00  0.00000000000E+00  0.25709442255E+03  0.25709442255E+03  0.00000000000E+00 0. -1.
         21   -1    0    0  501  502 -0.00000000000E+00 -0.00000000000E+00 -0.35573396514E+03  0.35573396514E+03  0.00000000000E+00 0. -1.
         25    1    1    2    0    0 -0.32508151653E+02 -0.51285050520E+02 -0.43078019725E+02  0.14549107228E+03  0.12500000000E+03 0.  0.
         25    1    1    2    0    0  0.12599292138E+03  0.11348069708E+03 -0.16433529263E+03  0.26717629620E+03  0.12500000000E+03 0.  0.
         25    1    1    2    0    0 -0.93484769730E+02 -0.62195646556E+02  0.10877376977E+03  0.20016101921E+03  0.12500000000E+03 0.  0.
</event>
<event>
 5    0  0.5771634E-005  0.2725418E+03  0.7546771E-02  0.1099834E+00
         21   -1    0    0  502  501  0.00000000000E+00  0.00000000000E+00  0.56678828711E+03  0.56678828711E+03  0.00000000000E+00 0. -1.
         21   -1    0    0  501  502 -0.00000000000E+00 -0.00000000000E+00 -0.13105254722E+03  0.13105254722E+03  0.00000000000E+00 0. -1.
         25    1    1    2    0    0 -0.65818814584E+02 -0.42933738079E+02  0.11042644453E+03  0.18437576270E+03  0.12500000000E+03 0.  0.
         25    1    1    2    0    0 -0.80904875788E+02  0.37917783864E+02  0.27367168170E+03  0.31385433982E+03  0.12500000000E+03 0.  0.
         25    1    1    2    0    0  0.14672369037E+03  0.50159542153E+01  0.51637613654E+02  0.19961073182E+03  0.12500000000E+03 0.  0.
</event>
<event>
 5    0  0.5771634E-005  0.3816599E+03  0.7546771E-02  0.1050322E+00
         21   -1    0    0  502  501  0.00000000000E+00  0.00000000000E+00  0.51042220655E+03  0.51042220655E+03  0.00000000000E+00 0.  1.
         21   -1    0    0  501  502 -0.00000000000E+00 -0.00000000000E+00 -0.28538001665E+03  0.28538001665E+03  0.00000000000E+00 0.  1.
         25    1    1    2    0    0  0.47609492257E+02 -0.91011668014E+02 -0.13602089215E+03  0.21136809260E+03  0.12500000000E+03 0.  0.
         25    1    1    2    0    0 -0.14314230448E+03  0.17905045437E+03  0.29112538914E+03  0.39105981223E+03  0.12500000000E+03 0.  0.
         25    1    1    2    0    0  0.95532812224E+02 -0.88038786361E+02  0.69937692906E+02  0.19337431837E+03  0.12500000000E+03 0.  0.
</event>
<event>
 5    0  0.5771634E-005  0.2222514E+03  0.7546771E-02  0.1132216E+00
         21   -1    0    0  502  501  0.00000000000E+00  0.00000000000E+00  0.12853109288E+04  0.12853109288E+04  0.00000000000E+00 0.  1.
         21   -1    0    0  501  502 -0.00000000000E+00 -0.00000000000E+00 -0.38430923208E+02  0.38430923208E+02  0.00000000000E+00 0.  1.
         25    1    1    2    0    0 -0.49664446275E+02 -0.33952116980E+02  0.40180498176E+03  0.42507828319E+03  0.12500000000E+03 0.  0.
         25    1    1    2    0    0 -0.46394613918E+02  0.59458217987E+02  0.40210733406E+03  0.42778855523E+03  0.12500000000E+03 0.  0.
         25    1    1    2    0    0  0.96059060193E+02 -0.25506101007E+02  0.44296768976E+03  0.47087501357E+03  0.12500000000E+03 0.  0.
</event>
<event>
 5    0  0.5771634E-005  0.2743797E+03  0.7546771E-02  0.1098799E+00
         21   -1    0    0  502  501  0.00000000000E+00  0.00000000000E+00  0.30464197753E+03  0.30464197753E+03  0.00000000000E+00 0. -1.
         21   -1    0    0  501  502 -0.00000000000E+00 -0.00000000000E+00 -0.24712357197E+03  0.24712357197E+03  0.00000000000E+00 0. -1.
         25    1    1    2    0    0 -0.49615525389E+02  0.46727168510E+02  0.56545943486E+02  0.15319129336E+03  0.12500000000E+03 0.  0.
         25    1    1    2    0    0 -0.77407035122E+02 -0.13472171424E+03 -0.84825207473E+01  0.19959644920E+03  0.12500000000E+03 0.  0.
         25    1    1    2    0    0  0.12702256051E+03  0.87994545728E+02  0.94549828228E+01  0.19897780695E+03  0.12500000000E+03 0.  0.
</event>
<event>
 5    0  0.5771634E-005  0.2990523E+03  0.7546771E-02  0.1085715E+00
         21   -1    0    0  502  501  0.00000000000E+00  0.00000000000E+00  0.10083802921E+04  0.10083802921E+04  0.00000000000E+00 0. -1.
         21   -1    0    0  501  502 -0.00000000000E+00 -0.00000000000E+00 -0.88689026200E+02  0.88689026200E+02  0.00000000000E+00 0. -1.
         25    1    1    2    0    0  0.73422168565E+02  0.87153446379E+02  0.11169024121E+03  0.20269742977E+03  0.12500000000E+03 0.  0.
         25    1    1    2    0    0 -0.12709575798E+03  0.48428549211E+01  0.21645895352E+03  0.28045724006E+03  0.12500000000E+03 0.  0.
         25    1    1    2    0    0  0.53673589411E+02 -0.91996301300E+02  0.59154207112E+03  0.61391464843E+03  0.12500000000E+03 0.  0.
</event>
<event>
 5    0  0.5771634E-005  0.2811877E+03  0.7546771E-02  0.1095042E+00
         21   -1    0    0  502  501  0.00000000000E+00  0.00000000000E+00  0.18813078269E+03  0.18813078269E+03  0.00000000000E+00 0.  1.
         21   -1    0    0  501  502 -0.00000000000E+00 -0.00000000000E+00 -0.42027435523E+03  0.42027435523E+03  0.00000000000E+00 0.  1.
         25    1    1    2    0    0  0.96273158613E+02 -0.79798433027E+02 -0.23750824893E+03  0.29609370019E+03  0.12500000000E+03 0.  0.
         25    1    1    2    0    0 -0.88201190941E+02 -0.16248292043E+02 -0.68193309565E+01  0.15399662448E+03  0.12500000000E+03 0.  0.
         25    1    1    2    0    0 -0.80719676727E+01  0.96046725069E+02  0.12184007349E+02  0.15831481325E+03  0.12500000000E+03 0.  0.
</event>
<event>
 5    0  0.5771634E-005  0.3240078E+03  0.7546771E-02  0.1073819E+00
         21   -1    0    0  502  501  0.00000000000E+00  0.00000000000E+00  0.39648626761E+03  0.39648626761E+03  0.00000000000E+00 0.  1.
         21   -1    0    0  501  502 -0.00000000000E+00 -0.00000000000E+00 -0.26477850103E+03  0.26477850103E+03  0.00000000000E+00 0.  1.
         25    1    1    2    0    0  0.72521765461E+02  0.31526858817E+02  0.17324283124E+03  0.22779690048E+03  0.12500000000E+03 0.  0.
         25    1    1    2    0    0  0.11959053104E+03 -0.58320470860E+02  0.43271025532E+02  0.18761810703E+03  0.12500000000E+03 0.  0.
         25    1    1    2    0    0 -0.19211229650E+03  0.26793612043E+02 -0.84806090197E+02  0.24584976113E+03  0.12500000000E+03 0.  0.
</event>
<event>
 5    0  0.5771634E-005  0.3713608E+03  0.7546771E-02  0.1054174E+00
         21   -1    0    0  502  501  0.00000000000E+00  0.00000000000E+00  0.19559903341E+03  0.19559903341E+03  0.00000000000E+00 0.  1.
         21   -1    0    0  501  502 -0.00000000000E+00 -0.00000000000E+00 -0.70505908843E+03  0.70505908843E+03  0.00000000000E+00 0.  1.
         25    1    1    2    0    0 -0.26003848942E+03  0.15805819167E+03 -0.16481957052E+03  0.36795774046E+03  0.12500000000E+03 0.  0.
         25    1    1    2    0    0  0.19661912552E+03 -0.11297378141E+03 -0.21727922040E+03  0.33801984472E+03  0.12500000000E+03 0.  0.
         25    1    1    2    0    0  0.63419363904E+02 -0.45084410255E+02 -0.12736126409E+03  0.19468053667E+03  0.12500000000E+03 0.  0.
</event>
<event>
 5    0  0.5771634E-005  0.3976654E+03  0.7546771E-02  0.1044591E+00
         21   -1    0    0  502  501  0.00000000000E+00  0.00000000000E+00  0.29596169732E+03  0.29596169732E+03  0.00000000000E+00 0. -1.
         21   -1    0    0  501  502 -0.00000000000E+00 -0.00000000000E+00 -0.53431835115E+03  0.53431835115E+03  0.00000000000E+00 0. -1.
         25    1    1    2    0    0  0.24561817804E+03 -0.68638423442E+02 -0.32035277315E+03  0.42812430650E+03  0.12500000000E+03 0.  0.
         25    1    1    2    0    0 -0.16367942928E+03  0.82729646782E+01  0.11727905617E+03  0.23714715797E+03  0.12500000000E+03 0.  0.
         25    1    1    2    0    0 -0.81938748758E+02  0.60365458763E+02 -0.35282936856E+02  0.16500858400E+03  0.12500000000E+03 0.  0.
</event>
<event>
 5    0  0.5771634E-005  0.2711621E+03  0.7546771E-02  0.1100616E+00
         21   -1    0    0  502  501  0.00000000000E+00  0.00000000000E+00  0.18115689612E+04  0.18115689612E+04  0.00000000000E+00 0. -1.
         21   -1    0    0  501  502 -0.00000000000E+00 -0.00000000000E+00 -0.40588510534E+02  0.40588510534E+02  0.00000000000E+00 0. -1.
         25    1    1    2    0    0 -0.81979392292E+02  0.73355895088E+00  0.85805139824E+03  0.87097552256E+03  0.12500000000E+03 0.  0.
         25    1    1    2    0    0  0.11847320490E+03  0.95275395884E+02  0.53624648173E+03  0.57122551633E+03  0.12500000000E+03 0.  0.
         25    1    1    2    0    0 -0.36493812608E+02 -0.96008954835E+02  0.37668257071E+03  0.40995643286E+03  0.12500000000E+03 0.  0.
</event>
<event>
 5    0  0.5771634E-005  0.2538899E+03  0.7546771E-02  0.1110871E+00
         21   -1    0    0  502  501  0.00000000000E+00  0.00000000000E+00  0.27098880296E+03  0.27098880296E+03  0.00000000000E+00 0. -1.
         21   -1    0    0  501  502 -0.00000000000E+00 -0.00000000000E+00 -0.23786996862E+03  0.23786996862E+03  0.00000000000E+00 0. -1.
         25    1    1    2    0    0  0.10973928669E+02  0.54517500834E+02 -0.58503206241E+02  0.14879586738E+03  0.12500000000E+03 0.  0.
         25    1    1    2    0    0  0.97877065608E+02  0.30334279802E+02  0.34301691338E+02  0.16523224423E+03  0.12500000000E+03 0.  0.
         25    1    1    2    0    0 -0.10885099428E+03 -0.84851780637E+02  0.57320349238E+02  0.19483065998E+03  0.12500000000E+03 0.  0.
</event>
<event>
 5    0  0.5771634E-005  0.3850275E+03  0.7546771E-02  0.1049091E+00
         21   -1    0    0  502  501  0.00000000000E+00  0.00000000000E+00  0.13424455517E+03  0.13424455517E+03  0.00000000000E+00 0. -1.
         21   -1    0    0  501  502 -0.00000000000E+00 -0.00000000000E+00 -0.11042992394E+04  0.11042992394E+04  0.00000000000E+00 0. -1.
         25    1    1    2    0    0 -0.62366852955E+02 -0.12711250671E+03  0.89494805326E+01  0.18908280438E+03  0.12500000000E+03 0.  0.
         25    1    1    2    0    0 -0.72026414229E+02 -0.48561386088E+01 -0.28336037661E+03  0.31800863111E+03  0.12500000000E+03 0.  0.
         25    1    1    2    0    0  0.13439326718E+03  0.13196864532E+03 -0.69564378816E+03  0.73145235909E+03  0.12500000000E+03 0.  0.
</event>
<event>
 5    0  0.5771634E-005  0.4521374E+03  0.7546771E-02  0.1027087E+00
         21   -1    0    0  502  501  0.00000000000E+00  0.00000000000E+00  0.60384679046E+03  0.60384679046E+03  0.00000000000E+00 0.  1.
         21   -1    0    0  501  502 -0.00000000000E+00 -0.00000000000E+00 -0.33854322059E+03  0.33854322059E+03  0.00000000000E+00 0. -1.
         25    1    1    2    0    0 -0.93675942303E+02  0.12902965344E+03  0.11865339423E+03  0.23479237976E+03  0.12500000000E+03 0.  0.
         25    1    1    2    0    0  0.33691145642E+03 -0.19428983168E+03  0.56841876807E+02  0.41244862361E+03  0.12500000000E+03 0.  0.
         25    1    1    2    0    0 -0.24323551411E+03  0.65260178239E+02  0.89808298829E+02  0.29514900767E+03  0.12500000000E+03 0.  0.
</event>
<event>
 5    0  0.5771634E-005  0.4291430E+03  0.7546771E-02  0.1034131E+00
         21   -1    0    0  502  501  0.00000000000E+00  0.00000000000E+00  0.17318203950E+03  0.17318203950E+03  0.00000000000E+00 0. -1.
         21   -1    0    0  501  502 -0.00000000000E+00 -0.00000000000E+00 -0.10634113587E+04  0.10634113587E+04  0.00000000000E+00 0. -1.
         25    1    1    2    0    0 -0.10625641391E+02 -0.13387361622E+03 -0.52086748121E+03  0.55223453565E+03  0.12500000000E+03 0.  0.
         25    1    1    2    0    0  0.11734503625E+03 -0.80114765919E+02  0.40619102783E+02  0.19355398410E+03  0.12500000000E+03 0.  0.
         25    1    1    2    0    0 -0.10671939486E+03  0.21398838214E+03 -0.40998094077E+03  0.49080487846E+03  0.12500000000E+03 0.  0.
</event>
<event>
 5    0  0.5771634E-005  0.3524262E+03  0.7546771E-02  0.1061624E+00
         21   -1    0    0  502  501  0.00000000000E+00  0.00000000000E+00  0.24068451307E+03  0.24068451307E+03  0.00000000000E+00 0. -1.
         21   -1    0    0  501  502 -0.00000000000E+00 -0.00000000000E+00 -0.51604563060E+03  0.51604563060E+03  0.00000000000E+00 0. -1.
         25    1    1    2    0    0 -0.14378983991E+03  0.21669973850E+02 -0.20993368176E+03  0.28432772739E+03  0.12500000000E+03 0.  0.
         25    1    1    2    0    0 -0.67985617201E+02 -0.94168673027E+02 -0.12212241348E+03  0.20983009079E+03  0.12500000000E+03 0.  0.
         25    1    1    2    0    0  0.21177545711E+03  0.72498699177E+02  0.56694977716E+02  0.26257232549E+03  0.12500000000E+03 0.  0.
</event>
<event>
 5    0  0.5771634E-005  0.3857860E+03  0.7546771E-02  0.1048816E+00
         21   -1    0    0  502  501  0.00000000000E+00  0.00000000000E+00  0.20255939917E+03  0.20255939917E+03  0.00000000000E+00 0. -1.
         21   -1    0    0  501  502 -0.00000000000E+00 -0.00000000000E+00 -0.73475162983E+03  0.73475162983E+03  0.00000000000E+00 0. -1.
         25    1    1    2    0    0  0.18637379024E+02  0.58327231513E+01 -0.45845875320E+03  0.47559520702E+03  0.12500000000E+03 0.  0.
         25    1    1    2    0    0  0.36843912548E+02 -0.93334338853E+02  0.12630992712E+03  0.20407834376E+03  0.12500000000E+03 0.  0.
         25    1    1    2    0    0 -0.55481291572E+02  0.87501615702E+02 -0.20004340459E+03  0.25763747822E+03  0.12500000000E+03 0.  0.
</event>
<event>
 5    0  0.5771634E-005  0.2401771E+03  0.7546771E-02  0.1119675E+00
         21   -1    0    0  502  501  0.00000000000E+00  0.00000000000E+00  0.16191009986E+03  0.16191009986E+03  0.00000000000E+00 0. -1.
         21   -1    0    0  501  502 -0.00000000000E+00 -0.00000000000E+00 -0.35627833238E+03  0.35627833238E+03  0.00000000000E+00 0. -1.
         25    1    1    2    0    0 -0.46947328333E+02 -0.98289446889E+02  0.15826648849E+02  0.16655434495E+03  0.12500000000E+03 0.  0.
         25    1    1    2    0    0  0.58526231053E+02  0.43204651325E+02 -0.10164856040E+03  0.17677497404E+03  0.12500000000E+03 0.  0.
         25    1    1    2    0    0 -0.11578902720E+02  0.55084795564E+02 -0.10854632097E+03  0.17485911325E+03  0.12500000000E+03 0.  0.
</event>
<event>
 5    0  0.5771634E-005  0.2563693E+03  0.7546771E-02  0.1109344E+00
         21   -1    0    0  502  501  0.00000000000E+00  0.00000000000E+00  0.50707298493E+02  0.50707298493E+02  0.00000000000E+00 0. -1.
         21   -1    0    0  501  502 -0.00000000000E+00 -0.00000000000E+00 -0.12961692967E+04  0.12961692967E+04  0.00000000000E+00 0. -1.
         25    1    1    2    0    0 -0.89261054182E+01  0.11273369285E+03 -0.39476249020E+03  0.42924466744E+03  0.12500000000E+03 0.  0.
         25    1    1    2    0    0 -0.39233056614E+02 -0.12785331252E+03 -0.30669150231E+03  0.35716995933E+03  0.12500000000E+03 0.  0.
         25    1    1    2    0    0  0.48159162032E+02  0.15119619673E+02 -0.54400800571E+03  0.56046196844E+03  0.12500000000E+03 0.  0.
</event>
<event>
 5    0  0.5771634E-005  0.2926447E+03  0.7546771E-02  0.1088976E+00
         21   -1    0    0  502  501  0.00000000000E+00  0.00000000000E+00  0.69521767211E+02  0.69521767211E+02  0.00000000000E+00 0. -1.
         21   -1    0    0  501  502 -0.00000000000E+00 -0.00000000000E+00 -0.12318578926E+04  0.12318578926E+04  0.00000000000E+00 0. -1.
         25    1    1    2    0    0  0.52361417960E+02  0.12826414936E+03 -0.28983995751E+03  0.34471090941E+03  0.12500000000E+03 0.  0.
         25    1    1    2    0    0  0.65252261949E+01 -0.16707941792E+03 -0.70908055824E+03  0.73917409894E+03  0.12500000000E+03 0.  0.
         25    1    1    2    0    0 -0.58886644155E+02  0.38815268561E+02 -0.16341560960E+03  0.21749465142E+03  0.12500000000E+03 0.  0.
</event>
<event>
 5    0  0.5771634E-005  0.2516209E+03  0.7546771E-02  0.1112285E+00
         21   -1    0    0  502  501  0.00000000000E+00  0.00000000000E+00  0.23808339611E+03  0.23808339611E+03  0.00000000000E+00 0.  1.
         21   -1    0    0  501  502 -0.00000000000E+00 -0.00000000000E+00 -0.26592825000E+03  0.26592825000E+03  0.00000000000E+00 0.  1.
         25    1    1    2    0    0 -0.11825563379E+02 -0.88853244393E+02 -0.48562482073E+02  0.16130113965E+03  0.12500000000E+03 0.  0.
         25    1    1    2    0    0 -0.17971688431E+02 -0.64242011022E+02 -0.70611127541E+00  0.14168809462E+03  0.12500000000E+03 0.  0.
         25    1    1    2    0    0  0.29797251810E+02  0.15309525542E+03  0.21423739462E+02  0.20102241183E+03  0.12500000000E+03 0.  0.
</event>
<event>
 5    0  0.5771634E-005  0.3187872E+03  0.7546771E-02  0.1076209E+00
         21   -1    0    0  502  501  0.00000000000E+00  0.00000000000E+00  0.83424494286E+03  0.83424494286E+03  0.00000000000E+00 0.  1.
         21   -1    0    0  501  502 -0.00000000000E+00 -0.00000000000E+00 -0.12181708517E+03  0.12181708517E+03  0.00000000000E+00 0.  1.
         25    1    1    2    0    0 -0.92153683453E+02 -0.25857731917E+02  0.31540168170E+02  0.16056371284E+03  0.12500000000E+03 0.  0.
         25    1    1    2    0    0 -0.20458993660E+02  0.14031602167E+03  0.44792674995E+03  0.48617952413E+03  0.12500000000E+03 0.  0.
         25    1    1    2    0    0  0.11261267711E+03 -0.11445828975E+03  0.23296093957E+03  0.30931879106E+03  0.12500000000E+03 0.  0.
</event>
<event>
 5    0  0.5771634E-005  0.2556581E+03  0.7546771E-02  0.1109780E+00
         21   -1    0    0  502  501  0.00000000000E+00  0.00000000000E+00  0.99458387013E+02  0.99458387013E+02  0.00000000000E+00 0. -1.
         21   -1    0    0  501  502 -0.00000000000E+00 -0.00000000000E+00 -0.65717018586E+03  0.65717018586E+03  0.00000000000E+00 0. -1.
         25    1    1    2    0    0  0.47097236190E+02 -0.48302919896E+01 -0.36636912677E+02  0.13859561590E+03  0.12500000000E+03 0.  0.
         25    1    1    2    0    0 -0.11802292419E+02 -0.34472382785E+02 -0.71750392745E+02  0.14866323735E+03  0.12500000000E+03 0.  0.
         25    1    1    2    0    0 -0.35294943772E+02  0.39302674775E+02 -0.44932449342E+03  0.46936971961E+03  0.12500000000E+03 0.  0.
</event>
<event>
 5    0  0.5771634E-005  0.5061412E+03  0.7546771E-02  0.1012188E+00
         21   -1    0    0  502  501  0.00000000000E+00  0.00000000000E+00  0.59842396106E+03  0.59842396106E+03  0.00000000000E+00 0.  1.
         21   -1    0    0  501  502 -0.00000000000E+00 -0.00000000000E+00 -0.42808939817E+03  0.42808939817E+03  0.00000000000E+00 0.  1.
         25    1    1    2    0    0  0.25073775311E+03  0.81994854625E+02  0.24481345893E+03  0.38098714767E+03  0.12500000000E+03 0.  0.
         25    1    1    2    0    0 -0.37820870817E+03 -0.79455084447E+02  0.74540028893E+02  0.41296023209E+03  0.12500000000E+03 0.  0.
         25    1    1    2    0    0  0.12747095506E+03 -0.25397701779E+01 -0.14901892493E+03  0.23256597947E+03  0.12500000000E+03 0.  0.
</event>
<event>
 5    0  0.5771634E-005  0.2810075E+03  0.7546771E-02  0.1095140E+00
         21   -1    0    0  502  501  0.00000000000E+00  0.00000000000E+00  0.31089464543E+03  0.31089464543E+03  0.00000000000E+00 0.  1.
         21   -1    0    0  501  502 -0.00000000000E+00 -0.00000000000E+00 -0.25399344257E+03  0.25399344257E+03  0.00000000000E+00 0.  1.
         25    1    1    2    0    0  0.31866416531E+02  0.13406060211E+02  0.77434819566E+02  0.15105079356E+03  0.12500000000E+03 0.  0.
         25    1    1    2    0    0 -0.17298292870E+03  0.34420170125E+02  0.12603561853E+02  0.21654489489E+03  0.12500000000E+03 0.  0.
         25    1    1    2    0    0  0.14111651217E+03 -0.47826230336E+02 -0.33137178558E+02  0.19729239954E+03  0.12500000000E+03 0.  0.
</event>
<event>
 5    0  0.5771634E-005  0.2497330E+03  0.7546771E-02  0.1113474E+00
         21   -1    0    0  502  501  0.00000000000E+00  0.00000000000E+00  0.15483229205E+04  0.15483229205E+04  0.00000000000E+00 0.  1.
         21   -1    0    0  501  502 -0.00000000000E+00 -0.00000000000E+00 -0.40280094612E+02  0.40280094612E+02  0.00000000000E+00 0.  1.
         25    1    1    2    0    0  0.45087792888E+02 -0.13721807767E+03  0.44497089401E+03  0.48423734513E+03  0.12500000000E+03 0.  0.
         25    1    1    2    0    0 -0.14808125725E+02  0.11094097430E+03  0.61125062582E+03  0.63386079539E+03  0.12500000000E+03 0.  0.
         25    1    1    2    0    0 -0.30279667162E+02  0.26277103376E+02  0.45182130611E+03  0.47050487464E+03  0.12500000000E+03 0.  0.
</event>
<event>
 5    0  0.5771634E-005  0.3098851E+03  0.7546771E-02  0.1080401E+00
         21   -1    0    0  502  501  0.00000000000E+00  0.00000000000E+00  0.40111678245E+03  0.40111678245E+03  0.00000000000E+00 0.  1.
         21   -1    0    0  501  502 -0.00000000000E+00 -0.00000000000E+00 -0.23940355991E+03  0.23940355991E+03  0.00000000000E+00 0.  1.
         25    1    1    2    0    0 -0.21687923213E+02  0.13232778194E+03 -0.49122496157E+02  0.18978679489E+03  0.12500000000E+03 0.  0.
         25    1    1    2    0    0  0.23287501888E+02 -0.29871220879E+02 -0.53299336232E+02  0.14106883718E+03  0.12500000000E+03 0.  0.
         25    1    1    2    0    0 -0.15995786752E+01 -0.10245656106E+03  0.26413505493E+03  0.30966471029E+03  0.12500000000E+03 0.  0.
</event>
<event>
 5    0  0.5771634E-005  0.2520237E+03  0.7546771E-02  0.1112033E+00
         21   -1    0    0  502  501  0.00000000000E+00  0.00000000000E+00  0.16188783418E+04  0.16188783418E+04  0.00000000000E+00 0. -1.
         21   -1    0    0  501  502 -0.00000000000E+00 -0.00000000000E+00 -0.39234523899E+02  0.39234523899E+02  0.00000000000E+00 0. -1.
         25    1    1    2    0    0  0.34959573446E+02 -0.51450994659E+02  0.47092375413E+03  0.49118586994E+03  0.12500000000E+03 0.  0.
         25    1    1    2    0    0  0.18637659314E+02  0.14985558496E+03  0.60616315253E+03  0.63707364266E+03  0.12500000000E+03 0.  0.
         25    1    1    2    0    0 -0.53597232760E+02 -0.98404590297E+02  0.50255691121E+03  0.52985335307E+03  0.12500000000E+03 0.  0.
</event>
<event>
 5    0  0.5771634E-005  0.3424835E+03  0.7546771E-02  0.1065743E+00
         21   -1    0    0  502  501  0.00000000000E+00  0.00000000000E+00  0.15874673285E+03  0.15874673285E+03  0.00000000000E+00 0. -1.
         21   -1    0    0  501  502 -0.00000000000E+00 -0.00000000000E+00 -0.73888112197E+03  0.73888112197E+03  0.00000000000E+00 0. -1.
         25    1    1    2    0    0 -0.11185826870E+03 -0.11408338826E+02 -0.63926252961E+02  0.17987214428E+03  0.12500000000E+03 0.  0.
         25    1    1    2    0    0 -0.11040854299E+03 -0.95905811344E+02 -0.96937658816E+02  0.21542952609E+03  0.12500000000E+03 0.  0.
         25    1    1    2    0    0  0.22226681168E+03  0.10731415017E+03 -0.41927047734E+03  0.50232618444E+03  0.12500000000E+03 0.  0.
</event>
<event>
 5    0  0.5771634E-005  0.3122218E+03  0.7546771E-02  0.1079286E+00
         21   -1    0    0  502  501  0.00000000000E+00  0.00000000000E+00  0.34306098910E+03  0.34306098910E+03  0.00000000000E+00 0. -1.
         21   -1    0    0  501  502 -0.00000000000E+00 -0.00000000000E+00 -0.28415482951E+03  0.28415482951E+03  0.00000000000E+00 0. -1.
         25    1    1    2    0    0 -0.51090912255E+02 -0.35176128491E+01  0.40017948430E+02  0.14088680248E+03  0.12500000000E+03 0.  0.
         25    1    1    2    0    0 -0.25225886767E+02  0.12851758704E+03  0.16473805874E+03  0.24477896874E+03  0.12500000000E+03 0.  0.
         25    1    1    2    0    0  0.76316799022E+02 -0.12499997419E+03 -0.14584984758E+03  0.24155004740E+03  0.12500000000E+03 0.  0.
</event>
<event>
 5    0  0.5771634E-005  0.7110449E+03  0.7546771E-02  0.9698528E-01
         21   -1    0    0  502  501  0.00000000000E+00  0.00000000000E+00  0.14685857435E+03  0.14685857435E+03  0.00000000000E+00 0.  1.
         21   -1    0    0  501  502 -0.00000000000E+00 -0.00000000000E+00 -0.34426651033E+04  0.34426651033E+04  0.00000000000E+00 0.  1.
         25    1    1    2    0    0 -0.27795058967E+03  0.55706186763E+03 -0.16156538814E+04  0.17359541811E+04  0.12500000000E+03 0.  0.
         25    1    1    2    0    0  0.20607931149E+02 -0.46549228172E+03 -0.10383908933E+04  0.11449840167E+04  0.12500000000E+03 0.  0.
         25    1    1    2    0    0  0.25734265852E+03 -0.91569585910E+02 -0.64176175429E+03  0.70858547983E+03  0.12500000000E+03 0.  0.
</event>
<event>
 5    0  0.5771634E-005  0.2223061E+03  0.7546771E-02  0.1132175E+00
         21   -1    0    0  502  501  0.00000000000E+00  0.00000000000E+00  0.23413017561E+02  0.23413017561E+02  0.00000000000E+00 0.  1.
         21   -1    0    0  501  502 -0.00000000000E+00 -0.00000000000E+00 -0.21107925240E+04  0.21107925240E+04  0.00000000000E+00 0.  1.
         25    1    1    2    0    0 -0.42343700624E+02  0.76523539615E+02 -0.10221620970E+04  0.10334840074E+04  0.12500000000E+03 0.  0.
         25    1    1    2    0    0  0.68316397968E+00 -0.45553704198E+02 -0.38990501928E+03  0.41197879889E+03  0.12500000000E+03 0.  0.
         25    1    1    2    0    0  0.41660536644E+02 -0.30969835417E+02 -0.67531239020E+03  0.68874273526E+03  0.12500000000E+03 0.  0.
</event>
<event>
 5    0  0.5771634E-005  0.4436268E+03  0.7546771E-02  0.1029640E+00
         21   -1    0    0  502  501  0.00000000000E+00  0.00000000000E+00  0.10223560254E+04  0.10223560254E+04  0.00000000000E+00 0. -1.
         21   -1    0    0  501  502 -0.00000000000E+00 -0.00000000000E+00 -0.19250113379E+03  0.19250113379E+03  0.00000000000E+00 0. -1.
         25    1    1    2    0    0  0.73312474319E+02 -0.13186913610E+03  0.55074460241E+03  0.58455864122E+03  0.12500000000E+03 0.  0.
         25    1    1    2    0    0 -0.53072988267E+02 -0.17635138561E+03  0.56747963342E+02  0.22969955297E+03  0.12500000000E+03 0.  0.
         25    1    1    2    0    0 -0.20239486052E+02  0.30822052171E+03  0.22236232588E+03  0.40059896501E+03  0.12500000000E+03 0.  0.
</event>
<event>
 5    0  0.5771634E-005  0.2846727E+03  0.7546771E-02  0.1093164E+00
         21   -1    0    0  502  501  0.00000000000E+00  0.00000000000E+00  0.46201356322E+03  0.46201356322E+03  0.00000000000E+00 0. -1.
         21   -1    0    0  501  502 -0.00000000000E+00 -0.00000000000E+00 -0.17540295439E+03  0.17540295439E+03  0.00000000000E+00 0. -1.
         25    1    1    2    0    0 -0.35406207488E+01 -0.24713700842E+02 -0.60850386241E+02  0.14124826551E+03  0.12500000000E+03 0.  0.
         25    1    1    2    0    0 -0.48218953395E+02 -0.21582811376E+02  0.32398702084E+03  0.35125983956E+03  0.12500000000E+03 0.  0.
         25    1    1    2    0    0  0.51759574143E+02  0.46296512219E+02  0.23473974231E+02  0.14490841254E+03  0.12500000000E+03 0.  0.
</event>
<event>
 5    0  0.5771634E-005  0.2937510E+03  0.7546771E-02  0.1088407E+00
         21   -1    0    0  502  501  0.00000000000E+00  0.00000000000E+00  0.25498196639E+03  0.25498196639E+03  0.00000000000E+00 0. -1.
         21   -1    0    0  501  502 -0.00000000000E+00 -0.00000000000E+00 -0.33841462624E+03  0.33841462624E+03  0.00000000000E+00 0. -1.
         25    1    1    2    0    0 -0.57300293045E+02  0.12850675805E+03  0.11475510053E+03  0.22043376226E+03  0.12500000000E+03 0.  0.
         25    1    1    2    0    0  0.62061381786E+02 -0.43084532916E+02 -0.34768730236E+02  0.15013912444E+03  0.12500000000E+03 0.  0.
         25    1    1    2    0    0 -0.47610887417E+01 -0.85422225135E+02 -0.16341903013E+03  0.22282370593E+03  0.12500000000E+03 0.  0.
</event>
<event>
 5    0  0.5771634E-005  0.2359542E+03  0.7546771E-02  0.1122518E+00
         21   -1    0    0  502  501  0.00000000000E+00  0.00000000000E+00  0.12598725962E+04  0.12598725962E+04  0.00000000000E+00 0.  1.
         21   -1    0    0  501  502 -0.00000000000E+00 -0.00000000000E+00 -0.44190482401E+02  0.44190482401E+02  0.00000000000E+00 0.  1.
         25    1    1    2    0    0  0.57037860950E+02  0.30054002876E+02  0.28661055879E+03  0.31926035313E+03  0.12500000000E+03 0.  0.
         25    1    1    2    0    0 -0.12456418283E+03 -0.47184481908E+02  0.48601745506E+03  0.51921149602E+03  0.12500000000E+03 0.  0.
         25    1    1    2    0    0  0.67526321881E+02  0.17130479032E+02  0.44305409991E+03  0.46559122941E+03  0.12500000000E+03 0.  0.
</event>
<event>
 5    0  0.5771634E-005  0.4222598E+03  0.7546771E-02  0.1036333E+00
         21   -1    0    0  502  501  0.00000000000E+00  0.00000000000E+00  0.34000281329E+04  0.34000281329E+04  0.00000000000E+00 0.  1.
         21   -1    0    0  501  502 -0.00000000000E+00 -0.00000000000E+00 -0.52441736205E+02  0.52441736205E+02  0.00000000000E+00 0.  1.
         25    1    1    2    0    0  0.12205172077E+03  0.37084431167E+02  0.73087570183E+03  0.75238033540E+03  0.12500000000E+03 0.  0.
         25    1    1    2    0    0  0.22025720718E+03 -0.13611223116E+03  0.11912652697E+04  0.12254704075E+04  0.12500000000E+03 0.  0.
         25    1    1    2    0    0 -0.34230892795E+03  0.99027799991E+02  0.14254454251E+04  0.14746191262E+04  0.12500000000E+03 0.  0.
</event>
<event>
 5    0  0.5771634E-005  0.2522521E+03  0.7546771E-02  0.1111890E+00
         21   -1    0    0  502  501  0.00000000000E+00  0.00000000000E+00  0.15820084438E+03  0.15820084438E+03  0.00000000000E+00 0.  1.
         21   -1    0    0  501  502 -0.00000000000E+00 -0.00000000000E+00 -0.40221739461E+03  0.40221739461E+03  0.00000000000E+00 0.  1.
         25    1    1    2    0    0 -0.20402155575E+02 -0.88647936871E+02 -0.64001877570E+02  0.16731988823E+03  0.12500000000E+03 0.  0.
         25    1    1    2    0    0  0.43026813263E+02  0.84817197739E+02 -0.21027073474E+03  0.26245770246E+03  0.12500000000E+03 0.  0.
         25    1    1    2    0    0 -0.22624657688E+02  0.38307391320E+01  0.30256062084E+02  0.13064064831E+03  0.12500000000E+03 0.  0.
</event>
<event>
 5    0  0.5771634E-005  0.4078783E+03  0.7546771E-02  0.1041085E+00
         21   -1    0    0  502  501  0.00000000000E+00  0.00000000000E+00  0.19423714074E+03  0.19423714074E+03  0.00000000000E+00 0. -1.
         21   -1    0    0  501  502 -0.00000000000E+00 -0.00000000000E+00 -0.85650312665E+03  0.85650312665E+03  0.00000000000E+00 0.  1.
         25    1    1    2    0    0 -0.15229275621E+03  0.13996834230E+03 -0.10034060228E+03  0.26168197665E+03  0.12500000000E+03 0.  0.
         25    1    1    2    0    0  0.25554740488E+03 -0.39265225910E+02 -0.51942035473E+03  0.59352231551E+03  0.12500000000E+03 0.  0.
         25    1    1    2    0    0 -0.10325464867E+03 -0.10070311639E+03 -0.42505028903E+02  0.19553597522E+03  0.12500000000E+03 0.  0.
</event>
<event>
 5    0  0.5771634E-005  0.4131433E+03  0.7546771E-02  0.1039321E+00
         21   -1    0    0  502  501  0.00000000000E+00  0.00000000000E+00  0.80315601271E+03  0.80315601271E+03  0.00000000000E+00 0. -1.
         21   -1    0    0  501  502 -0.00000000000E+00 -0.00000000000E+00 -0.21252081230E+03  0.21252081230E+03  0.00000000000E+00 0. -1.
         25    1    1    2    0    0 -0.94299580802E+02 -0.22698180113E+03  0.16172381818E+03  0.31967599589E+03  0.12500000000E+03 0.  0.
         25    1    1    2    0    0  0.22909541870E+03  0.65605112350E+01  0.19940322652E+03  0.32850326928E+03  0.12500000000E+03 0.  0.
         25    1    1    2    0    0 -0.13479583790E+03  0.22042128989E+03  0.22950815571E+03  0.36749755984E+03  0.12500000000E+03 0.  0.
</event>
<event>
 5    0  0.5771634E-005  0.3060285E+03  0.7546771E-02  0.1082265E+00
         21   -1    0    0  502  501  0.00000000000E+00  0.00000000000E+00  0.71957912420E+02  0.71957912420E+02  0.00000000000E+00 0. -1.
         21   -1    0    0  501  502 -0.00000000000E+00 -0.00000000000E+00 -0.13015032515E+04  0.13015032515E+04  0.00000000000E+00 0. -1.
         25    1    1    2    0    0 -0.28374553855E+02 -0.22512939427E+03 -0.54883850240E+03  0.60690778639E+03  0.12500000000E+03 0.  0.
         25    1    1    2    0    0  0.58192145820E+02  0.85667832063E+02 -0.33460044259E+03  0.37189751204E+03  0.12500000000E+03 0.  0.
         25    1    1    2    0    0 -0.29817591965E+02  0.13946156221E+03 -0.34610639408E+03  0.39465586547E+03  0.12500000000E+03 0.  0.
</event>
<event>
 5    0  0.5771634E-005  0.4914197E+03  0.7546771E-02  0.1016043E+00
         21   -1    0    0  502  501  0.00000000000E+00  0.00000000000E+00  0.40932701976E+03  0.40932701976E+03  0.00000000000E+00 0.  1.
         21   -1    0    0  501  502 -0.00000000000E+00 -0.00000000000E+00 -0.58997659562E+03  0.58997659562E+03  0.00000000000E+00 0.  1.
         25    1    1    2    0    0  0.84603779763E+02 -0.14832559275E+02  0.12003425333E+03  0.19341930188E+03  0.12500000000E+03 0.  0.
         25    1    1    2    0    0 -0.31953191159E+03  0.21638080118E+03 -0.22394336246E+03  0.46335399343E+03  0.12500000000E+03 0.  0.
         25    1    1    2    0    0  0.23492813182E+03 -0.20154824190E+03 -0.76740466731E+02  0.34253032007E+03  0.12500000000E+03 0.  0.
</event>
<event>
 5    0  0.5771634E-005  0.4285085E+03  0.7546771E-02  0.1034332E+00
         21   -1    0    0  502  501  0.00000000000E+00  0.00000000000E+00  0.19319130797E+03  0.19319130797E+03  0.00000000000E+00 0. -1.
         21   -1    0    0  501  502 -0.00000000000E+00 -0.00000000000E+00 -0.95045439498E+03  0.95045439498E+03  0.00000000000E+00 0. -1.
         25    1    1    2    0    0  0.30145880731E+02 -0.87537459491E+01 -0.35800692664E+01  0.12893106332E+03  0.12500000000E+03 0.  0.
         25    1    1    2    0    0 -0.14685106644E+03  0.12195892271E+03 -0.77559328352E+03  0.80846097987E+03  0.12500000000E+03 0.  0.
         25    1    1    2    0    0  0.11670518571E+03 -0.11320517676E+03  0.21910265770E+02  0.20625365976E+03  0.12500000000E+03 0.  0.
</event>
<event>
 5    0  0.5771634E-005  0.2938744E+03  0.7546771E-02  0.1088343E+00
         21   -1    0    0  502  501  0.00000000000E+00  0.00000000000E+00  0.11835860030E+04  0.11835860030E+04  0.00000000000E+00 0. -1.
         21   -1    0    0  501  502 -0.00000000000E+00 -0.00000000000E+00 -0.72966553211E+02  0.72966553211E+02  0.00000000000E+00 0. -1.
         25    1    1    2    0    0 -0.11162763376E+03  0.13242838054E+02  0.57126585105E+03  0.59548784535E+03  0.12500000000E+03 0.  0.
         25    1    1    2    0    0  0.80205402402E+02 -0.85944334116E+02  0.46460128021E+03  0.49527637205E+03  0.12500000000E+03 0.  0.
         25    1    1    2    0    0  0.31422231357E+02  0.72701496062E+02  0.74752318486E+02  0.16578833877E+03  0.12500000000E+03 0.  0.
</event>
<event>
 5    0  0.5771634E-005  0.3249269E+03  0.7546771E-02  0.1073404E+00
         21   -1    0    0  502  501  0.00000000000E+00  0.00000000000E+00  0.21049621733E+03  0.21049621733E+03  0.00000000000E+00 0.  1.
         21   -1    0    0  501  502 -0.00000000000E+00 -0.00000000000E+00 -0.50156482035E+03  0.50156482035E+03  0.00000000000E+00 0.  1.
         25    1    1    2    0    0 -0.19942958433E+03  0.92786954774E+02 -0.13297628738E+03  0.28581335009E+03  0.12500000000E+03 0.  0.
         25    1    1    2    0    0 -0.67874625038E+01 -0.79544818327E+02 -0.96706274323E+02  0.17706086881E+03  0.12500000000E+03 0.  0.
         25    1    1    2    0    0  0.20621704684E+03 -0.13242136447E+02 -0.61386041319E+02  0.24918681878E+03  0.12500000000E+03 0.  0.
</event>
<event>
 5    0  0.5771634E-005  0.4658878E+03  0.7546771E-02  0.1023087E+00
         21   -1    0    0  502  501  0.00000000000E+00  0.00000000000E+00  0.43178885907E+03  0.43178885907E+03  0.00000000000E+00 0.  1.
         21   -1    0    0  501  502 -0.00000000000E+00 -0.00000000000E+00 -0.50267956404E+03  0.50267956404E+03  0.00000000000E+00 0.  1.
         25    1    1    2    0    0  0.27218337319E+02  0.17706833373E+03 -0.16706256003E+03  0.27500714839E+03  0.12500000000E+03 0.  0.
         25    1    1    2    0    0  0.12697653576E+02 -0.94183232967E+02  0.33766770175E+03  0.37239251951E+03  0.12500000000E+03 0.  0.
         25    1    1    2    0    0 -0.39915990895E+02 -0.82885100768E+02 -0.24149584668E+03  0.28706875522E+03  0.12500000000E+03 0.  0.
</event>
<event>
 5    0  0.5771634E-005  0.3822976E+03  0.7546771E-02  0.1050088E+00
         21   -1    0    0  502  501  0.00000000000E+00  0.00000000000E+00  0.12351277230E+04  0.12351277230E+04  0.00000000000E+00 0. -1.
         21   -1    0    0  501  502 -0.00000000000E+00 -0.00000000000E+00 -0.11832901815E+03  0.11832901815E+03  0.00000000000E+00 0. -1.
         25    1    1    2    0    0  0.10240298932E+03 -0.87452809011E+02  0.55024114482E+03  0.58010747580E+03  0.12500000000E+03 0.  0.
         25    1    1    2    0    0 -0.21410168114E+02  0.26548811722E+03  0.32133730428E+03  0.43568910797E+03  0.12500000000E+03 0.  0.
         25    1    1    2    0    0 -0.80992821204E+02 -0.17803530821E+03  0.24522025578E+03  0.33766015741E+03  0.12500000000E+03 0.  0.
</event>
<event>
 5    0  0.5771634E-005  0.3108768E+03  0.7546771E-02  0.1079926E+00
         21   -1    0    0  502  501  0.00000000000E+00  0.00000000000E+00  0.18732120385E+03  0.18732120385E+03  0.00000000000E+00 0.  1.
         21   -1    0    0  501  502 -0.00000000000E+00 -0.00000000000E+00 -0.51592877590E+03  0.51592877590E+03  0.00000000000E+00 0.  1.
         25    1    1    2    0    0 -0.39294581649E+02 -0.18761505986E+02 -0.13945486901E+03  0.19227251167E+03  0.12500000000E+03 0.  0.
         25    1    1    2    0    0 -0.10983488516E+03 -0.13406874350E+02 -0.25348803433E+03  0.30352039441E+03  0.12500000000E+03 0.  0.
         25    1    1    2    0    0  0.14912946681E+03  0.32168380336E+02  0.64335331288E+02  0.20745707367E+03  0.12500000000E+03 0.  0.
</event>
<event>
 5    0  0.5771634E-005  0.2896237E+03  0.7546771E-02  0.1090546E+00
         21   -1    0    0  502  501  0.00000000000E+00  0.00000000000E+00  0.90879958237E+03  0.90879958237E+03  0.00000000000E+00 0.  1.
         21   -1    0    0  501  502 -0.00000000000E+00 -0.00000000000E+00 -0.92299639658E+02  0.92299639658E+02  0.00000000000E+00 0.  1.
         25    1    1    2    0    0  0.21603751460E+02  0.38875957097E+01  0.57232095396E+03  0.58622360053E+03  0.12500000000E+03 0.  0.
         25    1    1    2    0    0 -0.42048859925E+02  0.43695584262E+02  0.37433826339E+01  0.13898353722E+03  0.12500000000E+03 0.  0.
         25    1    1    2    0    0  0.20445108465E+02 -0.47583179972E+02  0.24043560612E+03  0.27589208428E+03  0.12500000000E+03 0.  0.
</event>
<event>
 5    0  0.5771634E-005  0.3360137E+03  0.7546771E-02  0.1068507E+00
         21   -1    0    0  502  501  0.00000000000E+00  0.00000000000E+00  0.85715991949E+02  0.85715991949E+02  0.00000000000E+00 0.  1.
         21   -1    0    0  501  502 -0.00000000000E+00 -0.00000000000E+00 -0.13172012656E+04  0.13172012656E+04  0.00000000000E+00 0.  1.
         25    1    1    2    0    0  0.11327895023E+03 -0.66747195269E+02 -0.23043261186E+03  0.29327716796E+03  0.12500000000E+03 0.  0.
         25    1    1    2    0    0 -0.15785582069E+02 -0.15545563955E+03 -0.34099325487E+03  0.39536949849E+03  0.12500000000E+03 0.  0.
         25    1    1    2    0    0 -0.97493368160E+02  0.22220283482E+03 -0.66005940691E+03  0.71427059108E+03  0.12500000000E+03 0.  0.
</event>
<event>
 5    0  0.5771634E-005  0.2636242E+03  0.7546771E-02  0.1104985E+00
         21   -1    0    0  502  501  0.00000000000E+00  0.00000000000E+00  0.59266084421E+03  0.59266084421E+03  0.00000000000E+00 0. -1.
         21   -1    0    0  501  502 -0.00000000000E+00 -0.00000000000E+00 -0.11726387644E+03  0.11726387644E+03  0.00000000000E+00 0. -1.
         25    1    1    2    0    0 -0.14893050335E+03  0.34859800097E+02  0.14221505269E+03  0.24340423518E+03  0.12500000000E+03 0.  0.
         25    1    1    2    0    0  0.93043634329E+02 -0.88329279080E+02  0.19485956057E+03  0.26467796995E+03  0.12500000000E+03 0.  0.
         25    1    1    2    0    0  0.55886869025E+02  0.53469478983E+02  0.13832235452E+03  0.20184251552E+03  0.12500000000E+03 0.  0.
</event>
<event>
 5    0  0.5771634E-005  0.2173464E+03  0.7546771E-02  0.1135877E+00
         21   -1    0    0  502  501  0.00000000000E+00  0.00000000000E+00  0.20442005458E+02  0.20442005458E+02  0.00000000000E+00 0. -1.
         21   -1    0    0  501  502 -0.00000000000E+00 -0.00000000000E+00 -0.23109023838E+04  0.23109023838E+04  0.00000000000E+00 0. -1.
         25    1    1    2    0    0  0.33332112406E+02 -0.57783323287E+02 -0.84221514634E+03  0.85404993700E+03  0.12500000000E+03 0.  0.
         25    1    1    2    0    0  0.50452342757E+02  0.25562574434E+02 -0.64276304222E+03  0.65724288703E+03  0.12500000000E+03 0.  0.
         25    1    1    2    0    0 -0.83784455163E+02  0.32220748853E+02 -0.80548218977E+03  0.82005156522E+03  0.12500000000E+03 0.  0.
</event>
<event>
 5    0  0.5771634E-005  0.4070602E+03  0.7546771E-02  0.1041362E+00
         21   -1    0    0  502  501  0.00000000000E+00  0.00000000000E+00  0.97429499760E+03  0.97429499760E+03  0.00000000000E+00 0.  1.
         21   -1    0    0  501  502 -0.00000000000E+00 -0.00000000000E+00 -0.17006967763E+03  0.17006967763E+03  0.00000000000E+00 0.  1.
         25    1    1    2    0    0 -0.15944992625E+03 -0.14843092812E+03  0.54748200792E+03  0.60234339740E+03  0.12500000000E+03 0.  0.
         25    1    1    2    0    0  0.43111836894E+02  0.23991574726E+03  0.20306946901E+03  0.34099912831E+03  0.12500000000E+03 0.  0.
         25    1    1    2    0    0  0.11633808936E+03 -0.91484819140E+02  0.53673843037E+02  0.20102214952E+03  0.12500000000E+03 0.  0.
</event>
<event>
 5    0  0.5771634E-005  0.2976903E+03  0.7546771E-02  0.1086401E+00
         21   -1    0    0  502  501  0.00000000000E+00  0.00000000000E+00  0.50130808811E+02  0.50130808811E+02  0.00000000000E+00 0. -1.
         21   -1    0    0  501  502 -0.00000000000E+00 -0.00000000000E+00 -0.17677657291E+04  0.17677657291E+04  0.00000000000E+00 0. -1.
         25    1    1    2    0    0  0.57013448645E+02  0.10141591147E+02 -0.10151678169E+04  0.10244725871E+04  0.12500000000E+03 0.  0.
         25    1    1    2    0    0 -0.12141383592E+03 -0.10067117119E+03 -0.40151683464E+03  0.44912890440E+03  0.12500000000E+03 0.  0.
         25    1    1    2    0    0  0.64400387277E+02  0.90529580045E+02 -0.30095026875E+03  0.34429504644E+03  0.12500000000E+03 0.  0.
</event>
<event>
 5    0  0.5771634E-005  0.2445054E+03  0.7546771E-02  0.1116827E+00
         21   -1    0    0  502  501  0.00000000000E+00  0.00000000000E+00  0.20516597262E+03  0.20516597262E+03  0.00000000000E+00 0.  1.
         21   -1    0    0  501  502 -0.00000000000E+00 -0.00000000000E+00 -0.29138792456E+03  0.29138792456E+03  0.00000000000E+00 0.  1.
         25    1    1    2    0    0 -0.13162589070E+03  0.66887512104E+02 -0.64898363228E+02  0.20404928799E+03  0.12500000000E+03 0.  0.
         25    1    1    2    0    0  0.58115490099E+02 -0.39650325223E+02 -0.10812329971E+00  0.14343838458E+03  0.12500000000E+03 0.  0.
         25    1    1    2    0    0  0.73510400602E+02 -0.27237186881E+02 -0.21215465413E+02  0.14906622461E+03  0.12500000000E+03 0.  0.
</event>
<event>
 5    0  0.5771634E-005  0.3319191E+03  0.7546771E-02  0.1070291E+00
         21   -1    0    0  502  501  0.00000000000E+00  0.00000000000E+00  0.38162120854E+03  0.38162120854E+03  0.00000000000E+00 0. -1.
         21   -1    0    0  501  502 -0.00000000000E+00 -0.00000000000E+00 -0.28869009841E+03  0.28869009841E+03  0.00000000000E+00 0. -1.
         25    1    1    2    0    0  0.11432480414E+03  0.27025916687E+02 -0.16381366908E+03  0.23719291556E+03  0.12500000000E+03 0.  0.
         25    1    1    2    0    0  0.39786274483E+02  0.18884471435E+02  0.46642975945E+02  0.14049960179E+03  0.12500000000E+03 0.  0.
         25    1    1    2    0    0 -0.15411107862E+03 -0.45910388123E+02  0.21010180327E+03  0.29261878960E+03  0.12500000000E+03 0.  0.
</event>
<event>
 5    0  0.5771634E-005  0.2983789E+03  0.7546771E-02  0.1086054E+00
         21   -1    0    0  502  501  0.00000000000E+00  0.00000000000E+00  0.16198938856E+03  0.16198938856E+03  0.00000000000E+00 0.  1.
         21   -1    0    0  501  502 -0.00000000000E+00 -0.00000000000E+00 -0.54960365343E+03  0.54960365343E+03  0.00000000000E+00 0.  1.
         25    1    1    2    0    0  0.70746439185E+01 -0.31110224057E+02 -0.31558483332E+02  0.13281127399E+03  0.12500000000E+03 0.  0.
         25    1    1    2    0    0  0.14593270262E+03  0.12611150092E+03 -0.13078249429E+03  0.26444191266E+03  0.12500000000E+03 0.  0.
         25    1    1    2    0    0 -0.15300734654E+03 -0.95001276867E+02 -0.22527328725E+03  0.31433985534E+03  0.12500000000E+03 0.  0.
</event>
<event>
 5    0  0.5771634E-005  0.4268980E+03  0.7546771E-02  0.1034844E+00
         21   -1    0    0  502  501  0.00000000000E+00  0.00000000000E+00  0.44241835685E+03  0.44241835685E+03  0.00000000000E+00 0.  1.
         21   -1    0    0  501  502 -0.00000000000E+00 -0.00000000000E+00 -0.41192216763E+03  0.41192216763E+03  0.00000000000E+00 0.  1.
         25    1    1    2    0    0 -0.49969738447E+02 -0.15463250426E+03 -0.13058244305E+03  0.24307398168E+03  0.12500000000E+03 0.  0.
         25    1    1    2    0    0  0.77837007095E+02  0.29790816111E+02  0.33166736874E+03  0.36410758834E+03  0.12500000000E+03 0.  0.
         25    1    1    2    0    0 -0.27867268647E+02  0.12484168815E+03 -0.17058873647E+03  0.24715895447E+03  0.12500000000E+03 0.  0.
</event>
<event>
 5    0  0.5771634E-005  0.4070158E+03  0.7546771E-02  0.1041377E+00
         21   -1    0    0  502  501  0.00000000000E+00  0.00000000000E+00  0.16832196535E+04  0.16832196535E+04  0.00000000000E+00 0. -1.
         21   -1    0    0  501  502 -0.00000000000E+00 -0.00000000000E+00 -0.98419632194E+02  0.98419632194E+02  0.00000000000E+00 0. -1.
         25    1    1    2    0    0  0.13291030037E+03 -0.17003154282E+03  0.11530243228E+04  0.11796889261E+04  0.12500000000E+03 0.  0.
         25    1    1    2    0    0 -0.14295440643E+03  0.21200725880E+03  0.32477797401E+03  0.43184345833E+03  0.12500000000E+03 0.  0.
         25    1    1    2    0    0  0.10044106057E+02 -0.41975715988E+02  0.10699772454E+03  0.17010690126E+03  0.12500000000E+03 0.  0.
</event>
<event>
 5    0  0.5771634E-005  0.2908972E+03  0.7546771E-02  0.1089882E+00
         21   -1    0    0  502  501  0.00000000000E+00  0.00000000000E+00  0.89466666534E+02  0.89466666534E+02  0.00000000000E+00 0.  1.
         21   -1    0    0  501  502 -0.00000000000E+00 -0.00000000000E+00 -0.94584044536E+03  0.94584044536E+03  0.00000000000E+00 0.  1.
         25    1    1    2    0    0 -0.20079216351E+02 -0.53760403721E+02 -0.40760979337E+03  0.43019077116E+03  0.12500000000E+03 0.  0.
         25    1    1    2    0    0  0.43271071350E+02  0.49101887328E+01  0.38807673424E+01  0.13242566188E+03  0.12500000000E+03 0.  0.
         25    1    1    2    0    0 -0.23191854999E+02  0.48850214989E+02 -0.45264475280E+03  0.47269067886E+03  0.12500000000E+03 0.  0.
</event>
<event>
 5    0  0.5771634E-005  0.2776794E+03  0.7546771E-02  0.1096963E+00
         21   -1    0    0  502  501  0.00000000000E+00  0.00000000000E+00  0.21874899134E+03  0.21874899134E+03  0.00000000000E+00 0. -1.
         21   -1    0    0  501  502 -0.00000000000E+00 -0.00000000000E+00 -0.35248550016E+03  0.35248550016E+03  0.00000000000E+00 0. -1.
         25    1    1    2    0    0  0.54156608605E+02  0.99904048748E+02 -0.92721112840E+01  0.16918844304E+03  0.12500000000E+03 0.  0.
         25    1    1    2    0    0  0.25905594572E+02 -0.16772428667E+03 -0.28432360828E+02  0.21268741221E+03  0.12500000000E+03 0.  0.
         25    1    1    2    0    0 -0.80062203177E+02  0.67820237927E+02 -0.96032036708E+02  0.18935863625E+03  0.12500000000E+03 0.  0.
</event>
<event>
 5    0  0.5771634E-005  0.3202051E+03  0.7546771E-02  0.1075555E+00
         21   -1    0    0  502  501  0.00000000000E+00  0.00000000000E+00  0.16512308247E+03  0.16512308247E+03  0.00000000000E+00 0. -1.
         21   -1    0    0  501  502 -0.00000000000E+00 -0.00000000000E+00 -0.62093873064E+03  0.62093873064E+03  0.00000000000E+00 0. -1.
         25    1    1    2    0    0  0.81411331680E+02  0.65154550681E+02 -0.18692915467E+03  0.24787180006E+03  0.12500000000E+03 0.  0.
         25    1    1    2    0    0  0.28847932741E+02 -0.20655238682E+03 -0.17863448767E+03  0.30171405653E+03  0.12500000000E+03 0.  0.
         25    1    1    2    0    0 -0.11025926442E+03  0.14139783614E+03 -0.90252005838E+02  0.23647595652E+03  0.12500000000E+03 0.  0.
</event>
<event>
 5    0  0.6341588E-005  0.2776348E+03  0.7546771E-02  0.1096988E+00
         21   -1    0    0  502  501  0.00000000000E+00  0.00000000000E+00  0.17452890123E+03  0.17452890123E+03  0.00000000000E+00 0.  1.
         21   -1    0    0  501  502 -0.00000000000E+00 -0.00000000000E+00 -0.44165217149E+03  0.44165217149E+03  0.00000000000E+00 0.  1.
         25    1    1    2    0    0 -0.44263510007E+02 -0.64902722914E+02  0.28783701342E+02  0.15041649917E+03  0.12500000000E+03 0.  0.
         25    1    1    2    0    0  0.11626208309E+03 -0.36905045733E+02 -0.96934686965E+02  0.19975031390E+03  0.12500000000E+03 0.  0.
         25    1    1    2    0    0 -0.71998573080E+02  0.10180776865E+03 -0.19897228464E+03  0.26601425965E+03  0.12500000000E+03 0.  0.
</event>
<event>
 5    0  0.5771634E-005  0.3043566E+03  0.7546771E-02  0.1083083E+00
         21   -1    0    0  502  501  0.00000000000E+00  0.00000000000E+00  0.26213234188E+03  0.26213234188E+03  0.00000000000E+00 0. -1.
         21   -1    0    0  501  502 -0.00000000000E+00 -0.00000000000E+00 -0.35338228154E+03  0.35338228154E+03  0.00000000000E+00 0. -1.
         25    1    1    2    0    0  0.25401383761E+02  0.15321087030E+03 -0.12916085086E+03  0.23754226249E+03  0.12500000000E+03 0.  0.
         25    1    1    2    0    0  0.84719553577E-02 -0.62335742933E+02 -0.97980291574E+02  0.17061911515E+03  0.12500000000E+03 0.  0.
         25    1    1    2    0    0 -0.25409855716E+02 -0.90875127362E+02  0.13589120278E+03  0.20735324578E+03  0.12500000000E+03 0.  0.
</event>
<event>
 5    0  0.5771634E-005  0.5519992E+03  0.7546771E-02  0.1001032E+00
         21   -1    0    0  502  501  0.00000000000E+00  0.00000000000E+00  0.39851760703E+03  0.39851760703E+03  0.00000000000E+00 0.  1.
         21   -1    0    0  501  502 -0.00000000000E+00 -0.00000000000E+00 -0.76459128837E+03  0.76459128837E+03  0.00000000000E+00 0.  1.
         25    1    1    2    0    0 -0.47005978949E+02 -0.33885861038E+02 -0.14961742381E+02  0.13858812132E+03  0.12500000000E+03 0.  0.
         25    1    1    2    0    0  0.33500757010E+03  0.13437846903E+03  0.16177589457E+03  0.41483018818E+03  0.12500000000E+03 0.  0.
         25    1    1    2    0    0 -0.28800159115E+03 -0.10049260799E+03 -0.51288783352E+03  0.60969058590E+03  0.12500000000E+03 0.  0.
</event>
<event>
 5    0  0.5771634E-005  0.2789555E+03  0.7546771E-02  0.1096261E+00
         21   -1    0    0  502  501  0.00000000000E+00  0.00000000000E+00  0.11594634685E+04  0.11594634685E+04  0.00000000000E+00 0. -1.
         21   -1    0    0  501  502 -0.00000000000E+00 -0.00000000000E+00 -0.67113955087E+02  0.67113955087E+02  0.00000000000E+00 0. -1.
         25    1    1    2    0    0  0.14664088947E+03  0.97810318762E+01  0.23691729000E+03  0.30553890317E+03  0.12500000000E+03 0.  0.
         25    1    1    2    0    0 -0.88516022271E+02 -0.75026229651E+02  0.59773742287E+03  0.62159395753E+03  0.12500000000E+03 0.  0.
         25    1    1    2    0    0 -0.58124867196E+02  0.65245197775E+02  0.25769480054E+03  0.29944456289E+03  0.12500000000E+03 0.  0.
</event>
<event>
 5    0  0.5771634E-005  0.2552351E+03  0.7546771E-02  0.1110040E+00
         21   -1    0    0  502  501  0.00000000000E+00  0.00000000000E+00  0.20495433012E+03  0.20495433012E+03  0.00000000000E+00 0.  1.
         21   -1    0    0  501  502 -0.00000000000E+00 -0.00000000000E+00 -0.31785112884E+03  0.31785112884E+03  0.00000000000E+00 0.  1.
         25    1    1    2    0    0  0.34953773102E+02 -0.86750865451E+02 -0.11953142673E+02  0.15657380538E+03  0.12500000000E+03 0.  0.
         25    1    1    2    0    0 -0.13217030346E+03  0.45392949715E+02 -0.40939351207E+02  0.19191284344E+03  0.12500000000E+03 0.  0.
         25    1    1    2    0    0  0.97216530362E+02  0.41357915736E+02 -0.60004304833E+02  0.17431881014E+03  0.12500000000E+03 0.  0.
</event>
<event>
 5    0  0.5771634E-005  0.3727759E+03  0.7546771E-02  0.1053637E+00
         21   -1    0    0  502  501  0.00000000000E+00  0.00000000000E+00  0.20609778347E+03  0.20609778347E+03  0.00000000000E+00 0.  1.
         21   -1    0    0  501  502 -0.00000000000E+00 -0.00000000000E+00 -0.67425219007E+03  0.67425219007E+03  0.00000000000E+00 0.  1.
         25    1    1    2    0    0 -0.12398342137E+03 -0.39755791773E+02 -0.23033701929E+03  0.29263040547E+03  0.12500000000E+03 0.  0.
         25    1    1    2    0    0  0.26560638079E+03 -0.21188624699E+02 -0.25374509138E+03  0.38859655008E+03  0.12500000000E+03 0.  0.
         25    1    1    2    0    0 -0.14162295942E+03  0.60944416472E+02  0.15927704068E+02  0.19912301798E+03  0.12500000000E+03 0.  0.
</event>
<event>
 5    0  0.5771634E-005  0.4427618E+03  0.7546771E-02  0.1029903E+00
         21   -1    0    0  502  501  0.00000000000E+00  0.00000000000E+00  0.13365963349E+04  0.13365963349E+04  0.00000000000E+00 0.  1.
         21   -1    0    0  501  502 -0.00000000000E+00 -0.00000000000E+00 -0.14666960420E+03  0.14666960420E+03  0.00000000000E+00 0.  1.
         25    1    1    2    0    0  0.15487463017E+03  0.18442517011E+03  0.92400080791E+03  0.96301676385E+03  0.12500000000E+03 0.  0.
         25    1    1    2    0    0 -0.17214177673E+03 -0.49389007342E+02  0.29840942653E+02  0.22042583151E+03  0.12500000000E+03 0.  0.
         25    1    1    2    0    0  0.17267146559E+02 -0.13503616276E+03  0.23608498018E+03  0.29982334377E+03  0.12500000000E+03 0.  0.
</event>
<event>
 5    0  0.5771634E-005  0.4191171E+03  0.7546771E-02  0.1037354E+00
         21   -1    0    0  502  501  0.00000000000E+00  0.00000000000E+00  0.78327714323E+03  0.78327714323E+03  0.00000000000E+00 0. -1.
         21   -1    0    0  501  502 -0.00000000000E+00 -0.00000000000E+00 -0.22426180106E+03  0.22426180106E+03  0.00000000000E+00 0. -1.
         25    1    1    2    0    0  0.85812034611E+02  0.10284345025E+03  0.78171410879E+01  0.18337553882E+03  0.12500000000E+03 0.  0.
         25    1    1    2    0    0 -0.15570429267E+03 -0.56761469298E+02  0.62357206145E+03  0.65721595155E+03  0.12500000000E+03 0.  0.
         25    1    1    2    0    0  0.69892258062E+02 -0.46081980952E+02 -0.72373860365E+02  0.16694745392E+03  0.12500000000E+03 0.  0.
</event>
<event>
 5    0  0.5771634E-005  0.2619446E+03  0.7546771E-02  0.1105980E+00
         21   -1    0    0  502  501  0.00000000000E+00  0.00000000000E+00  0.66231082018E+03  0.66231082018E+03  0.00000000000E+00 0.  1.
         21   -1    0    0  501  502 -0.00000000000E+00 -0.00000000000E+00 -0.10359936652E+03  0.10359936652E+03  0.00000000000E+00 0.  1.
         25    1    1    2    0    0  0.10843022766E+03 -0.12487566350E+03  0.21501341584E+03  0.29867509872E+03  0.12500000000E+03 0.  0.
         25    1    1    2    0    0 -0.79143412260E+02  0.29173164675E+02  0.21054670729E+03  0.25897812493E+03  0.12500000000E+03 0.  0.
         25    1    1    2    0    0 -0.29286815400E+02  0.95702498825E+02  0.13315133052E+03  0.20825696305E+03  0.12500000000E+03 0.  0.
</event>
<event>
 5    0  0.5771634E-005  0.4942452E+03  0.7546771E-02  0.1015292E+00
         21   -1    0    0  502  501  0.00000000000E+00  0.00000000000E+00  0.24868297621E+03  0.24868297621E+03  0.00000000000E+00 0.  1.
         21   -1    0    0  501  502 -0.00000000000E+00 -0.00000000000E+00 -0.98228812815E+03  0.98228812815E+03  0.00000000000E+00 0.  1.
         25    1    1    2    0    0  0.57662088143E+02 -0.15444903306E+03  0.61573524633E+02  0.21586041592E+03  0.12500000000E+03 0.  0.
         25    1    1    2    0    0 -0.19869283366E+03  0.12698268996E+03 -0.77961481321E+03  0.82403137238E+03  0.12500000000E+03 0.  0.
         25    1    1    2    0    0  0.14103074552E+03  0.27466343103E+02 -0.15563863369E+02  0.19107931606E+03  0.12500000000E+03 0.  0.
</event>
<event>
 5    0  0.5771634E-005  0.3648410E+03  0.7546771E-02  0.1056683E+00
         21   -1    0    0  502  501  0.00000000000E+00  0.00000000000E+00  0.19511694484E+03  0.19511694484E+03  0.00000000000E+00 0.  1.
         21   -1    0    0  501  502 -0.00000000000E+00 -0.00000000000E+00 -0.68220087245E+03  0.68220087245E+03  0.00000000000E+00 0.  1.
         25    1    1    2    0    0 -0.10352786751E+03 -0.22647706093E+03 -0.35196071690E+03  0.44890001639E+03  0.12500000000E+03 0.  0.
         25    1    1    2    0    0  0.78372332245E+02  0.18808736091E+03 -0.16686487942E+03  0.29152695549E+03  0.12500000000E+03 0.  0.
         25    1    1    2    0    0  0.25155535261E+02  0.38389700022E+02  0.31741668709E+02  0.13689084540E+03  0.12500000000E+03 0.  0.
</event>
<event>
 5    0  0.5771634E-005  0.3806162E+03  0.7546771E-02  0.1050706E+00
         21   -1    0    0  502  501  0.00000000000E+00  0.00000000000E+00  0.88437199183E+02  0.88437199183E+02  0.00000000000E+00 0. -1.
         21   -1    0    0  501  502 -0.00000000000E+00 -0.00000000000E+00 -0.16380972111E+04  0.16380972111E+04  0.00000000000E+00 0. -1.
         25    1    1    2    0    0  0.67594398116E+02  0.12111264414E+03 -0.38824937434E+03  0.43081301269E+03  0.12500000000E+03 0.  0.
         25    1    1    2    0    0  0.16960255188E+03 -0.46832799616E+02 -0.85511139191E+03  0.88192903870E+03  0.12500000000E+03 0.  0.
         25    1    1    2    0    0 -0.23719695000E+03 -0.74279844528E+02 -0.30629924571E+03  0.41379235894E+03  0.12500000000E+03 0.  0.
</event>
<event>
 5    0  0.5771634E-005  0.2539081E+03  0.7546771E-02  0.1110860E+00
         21   -1    0    0  502  501  0.00000000000E+00  0.00000000000E+00  0.83041140882E+02  0.83041140882E+02  0.00000000000E+00 0.  1.
         21   -1    0    0  501  502 -0.00000000000E+00 -0.00000000000E+00 -0.77635404881E+03  0.77635404881E+03  0.00000000000E+00 0.  1.
         25    1    1    2    0    0  0.27007348370E+02  0.69109081001E+02 -0.13518415342E+03  0.19850747411E+03  0.12500000000E+03 0.  0.
         25    1    1    2    0    0 -0.55480580982E+01  0.52802255162E+02 -0.40668082994E+03  0.42875768977E+03  0.12500000000E+03 0.  0.
         25    1    1    2    0    0 -0.21459290272E+02 -0.12191133616E+03 -0.15144792457E+03  0.23213002580E+03  0.12500000000E+03 0.  0.
</event>
<event>
 5    0  0.5771634E-005  0.4021528E+03  0.7546771E-02  0.1043037E+00
         21   -1    0    0  502  501  0.00000000000E+00  0.00000000000E+00  0.47163806067E+02  0.47163806067E+02  0.00000000000E+00 0.  1.
         21   -1    0    0  501  502 -0.00000000000E+00 -0.00000000000E+00 -0.34290457617E+04  0.34290457617E+04  0.00000000000E+00 0.  1.
         25    1    1    2    0    0  0.16820781074E+03  0.28575071346E+02 -0.22963292833E+04  0.23060493445E+04  0.12500000000E+03 0.  0.
         25    1    1    2    0    0 -0.90773114112E+02  0.13423385117E+03 -0.38434959444E+03  0.43544011735E+03  0.12500000000E+03 0.  0.
         25    1    1    2    0    0 -0.77434696629E+02 -0.16280892251E+03 -0.70120307796E+03  0.73472010591E+03  0.12500000000E+03 0.  0.
</event>
<event>
 5    0  0.5771634E-005  0.3925302E+03  0.7546771E-02  0.1046397E+00
         21   -1    0    0  502  501  0.00000000000E+00  0.00000000000E+00  0.40062056363E+03  0.40062056363E+03  0.00000000000E+00 0. -1.
         21   -1    0    0  501  502 -0.00000000000E+00 -0.00000000000E+00 -0.38460329249E+03  0.38460329249E+03  0.00000000000E+00 0. -1.
         25    1    1    2    0    0  0.19303180683E+03 -0.11888645448E+03 -0.75314065807E+02  0.26961542244E+03  0.12500000000E+03 0.  0.
         25    1    1    2    0    0 -0.73181065925E+02  0.25087777164E+03  0.49611870498E+02  0.29390723435E+03  0.12500000000E+03 0.  0.
         25    1    1    2    0    0 -0.11985074091E+03 -0.13199131715E+03  0.41719466451E+02  0.22170119932E+03  0.12500000000E+03 0.  0.
</event>
<event>
 5    0  0.5771634E-005  0.2370974E+03  0.7546771E-02  0.1121742E+00
         21   -1    0    0  502  501  0.00000000000E+00  0.00000000000E+00  0.17320612637E+04  0.17320612637E+04  0.00000000000E+00 0. -1.
         21   -1    0    0  501  502 -0.00000000000E+00 -0.00000000000E+00 -0.32455659980E+02  0.32455659980E+02  0.00000000000E+00 0. -1.
         25    1    1    2    0    0  0.54148048335E+02 -0.43632757293E+02  0.10627051465E+04  0.10722887004E+04  0.12500000000E+03 0.  0.
         25    1    1    2    0    0 -0.11704252660E+02  0.56139659331E+02  0.35465034258E+03  0.38038206631E+03  0.12500000000E+03 0.  0.
         25    1    1    2    0    0 -0.42443795676E+02 -0.12506902038E+02  0.28225011464E+03  0.31184615695E+03  0.12500000000E+03 0.  0.
</event>
<event>
 5    0  0.5771634E-005  0.3726366E+03  0.7546771E-02  0.1053689E+00
         21   -1    0    0  502  501  0.00000000000E+00  0.00000000000E+00  0.28348972305E+03  0.28348972305E+03  0.00000000000E+00 0. -1.
         21   -1    0    0  501  502 -0.00000000000E+00 -0.00000000000E+00 -0.48981672906E+03  0.48981672906E+03  0.00000000000E+00 0. -1.
         25    1    1    2    0    0  0.26532651148E+03 -0.82046793590E+02  0.56766214876E+02  0.30980193218E+03  0.12500000000E+03 0.  0.
         25    1    1    2    0    0 -0.10546909858E+03  0.68297778065E+02 -0.13902382018E+03  0.22525749670E+03  0.12500000000E+03 0.  0.
         25    1    1    2    0    0 -0.15985741290E+03  0.13749015525E+02 -0.12406940071E+03  0.23824702323E+03  0.12500000000E+03 0.  0.
</event>
<event>
 5    0  0.5771634E-005  0.4181274E+03  0.7546771E-02  0.1037678E+00
         21   -1    0    0  502  501  0.00000000000E+00  0.00000000000E+00  0.40806738133E+03  0.40806738133E+03  0.00000000000E+00 0. -1.
         21   -1    0    0  501  502 -0.00000000000E+00 -0.00000000000E+00 -0.42843532714E+03  0.42843532714E+03  0.00000000000E+00 0. -1.
         25    1    1    2    0    0  0.80905627895E+01  0.54055528881E+02  0.15426996233E+03  0.20594095922E+03  0.12500000000E+03 0.  0.
         25    1    1    2    0    0 -0.22428741492E+03 -0.14619923611E+03  0.26885374083E+02  0.29669324979E+03  0.12500000000E+03 0.  0.
         25    1    1    2    0    0  0.21619685213E+03  0.92143707229E+02 -0.20152328223E+03  0.33386849946E+03  0.12500000000E+03 0.  0.
</event>
<event>
 5    0  0.5771634E-005  0.3263447E+03  0.7546771E-02  0.1072766E+00
         21   -1    0    0  502  501  0.00000000000E+00  0.00000000000E+00  0.11458955959E+04  0.11458955959E+04  0.00000000000E+00 0. -1.
         21   -1    0    0  501  502 -0.00000000000E+00 -0.00000000000E+00 -0.92941174580E+02  0.92941174580E+02  0.00000000000E+00 0. -1.
         25    1    1    2    0    0  0.12576278796E+03  0.12568186036E+03  0.66353157614E+03  0.69822013821E+03  0.12500000000E+03 0.  0.
         25    1    1    2    0    0 -0.50286826760E+02 -0.17474904455E+03  0.21890664830E+03  0.31082328450E+03  0.12500000000E+03 0.  0.
         25    1    1    2    0    0 -0.75475961204E+02  0.49067184190E+02  0.17051619688E+03  0.22979334778E+03  0.12500000000E+03 0.  0.
</event>
<event>
 5    0  0.5771634E-005  0.3167970E+03  0.7546771E-02  0.1077133E+00
         21   -1    0    0  502  501  0.00000000000E+00  0.00000000000E+00  0.20469334453E+04  0.20469334453E+04  0.00000000000E+00 0.  1.
         21   -1    0    0  501  502 -0.00000000000E+00 -0.00000000000E+00 -0.49029606586E+02  0.49029606586E+02  0.00000000000E+00 0.  1.
         25    1    1    2    0    0 -0.66678418705E+02 -0.13278474719E+03  0.37451641150E+03  0.42185938782E+03  0.12500000000E+03 0.  0.
         25    1    1    2    0    0  0.85188051508E+02  0.38922902479E+02  0.13470740279E+04  0.13560993449E+04  0.12500000000E+03 0.  0.
         25    1    1    2    0    0 -0.18509632803E+02  0.93861844713E+02  0.27631339928E+03  0.31800431919E+03  0.12500000000E+03 0.  0.
</event>
<event>
 5    0  0.5771634E-005  0.2131255E+03  0.7546771E-02  0.1139115E+00
         21   -1    0    0  502  501  0.00000000000E+00  0.00000000000E+00  0.44402155674E+03  0.44402155674E+03  0.00000000000E+00 0.  1.
         21   -1    0    0  501  502 -0.00000000000E+00 -0.00000000000E+00 -0.10229794805E+03  0.10229794805E+03  0.00000000000E+00 0.  1.
         25    1    1    2    0    0 -0.21748570229E+02  0.70290711623E+02  0.54091510087E+02  0.15480528386E+03  0.12500000000E+03 0.  0.
         25    1    1    2    0    0  0.12203299890E+02 -0.30657543863E+02  0.17989644899E+03  0.22153225021E+03  0.12500000000E+03 0.  0.
         25    1    1    2    0    0  0.95452703389E+01 -0.39633167759E+02  0.10773564962E+03  0.16998197072E+03  0.12500000000E+03 0.  0.
</event>
<event>
 5    0  0.5771634E-005  0.4658023E+03  0.7546771E-02  0.1023112E+00
         21   -1    0    0  502  501  0.00000000000E+00  0.00000000000E+00  0.49922320900E+03  0.49922320900E+03  0.00000000000E+00 0. -1.
         21   -1    0    0  501  502 -0.00000000000E+00 -0.00000000000E+00 -0.43461880622E+03  0.43461880622E+03  0.00000000000E+00 0. -1.
         25    1    1    2    0    0  0.33621396048E+02 -0.11738552536E+02 -0.95278551280E+02  0.16115580729E+03  0.12500000000E+03 0.  0.
         25    1    1    2    0    0 -0.25153392585E+03 -0.13612392813E+02 -0.19133241534E+03  0.34012895533E+03  0.12500000000E+03 0.  0.
         25    1    1    2    0    0  0.21791252981E+03  0.25350945349E+02  0.35121536940E+03  0.43255725261E+03  0.12500000000E+03 0.  0.
</event>
<event>
 5    0  0.5771634E-005  0.3889735E+03  0.7546771E-02  0.1047666E+00
         21   -1    0    0  502  501  0.00000000000E+00  0.00000000000E+00  0.20167440407E+04  0.20167440407E+04  0.00000000000E+00 0. -1.
         21   -1    0    0  501  502 -0.00000000000E+00 -0.00000000000E+00 -0.75022123051E+02  0.75022123051E+02  0.00000000000E+00 0. -1.
         25    1    1    2    0    0 -0.49391569279E+02 -0.19581231174E+03  0.95506930185E+03  0.98415667446E+03  0.12500000000E+03 0.  0.
         25    1    1    2    0    0  0.21601224608E+03  0.14541452600E+03  0.55289224295E+03  0.62379604611E+03  0.12500000000E+03 0.  0.
         25    1    1    2    0    0 -0.16662067680E+03  0.50397785745E+02  0.43376037282E+03  0.48381344315E+03  0.12500000000E+03 0.  0.
</event>
<event>
 5    0  0.5771634E-005  0.2863575E+03  0.7546771E-02  0.1092266E+00
         21   -1    0    0  502  501  0.00000000000E+00  0.00000000000E+00  0.45988436046E+03  0.45988436046E+03  0.00000000000E+00 0.  1.
         21   -1    0    0  501  502 -0.00000000000E+00 -0.00000000000E+00 -0.17830697690E+03  0.17830697690E+03  0.00000000000E+00 0.  1.
         25    1    1    2    0    0  0.15566932189E+03 -0.15742672368E+01  0.29025125265E+02  0.20174953282E+03  0.12500000000E+03 0.  0.
         25    1    1    2    0    0 -0.73244286593E+02 -0.27281601395E+00  0.24018774817E+01  0.14489847812E+03  0.12500000000E+03 0.  0.
         25    1    1    2    0    0 -0.82425035296E+02  0.18470832507E+01  0.25015038081E+03  0.29154332642E+03  0.12500000000E+03 0.  0.
</event>
<event>
 5    0  0.5771634E-005  0.2114388E+03  0.7546771E-02  0.1140432E+00
         21   -1    0    0  502  501  0.00000000000E+00  0.00000000000E+00  0.18142903548E+03  0.18142903548E+03  0.00000000000E+00 0. -1.
         21   -1    0    0  501  502 -0.00000000000E+00 -0.00000000000E+00 -0.24641238073E+03  0.24641238073E+03  0.00000000000E+00 0. -1.
         25    1    1    2    0    0  0.21757251494E+02 -0.40380497683E+02 -0.80455176048E+02  0.15556991335E+03  0.12500000000E+03 0.  0.
         25    1    1    2    0    0 -0.58820671472E+02  0.18211404388E+02  0.22444496925E+01  0.13936127223E+03  0.12500000000E+03 0.  0.
         25    1    1    2    0    0  0.37063419978E+02  0.22169093295E+02  0.13227381103E+02  0.13291023064E+03  0.12500000000E+03 0.  0.
</event>
<event>
 5    0  0.5771634E-005  0.3661192E+03  0.7546771E-02  0.1056187E+00
         21   -1    0    0  502  501  0.00000000000E+00  0.00000000000E+00  0.10763148109E+04  0.10763148109E+04  0.00000000000E+00 0. -1.
         21   -1    0    0  501  502 -0.00000000000E+00 -0.00000000000E+00 -0.12453907820E+03  0.12453907820E+03  0.00000000000E+00 0. -1.
         25    1    1    2    0    0  0.70115721026E+02 -0.41103838840E+02  0.12176656139E+03  0.19250411781E+03  0.12500000000E+03 0.  0.
         25    1    1    2    0    0 -0.21863979833E+03 -0.13517064273E+03  0.57727767781E+03  0.64416533698E+03  0.12500000000E+03 0.  0.
         25    1    1    2    0    0  0.14852407731E+03  0.17627448157E+03  0.25273149352E+03  0.36418443433E+03  0.12500000000E+03 0.  0.
</event>
<event>
 5    0  0.6095942E-005  0.2873992E+03  0.7546771E-02  0.1091715E+00
         21   -1    0    0  502  501  0.00000000000E+00  0.00000000000E+00  0.36057804538E+03  0.36057804538E+03  0.00000000000E+00 0. -1.
         21   -1    0    0  501  502 -0.00000000000E+00 -0.00000000000E+00 -0.22907189655E+03  0.22907189655E+03  0.00000000000E+00 0. -1.
         25    1    1    2    0    0 -0.12172952950E+03 -0.11986638237E+02  0.99609093604E+02  0.20126780512E+03  0.12500000000E+03 0.  0.
         25    1    1    2    0    0 -0.28758763518E+02 -0.12864315685E+02  0.11654174346E+03  0.17378013427E+03  0.12500000000E+03 0.  0.
         25    1    1    2    0    0  0.15048829302E+03  0.24850953922E+02 -0.84644688243E+02  0.21460200254E+03  0.12500000000E+03 0.  0.
</event>
<event>
 5    0  0.5771634E-005  0.3349271E+03  0.7546771E-02  0.1068977E+00
         21   -1    0    0  502  501  0.00000000000E+00  0.00000000000E+00  0.53923960665E+03  0.53923960665E+03  0.00000000000E+00 0. -1.
         21   -1    0    0  501  502 -0.00000000000E+00 -0.00000000000E+00 -0.20802656753E+03  0.20802656753E+03  0.00000000000E+00 0. -1.
         25    1    1    2    0    0 -0.22116369809E+03 -0.93590351878E+02  0.59883550040E+02  0.27727887565E+03  0.12500000000E+03 0.  0.
         25    1    1    2    0    0  0.71567069518E+02  0.77369675905E+02  0.20758516106E+03  0.26424328049E+03  0.12500000000E+03 0.  0.
         25    1    1    2    0    0  0.14959662857E+03  0.16220675973E+02  0.63744328016E+02  0.20574401805E+03  0.12500000000E+03 0.  0.
</event>
<event>
 5    0  0.5771634E-005  0.3142732E+03  0.7546771E-02  0.1078316E+00
         21   -1    0    0  502  501  0.00000000000E+00  0.00000000000E+00  0.58860999726E+03  0.58860999726E+03  0.00000000000E+00 0. -1.
         21   -1    0    0  501  502 -0.00000000000E+00 -0.00000000000E+00 -0.16779812467E+03  0.16779812467E+03  0.00000000000E+00 0. -1.
         25    1    1    2    0    0 -0.22973736210E+02  0.11491839263E+03  0.30330776431E+03  0.34835991361E+03  0.12500000000E+03 0.  0.
         25    1    1    2    0    0  0.23286706640E+02 -0.19201776923E+03  0.18736225404E+02  0.23106090225E+03  0.12500000000E+03 0.  0.
         25    1    1    2    0    0 -0.31297042976E+00  0.77099376597E+02  0.98767882880E+02  0.17698730607E+03  0.12500000000E+03 0.  0.
</event>
<event>
 5    0  0.5771634E-005  0.3739135E+03  0.7546771E-02  0.1053207E+00
         21   -1    0    0  502  501  0.00000000000E+00  0.00000000000E+00  0.14106627316E+04  0.14106627316E+04  0.00000000000E+00 0.  1.
         21   -1    0    0  501  502 -0.00000000000E+00 -0.00000000000E+00 -0.99110377710E+02  0.99110377710E+02  0.00000000000E+00 0.  1.
         25    1    1    2    0    0  0.27955028666E+03 -0.11029081199E+03  0.79914833394E+03  0.86288787546E+03  0.12500000000E+03 0.  0.
         25    1    1    2    0    0 -0.11044203708E+03  0.40937503365E+02  0.25350610625E+03  0.30620853783E+03  0.12500000000E+03 0.  0.
         25    1    1    2    0    0 -0.16910824958E+03  0.69353308625E+02  0.25889791374E+03  0.34067669605E+03  0.12500000000E+03 0.  0.
</event>
<event>
 5    0  0.5771634E-005  0.2959947E+03  0.7546771E-02  0.1087260E+00
         21   -1    0    0  502  501  0.00000000000E+00  0.00000000000E+00  0.26364132268E+03  0.26364132268E+03  0.00000000000E+00 0. -1.
         21   -1    0    0  501  502 -0.00000000000E+00 -0.00000000000E+00 -0.33231844530E+03  0.33231844530E+03  0.00000000000E+00 0. -1.
         25    1    1    2    0    0 -0.86798829310E+02 -0.13266367410E+03  0.33840819903E+02  0.20470439245E+03  0.12500000000E+03 0.  0.
         25    1    1    2    0    0  0.51989032473E+02  0.14328739368E+03  0.36846031484E+02  0.20054118460E+03  0.12500000000E+03 0.  0.
         25    1    1    2    0    0  0.34809796837E+02 -0.10623719577E+02 -0.13936397400E+03  0.19071419093E+03  0.12500000000E+03 0.  0.
</event>
<event>
 5    0  0.5771634E-005  0.2721105E+03  0.7546771E-02  0.1100078E+00
         21   -1    0    0  502  501  0.00000000000E+00  0.00000000000E+00  0.61392208885E+03  0.61392208885E+03  0.00000000000E+00 0.  1.
         21   -1    0    0  501  502 -0.00000000000E+00 -0.00000000000E+00 -0.12060837703E+03  0.12060837703E+03  0.00000000000E+00 0.  1.
         25    1    1    2    0    0  0.58228963382E+02  0.66017203761E+02 -0.12070146767E+02  0.15336092009E+03  0.12500000000E+03 0.  0.
         25    1    1    2    0    0 -0.29355132520E+02  0.58583283286E+01  0.31785006370E+03  0.34285522719E+03  0.12500000000E+03 0.  0.
         25    1    1    2    0    0 -0.28873830863E+02 -0.71875532090E+02  0.18753379489E+03  0.23831431860E+03  0.12500000000E+03 0.  0.
</event>
<event>
 5    0  0.5771634E-005  0.2513682E+03  0.7546771E-02  0.1112443E+00
         21   -1    0    0  502  501  0.00000000000E+00  0.00000000000E+00  0.88737863799E+02  0.88737863799E+02  0.00000000000E+00 0.  1.
         21   -1    0    0  501  502 -0.00000000000E+00 -0.00000000000E+00 -0.71205202518E+03  0.71205202518E+03  0.00000000000E+00 0.  1.
         25    1    1    2    0    0 -0.11005196890E+03  0.13178510664E+02 -0.28516323573E+03  0.33049686839E+03  0.12500000000E+03 0.  0.
         25    1    1    2    0    0  0.93898343979E+02  0.52588837775E+02 -0.99873231559E+02  0.19282672855E+03  0.12500000000E+03 0.  0.
         25    1    1    2    0    0  0.16153624917E+02 -0.65767348439E+02 -0.23827769408E+03  0.27746629204E+03  0.12500000000E+03 0.  0.
</event>
<event>
 5    0  0.5771634E-005  0.3269612E+03  0.7546771E-02  0.1072489E+00
         21   -1    0    0  502  501  0.00000000000E+00  0.00000000000E+00  0.71072935899E+03  0.71072935899E+03  0.00000000000E+00 0. -1.
         21   -1    0    0  501  502 -0.00000000000E+00 -0.00000000000E+00 -0.15041392786E+03  0.15041392786E+03  0.00000000000E+00 0. -1.
         25    1    1    2    0    0  0.13830416128E+03  0.49073082728E+02  0.28372902419E+03  0.34302094345E+03  0.12500000000E+03 0.  0.
         25    1    1    2    0    0  0.88976586986E+02  0.46777590562E+02  0.83369729647E+02  0.18077745388E+03  0.12500000000E+03 0.  0.
         25    1    1    2    0    0 -0.22728074827E+03 -0.95850673290E+02  0.19321667730E+03  0.33734488953E+03  0.12500000000E+03 0.  0.
</event>
<event>
 5    0  0.5771634E-005  0.4278109E+03  0.7546771E-02  0.1034554E+00
         21   -1    0    0  502  501  0.00000000000E+00  0.00000000000E+00  0.24077813407E+03  0.24077813407E+03  0.00000000000E+00 0.  1.
         21   -1    0    0  501  502 -0.00000000000E+00 -0.00000000000E+00 -0.76012799844E+03  0.76012799844E+03  0.00000000000E+00 0.  1.
         25    1    1    2    0    0 -0.28644025988E+03 -0.48348117645E+02 -0.34446458611E+02  0.31811495009E+03  0.12500000000E+03 0.  0.
         25    1    1    2    0    0  0.27346815979E+03  0.64868441590E+01 -0.45753877795E+03  0.54753415135E+03  0.12500000000E+03 0.  0.
         25    1    1    2    0    0  0.12972100090E+02  0.41861273486E+02 -0.27364627812E+02  0.13525703107E+03  0.12500000000E+03 0.  0.
</event>
<event>
 5    0  0.5771634E-005  0.5109536E+03  0.7546771E-02  0.1010959E+00
         21   -1    0    0  502  501  0.00000000000E+00  0.00000000000E+00  0.15042734266E+04  0.15042734266E+04  0.00000000000E+00 0. -1.
         21   -1    0    0  501  502 -0.00000000000E+00 -0.00000000000E+00 -0.17355458858E+03  0.17355458858E+03  0.00000000000E+00 0. -1.
         25    1    1    2    0    0 -0.20484657701E+03  0.72499296197E+02  0.10903356994E+04  0.11187829126E+04  0.12500000000E+03 0.  0.
         25    1    1    2    0    0 -0.27199276143E+02  0.12034154138E+03  0.57871261393E+02  0.18492152417E+03  0.12500000000E+03 0.  0.
         25    1    1    2    0    0  0.23204585315E+03 -0.19284083758E+03  0.18251187719E+03  0.37412357840E+03  0.12500000000E+03 0.  0.
</event>
<event>
 5    0  0.5771634E-005  0.2340473E+03  0.7546771E-02  0.1123823E+00
         21   -1    0    0  502  501  0.00000000000E+00  0.00000000000E+00  0.14049601106E+03  0.14049601106E+03  0.00000000000E+00 0.  1.
         21   -1    0    0  501  502 -0.00000000000E+00 -0.00000000000E+00 -0.38989122044E+03  0.38989122044E+03  0.00000000000E+00 0.  1.
         25    1    1    2    0    0 -0.55609346029E+02 -0.30367668963E+02 -0.16769654537E+03  0.21854456299E+03  0.12500000000E+03 0.  0.
         25    1    1    2    0    0 -0.54304490604E+01 -0.12174618548E+02 -0.10590737618E+03  0.16437482606E+03  0.12500000000E+03 0.  0.
         25    1    1    2    0    0  0.61039795089E+02  0.42542287511E+02  0.24208712167E+02  0.14746784245E+03  0.12500000000E+03 0.  0.
</event>
<event>
 5    0  0.5771634E-005  0.2866673E+03  0.7546771E-02  0.1092102E+00
         21   -1    0    0  502  501  0.00000000000E+00  0.00000000000E+00  0.16564392638E+03  0.16564392638E+03  0.00000000000E+00 0. -1.
         21   -1    0    0  501  502 -0.00000000000E+00 -0.00000000000E+00 -0.49611326831E+03  0.49611326831E+03  0.00000000000E+00 0. -1.
         25    1    1    2    0    0 -0.62410468817E+02  0.47228856916E+02 -0.86268919923E+02  0.17085946883E+03  0.12500000000E+03 0.  0.
         25    1    1    2    0    0  0.44482442475E+02 -0.35118687646E+02  0.68537922118E+02  0.15340944130E+03  0.12500000000E+03 0.  0.
         25    1    1    2    0    0  0.17928026342E+02 -0.12110169271E+02 -0.31273834413E+03  0.33748828456E+03  0.12500000000E+03 0.  0.
</event>
<event>
 5    0  0.5771634E-005  0.3436152E+03  0.7546771E-02  0.1065267E+00
         21   -1    0    0  502  501  0.00000000000E+00  0.00000000000E+00  0.14022893608E+03  0.14022893608E+03  0.00000000000E+00 0.  1.
         21   -1    0    0  501  502 -0.00000000000E+00 -0.00000000000E+00 -0.84199029302E+03  0.84199029302E+03  0.00000000000E+00 0.  1.
         25    1    1    2    0    0 -0.19011468816E+02 -0.14978520328E+03 -0.83818244304E+02  0.21318428917E+03  0.12500000000E+03 0.  0.
         25    1    1    2    0    0 -0.77675489078E+02  0.23635531947E+02 -0.36532510126E+02  0.15346577557E+03  0.12500000000E+03 0.  0.
         25    1    1    2    0    0  0.96686957894E+02  0.12614967134E+03 -0.58141060251E+03  0.61556916436E+03  0.12500000000E+03 0.  0.
</event>
<event>
 5    0  0.5771634E-005  0.2055447E+03  0.7546771E-02  0.1145144E+00
         21   -1    0    0  502  501  0.00000000000E+00  0.00000000000E+00  0.91498498952E+02  0.91498498952E+02  0.00000000000E+00 0.  1.
         21   -1    0    0  501  502 -0.00000000000E+00 -0.00000000000E+00 -0.46174102307E+03  0.46174102307E+03  0.00000000000E+00 0.  1.
         25    1    1    2    0    0 -0.32941587401E+02  0.16131753623E+02 -0.82244350584E+02  0.15406010145E+03  0.12500000000E+03 0.  0.
         25    1    1    2    0    0  0.32207993881E+02 -0.37598110505E+01 -0.22313178625E+03  0.25780668161E+03  0.12500000000E+03 0.  0.
         25    1    1    2    0    0  0.73359351988E+00 -0.12371942573E+02 -0.64866387290E+02  0.14137273897E+03  0.12500000000E+03 0.  0.
</event>
<event>
 5    0  0.5771634E-005  0.3494488E+03  0.7546771E-02  0.1062841E+00
         21   -1    0    0  502  501  0.00000000000E+00  0.00000000000E+00  0.53002164166E+02  0.53002164166E+02  0.00000000000E+00 0.  1.
         21   -1    0    0  501  502 -0.00000000000E+00 -0.00000000000E+00 -0.23039527792E+04  0.23039527792E+04  0.00000000000E+00 0.  1.
         25    1    1    2    0    0 -0.13546513493E+01 -0.11063123601E+03 -0.49604806680E+03  0.52338302421E+03  0.12500000000E+03 0.  0.
         25    1    1    2    0    0 -0.20139422297E+03 -0.51145970364E+02 -0.74929481498E+03  0.78755524447E+03  0.12500000000E+03 0.  0.
         25    1    1    2    0    0  0.20274887432E+03  0.16177720637E+03 -0.10056077332E+04  0.10460166747E+04  0.12500000000E+03 0.  0.
</event>
<event>
 5    0  0.5771634E-005  0.2429624E+03  0.7546771E-02  0.1117835E+00
         21   -1    0    0  502  501  0.00000000000E+00  0.00000000000E+00  0.24707597358E+03  0.24707597358E+03  0.00000000000E+00 0. -1.
         21   -1    0    0  501  502 -0.00000000000E+00 -0.00000000000E+00 -0.23891738234E+03  0.23891738234E+03  0.00000000000E+00 0. -1.
         25    1    1    2    0    0  0.86475353044E+02  0.51309219184E+02  0.33252944768E+02  0.16383339401E+03  0.12500000000E+03 0.  0.
         25    1    1    2    0    0 -0.98111016896E+02  0.21675014163E+02 -0.62632532806E+02  0.17217262280E+03  0.12500000000E+03 0.  0.
         25    1    1    2    0    0  0.11635663852E+02 -0.72984233347E+02  0.37538179283E+02  0.14998733911E+03  0.12500000000E+03 0.  0.
</event>
<event>
 5    0  0.5771634E-005  0.2062112E+03  0.7546771E-02  0.1144602E+00
         21   -1    0    0  502  501  0.00000000000E+00  0.00000000000E+00  0.29609645627E+02  0.29609645627E+02  0.00000000000E+00 0. -1.
         21   -1    0    0  501  502 -0.00000000000E+00 -0.00000000000E+00 -0.14361215124E+04  0.14361215124E+04  0.00000000000E+00 0. -1.
         25    1    1    2    0    0 -0.25387810695E+02 -0.36840496231E+02 -0.33636584269E+03  0.36161961122E+03  0.12500000000E+03 0.  0.
         25    1    1    2    0    0 -0.30473010572E+02  0.27242368310E+02 -0.60554978531E+03  0.61966627590E+03  0.12500000000E+03 0.  0.
         25    1    1    2    0    0  0.55860821268E+02  0.95981279214E+01 -0.46459623877E+03  0.48444527090E+03  0.12500000000E+03 0.  0.
</event>
<event>
 5    0  0.5771634E-005  0.3083269E+03  0.7546771E-02  0.1081151E+00
         21   -1    0    0  502  501  0.00000000000E+00  0.00000000000E+00  0.25284859492E+03  0.25284859492E+03  0.00000000000E+00 0. -1.
         21   -1    0    0  501  502 -0.00000000000E+00 -0.00000000000E+00 -0.37597784056E+03  0.37597784056E+03  0.00000000000E+00 0. -1.
         25    1    1    2    0    0 -0.25940271670E+02  0.56957086851E+02 -0.20809457187E+03  0.25068976501E+03  0.12500000000E+03 0.  0.
         25    1    1    2    0    0 -0.84463084273E+02  0.49322968693E+02 -0.94368667766E+01  0.15899944119E+03  0.12500000000E+03 0.  0.
         25    1    1    2    0    0  0.11040335594E+03 -0.10628005554E+03  0.94402193007E+02  0.21913722928E+03  0.12500000000E+03 0.  0.
</event>
<event>
 5    0  0.5771634E-005  0.2967903E+03  0.7546771E-02  0.1086856E+00
         21   -1    0    0  502  501  0.00000000000E+00  0.00000000000E+00  0.15021768527E+03  0.15021768527E+03  0.00000000000E+00 0.  1.
         21   -1    0    0  501  502 -0.00000000000E+00 -0.00000000000E+00 -0.58637901009E+03  0.58637901009E+03  0.00000000000E+00 0.  1.
         25    1    1    2    0    0 -0.80533370169E+02  0.55024475463E+02 -0.10279943450E+02  0.15888358584E+03  0.12500000000E+03 0.  0.
         25    1    1    2    0    0  0.58417674243E+02  0.89568424132E+02 -0.31570809258E+03  0.35599399852E+03  0.12500000000E+03 0.  0.
         25    1    1    2    0    0  0.22115695926E+02 -0.14459289959E+03 -0.11017328880E+03  0.22171911100E+03  0.12500000000E+03 0.  0.
</event>
<event>
 5    0  0.5771634E-005  0.6174463E+03  0.7546771E-02  0.9869857E-01
         21   -1    0    0  502  501  0.00000000000E+00  0.00000000000E+00  0.11108655588E+04  0.11108655588E+04  0.00000000000E+00 0.  1.
         21   -1    0    0  501  502 -0.00000000000E+00 -0.00000000000E+00 -0.34319179288E+03  0.34319179288E+03  0.00000000000E+00 0.  1.
         25    1    1    2    0    0 -0.13857555553E+03 -0.98197969800E+02  0.86072459720E+03  0.88618161688E+03  0.12500000000E+03 0.  0.
         25    1    1    2    0    0  0.14862573620E+03  0.17108238072E+03 -0.24601172182E+03  0.35707920372E+03  0.12500000000E+03 0.  0.
         25    1    1    2    0    0 -0.10050180671E+02 -0.72884410917E+02  0.15296089057E+03  0.21079653112E+03  0.12500000000E+03 0.  0.
</event>
<event>
 5    0  0.5771634E-005  0.2640809E+03  0.7546771E-02  0.1104716E+00
         21   -1    0    0  502  501  0.00000000000E+00  0.00000000000E+00  0.78839421183E+02  0.78839421183E+02  0.00000000000E+00 0.  1.
         21   -1    0    0  501  502 -0.00000000000E+00 -0.00000000000E+00 -0.88456649181E+03  0.88456649181E+03  0.00000000000E+00 0.  1.
         25    1    1    2    0    0 -0.49340237641E+02 -0.37013217101E+02 -0.51833634542E+03  0.53675134306E+03  0.12500000000E+03 0.  0.
         25    1    1    2    0    0  0.16433573656E+02  0.86059003453E+02 -0.23201262778E+03  0.27772481680E+03  0.12500000000E+03 0.  0.
         25    1    1    2    0    0  0.32906663985E+02 -0.49045786352E+02 -0.55378097424E+02  0.14892975313E+03  0.12500000000E+03 0.  0.
</event>
<event>
 5    0  0.5771634E-005  0.2603425E+03  0.7546771E-02  0.1106938E+00
         21   -1    0    0  502  501  0.00000000000E+00  0.00000000000E+00  0.26287610878E+03  0.26287610878E+03  0.00000000000E+00 0. -1.
         21   -1    0    0  501  502 -0.00000000000E+00 -0.00000000000E+00 -0.25783326647E+03  0.25783326647E+03  0.00000000000E+00 0. -1.
         25    1    1    2    0    0 -0.75540234680E+02  0.44051472287E+02 -0.10879732044E+02  0.15293864075E+03  0.12500000000E+03 0.  0.
         25    1    1    2    0    0 -0.53517765795E+02 -0.85470927261E+02 -0.55665226130E+02  0.16997955190E+03  0.12500000000E+03 0.  0.
         25    1    1    2    0    0  0.12905800047E+03  0.41419454974E+02  0.71587800488E+02  0.19779118260E+03  0.12500000000E+03 0.  0.
</event>
<event>
 5    0  0.5771634E-005  0.4242715E+03  0.7546771E-02  0.1035685E+00
         21   -1    0    0  502  501  0.00000000000E+00  0.00000000000E+00  0.64234447939E+03  0.64234447939E+03  0.00000000000E+00 0.  1.
         21   -1    0    0  501  502 -0.00000000000E+00 -0.00000000000E+00 -0.28023322404E+03  0.28023322404E+03  0.00000000000E+00 0.  1.
         25    1    1    2    0    0  0.47620187317E+02 -0.18249542096E+03  0.31854655679E+01  0.22629053914E+03  0.12500000000E+03 0.  0.
         25    1    1    2    0    0  0.42915006669E+02  0.18848426567E+03  0.45812995517E+03  0.51271441566E+03  0.12500000000E+03 0.  0.
         25    1    1    2    0    0 -0.90535193986E+02 -0.59888447033E+01 -0.99204165392E+02  0.18357274864E+03  0.12500000000E+03 0.  0.
</event>
<event>
 5    0  0.5771634E-005  0.6144550E+03  0.7546771E-02  0.9875862E-01
         21   -1    0    0  502  501  0.00000000000E+00  0.00000000000E+00  0.45927284756E+03  0.45927284756E+03  0.00000000000E+00 0. -1.
         21   -1    0    0  501  502 -0.00000000000E+00 -0.00000000000E+00 -0.82207120314E+03  0.82207120314E+03  0.00000000000E+00 0. -1.
         25    1    1    2    0    0 -0.60760177621E+02 -0.35672494894E+02 -0.88927699540E+02  0.16881191256E+03  0.12500000000E+03 0.  0.
         25    1    1    2    0    0 -0.18990053365E+03  0.93839485999E+02 -0.61792866484E+03  0.66507811319E+03  0.12500000000E+03 0.  0.
         25    1    1    2    0    0  0.25066071127E+03 -0.58166991105E+02  0.34405800880E+03  0.44745402496E+03  0.12500000000E+03 0.  0.
</event>
<event>
 5    0  0.5771634E-005  0.2771753E+03  0.7546771E-02  0.1097242E+00
         21   -1    0    0  502  501  0.00000000000E+00  0.00000000000E+00  0.12593182471E+04  0.12593182471E+04  0.00000000000E+00 0.  1.
         21   -1    0    0  501  502 -0.00000000000E+00 -0.00000000000E+00 -0.61006122843E+02  0.61006122843E+02  0.00000000000E+00 0.  1.
         25    1    1    2    0    0 -0.39110916819E+02  0.34472924863E+02  0.65254148920E+03  0.66644837871E+03  0.12500000000E+03 0.  0.
         25    1    1    2    0    0  0.28784733373E+02 -0.12346706815E+03  0.16307708349E+03  0.24143697511E+03  0.12500000000E+03 0.  0.
         25    1    1    2    0    0  0.10326183446E+02  0.88994143288E+02  0.38269355159E+03  0.41243901614E+03  0.12500000000E+03 0.  0.
</event>
<event>
 5    0  0.5771634E-005  0.2517136E+03  0.7546771E-02  0.1112227E+00
         21   -1    0    0  502  501  0.00000000000E+00  0.00000000000E+00  0.29024166976E+03  0.29024166976E+03  0.00000000000E+00 0.  1.
         21   -1    0    0  501  502 -0.00000000000E+00 -0.00000000000E+00 -0.21829993857E+03  0.21829993857E+03  0.00000000000E+00 0.  1.
         25    1    1    2    0    0 -0.63702949848E+01  0.38583828038E+02  0.54065538643E+02  0.14169465379E+03  0.12500000000E+03 0.  0.
         25    1    1    2    0    0  0.68532318333E+02  0.96025753724E+02 -0.20850419700E+01  0.17189232512E+03  0.12500000000E+03 0.  0.
         25    1    1    2    0    0 -0.62162023349E+02 -0.13460958176E+03  0.19961234522E+02  0.19495462942E+03  0.12500000000E+03 0.  0.
</event>
<event>
 5    0  0.5771634E-005  0.3348570E+03  0.7546771E-02  0.1069008E+00
         21   -1    0    0  502  501  0.00000000000E+00  0.00000000000E+00  0.23735404710E+03  0.23735404710E+03  0.00000000000E+00 0.  1.
         21   -1    0    0  501  502 -0.00000000000E+00 -0.00000000000E+00 -0.47241331719E+03  0.47241331719E+03  0.00000000000E+00 0.  1.
         25    1    1    2    0    0 -0.95947535401E+02  0.50343140087E+02 -0.89768503051E+01  0.16566817783E+03  0.12500000000E+03 0.  0.
         25    1    1    2    0    0  0.17033739207E+03  0.10289828191E+02 -0.30236743954E+03  0.36901460160E+03  0.12500000000E+03 0.  0.
         25    1    1    2    0    0 -0.74389856672E+02 -0.60632968278E+02  0.76285019754E+02  0.17508458486E+03  0.12500000000E+03 0.  0.
</event>
<event>
 5    0  0.5771634E-005  0.3919554E+03  0.7546771E-02  0.1046601E+00
         21   -1    0    0  502  501  0.00000000000E+00  0.00000000000E+00  0.32148245970E+03  0.32148245970E+03  0.00000000000E+00 0.  1.
         21   -1    0    0  501  502 -0.00000000000E+00 -0.00000000000E+00 -0.47787676837E+03  0.47787676837E+03  0.00000000000E+00 0.  1.
         25    1    1    2    0    0  0.51341062625E+02 -0.10948121616E+03  0.14672293509E+02  0.17453457422E+03  0.12500000000E+03 0.  0.
         25    1    1    2    0    0 -0.59572269348E+02  0.64097256076E+02 -0.36151446067E+03  0.39239650710E+03  0.12500000000E+03 0.  0.
         25    1    1    2    0    0  0.82312067227E+01  0.45383960080E+02  0.19044785848E+03  0.23242814674E+03  0.12500000000E+03 0.  0.
</event>
<event>
 5    0  0.5771634E-005  0.3222759E+03  0.7546771E-02  0.1074607E+00
         21   -1    0    0  502  501  0.00000000000E+00  0.00000000000E+00  0.13046414265E+03  0.13046414265E+03  0.00000000000E+00 0. -1.
         21   -1    0    0  501  502 -0.00000000000E+00 -0.00000000000E+00 -0.79609436965E+03  0.79609436965E+03  0.00000000000E+00 0. -1.
         25    1    1    2    0    0 -0.11546554563E+02 -0.14942052743E+03 -0.25332963345E+03  0.31978230114E+03  0.12500000000E+03 0.  0.
         25    1    1    2    0    0  0.81959923827E+02  0.19672755498E+03 -0.37845497043E+03  0.45196495953E+03  0.12500000000E+03 0.  0.
         25    1    1    2    0    0 -0.70413369264E+02 -0.47307027554E+02 -0.33845623115E+02  0.15481125163E+03  0.12500000000E+03 0.  0.
</event>
<event>
 5    0  0.5771634E-005  0.2425641E+03  0.7546771E-02  0.1118096E+00
         21   -1    0    0  502  501  0.00000000000E+00  0.00000000000E+00  0.45490407640E+03  0.45490407640E+03  0.00000000000E+00 0.  1.
         21   -1    0    0  501  502 -0.00000000000E+00 -0.00000000000E+00 -0.12934006429E+03  0.12934006429E+03  0.00000000000E+00 0.  1.
         25    1    1    2    0    0 -0.12010817268E+03  0.23742965055E+02  0.20497161841E+03  0.26949594781E+03  0.12500000000E+03 0.  0.
         25    1    1    2    0    0  0.85069842381E+02  0.19177060331E+02  0.47127723331E+02  0.15953262999E+03  0.12500000000E+03 0.  0.
         25    1    1    2    0    0  0.35038330297E+02 -0.42920025386E+02  0.73464670372E+02  0.15521556289E+03  0.12500000000E+03 0.  0.
</event>
<event>
 5    0  0.5771634E-005  0.3097609E+03  0.7546771E-02  0.1080461E+00
         21   -1    0    0  502  501  0.00000000000E+00  0.00000000000E+00  0.47363753702E+03  0.47363753702E+03  0.00000000000E+00 0. -1.
         21   -1    0    0  501  502 -0.00000000000E+00 -0.00000000000E+00 -0.20258490727E+03  0.20258490727E+03  0.00000000000E+00 0. -1.
         25    1    1    2    0    0 -0.25922145014E+02  0.94215538612E+02  0.19693679275E+03  0.25289844930E+03  0.12500000000E+03 0.  0.
         25    1    1    2    0    0  0.65706329389E+02 -0.11755502489E+03 -0.95944581406E+02  0.20728451052E+03  0.12500000000E+03 0.  0.
         25    1    1    2    0    0 -0.39784184374E+02  0.23339486279E+02  0.17006041840E+03  0.21603948448E+03  0.12500000000E+03 0.  0.
</event>
<event>
 5    0  0.5771634E-005  0.6904526E+03  0.7546771E-02  0.9733700E-01
         21   -1    0    0  502  501  0.00000000000E+00  0.00000000000E+00  0.41098049213E+04  0.41098049213E+04  0.00000000000E+00 0. -1.
         21   -1    0    0  501  502 -0.00000000000E+00 -0.00000000000E+00 -0.11599695007E+03  0.11599695007E+03  0.00000000000E+00 0. -1.
         25    1    1    2    0    0  0.52358846461E+02  0.35211156279E+03  0.40381145162E+03  0.55264155644E+03  0.12500000000E+03 0.  0.
         25    1    1    2    0    0 -0.43905677365E+02 -0.42424542611E+03  0.12145187565E+04  0.12932875550E+04  0.12500000000E+03 0.  0.
         25    1    1    2    0    0 -0.84531690959E+01  0.72133863325E+02  0.23754777631E+04  0.23798727599E+04  0.12500000000E+03 0.  0.
</event>
<event>
 5    0  0.5771634E-005  0.2567648E+03  0.7546771E-02  0.1109103E+00
         21   -1    0    0  502  501  0.00000000000E+00  0.00000000000E+00  0.10241216793E+03  0.10241216793E+03  0.00000000000E+00 0. -1.
         21   -1    0    0  501  502 -0.00000000000E+00 -0.00000000000E+00 -0.64375333299E+03  0.64375333299E+03  0.00000000000E+00 0. -1.
         25    1    1    2    0    0 -0.67956681743E+02 -0.18062871639E+02 -0.56254852221E+02  0.15405838609E+03  0.12500000000E+03 0.  0.
         25    1    1    2    0    0 -0.60359480746E+02  0.32055263218E+02 -0.31027609322E+03  0.34141918640E+03  0.12500000000E+03 0.  0.
         25    1    1    2    0    0  0.12831616249E+03 -0.13992391580E+02 -0.17481021962E+03  0.25068792843E+03  0.12500000000E+03 0.  0.
</event>
<event>
 5    0  0.5771634E-005  0.3714393E+03  0.7546771E-02  0.1054144E+00
         21   -1    0    0  502  501  0.00000000000E+00  0.00000000000E+00  0.38140622488E+03  0.38140622488E+03  0.00000000000E+00 0.  1.
         21   -1    0    0  501  502 -0.00000000000E+00 -0.00000000000E+00 -0.36173284745E+03  0.36173284745E+03  0.00000000000E+00 0.  1.
         25    1    1    2    0    0 -0.17962339449E+03  0.76727039140E+02 -0.14608406745E+03  0.27407509399E+03  0.12500000000E+03 0.  0.
         25    1    1    2    0    0 -0.73938082612E+02 -0.10911067804E+01  0.69422712635E+02  0.16097373576E+03  0.12500000000E+03 0.  0.
         25    1    1    2    0    0  0.25356147710E+03 -0.75635932359E+02  0.96334732246E+02  0.30809024258E+03  0.12500000000E+03 0.  0.
</event>
<event>
 5    0  0.5771634E-005  0.2659504E+03  0.7546771E-02  0.1103620E+00
         21   -1    0    0  502  501  0.00000000000E+00  0.00000000000E+00  0.11013803477E+04  0.11013803477E+04  0.00000000000E+00 0.  1.
         21   -1    0    0  501  502 -0.00000000000E+00 -0.00000000000E+00 -0.64219085785E+02  0.64219085785E+02  0.00000000000E+00 0.  1.
         25    1    1    2    0    0  0.48224652296E+02  0.11890632664E+03  0.45824873991E+03  0.49201751923E+03  0.12500000000E+03 0.  0.
         25    1    1    2    0    0 -0.77551458607E+02  0.23509585455E+02  0.20550312658E+03  0.25381777790E+03  0.12500000000E+03 0.  0.
         25    1    1    2    0    0  0.29326806311E+02 -0.14241591209E+03  0.37340939546E+03  0.41976413640E+03  0.12500000000E+03 0.  0.
</event>
<event>
 5    0  0.5771634E-005  0.5036600E+03  0.7546771E-02  0.1012828E+00
         21   -1    0    0  502  501  0.00000000000E+00  0.00000000000E+00  0.51941137390E+03  0.51941137390E+03  0.00000000000E+00 0. -1.
         21   -1    0    0  501  502 -0.00000000000E+00 -0.00000000000E+00 -0.48838633003E+03  0.48838633003E+03  0.00000000000E+00 0. -1.
         25    1    1    2    0    0 -0.85728338970E+02  0.61764203618E+02 -0.16451278951E+02  0.16449866118E+03  0.12500000000E+03 0.  0.
         25    1    1    2    0    0 -0.27204834288E+02 -0.69930579609E+02 -0.36749762812E+03  0.39536046293E+03  0.12500000000E+03 0.  0.
         25    1    1    2    0    0  0.11293317326E+03  0.81663759906E+01  0.41497395095E+03  0.44793857981E+03  0.12500000000E+03 0.  0.
</event>
<event>
 5    0  0.5771634E-005  0.2294712E+03  0.7546771E-02  0.1127013E+00
         21   -1    0    0  502  501  0.00000000000E+00  0.00000000000E+00  0.30950960921E+02  0.30950960921E+02  0.00000000000E+00 0.  1.
         21   -1    0    0  501  502 -0.00000000000E+00 -0.00000000000E+00 -0.17013048037E+04  0.17013048037E+04  0.00000000000E+00 0.  1.
         25    1    1    2    0    0 -0.54722486276E+02 -0.23318916876E+02 -0.62558998573E+03  0.64072314820E+03  0.12500000000E+03 0.  0.
         25    1    1    2    0    0  0.88226941244E+02  0.81610930395E+02 -0.53691774616E+03  0.56422513527E+03  0.12500000000E+03 0.  0.
         25    1    1    2    0    0 -0.33504454968E+02 -0.58292013518E+02 -0.50784611084E+03  0.52730748111E+03  0.12500000000E+03 0.  0.
</event>
<event>
 5    0  0.5771634E-005  0.3039461E+03  0.7546771E-02  0.1083284E+00
         21   -1    0    0  502  501  0.00000000000E+00  0.00000000000E+00  0.59415164933E+02  0.59415164933E+02  0.00000000000E+00 0.  1.
         21   -1    0    0  501  502 -0.00000000000E+00 -0.00000000000E+00 -0.15548763151E+04  0.15548763151E+04  0.00000000000E+00 0.  1.
         25    1    1    2    0    0  0.70924407563E+02  0.11851518664E+03 -0.53165438216E+03  0.56334492376E+03  0.12500000000E+03 0.  0.
         25    1    1    2    0    0 -0.84096448508E+02 -0.16883288320E+03 -0.83114243189E+03  0.86139392684E+03  0.12500000000E+03 0.  0.
         25    1    1    2    0    0  0.13172040946E+02  0.50317696561E+02 -0.13266433611E+03  0.18955262944E+03  0.12500000000E+03 0.  0.
</event>
<event>
 5    0  0.5771634E-005  0.2467686E+03  0.7546771E-02  0.1115364E+00
         21   -1    0    0  502  501  0.00000000000E+00  0.00000000000E+00  0.84691946333E+02  0.84691946333E+02  0.00000000000E+00 0.  1.
         21   -1    0    0  501  502 -0.00000000000E+00 -0.00000000000E+00 -0.71901446288E+03  0.71901446288E+03  0.00000000000E+00 0.  1.
         25    1    1    2    0    0 -0.80106939800E+02  0.25416614840E+02 -0.41523004637E+03  0.44170591747E+03  0.12500000000E+03 0.  0.
         25    1    1    2    0    0  0.57779395505E+02  0.15629436479E+02 -0.51691984790E+02  0.14791821768E+03  0.12500000000E+03 0.  0.
         25    1    1    2    0    0  0.22327544296E+02 -0.41046051319E+02 -0.16740048539E+03  0.21408227407E+03  0.12500000000E+03 0.  0.
</event>
<event>
 5    0  0.5771634E-005  0.2699870E+03  0.7546771E-02  0.1101287E+00
         21   -1    0    0  502  501  0.00000000000E+00  0.00000000000E+00  0.46845718208E+03  0.46845718208E+03  0.00000000000E+00 0.  1.
         21   -1    0    0  501  502 -0.00000000000E+00 -0.00000000000E+00 -0.15560220120E+03  0.15560220120E+03  0.00000000000E+00 0.  1.
         25    1    1    2    0    0 -0.58627319052E+02 -0.67771948470E+01  0.13765454223E+03  0.19508169034E+03  0.12500000000E+03 0.  0.
         25    1    1    2    0    0  0.19979802126E+02 -0.40737717867E+02  0.24081308509E+03  0.27509034171E+03  0.12500000000E+03 0.  0.
         25    1    1    2    0    0  0.38647516926E+02  0.47514912714E+02 -0.65612646439E+02  0.15388735123E+03  0.12500000000E+03 0.  0.
</event>
<event>
 5    0  0.5771634E-005  0.2877595E+03  0.7546771E-02  0.1091525E+00
         21   -1    0    0  502  501  0.00000000000E+00  0.00000000000E+00  0.69511868761E+02  0.69511868761E+02  0.00000000000E+00 0.  1.
         21   -1    0    0  501  502 -0.00000000000E+00 -0.00000000000E+00 -0.11912428633E+04  0.11912428633E+04  0.00000000000E+00 0.  1.
         25    1    1    2    0    0  0.53923136428E+02 -0.80966135307E+02 -0.71394891929E+03  0.73130792356E+03  0.12500000000E+03 0.  0.
         25    1    1    2    0    0 -0.57598619211E+02 -0.57431136477E+02 -0.21017497393E+03  0.25771002316E+03  0.12500000000E+03 0.  0.
         25    1    1    2    0    0  0.36754827833E+01  0.13839727178E+03 -0.19760710130E+03  0.27173678532E+03  0.12500000000E+03 0.  0.
</event>
<event>
 5    0  0.5771634E-005  0.3256828E+03  0.7546771E-02  0.1073063E+00
         21   -1    0    0  502  501  0.00000000000E+00  0.00000000000E+00  0.11362855000E+04  0.11362855000E+04  0.00000000000E+00 0.  1.
         21   -1    0    0  501  502 -0.00000000000E+00 -0.00000000000E+00 -0.93347403953E+02  0.93347403953E+02  0.00000000000E+00 0.  1.
         25    1    1    2    0    0 -0.60576559632E+02 -0.23495511746E+03  0.44110176137E+03  0.51871879731E+03  0.12500000000E+03 0.  0.
         25    1    1    2    0    0  0.10571729500E+03  0.13081226631E+03  0.33093562574E+03  0.39170318337E+03  0.12500000000E+03 0.  0.
         25    1    1    2    0    0 -0.45140735371E+02  0.10414285115E+03  0.27090070892E+03  0.31921092326E+03  0.12500000000E+03 0.  0.
</event>
<event>
 5    0  0.5771634E-005  0.4642575E+03  0.7546771E-02  0.1023554E+00
         21   -1    0    0  502  501  0.00000000000E+00  0.00000000000E+00  0.56235475750E+03  0.56235475750E+03  0.00000000000E+00 0.  1.
         21   -1    0    0  501  502 -0.00000000000E+00 -0.00000000000E+00 -0.38327235075E+03  0.38327235075E+03  0.00000000000E+00 0. -1.
         25    1    1    2    0    0 -0.54333081634E+02 -0.80594217894E+02 -0.60972539500E+02  0.16967664038E+03  0.12500000000E+03 0.  0.
         25    1    1    2    0    0  0.20358829256E+03 -0.19156628664E+03  0.30819436588E+03  0.43445897644E+03  0.12500000000E+03 0.  0.
         25    1    1    2    0    0 -0.14925521093E+03  0.27216050454E+03 -0.68139419626E+02  0.34149149144E+03  0.12500000000E+03 0.  0.
</event>
<event>
 5    0  0.5771634E-005  0.4163369E+03  0.7546771E-02  0.1038265E+00
         21   -1    0    0  502  501  0.00000000000E+00  0.00000000000E+00  0.36215027724E+03  0.36215027724E+03  0.00000000000E+00 0. -1.
         21   -1    0    0  501  502 -0.00000000000E+00 -0.00000000000E+00 -0.47863109489E+03  0.47863109489E+03  0.00000000000E+00 0. -1.
         25    1    1    2    0    0  0.29223616661E+02 -0.15968099034E+03 -0.14185990845E+03  0.24920126820E+03  0.12500000000E+03 0.  0.
         25    1    1    2    0    0 -0.18776489894E+03  0.19596703615E+03  0.16700866717E+03  0.34230926286E+03  0.12500000000E+03 0.  0.
         25    1    1    2    0    0  0.15854128228E+03 -0.36286045805E+02 -0.14162957637E+03  0.24927084107E+03  0.12500000000E+03 0.  0.
</event>
<event>
 5    0  0.5771634E-005  0.3835996E+03  0.7546771E-02  0.1049611E+00
         21   -1    0    0  502  501  0.00000000000E+00  0.00000000000E+00  0.27436986861E+03  0.27436986861E+03  0.00000000000E+00 0.  1.
         21   -1    0    0  501  502 -0.00000000000E+00 -0.00000000000E+00 -0.53631499248E+03  0.53631499248E+03  0.00000000000E+00 0.  1.
         25    1    1    2    0    0 -0.84810464871E+02  0.63188629771E+01 -0.66281254348E+02  0.16507861054E+03  0.12500000000E+03 0.  0.
         25    1    1    2    0    0  0.17644567239E+03 -0.20042274734E+03  0.46762693373E+02  0.29851985269E+03  0.12500000000E+03 0.  0.
         25    1    1    2    0    0 -0.91635207524E+02  0.19410388437E+03 -0.24242656289E+03  0.34708639786E+03  0.12500000000E+03 0.  0.
</event>
<event>
 5    0  0.5771634E-005  0.2913278E+03  0.7546771E-02  0.1089658E+00
         21   -1    0    0  502  501  0.00000000000E+00  0.00000000000E+00  0.37464178027E+03  0.37464178027E+03  0.00000000000E+00 0.  1.
         21   -1    0    0  501  502 -0.00000000000E+00 -0.00000000000E+00 -0.22654136130E+03  0.22654136130E+03  0.00000000000E+00 0.  1.
         25    1    1    2    0    0  0.23741635607E+02  0.13392560575E+03  0.10703292000E+03  0.21349655525E+03  0.12500000000E+03 0.  0.
         25    1    1    2    0    0 -0.51385963937E+02  0.45141000154E+02 -0.47812457862E+02  0.15029723321E+03  0.12500000000E+03 0.  0.
         25    1    1    2    0    0  0.27644328331E+02 -0.17906660591E+03  0.88879956833E+02  0.23738935310E+03  0.12500000000E+03 0.  0.
</event>
<event>
 5    0  0.5771634E-005  0.3432764E+03  0.7546771E-02  0.1065409E+00
         21   -1    0    0  502  501  0.00000000000E+00  0.00000000000E+00  0.51663153703E+03  0.51663153703E+03  0.00000000000E+00 0.  1.
         21   -1    0    0  501  502 -0.00000000000E+00 -0.00000000000E+00 -0.22809040546E+03  0.22809040546E+03  0.00000000000E+00 0.  1.
         25    1    1    2    0    0 -0.35442618681E+02 -0.15763500989E+01 -0.72544586693E+01  0.13013950695E+03  0.12500000000E+03 0.  0.
         25    1    1    2    0    0  0.14720938722E+03  0.66488608168E+02 -0.62589568091E+02  0.21362067488E+03  0.12500000000E+03 0.  0.
         25    1    1    2    0    0 -0.11176676854E+03 -0.64912258069E+02  0.35838515833E+03  0.40096176066E+03  0.12500000000E+03 0.  0.
</event>
<event>
 5    0  0.5771634E-005  0.2316004E+03  0.7546771E-02  0.1125518E+00
         21   -1    0    0  502  501  0.00000000000E+00  0.00000000000E+00  0.35421104760E+03  0.35421104760E+03  0.00000000000E+00 0.  1.
         21   -1    0    0  501  502 -0.00000000000E+00 -0.00000000000E+00 -0.15143164639E+03  0.15143164639E+03  0.00000000000E+00 0.  1.
         25    1    1    2    0    0 -0.33342851935E+02 -0.51943624496E+02  0.85321929047E+02  0.16344637493E+03  0.12500000000E+03 0.  0.
         25    1    1    2    0    0  0.31103534060E+02  0.23246927164E+02  0.16030729455E+03  0.20695718914E+03  0.12500000000E+03 0.  0.
         25    1    1    2    0    0  0.22393178754E+01  0.28696697332E+02 -0.42849822379E+02  0.13523912992E+03  0.12500000000E+03 0.  0.
</event>
<event>
 5    0  0.6014048E-005  0.2937635E+03  0.7546771E-02  0.1088400E+00
         21   -1    0    0  502  501  0.00000000000E+00  0.00000000000E+00  0.55033791727E+03  0.55033791727E+03  0.00000000000E+00 0. -1.
         21   -1    0    0  501  502 -0.00000000000E+00 -0.00000000000E+00 -0.15680729872E+03  0.15680729872E+03  0.00000000000E+00 0. -1.
         25    1    1    2    0    0 -0.33820732735E+02 -0.15097352223E+02 -0.39555097196E+02  0.13624014724E+03  0.12500000000E+03 0.  0.
         25    1    1    2    0    0 -0.98274787898E+02  0.64112486235E+02  0.27940427460E+03  0.32781106371E+03  0.12500000000E+03 0.  0.
         25    1    1    2    0    0  0.13209552063E+03 -0.49015134012E+02  0.15368144114E+03  0.24309400504E+03  0.12500000000E+03 0.  0.
</event>
<event>
 5    0  0.5771634E-005  0.2018055E+03  0.7546771E-02  0.1148225E+00
         21   -1    0    0  502  501  0.00000000000E+00  0.00000000000E+00  0.50346201606E+02  0.50346201606E+02  0.00000000000E+00 0. -1.
         21   -1    0    0  501  502 -0.00000000000E+00 -0.00000000000E+00 -0.80890832148E+03  0.80890832148E+03  0.00000000000E+00 0. -1.
         25    1    1    2    0    0  0.27861605854E+02 -0.32698421672E+02 -0.27597367714E+03  0.30599334361E+03  0.12500000000E+03 0.  0.
         25    1    1    2    0    0 -0.53248423485E+02 -0.85143604889E+01 -0.22837744206E+03  0.26587430297E+03  0.12500000000E+03 0.  0.
         25    1    1    2    0    0  0.25386817631E+02  0.41212782161E+02 -0.25421100067E+03  0.28738687650E+03  0.12500000000E+03 0.  0.
</event>
<event>
 5    0  0.5771634E-005  0.3117428E+03  0.7546771E-02  0.1079514E+00
         21   -1    0    0  502  501  0.00000000000E+00  0.00000000000E+00  0.32432867129E+03  0.32432867129E+03  0.00000000000E+00 0. -1.
         21   -1    0    0  501  502 -0.00000000000E+00 -0.00000000000E+00 -0.29964531713E+03  0.29964531713E+03  0.00000000000E+00 0. -1.
         25    1    1    2    0    0  0.30085636568E+02  0.20853350207E+03 -0.15281986312E+02  0.24545856294E+03  0.12500000000E+03 0.  0.
         25    1    1    2    0    0 -0.45549154757E+02 -0.20925923610E+03  0.59213587927E+01  0.24804075448E+03  0.12500000000E+03 0.  0.
         25    1    1    2    0    0  0.15463518190E+02  0.72573403163E+00  0.34043981683E+02  0.13047467100E+03  0.12500000000E+03 0.  0.
</event>
<event>
 5    0  0.5771634E-005  0.3050800E+03  0.7546771E-02  0.1082728E+00
         21   -1    0    0  502  501  0.00000000000E+00  0.00000000000E+00  0.11336095167E+04  0.11336095167E+04  0.00000000000E+00 0. -1.
         21   -1    0    0  501  502 -0.00000000000E+00 -0.00000000000E+00 -0.82103944746E+02  0.82103944746E+02  0.00000000000E+00 0. -1.
         25    1    1    2    0    0  0.93965984310E+00 -0.18110779268E+03  0.72259837042E+03  0.75536370078E+03  0.12500000000E+03 0.  0.
         25    1    1    2    0    0  0.30349399048E+02  0.65500864021E+02  0.18869250727E+03  0.23757380224E+03  0.12500000000E+03 0.  0.
         25    1    1    2    0    0 -0.31289058891E+02  0.11560692866E+03  0.14021469424E+03  0.22277595840E+03  0.12500000000E+03 0.  0.
</event>
<event>
 5    0  0.5771634E-005  0.2708102E+03  0.7546771E-02  0.1100817E+00
         21   -1    0    0  502  501  0.00000000000E+00  0.00000000000E+00  0.11266482558E+03  0.11266482558E+03  0.00000000000E+00 0.  1.
         21   -1    0    0  501  502 -0.00000000000E+00 -0.00000000000E+00 -0.65094126908E+03  0.65094126908E+03  0.00000000000E+00 0.  1.
         25    1    1    2    0    0  0.40052193610E+02  0.78425547641E+02 -0.77481254115E+02  0.17141496281E+03  0.12500000000E+03 0.  0.
         25    1    1    2    0    0 -0.14892158168E+03 -0.25695908714E+02 -0.27387681465E+03  0.33685520156E+03  0.12500000000E+03 0.  0.
         25    1    1    2    0    0  0.10886938807E+03 -0.52729638927E+02 -0.18691837473E+03  0.25533593028E+03  0.12500000000E+03 0.  0.
</event>
<event>
 5    0  0.5771634E-005  0.3554752E+03  0.7546771E-02  0.1060390E+00
         21   -1    0    0  502  501  0.00000000000E+00  0.00000000000E+00  0.43179483373E+03  0.43179483373E+03  0.00000000000E+00 0. -1.
         21   -1    0    0  501  502 -0.00000000000E+00 -0.00000000000E+00 -0.29264511482E+03  0.29264511482E+03  0.00000000000E+00 0. -1.
         25    1    1    2    0    0  0.71949041692E+02  0.28656974200E+02 -0.42160223580E+02  0.15297179878E+03  0.12500000000E+03 0.  0.
         25    1    1    2    0    0  0.51589680321E+02  0.10835598097E+03  0.27877500948E+03  0.32824231847E+03  0.12500000000E+03 0.  0.
         25    1    1    2    0    0 -0.12353872201E+03 -0.13701295517E+03 -0.97465066987E+02  0.24322583129E+03  0.12500000000E+03 0.  0.
</event>
<event>
 5    0  0.5771634E-005  0.3640895E+03  0.7546771E-02  0.1056976E+00
         21   -1    0    0  502  501  0.00000000000E+00  0.00000000000E+00  0.21101097941E+03  0.21101097941E+03  0.00000000000E+00 0.  1.
         21   -1    0    0  501  502 -0.00000000000E+00 -0.00000000000E+00 -0.62821937424E+03  0.62821937424E+03  0.00000000000E+00 0.  1.
         25    1    1    2    0    0 -0.14029067470E+03 -0.66792462455E+02 -0.14273565066E+03  0.24523697197E+03  0.12500000000E+03 0.  0.
         25    1    1    2    0    0  0.11458186119E+03  0.11885776917E+02 -0.38213193258E+03  0.41823448985E+03  0.12500000000E+03 0.  0.
         25    1    1    2    0    0  0.25708813510E+02  0.54906685538E+02  0.10765918841E+03  0.17575889183E+03  0.12500000000E+03 0.  0.
</event>
<event>
 5    0  0.5771634E-005  0.3229984E+03  0.7546771E-02  0.1074278E+00
         21   -1    0    0  502  501  0.00000000000E+00  0.00000000000E+00  0.19627251599E+03  0.19627251599E+03  0.00000000000E+00 0.  1.
         21   -1    0    0  501  502 -0.00000000000E+00 -0.00000000000E+00 -0.53154639755E+03  0.53154639755E+03  0.00000000000E+00 0.  1.
         25    1    1    2    0    0  0.48802961846E+01 -0.22263633462E+03 -0.18646226766E+03  0.31620235933E+03  0.12500000000E+03 0.  0.
         25    1    1    2    0    0  0.69346896004E+02  0.16057796799E+03 -0.13290027152E+03  0.25274840842E+03  0.12500000000E+03 0.  0.
         25    1    1    2    0    0 -0.74227192189E+02  0.62058366628E+02 -0.15911342372E+02  0.15886814578E+03  0.12500000000E+03 0.  0.
</event>
<event>
 5    0  0.5771634E-005  0.2744748E+03  0.7546771E-02  0.1098746E+00
         21   -1    0    0  502  501  0.00000000000E+00  0.00000000000E+00  0.14958395111E+04  0.14958395111E+04  0.00000000000E+00 0.  1.
         21   -1    0    0  501  502 -0.00000000000E+00 -0.00000000000E+00 -0.50363974270E+02  0.50363974270E+02  0.00000000000E+00 0.  1.
         25    1    1    2    0    0  0.13142692667E+03 -0.47860130286E+02  0.67506079370E+03  0.70063949669E+03  0.12500000000E+03 0.  0.
         25    1    1    2    0    0 -0.14496999754E+02  0.79117592735E+02  0.51861114588E+03  0.53949261080E+03  0.12500000000E+03 0.  0.
         25    1    1    2    0    0 -0.11692992692E+03 -0.31257462448E+02  0.25180359723E+03  0.30607137786E+03  0.12500000000E+03 0.  0.
</event>
<event>
 5    0  0.5771634E-005  0.3691233E+03  0.7546771E-02  0.1055029E+00
         21   -1    0    0  502  501  0.00000000000E+00  0.00000000000E+00  0.17418185039E+03  0.17418185039E+03  0.00000000000E+00 0.  1.
         21   -1    0    0  501  502 -0.00000000000E+00 -0.00000000000E+00 -0.78223979842E+03  0.78223979842E+03  0.00000000000E+00 0.  1.
         25    1    1    2    0    0 -0.11513667962E+03 -0.19859329208E+03 -0.96321596833E+02  0.27856525388E+03  0.12500000000E+03 0.  0.
         25    1    1    2    0    0 -0.35948861249E+02 -0.17227189889E+02 -0.26569645348E+03  0.29632533150E+03  0.12500000000E+03 0.  0.
         25    1    1    2    0    0  0.15108554087E+03  0.21582048197E+03 -0.24603989771E+03  0.38153106343E+03  0.12500000000E+03 0.  0.
</event>
<event>
 5    0  0.5771634E-005  0.4690029E+03  0.7546771E-02  0.1022202E+00
         21   -1    0    0  502  501  0.00000000000E+00  0.00000000000E+00  0.60250645874E+03  0.60250645874E+03  0.00000000000E+00 0. -1.
         21   -1    0    0  501  502 -0.00000000000E+00 -0.00000000000E+00 -0.36508111499E+03  0.36508111499E+03  0.00000000000E+00 0. -1.
         25    1    1    2    0    0  0.23076164162E+03 -0.10006481676E+03  0.29578729973E+03  0.40789585617E+03  0.12500000000E+03 0.  0.
         25    1    1    2    0    0  0.11078423529E+03  0.93042625146E+02 -0.40802401897E+02  0.19549913781E+03  0.12500000000E+03 0.  0.
         25    1    1    2    0    0 -0.34154587691E+03  0.70221916090E+01 -0.17559554082E+02  0.36419257976E+03  0.12500000000E+03 0.  0.
</event>
<event>
 5    0  0.5771634E-005  0.2955700E+03  0.7546771E-02  0.1087476E+00
         21   -1    0    0  502  501  0.00000000000E+00  0.00000000000E+00  0.64486006735E+02  0.64486006735E+02  0.00000000000E+00 0. -1.
         21   -1    0    0  501  502 -0.00000000000E+00 -0.00000000000E+00 -0.13547381396E+04  0.13547381396E+04  0.00000000000E+00 0. -1.
         25    1    1    2    0    0 -0.43123226061E+02 -0.17481367386E+03 -0.56117747634E+03  0.60246542901E+03  0.12500000000E+03 0.  0.
         25    1    1    2    0    0  0.73523360949E+02  0.18259897831E+03 -0.39507123788E+03  0.45875304302E+03  0.12500000000E+03 0.  0.
         25    1    1    2    0    0 -0.30400134888E+02 -0.77853044567E+01 -0.33400341862E+03  0.35800567428E+03  0.12500000000E+03 0.  0.
</event>
<event>
 5    0  0.5771634E-005  0.2743584E+03  0.7546771E-02  0.1098811E+00
         21   -1    0    0  502  501  0.00000000000E+00  0.00000000000E+00  0.73039765246E+02  0.73039765246E+02  0.00000000000E+00 0.  1.
         21   -1    0    0  501  502 -0.00000000000E+00 -0.00000000000E+00 -0.10305694876E+04  0.10305694876E+04  0.00000000000E+00 0.  1.
         25    1    1    2    0    0  0.45745886723E+02 -0.37778855406E+01 -0.17851302021E+03  0.22270800829E+03  0.12500000000E+03 0.  0.
         25    1    1    2    0    0 -0.16551500097E+03 -0.46181116876E+02 -0.54917854184E+03  0.58885480546E+03  0.12500000000E+03 0.  0.
         25    1    1    2    0    0  0.11976911425E+03  0.49959002416E+02 -0.22983816026E+03  0.29204643905E+03  0.12500000000E+03 0.  0.
</event>
<event>
 5    0  0.5771634E-005  0.4189801E+03  0.7546771E-02  0.1037399E+00
         21   -1    0    0  502  501  0.00000000000E+00  0.00000000000E+00  0.76927398001E+03  0.76927398001E+03  0.00000000000E+00 0.  1.
         21   -1    0    0  501  502 -0.00000000000E+00 -0.00000000000E+00 -0.22819480788E+03  0.22819480788E+03  0.00000000000E+00 0.  1.
         25    1    1    2    0    0 -0.17593834017E+03 -0.44216372661E+02  0.14212802501E+03  0.26217315394E+03  0.12500000000E+03 0.  0.
         25    1    1    2    0    0  0.32457265965E+03 -0.49906154231E+02  0.38168125154E+03  0.51879052941E+03  0.12500000000E+03 0.  0.
         25    1    1    2    0    0 -0.14863431949E+03  0.94122526893E+02  0.17269895573E+02  0.21650510454E+03  0.12500000000E+03 0.  0.
</event>
<event>
 5    0  0.5771634E-005  0.2526580E+03  0.7546771E-02  0.1111636E+00
         21   -1    0    0  502  501  0.00000000000E+00  0.00000000000E+00  0.85678206621E+03  0.85678206621E+03  0.00000000000E+00 0. -1.
         21   -1    0    0  501  502 -0.00000000000E+00 -0.00000000000E+00 -0.74506749488E+02  0.74506749488E+02  0.00000000000E+00 0. -1.
         25    1    1    2    0    0 -0.36387494403E+01  0.97172583903E+02  0.36590686518E+03  0.39870864744E+03  0.12500000000E+03 0.  0.
         25    1    1    2    0    0 -0.37951536218E+02  0.29390183955E+02  0.25856424783E+03  0.29117790484E+03  0.12500000000E+03 0.  0.
         25    1    1    2    0    0  0.41590285658E+02 -0.12656276786E+03  0.15780420371E+03  0.24140226340E+03  0.12500000000E+03 0.  0.
</event>
<event>
 5    0  0.5771634E-005  0.2382069E+03  0.7546771E-02  0.1120993E+00
         21   -1    0    0  502  501  0.00000000000E+00  0.00000000000E+00  0.13558075924E+03  0.13558075924E+03  0.00000000000E+00 0. -1.
         21   -1    0    0  501  502 -0.00000000000E+00 -0.00000000000E+00 -0.41851450039E+03  0.41851450039E+03  0.00000000000E+00 0. -1.
         25    1    1    2    0    0  0.61736111030E+02 -0.69426206545E+02 -0.17637591930E+02  0.15674000832E+03  0.12500000000E+03 0.  0.
         25    1    1    2    0    0 -0.31229793864E+02  0.33907630831E+02 -0.21848902459E+03  0.25590521941E+03  0.12500000000E+03 0.  0.
         25    1    1    2    0    0 -0.30506317166E+02  0.35518575714E+02 -0.46807124639E+02  0.14145003190E+03  0.12500000000E+03 0.  0.
</event>
<event>
 5    0  0.5771634E-005  0.4049797E+03  0.7546771E-02  0.1042069E+00
         21   -1    0    0  502  501  0.00000000000E+00  0.00000000000E+00  0.35998644992E+03  0.35998644992E+03  0.00000000000E+00 0.  1.
         21   -1    0    0  501  502 -0.00000000000E+00 -0.00000000000E+00 -0.45559646567E+03  0.45559646567E+03  0.00000000000E+00 0.  1.
         25    1    1    2    0    0  0.20775713680E+03  0.16609620946E+03  0.12507138689E+02  0.29416391214E+03  0.12500000000E+03 0.  0.
         25    1    1    2    0    0 -0.17600932360E+03 -0.15733937537E+03 -0.22338455151E+03  0.34822495443E+03  0.12500000000E+03 0.  0.
         25    1    1    2    0    0 -0.31747813192E+02 -0.87568340943E+01  0.11526739707E+03  0.17319404901E+03  0.12500000000E+03 0.  0.
</event>
<event>
 5    0  0.5771634E-005  0.3373301E+03  0.7546771E-02  0.1067939E+00
         21   -1    0    0  502  501  0.00000000000E+00  0.00000000000E+00  0.11259747971E+04  0.11259747971E+04  0.00000000000E+00 0. -1.
         21   -1    0    0  501  502 -0.00000000000E+00 -0.00000000000E+00 -0.10106049054E+03  0.10106049054E+03  0.00000000000E+00 0. -1.
         25    1    1    2    0    0 -0.12812468534E+03 -0.62720694961E+01  0.49895402146E+03  0.53012771045E+03  0.12500000000E+03 0.  0.
         25    1    1    2    0    0 -0.56645444591E+02 -0.13142502496E+03  0.17097774215E+03  0.25561618081E+03  0.12500000000E+03 0.  0.
         25    1    1    2    0    0  0.18477012993E+03  0.13769709446E+03  0.35498254298E+03  0.44129139643E+03  0.12500000000E+03 0.  0.
</event>
<event>
 5    0  0.5771634E-005  0.4037590E+03  0.7546771E-02  0.1042486E+00
         21   -1    0    0  502  501  0.00000000000E+00  0.00000000000E+00  0.10287463974E+04  0.10287463974E+04  0.00000000000E+00 0.  1.
         21   -1    0    0  501  502 -0.00000000000E+00 -0.00000000000E+00 -0.15846596952E+03  0.15846596952E+03  0.00000000000E+00 0.  1.
         25    1    1    2    0    0 -0.26612077078E+02 -0.16725901370E+03  0.27457962480E+03  0.34598085303E+03  0.12500000000E+03 0.  0.
         25    1    1    2    0    0  0.15417329096E+03 -0.13437353244E+03  0.19625887389E+03  0.30978733907E+03  0.12500000000E+03 0.  0.
         25    1    1    2    0    0 -0.12756121388E+03  0.30163254614E+03  0.39944192924E+03  0.53144417487E+03  0.12500000000E+03 0.  0.
</event>
<event>
 5    0  0.5771634E-005  0.2328316E+03  0.7546771E-02  0.1124663E+00
         21   -1    0    0  502  501  0.00000000000E+00  0.00000000000E+00  0.10522321220E+03  0.10522321220E+03  0.00000000000E+00 0.  1.
         21   -1    0    0  501  502 -0.00000000000E+00 -0.00000000000E+00 -0.51519562980E+03  0.51519562980E+03  0.00000000000E+00 0.  1.
         25    1    1    2    0    0 -0.17797611246E+02  0.15743793742E+02 -0.10314797479E+03  0.16379599113E+03  0.12500000000E+03 0.  0.
         25    1    1    2    0    0 -0.90223139718E+02 -0.17371987365E+02 -0.75966887840E+02  0.17273670407E+03  0.12500000000E+03 0.  0.
         25    1    1    2    0    0  0.10802075096E+03  0.16281936230E+01 -0.23085755497E+03  0.28388614679E+03  0.12500000000E+03 0.  0.
</event>
<event>
 5    0  0.5771634E-005  0.3399579E+03  0.7546771E-02  0.1066814E+00
         21   -1    0    0  502  501  0.00000000000E+00  0.00000000000E+00  0.15896811611E+04  0.15896811611E+04  0.00000000000E+00 0.  1.
         21   -1    0    0  501  502 -0.00000000000E+00 -0.00000000000E+00 -0.72700992424E+02  0.72700992424E+02  0.00000000000E+00 0.  1.
         25    1    1    2    0    0 -0.83196514725E+02  0.85636660797E+02  0.81944401236E+03  0.83747763381E+03  0.12500000000E+03 0.  0.
         25    1    1    2    0    0 -0.57321073174E+02 -0.13924640286E+03  0.15962621920E+03  0.25254860126E+03  0.12500000000E+03 0.  0.
         25    1    1    2    0    0  0.14051758790E+03  0.53609742061E+02  0.53790993709E+03  0.57235591844E+03  0.12500000000E+03 0.  0.
</event>
<event>
 5    0  0.5771634E-005  0.2469318E+03  0.7546771E-02  0.1115259E+00
         21   -1    0    0  502  501  0.00000000000E+00  0.00000000000E+00  0.54217443314E+03  0.54217443314E+03  0.00000000000E+00 0. -1.
         21   -1    0    0  501  502 -0.00000000000E+00 -0.00000000000E+00 -0.11246438195E+03  0.11246438195E+03  0.00000000000E+00 0. -1.
         25    1    1    2    0    0  0.78108536611E+02  0.93541716380E+02  0.20502716602E+03  0.26928077354E+03  0.12500000000E+03 0.  0.
         25    1    1    2    0    0 -0.55240032422E+02 -0.36582485156E+01  0.17479580358E+03  0.22190857783E+03  0.12500000000E+03 0.  0.
         25    1    1    2    0    0 -0.22868504190E+02 -0.89883467864E+02  0.49887081598E+02  0.16344946372E+03  0.12500000000E+03 0.  0.
</event>
<event>
 5    0  0.5771634E-005  0.2594440E+03  0.7546771E-02  0.1107478E+00
         21   -1    0    0  502  501  0.00000000000E+00  0.00000000000E+00  0.24447163752E+03  0.24447163752E+03  0.00000000000E+00 0. -1.
         21   -1    0    0  501  502 -0.00000000000E+00 -0.00000000000E+00 -0.27533342426E+03  0.27533342426E+03  0.00000000000E+00 0. -1.
         25    1    1    2    0    0  0.46447260921E+02 -0.11616381410E+03 -0.91233223752E+02  0.19899718809E+03  0.12500000000E+03 0.  0.
         25    1    1    2    0    0  0.18094468075E+02  0.11881748441E+03  0.20833197659E+02  0.17465401942E+03  0.12500000000E+03 0.  0.
         25    1    1    2    0    0 -0.64541728996E+02 -0.26536703099E+01  0.39538239352E+02  0.14615385427E+03  0.12500000000E+03 0.  0.
</event>
<event>
 5    0  0.5771634E-005  0.3427256E+03  0.7546771E-02  0.1065641E+00
         21   -1    0    0  502  501  0.00000000000E+00  0.00000000000E+00  0.13646241056E+04  0.13646241056E+04  0.00000000000E+00 0.  1.
         21   -1    0    0  501  502 -0.00000000000E+00 -0.00000000000E+00 -0.86075594823E+02  0.86075594823E+02  0.00000000000E+00 0.  1.
         25    1    1    2    0    0 -0.10192898594E+03  0.19503086072E+03  0.28990932700E+03  0.38483629336E+03  0.12500000000E+03 0.  0.
         25    1    1    2    0    0  0.12453499843E+03 -0.10792520370E+03  0.77732627897E+03  0.80437426576E+03  0.12500000000E+03 0.  0.
         25    1    1    2    0    0 -0.22606012491E+02 -0.87105657022E+02  0.21131290484E+03  0.26148914134E+03  0.12500000000E+03 0.  0.
</event>
<event>
 5    0  0.5771634E-005  0.2939510E+03  0.7546771E-02  0.1088304E+00
         21   -1    0    0  502  501  0.00000000000E+00  0.00000000000E+00  0.43286739582E+02  0.43286739582E+02  0.00000000000E+00 0.  1.
         21   -1    0    0  501  502 -0.00000000000E+00 -0.00000000000E+00 -0.19961590158E+04  0.19961590158E+04  0.00000000000E+00 0.  1.
         25    1    1    2    0    0  0.58819423190E+02 -0.70977826808E+02 -0.70837766680E+03  0.72520445066E+03  0.12500000000E+03 0.  0.
         25    1    1    2    0    0 -0.19247670334E+03  0.34352024061E+02 -0.77552070658E+03  0.80949657764E+03  0.12500000000E+03 0.  0.
         25    1    1    2    0    0  0.13365728015E+03  0.36625802746E+02 -0.46897390285E+03  0.50474472708E+03  0.12500000000E+03 0.  0.
</event>
<event>
 5    0  0.5771634E-005  0.2761502E+03  0.7546771E-02  0.1097810E+00
         21   -1    0    0  502  501  0.00000000000E+00  0.00000000000E+00  0.12602069291E+03  0.12602069291E+03  0.00000000000E+00 0. -1.
         21   -1    0    0  501  502 -0.00000000000E+00 -0.00000000000E+00 -0.60513025443E+03  0.60513025443E+03  0.00000000000E+00 0. -1.
         25    1    1    2    0    0  0.70865694068E+01  0.18794789101E+02  0.37797825240E+02  0.13212546748E+03  0.12500000000E+03 0.  0.
         25    1    1    2    0    0  0.74637066126E+02  0.33866339113E+01 -0.31383024789E+03  0.34597194311E+03  0.12500000000E+03 0.  0.
         25    1    1    2    0    0 -0.81723635533E+02 -0.22181423012E+02 -0.20307713887E+03  0.25305353675E+03  0.12500000000E+03 0.  0.
</event>
<event>
 5    0  0.5771634E-005  0.2293440E+03  0.7546771E-02  0.1127102E+00
         21   -1    0    0  502  501  0.00000000000E+00  0.00000000000E+00  0.11832852442E+03  0.11832852442E+03  0.00000000000E+00 0. -1.
         21   -1    0    0  501  502 -0.00000000000E+00 -0.00000000000E+00 -0.44451391087E+03  0.44451391087E+03  0.00000000000E+00 0. -1.
         25    1    1    2    0    0  0.68841133777E+02  0.28829434027E+02 -0.67056308933E+02  0.16028657627E+03  0.12500000000E+03 0.  0.
         25    1    1    2    0    0 -0.93490070447E+02 -0.37848838725E+02 -0.21296494870E+03  0.26674331714E+03  0.12500000000E+03 0.  0.
         25    1    1    2    0    0  0.24648936669E+02  0.90194046982E+01 -0.46164128817E+02  0.13581254187E+03  0.12500000000E+03 0.  0.
</event>
<event>
 5    0  0.5771634E-005  0.2739638E+03  0.7546771E-02  0.1099032E+00
         21   -1    0    0  502  501  0.00000000000E+00  0.00000000000E+00  0.20515701891E+04  0.20515701891E+04  0.00000000000E+00 0.  1.
         21   -1    0    0  501  502 -0.00000000000E+00 -0.00000000000E+00 -0.36584748325E+02  0.36584748325E+02  0.00000000000E+00 0.  1.
         25    1    1    2    0    0 -0.10767620873E+02  0.14825182633E+02  0.12057180699E+04  0.12123187665E+04  0.12500000000E+03 0.  0.
         25    1    1    2    0    0  0.38974153818E+01 -0.11261667395E+03  0.50954799196E+03  0.53662077971E+03  0.12500000000E+03 0.  0.
         25    1    1    2    0    0  0.68702054912E+01  0.97791491314E+02  0.29971937893E+03  0.33921539116E+03  0.12500000000E+03 0.  0.
</event>
<event>
 5    0  0.5771634E-005  0.2529384E+03  0.7546771E-02  0.1111462E+00
         21   -1    0    0  502  501  0.00000000000E+00  0.00000000000E+00  0.18671778755E+03  0.18671778755E+03  0.00000000000E+00 0.  1.
         21   -1    0    0  501  502 -0.00000000000E+00 -0.00000000000E+00 -0.34264455522E+03  0.34264455522E+03  0.00000000000E+00 0.  1.
         25    1    1    2    0    0  0.40595302227E+02 -0.27835661526E+02  0.29087640853E+02  0.13745505980E+03  0.12500000000E+03 0.  0.
         25    1    1    2    0    0  0.60005859189E+02 -0.62718436025E+02 -0.39755579644E+02  0.15728894261E+03  0.12500000000E+03 0.  0.
         25    1    1    2    0    0 -0.10060116142E+03  0.90554097551E+02 -0.14525882888E+03  0.23461834035E+03  0.12500000000E+03 0.  0.
</event>
<event>
 5    0  0.5771634E-005  0.3020296E+03  0.7546771E-02  0.1084230E+00
         21   -1    0    0  502  501  0.00000000000E+00  0.00000000000E+00  0.47145711497E+03  0.47145711497E+03  0.00000000000E+00 0. -1.
         21   -1    0    0  501  502 -0.00000000000E+00 -0.00000000000E+00 -0.19348924473E+03  0.19348924473E+03  0.00000000000E+00 0. -1.
         25    1    1    2    0    0 -0.66745613214E+02  0.59601031810E+02  0.29212785724E+03  0.33010747470E+03  0.12500000000E+03 0.  0.
         25    1    1    2    0    0  0.11065038514E+03  0.27763123112E+02 -0.40397500937E+02  0.17398636963E+03  0.12500000000E+03 0.  0.
         25    1    1    2    0    0 -0.43904771923E+02 -0.87364154922E+02  0.26237513933E+02  0.16085251537E+03  0.12500000000E+03 0.  0.
</event>
<event>
 5    0  0.5771634E-005  0.2898998E+03  0.7546771E-02  0.1090401E+00
         21   -1    0    0  502  501  0.00000000000E+00  0.00000000000E+00  0.98369671448E+02  0.98369671448E+02  0.00000000000E+00 0.  1.
         21   -1    0    0  501  502 -0.00000000000E+00 -0.00000000000E+00 -0.85434739279E+03  0.85434739279E+03  0.00000000000E+00 0.  1.
         25    1    1    2    0    0 -0.89881448004E+02  0.17422115305E+02 -0.45094276126E+03  0.47681923067E+03  0.12500000000E+03 0.  0.
         25    1    1    2    0    0 -0.28301784861E+02 -0.90381635437E+02 -0.22105889940E+03  0.27103849921E+03  0.12500000000E+03 0.  0.
         25    1    1    2    0    0  0.11818323286E+03  0.72959520133E+02 -0.83976060683E+02  0.20485933436E+03  0.12500000000E+03 0.  0.
</event>
<event>
 5    0  0.5771634E-005  0.3086864E+03  0.7546771E-02  0.1080977E+00
         21   -1    0    0  502  501  0.00000000000E+00  0.00000000000E+00  0.22145779222E+04  0.22145779222E+04  0.00000000000E+00 0. -1.
         21   -1    0    0  501  502 -0.00000000000E+00 -0.00000000000E+00 -0.43027290213E+02  0.43027290213E+02  0.00000000000E+00 0. -1.
         25    1    1    2    0    0  0.16333858283E+03  0.28142898275E+02  0.83486169054E+03  0.86028516068E+03  0.12500000000E+03 0.  0.
         25    1    1    2    0    0 -0.76282142471E+02  0.11384659517E+03  0.45462719771E+03  0.49101008278E+03  0.12500000000E+03 0.  0.
         25    1    1    2    0    0 -0.87056440357E+02 -0.14198949345E+03  0.88206174378E+03  0.90630996900E+03  0.12500000000E+03 0.  0.
</event>
<event>
 5    0  0.5771634E-005  0.2158949E+03  0.7546771E-02  0.1136981E+00
         21   -1    0    0  502  501  0.00000000000E+00  0.00000000000E+00  0.25374879987E+03  0.25374879987E+03  0.00000000000E+00 0.  1.
         21   -1    0    0  501  502 -0.00000000000E+00 -0.00000000000E+00 -0.18368793587E+03  0.18368793587E+03  0.00000000000E+00 0.  1.
         25    1    1    2    0    0 -0.43937770848E+02  0.47215330125E+02  0.16480587162E+02  0.14162070773E+03  0.12500000000E+03 0.  0.
         25    1    1    2    0    0  0.83760251598E+02 -0.24133239879E+01  0.11433575968E+02  0.15092160395E+03  0.12500000000E+03 0.  0.
         25    1    1    2    0    0 -0.39822480750E+02 -0.44802006137E+02  0.42146700876E+02  0.14489442405E+03  0.12500000000E+03 0.  0.
</event>
<event>
 5    0  0.5771634E-005  0.2995744E+03  0.7546771E-02  0.1085454E+00
         21   -1    0    0  502  501  0.00000000000E+00  0.00000000000E+00  0.20972644803E+03  0.20972644803E+03  0.00000000000E+00 0. -1.
         21   -1    0    0  501  502 -0.00000000000E+00 -0.00000000000E+00 -0.42791360100E+03  0.42791360100E+03  0.00000000000E+00 0. -1.
         25    1    1    2    0    0 -0.40375661094E+02  0.96439633679E+02 -0.29820336412E+03  0.33982501869E+03  0.12500000000E+03 0.  0.
         25    1    1    2    0    0  0.48036495447E+02 -0.10928518380E+02  0.26082809331E+02  0.13686581148E+03  0.12500000000E+03 0.  0.
         25    1    1    2    0    0 -0.76608343528E+01 -0.85511115299E+02  0.53933401824E+02  0.16094921887E+03  0.12500000000E+03 0.  0.
</event>
<event>
 5    0  0.5968158E-005  0.4479003E+03  0.7546771E-02  0.1028350E+00
         21   -1    0    0  502  501  0.00000000000E+00  0.00000000000E+00  0.70268641389E+03  0.70268641389E+03  0.00000000000E+00 0. -1.
         21   -1    0    0  501  502 -0.00000000000E+00 -0.00000000000E+00 -0.28549679600E+03  0.28549679600E+03  0.00000000000E+00 0. -1.
         25    1    1    2    0    0 -0.49936080707E+02 -0.26404285539E+03  0.42762384669E+03  0.52028780103E+03  0.12500000000E+03 0.  0.
         25    1    1    2    0    0 -0.30847516534E+02  0.92529160220E+02 -0.13557491317E+03  0.20861153335E+03  0.12500000000E+03 0.  0.
         25    1    1    2    0    0  0.80783597241E+02  0.17151369517E+03  0.12514068437E+03  0.25928387551E+03  0.12500000000E+03 0.  0.
</event>
<event>
 5    0  0.5771634E-005  0.3295192E+03  0.7546771E-02  0.1071350E+00
         21   -1    0    0  502  501  0.00000000000E+00  0.00000000000E+00  0.75150860868E+03  0.75150860868E+03  0.00000000000E+00 0.  1.
         21   -1    0    0  501  502 -0.00000000000E+00 -0.00000000000E+00 -0.14448654172E+03  0.14448654172E+03  0.00000000000E+00 0.  1.
         25    1    1    2    0    0 -0.21679137199E+03 -0.77504547263E+02  0.42819891172E+03  0.50198083810E+03  0.12500000000E+03 0.  0.
         25    1    1    2    0    0  0.14771862619E+03  0.15451037766E+02  0.11572833403E+03  0.22600348313E+03  0.12500000000E+03 0.  0.
         25    1    1    2    0    0  0.69072745809E+02  0.62053509497E+02  0.63094821212E+02  0.16801082917E+03  0.12500000000E+03 0.  0.
</event>
<event>
 5    0  0.5771634E-005  0.3047536E+03  0.7546771E-02  0.1082888E+00
         21   -1    0    0  502  501  0.00000000000E+00  0.00000000000E+00  0.12382654024E+04  0.12382654024E+04  0.00000000000E+00 0.  1.
         21   -1    0    0  501  502 -0.00000000000E+00 -0.00000000000E+00 -0.75003933107E+02  0.75003933107E+02  0.00000000000E+00 0.  1.
         25    1    1    2    0    0 -0.33080122179E+02  0.60332799010E+01  0.48034212594E+03  0.49747789187E+03  0.12500000000E+03 0.  0.
         25    1    1    2    0    0  0.19112557586E+03 -0.44795041694E+02  0.28385256915E+03  0.36705975334E+03  0.12500000000E+03 0.  0.
         25    1    1    2    0    0 -0.15804545368E+03  0.38761761793E+02  0.39906677426E+03  0.44873169035E+03  0.12500000000E+03 0.  0.
</event>
<event>
 5    0  0.5771634E-005  0.2795641E+03  0.7546771E-02  0.1095927E+00
         21   -1    0    0  502  501  0.00000000000E+00  0.00000000000E+00  0.38418721874E+03  0.38418721874E+03  0.00000000000E+00 0. -1.
         21   -1    0    0  501  502 -0.00000000000E+00 -0.00000000000E+00 -0.20343229670E+03  0.20343229670E+03  0.00000000000E+00 0. -1.
         25    1    1    2    0    0  0.12773239852E+03  0.11467558452E+03  0.40174440038E+02  0.21611349090E+03  0.12500000000E+03 0.  0.
         25    1    1    2    0    0 -0.11442128305E+03 -0.84986881878E+02  0.13106656262E+02  0.19003100943E+03  0.12500000000E+03 0.  0.
         25    1    1    2    0    0 -0.13311115471E+02 -0.29688702646E+02  0.12747382574E+03  0.18147501511E+03  0.12500000000E+03 0.  0.
</event>
<event>
 5    0  0.5771634E-005  0.3393192E+03  0.7546771E-02  0.1067086E+00
         21   -1    0    0  502  501  0.00000000000E+00  0.00000000000E+00  0.16908549456E+04  0.16908549456E+04  0.00000000000E+00 0.  1.
         21   -1    0    0  501  502 -0.00000000000E+00 -0.00000000000E+00 -0.68094264965E+02  0.68094264965E+02  0.00000000000E+00 0.  1.
         25    1    1    2    0    0 -0.18012528353E+02 -0.29701474052E+02  0.11797080177E+04  0.11868203890E+04  0.12500000000E+03 0.  0.
         25    1    1    2    0    0 -0.91165638384E+02  0.92764365003E+02  0.26593318497E+03  0.32134383440E+03  0.12500000000E+03 0.  0.
         25    1    1    2    0    0  0.10917816674E+03 -0.63062890951E+02  0.17711947794E+03  0.25078498713E+03  0.12500000000E+03 0.  0.
</event>
<event>
 5    0  0.5771634E-005  0.2492393E+03  0.7546771E-02  0.1113786E+00
         21   -1    0    0  502  501  0.00000000000E+00  0.00000000000E+00  0.37103217291E+03  0.37103217291E+03  0.00000000000E+00 0. -1.
         21   -1    0    0  501  502 -0.00000000000E+00 -0.00000000000E+00 -0.16742548572E+03  0.16742548572E+03  0.00000000000E+00 0. -1.
         25    1    1    2    0    0  0.36289244550E+02 -0.93111174867E+02  0.11928184395E+03  0.19959899411E+03  0.12500000000E+03 0.  0.
         25    1    1    2    0    0  0.21083795315E+02  0.49631785632E+02  0.12930979661E+03  0.18776012375E+03  0.12500000000E+03 0.  0.
         25    1    1    2    0    0 -0.57373039864E+02  0.43479389235E+02 -0.44984953370E+02  0.15109854076E+03  0.12500000000E+03 0.  0.
</event>
<event>
 5    0  0.5771634E-005  0.5344527E+03  0.7546771E-02  0.1005158E+00
         21   -1    0    0  502  501  0.00000000000E+00  0.00000000000E+00  0.22901351507E+03  0.22901351507E+03  0.00000000000E+00 0. -1.
         21   -1    0    0  501  502 -0.00000000000E+00 -0.00000000000E+00 -0.12472612167E+04  0.12472612167E+04  0.00000000000E+00 0. -1.
         25    1    1    2    0    0 -0.32480217394E+03 -0.79632279341E+02 -0.79764333911E+03  0.87389796232E+03  0.12500000000E+03 0.  0.
         25    1    1    2    0    0  0.11301123204E+03  0.14721672912E+03  0.51309997854E+02  0.22956920477E+03  0.12500000000E+03 0.  0.
         25    1    1    2    0    0  0.21179094190E+03 -0.67584449777E+02 -0.27191436041E+03  0.37280756473E+03  0.12500000000E+03 0.  0.
</event>
<event>
 5    0  0.5771634E-005  0.5108535E+03  0.7546771E-02  0.1010984E+00
         21   -1    0    0  502  501  0.00000000000E+00  0.00000000000E+00  0.10784502642E+04  0.10784502642E+04  0.00000000000E+00 0. -1.
         21   -1    0    0  501  502 -0.00000000000E+00 -0.00000000000E+00 -0.24198732092E+03  0.24198732092E+03  0.00000000000E+00 0. -1.
         25    1    1    2    0    0 -0.43251026561E+02 -0.42846284004E+02  0.64139043616E+03  0.65628739661E+03  0.12500000000E+03 0.  0.
         25    1    1    2    0    0  0.28920628970E+03  0.10435178596E+03  0.21822383803E+02  0.33261207084E+03  0.12500000000E+03 0.  0.
         25    1    1    2    0    0 -0.24595526314E+03 -0.61505501952E+02  0.17325012332E+03  0.33153811767E+03  0.12500000000E+03 0.  0.
</event>
<event>
 5    0  0.5771634E-005  0.2483197E+03  0.7546771E-02  0.1114371E+00
         21   -1    0    0  502  501  0.00000000000E+00  0.00000000000E+00  0.50050835606E+03  0.50050835606E+03  0.00000000000E+00 0. -1.
         21   -1    0    0  501  502 -0.00000000000E+00 -0.00000000000E+00 -0.12320011984E+03  0.12320011984E+03  0.00000000000E+00 0. -1.
         25    1    1    2    0    0 -0.25950783513E+02  0.33810513083E+02  0.30174816059E+01  0.13210109445E+03  0.12500000000E+03 0.  0.
         25    1    1    2    0    0 -0.59089745973E+02  0.22572690580E+02  0.95694004973E+02  0.16965690975E+03  0.12500000000E+03 0.  0.
         25    1    1    2    0    0  0.85040529486E+02 -0.56383203663E+02  0.27859674965E+03  0.32195047169E+03  0.12500000000E+03 0.  0.
</event>
<event>
 5    0  0.5771634E-005  0.2689276E+03  0.7546771E-02  0.1101895E+00
         21   -1    0    0  502  501  0.00000000000E+00  0.00000000000E+00  0.29014374939E+03  0.29014374939E+03  0.00000000000E+00 0. -1.
         21   -1    0    0  501  502 -0.00000000000E+00 -0.00000000000E+00 -0.24926278837E+03  0.24926278837E+03  0.00000000000E+00 0. -1.
         25    1    1    2    0    0  0.92171088788E+02  0.15074003205E+03  0.38771551946E+02  0.21987792093E+03  0.12500000000E+03 0.  0.
         25    1    1    2    0    0 -0.21958968937E+01 -0.46665066899E+02 -0.46241457279E+01  0.13352465374E+03  0.12500000000E+03 0.  0.
         25    1    1    2    0    0 -0.89975191894E+02 -0.10407496515E+03  0.67335547969E+01  0.18600396310E+03  0.12500000000E+03 0.  0.
</event>
<event>
 5    0  0.5771634E-005  0.2222250E+03  0.7546771E-02  0.1132235E+00
         21   -1    0    0  502  501  0.00000000000E+00  0.00000000000E+00  0.10119104350E+03  0.10119104350E+03  0.00000000000E+00 0. -1.
         21   -1    0    0  501  502 -0.00000000000E+00 -0.00000000000E+00 -0.48802695873E+03  0.48802695873E+03  0.00000000000E+00 0. -1.
         25    1    1    2    0    0 -0.38030713045E+02 -0.10181029478E+03 -0.12168672273E+03  0.20553425444E+03  0.12500000000E+03 0.  0.
         25    1    1    2    0    0  0.23926322451E+02  0.40064911362E+02 -0.97905059790E+02  0.16549340398E+03  0.12500000000E+03 0.  0.
         25    1    1    2    0    0  0.14104390595E+02  0.61745383415E+02 -0.16724413271E+03  0.21819034382E+03  0.12500000000E+03 0.  0.
</event>
<event>
 5    0  0.5771634E-005  0.2818928E+03  0.7546771E-02  0.1094660E+00
         21   -1    0    0  502  501  0.00000000000E+00  0.00000000000E+00  0.90871255373E+02  0.90871255373E+02  0.00000000000E+00 0.  1.
         21   -1    0    0  501  502 -0.00000000000E+00 -0.00000000000E+00 -0.87446290517E+03  0.87446290517E+03  0.00000000000E+00 0.  1.
         25    1    1    2    0    0  0.36680361203E+02 -0.79938451957E+02 -0.11303169618E+03  0.19009673680E+03  0.12500000000E+03 0.  0.
         25    1    1    2    0    0  0.70329754488E+02  0.14866284104E+03 -0.41556570504E+03  0.46407625438E+03  0.12500000000E+03 0.  0.
         25    1    1    2    0    0 -0.10701011569E+03 -0.68724389087E+02 -0.25499424858E+03  0.31116116937E+03  0.12500000000E+03 0.  0.
</event>
<event>
 5    0  0.5771634E-005  0.4745507E+03  0.7546771E-02  0.1020644E+00
         21   -1    0    0  502  501  0.00000000000E+00  0.00000000000E+00  0.46682940048E+03  0.46682940048E+03  0.00000000000E+00 0. -1.
         21   -1    0    0  501  502 -0.00000000000E+00 -0.00000000000E+00 -0.48239972813E+03  0.48239972813E+03  0.00000000000E+00 0. -1.
         25    1    1    2    0    0 -0.69130133596E+02  0.28456739494E+03  0.13689488516E+03  0.34658734429E+03  0.12500000000E+03 0.  0.
         25    1    1    2    0    0  0.15242466449E+03 -0.10050109466E+03  0.11127741963E+03  0.24767198568E+03  0.12500000000E+03 0.  0.
         25    1    1    2    0    0 -0.83294530891E+02 -0.18406630029E+03 -0.26374263244E+03  0.35496979864E+03  0.12500000000E+03 0.  0.
</event>
<event>
 5    0  0.5771634E-005  0.2478319E+03  0.7546771E-02  0.1114683E+00
         21   -1    0    0  502  501  0.00000000000E+00  0.00000000000E+00  0.21765182536E+04  0.21765182536E+04  0.00000000000E+00 0.  1.
         21   -1    0    0  501  502 -0.00000000000E+00 -0.00000000000E+00 -0.28219681112E+02  0.28219681112E+02  0.00000000000E+00 0.  1.
         25    1    1    2    0    0  0.46719494859E+01 -0.75913863804E+02  0.66642557939E+03  0.68229963703E+03  0.12500000000E+03 0.  0.
         25    1    1    2    0    0  0.81217936153E+01  0.65042377688E+02  0.27607930538E+03  0.31006653687E+03  0.12500000000E+03 0.  0.
         25    1    1    2    0    0 -0.12793743101E+02  0.10871486116E+02  0.12057936877E+04  0.12123717608E+04  0.12500000000E+03 0.  0.
</event>
<event>
 5    0  0.5771634E-005  0.2258505E+03  0.7546771E-02  0.1129595E+00
         21   -1    0    0  502  501  0.00000000000E+00  0.00000000000E+00  0.27892225864E+03  0.27892225864E+03  0.00000000000E+00 0.  1.
         21   -1    0    0  501  502 -0.00000000000E+00 -0.00000000000E+00 -0.18287698140E+03  0.18287698140E+03  0.00000000000E+00 0.  1.
         25    1    1    2    0    0 -0.39754158318E+02  0.87231808824E+02  0.67093887147E+02  0.17122024199E+03  0.12500000000E+03 0.  0.
         25    1    1    2    0    0  0.74599059466E+02 -0.41703187486E+02  0.20408217939E+02  0.15279290193E+03  0.12500000000E+03 0.  0.
         25    1    1    2    0    0 -0.34844901148E+02 -0.45528621339E+02  0.85431721527E+01  0.13778609613E+03  0.12500000000E+03 0.  0.
</event>
<event>
 5    0  0.5771634E-005  0.3369483E+03  0.7546771E-02  0.1068103E+00
         21   -1    0    0  502  501  0.00000000000E+00  0.00000000000E+00  0.23641976169E+03  0.23641976169E+03  0.00000000000E+00 0.  1.
         21   -1    0    0  501  502 -0.00000000000E+00 -0.00000000000E+00 -0.48022291639E+03  0.48022291639E+03  0.00000000000E+00 0.  1.
         25    1    1    2    0    0 -0.22197146319E+03 -0.36414290294E+02  0.24811629245E+02  0.25853036176E+03  0.12500000000E+03 0.  0.
         25    1    1    2    0    0  0.16872512120E+03 -0.42114265675E+02 -0.15426385445E+03  0.26393960424E+03  0.12500000000E+03 0.  0.
         25    1    1    2    0    0  0.53246341990E+02  0.78528555969E+02 -0.11435092950E+03  0.19417271208E+03  0.12500000000E+03 0.  0.
</event>
<event>
 5    0  0.5771634E-005  0.4647736E+03  0.7546771E-02  0.1023406E+00
         21   -1    0    0  502  501  0.00000000000E+00  0.00000000000E+00  0.46869975181E+03  0.46869975181E+03  0.00000000000E+00 0.  1.
         21   -1    0    0  501  502 -0.00000000000E+00 -0.00000000000E+00 -0.46088038193E+03  0.46088038193E+03  0.00000000000E+00 0.  1.
         25    1    1    2    0    0  0.61095202084E+02  0.72098739181E+02  0.46702422763E+02  0.16351442811E+03  0.12500000000E+03 0.  0.
         25    1    1    2    0    0 -0.23603945203E+03 -0.26018573623E+03  0.17235116775E+03  0.41078116471E+03  0.12500000000E+03 0.  0.
         25    1    1    2    0    0  0.17494424995E+03  0.18808699705E+03 -0.21123422063E+03  0.35528454092E+03  0.12500000000E+03 0.  0.
</event>
<event>
 5    0  0.5771634E-005  0.2268017E+03  0.7546771E-02  0.1128911E+00
         21   -1    0    0  502  501  0.00000000000E+00  0.00000000000E+00  0.75047721637E+02  0.75047721637E+02  0.00000000000E+00 0.  1.
         21   -1    0    0  501  502 -0.00000000000E+00 -0.00000000000E+00 -0.68541741090E+03  0.68541741090E+03  0.00000000000E+00 0.  1.
         25    1    1    2    0    0 -0.32946633351E+02  0.88308447457E+02 -0.30835161539E+03  0.34581726570E+03  0.12500000000E+03 0.  0.
         25    1    1    2    0    0  0.32457192531E+02 -0.71731758861E+00 -0.11223774799E+03  0.17110317345E+03  0.12500000000E+03 0.  0.
         25    1    1    2    0    0  0.48944081983E+00 -0.87591129868E+02 -0.18978032588E+03  0.24354469338E+03  0.12500000000E+03 0.  0.
</event>
<event>
 5    0  0.5771634E-005  0.2675415E+03  0.7546771E-02  0.1102695E+00
         21   -1    0    0  502  501  0.00000000000E+00  0.00000000000E+00  0.24068207271E+03  0.24068207271E+03  0.00000000000E+00 0. -1.
         21   -1    0    0  501  502 -0.00000000000E+00 -0.00000000000E+00 -0.29739844432E+03  0.29739844432E+03  0.00000000000E+00 0. -1.
         25    1    1    2    0    0 -0.51940534466E+02  0.89331532850E+02  0.24987145740E+01  0.16220106491E+03  0.12500000000E+03 0.  0.
         25    1    1    2    0    0  0.10923734711E+03 -0.83745103752E+02  0.58356975104E+02  0.19487579878E+03  0.12500000000E+03 0.  0.
         25    1    1    2    0    0 -0.57296812639E+02 -0.55864290978E+01 -0.11757206130E+03  0.18100365335E+03  0.12500000000E+03 0.  0.
</event>
<event>
 5    0  0.5771634E-005  0.3692493E+03  0.7546771E-02  0.1054980E+00
         21   -1    0    0  502  501  0.00000000000E+00  0.00000000000E+00  0.71139689502E+03  0.71139689502E+03  0.00000000000E+00 0.  1.
         21   -1    0    0  501  502 -0.00000000000E+00 -0.00000000000E+00 -0.19165819123E+03  0.19165819123E+03  0.00000000000E+00 0.  1.
         25    1    1    2    0    0  0.13701137392E+03  0.38599325052E+02  0.35525976175E+03  0.40261212450E+03  0.12500000000E+03 0.  0.
         25    1    1    2    0    0 -0.20307807756E+03 -0.15639883367E+03  0.70296406942E+02  0.29371395198E+03  0.12500000000E+03 0.  0.
         25    1    1    2    0    0  0.66066703643E+02  0.11779950862E+03  0.94182535105E+02  0.20672900977E+03  0.12500000000E+03 0.  0.
</event>
<event>
 5    0  0.5771634E-005  0.3182020E+03  0.7546771E-02  0.1076480E+00
         21   -1    0    0  502  501  0.00000000000E+00  0.00000000000E+00  0.10649255240E+03  0.10649255240E+03  0.00000000000E+00 0. -1.
         21   -1    0    0  501  502 -0.00000000000E+00 -0.00000000000E+00 -0.95079420465E+03  0.95079420465E+03  0.00000000000E+00 0. -1.
         25    1    1    2    0    0  0.13868380920E+03 -0.26426716506E+02 -0.25095486799E+03  0.31390271749E+03  0.12500000000E+03 0.  0.
         25    1    1    2    0    0 -0.16434125571E+03  0.15471949379E+03 -0.41925149072E+03  0.49228343722E+03  0.12500000000E+03 0.  0.
         25    1    1    2    0    0  0.25657446508E+02 -0.12829277729E+03 -0.17409529354E+03  0.25110060234E+03  0.12500000000E+03 0.  0.
</event>
<event>
 5    0  0.5771634E-005  0.2728123E+03  0.7546771E-02  0.1099681E+00
         21   -1    0    0  502  501  0.00000000000E+00  0.00000000000E+00  0.94236386140E+02  0.94236386140E+02  0.00000000000E+00 0.  1.
         21   -1    0    0  501  502 -0.00000000000E+00 -0.00000000000E+00 -0.78978593044E+03  0.78978593044E+03  0.00000000000E+00 0.  1.
         25    1    1    2    0    0 -0.94021199734E+02 -0.85148928924E+02 -0.37691264567E+03  0.41686744723E+03  0.12500000000E+03 0.  0.
         25    1    1    2    0    0 -0.42973502639E+02  0.43084022393E+02 -0.74602206231E+02  0.15777656381E+03  0.12500000000E+03 0.  0.
         25    1    1    2    0    0  0.13699470237E+03  0.42064906531E+02 -0.24403469240E+03  0.30937830553E+03  0.12500000000E+03 0.  0.
</event>
<event>
 5    0  0.5771634E-005  0.3602767E+03  0.7546771E-02  0.1058474E+00
         21   -1    0    0  502  501  0.00000000000E+00  0.00000000000E+00  0.97929604553E+03  0.97929604553E+03  0.00000000000E+00 0.  1.
         21   -1    0    0  501  502 -0.00000000000E+00 -0.00000000000E+00 -0.13254346394E+03  0.13254346394E+03  0.00000000000E+00 0.  1.
         25    1    1    2    0    0  0.21942811246E+03 -0.12893280156E+03  0.55225773392E+03  0.62079462670E+03  0.12500000000E+03 0.  0.
         25    1    1    2    0    0 -0.17307377871E+03  0.13813617007E+03  0.22909129535E+03  0.34226299239E+03  0.12500000000E+03 0.  0.
         25    1    1    2    0    0 -0.46354333749E+02 -0.92033685050E+01  0.65403552320E+02  0.14878189038E+03  0.12500000000E+03 0.  0.
</event>
<event>
 5    0  0.5771634E-005  0.2685167E+03  0.7546771E-02  0.1102132E+00
         21   -1    0    0  502  501  0.00000000000E+00  0.00000000000E+00  0.43649104053E+02  0.43649104053E+02  0.00000000000E+00 0.  1.
         21   -1    0    0  501  502 -0.00000000000E+00 -0.00000000000E+00 -0.16518375116E+04  0.16518375116E+04  0.00000000000E+00 0.  1.
         25    1    1    2    0    0  0.29706056024E+02  0.80372061949E+02 -0.68966695348E+03  0.70612153687E+03  0.12500000000E+03 0.  0.
         25    1    1    2    0    0  0.17796102820E+02  0.77379055605E+02 -0.26093535829E+03  0.30002746662E+03  0.12500000000E+03 0.  0.
         25    1    1    2    0    0 -0.47502158844E+02 -0.15775111755E+03 -0.65758609581E+03  0.68933761219E+03  0.12500000000E+03 0.  0.
</event>
<event>
 5    0  0.5771634E-005  0.2554759E+03  0.7546771E-02  0.1109892E+00
         21   -1    0    0  502  501  0.00000000000E+00  0.00000000000E+00  0.29168451868E+03  0.29168451868E+03  0.00000000000E+00 0.  1.
         21   -1    0    0  501  502 -0.00000000000E+00 -0.00000000000E+00 -0.22376216076E+03  0.22376216076E+03  0.00000000000E+00 0.  1.
         25    1    1    2    0    0  0.73500518642E+02  0.86098317716E+02  0.13089251328E+03  0.21347856236E+03  0.12500000000E+03 0.  0.
         25    1    1    2    0    0 -0.73703074225E+02 -0.51225437161E+01 -0.17539707582E+02  0.14625670906E+03  0.12500000000E+03 0.  0.
         25    1    1    2    0    0  0.20255558300E+00 -0.80975774000E+02 -0.45430447775E+02  0.15571140802E+03  0.12500000000E+03 0.  0.
</event>
<event>
 5    0  0.5771634E-005  0.2162182E+03  0.7546771E-02  0.1136734E+00
         21   -1    0    0  502  501  0.00000000000E+00  0.00000000000E+00  0.88378341020E+02  0.88378341020E+02  0.00000000000E+00 0. -1.
         21   -1    0    0  501  502 -0.00000000000E+00 -0.00000000000E+00 -0.52897912708E+03  0.52897912708E+03  0.00000000000E+00 0. -1.
         25    1    1    2    0    0  0.70509904134E+02 -0.48660008807E+02 -0.20670500204E+03  0.25630333768E+03  0.12500000000E+03 0.  0.
         25    1    1    2    0    0  0.87805599508E+00  0.34578336752E+02 -0.97602919332E+02  0.16231993783E+03  0.12500000000E+03 0.  0.
         25    1    1    2    0    0 -0.71387960129E+02  0.14081672055E+02 -0.13629286469E+03  0.19873419259E+03  0.12500000000E+03 0.  0.
</event>
<event>
 5    0  0.5771634E-005  0.3806601E+03  0.7546771E-02  0.1050690E+00
         21   -1    0    0  502  501  0.00000000000E+00  0.00000000000E+00  0.35142683739E+03  0.35142683739E+03  0.00000000000E+00 0.  1.
         21   -1    0    0  501  502 -0.00000000000E+00 -0.00000000000E+00 -0.41232501940E+03  0.41232501940E+03  0.00000000000E+00 0.  1.
         25    1    1    2    0    0  0.98940619548E+02 -0.79652727486E+02 -0.86906534149E+02  0.19827140205E+03  0.12500000000E+03 0.  0.
         25    1    1    2    0    0 -0.11052836125E+03  0.25949374564E+03  0.11437060443E+03  0.32902759433E+03  0.12500000000E+03 0.  0.
         25    1    1    2    0    0  0.11587741706E+02 -0.17984101816E+03 -0.88362252283E+02  0.23645286042E+03  0.12500000000E+03 0.  0.
</event>
<event>
 5    0  0.5771634E-005  0.2614044E+03  0.7546771E-02  0.1106302E+00
         21   -1    0    0  502  501  0.00000000000E+00  0.00000000000E+00  0.54629739464E+02  0.54629739464E+02  0.00000000000E+00 0.  1.
         21   -1    0    0  501  502 -0.00000000000E+00 -0.00000000000E+00 -0.12508253789E+04  0.12508253789E+04  0.00000000000E+00 0.  1.
         25    1    1    2    0    0 -0.16208627536E+02  0.33244593999E+02 -0.24462394341E+03  0.27718909850E+03  0.12500000000E+03 0.  0.
         25    1    1    2    0    0  0.15266758898E+03  0.11834902317E+02 -0.43898070027E+03  0.48143173228E+03  0.12500000000E+03 0.  0.
         25    1    1    2    0    0 -0.13645896144E+03 -0.45079496317E+02 -0.51259099572E+03  0.54683428755E+03  0.12500000000E+03 0.  0.
</event>
<event>
 5    0  0.5771634E-005  0.4197785E+03  0.7546771E-02  0.1037138E+00
         21   -1    0    0  502  501  0.00000000000E+00  0.00000000000E+00  0.32899091636E+03  0.32899091636E+03  0.00000000000E+00 0. -1.
         21   -1    0    0  501  502 -0.00000000000E+00 -0.00000000000E+00 -0.53561952754E+03  0.53561952754E+03  0.00000000000E+00 0. -1.
         25    1    1    2    0    0  0.12590404415E+03  0.51939424211E+02 -0.38624406218E+03  0.42820439943E+03  0.12500000000E+03 0.  0.
         25    1    1    2    0    0  0.80361201101E+02  0.50265137052E+01  0.84027534536E+02  0.17078880245E+03  0.12500000000E+03 0.  0.
         25    1    1    2    0    0 -0.20626524525E+03 -0.56965937916E+02  0.95587916465E+02  0.26561724202E+03  0.12500000000E+03 0.  0.
</event>
<event>
 5    0  0.5771634E-005  0.3248330E+03  0.7546771E-02  0.1073446E+00
         21   -1    0    0  502  501  0.00000000000E+00  0.00000000000E+00  0.20637290289E+03  0.20637290289E+03  0.00000000000E+00 0.  1.
         21   -1    0    0  501  502 -0.00000000000E+00 -0.00000000000E+00 -0.51129047999E+03  0.51129047999E+03  0.00000000000E+00 0.  1.
         25    1    1    2    0    0 -0.12122085472E+03  0.79777168935E+02  0.51951973892E+02  0.19845125319E+03  0.12500000000E+03 0.  0.
         25    1    1    2    0    0  0.15030667172E+01 -0.13591445307E+03 -0.24053179453E+03  0.30324172197E+03  0.12500000000E+03 0.  0.
         25    1    1    2    0    0  0.11971778801E+03  0.56137284135E+02 -0.11633775646E+03  0.21597040773E+03  0.12500000000E+03 0.  0.
</event>
