<event>
 5    0  0.5605075E-005  0.2043285E+03  0.7546771E-02  0.1146138E+00
         21   -1    0    0  502  501  0.00000000000E+00  0.00000000000E+00  0.13568864366E+04  0.13568864366E+04  0.00000000000E+00 0.  1.
         21   -1    0    0  501  502 -0.00000000000E+00 -0.00000000000E+00 -0.30769071619E+02  0.30769071619E+02  0.00000000000E+00 0.  1.
         25    1    1    2    0    0 -0.50029288089E+02 -0.22440744287E+01  0.64342513128E+03  0.65736509270E+03  0.12500000000E+03 0.  0.
         25    1    1    2    0    0  0.40730279307E+02 -0.37140740593E+01  0.39802633164E+03  0.41919292775E+03  0.12500000000E+03 0.  0.
         25    1    1    2    0    0  0.92990087825E+01  0.59581484880E+01  0.28466590205E+03  0.31109748775E+03  0.12500000000E+03 0.  0.
</event>
<event>
 5    0  0.5605075E-005  0.2214067E+03  0.7546771E-02  0.1132839E+00
         21   -1    0    0  502  501  0.00000000000E+00  0.00000000000E+00  0.89644403691E+03  0.89644403691E+03  0.00000000000E+00 0.  1.
         21   -1    0    0  501  502 -0.00000000000E+00 -0.00000000000E+00 -0.54683750872E+02  0.54683750872E+02  0.00000000000E+00 0.  1.
         25    1    1    2    0    0  0.44917821875E+02 -0.65168772895E+01  0.24011447501E+03  0.27448140469E+03  0.12500000000E+03 0.  0.
         25    1    1    2    0    0  0.62719960172E+02  0.12830376488E+02  0.22240406780E+03  0.26303418283E+03  0.12500000000E+03 0.  0.
         25    1    1    2    0    0 -0.10763778205E+03 -0.63134991988E+01  0.37924174322E+03  0.41361220026E+03  0.12500000000E+03 0.  0.
</event>
<event>
 5    0  0.5605075E-005  0.2484200E+03  0.7546771E-02  0.1114307E+00
         21   -1    0    0  502  501  0.00000000000E+00  0.00000000000E+00  0.18247857185E+04  0.18247857185E+04  0.00000000000E+00 0.  1.
         21   -1    0    0  501  502 -0.00000000000E+00 -0.00000000000E+00 -0.33819047234E+02  0.33819047234E+02  0.00000000000E+00 0.  1.
         25    1    1    2    0    0 -0.96323624658E+01 -0.32943765469E+02  0.10251435131E+04  0.10333064872E+04  0.12500000000E+03 0.  0.
         25    1    1    2    0    0 -0.47762177638E+02  0.64107126249E+02  0.25167484930E+03  0.29215779815E+03  0.12500000000E+03 0.  0.
         25    1    1    2    0    0  0.57394540104E+02 -0.31163360781E+02  0.51414830886E+03  0.53314048036E+03  0.12500000000E+03 0.  0.
</event>
<event>
 5    0  0.5605075E-005  0.4365927E+03  0.7546771E-02  0.1031797E+00
         21   -1    0    0  502  501  0.00000000000E+00  0.00000000000E+00  0.11982666476E+04  0.11982666476E+04  0.00000000000E+00 0. -1.
         21   -1    0    0  501  502 -0.00000000000E+00 -0.00000000000E+00 -0.15907408024E+03  0.15907408024E+03  0.00000000000E+00 0. -1.
         25    1    1    2    0    0 -0.61859513126E+02 -0.17812811032E+03  0.10291568216E+03  0.24854146673E+03  0.12500000000E+03 0.  0.
         25    1    1    2    0    0 -0.17015334228E+03  0.18347821069E+02  0.66590883758E+03  0.69881927735E+03  0.12500000000E+03 0.  0.
         25    1    1    2    0    0  0.23201285541E+03  0.15978028925E+03  0.27036804762E+03  0.40997998375E+03  0.12500000000E+03 0.  0.
</event>
<event>
 5    0  0.5605075E-005  0.4245448E+03  0.7546771E-02  0.1035597E+00
         21   -1    0    0  502  501  0.00000000000E+00  0.00000000000E+00  0.40546960426E+03  0.40546960426E+03  0.00000000000E+00 0.  1.
         21   -1    0    0  501  502 -0.00000000000E+00 -0.00000000000E+00 -0.44451729304E+03  0.44451729304E+03  0.00000000000E+00 0.  1.
         25    1    1    2    0    0  0.16960296608E+02 -0.44390496445E+02  0.30668192552E+02  0.13719951119E+03  0.12500000000E+03 0.  0.
         25    1    1    2    0    0  0.29048840744E+02  0.29493747047E+03 -0.22193489518E+03  0.39078388444E+03  0.12500000000E+03 0.  0.
         25    1    1    2    0    0 -0.46009137353E+02 -0.25054697402E+03  0.15221901385E+03  0.32200350167E+03  0.12500000000E+03 0.  0.
</event>
<event>
 5    0  0.5605075E-005  0.2371341E+03  0.7546771E-02  0.1121717E+00
         21   -1    0    0  502  501  0.00000000000E+00  0.00000000000E+00  0.10310308828E+03  0.10310308828E+03  0.00000000000E+00 0.  1.
         21   -1    0    0  501  502 -0.00000000000E+00 -0.00000000000E+00 -0.54540154430E+03  0.54540154430E+03  0.00000000000E+00 0.  1.
         25    1    1    2    0    0 -0.13061181861E+02  0.68718057632E+01 -0.25501477356E+03  0.28438591899E+03  0.12500000000E+03 0.  0.
         25    1    1    2    0    0 -0.60192416203E+02  0.22424267202E+02 -0.21779733774E+02  0.14221579213E+03  0.12500000000E+03 0.  0.
         25    1    1    2    0    0  0.73253598064E+02 -0.29296072965E+02 -0.16550394868E+03  0.22190292145E+03  0.12500000000E+03 0.  0.
</event>
<event>
 5    0  0.5605075E-005  0.3193400E+03  0.7546771E-02  0.1075953E+00
         21   -1    0    0  502  501  0.00000000000E+00  0.00000000000E+00  0.25539517210E+03  0.25539517210E+03  0.00000000000E+00 0. -1.
         21   -1    0    0  501  502 -0.00000000000E+00 -0.00000000000E+00 -0.39929518719E+03  0.39929518719E+03  0.00000000000E+00 0. -1.
         25    1    1    2    0    0 -0.73227162266E+02  0.15843669414E+03 -0.10212043645E+03  0.23773511916E+03  0.12500000000E+03 0.  0.
         25    1    1    2    0    0 -0.81814915209E+02 -0.12989670650E+02  0.43291239916E+02  0.15608184823E+03  0.12500000000E+03 0.  0.
         25    1    1    2    0    0  0.15504207748E+03 -0.14544702349E+03 -0.85070818557E+02  0.26087339190E+03  0.12500000000E+03 0.  0.
</event>
<event>
 5    0  0.5605075E-005  0.2894318E+03  0.7546771E-02  0.1090646E+00
         21   -1    0    0  502  501  0.00000000000E+00  0.00000000000E+00  0.10659907414E+04  0.10659907414E+04  0.00000000000E+00 0. -1.
         21   -1    0    0  501  502 -0.00000000000E+00 -0.00000000000E+00 -0.78584875275E+02  0.78584875275E+02  0.00000000000E+00 0. -1.
         25    1    1    2    0    0 -0.18538626510E+03  0.44609850466E+02  0.35448706848E+03  0.42147857332E+03  0.12500000000E+03 0.  0.
         25    1    1    2    0    0  0.82865393675E+02 -0.35479112260E+02  0.46479313927E+03  0.48967652914E+03  0.12500000000E+03 0.  0.
         25    1    1    2    0    0  0.10252087142E+03 -0.91307382060E+01  0.16812565840E+03  0.23342051424E+03  0.12500000000E+03 0.  0.
</event>
<event>
 5    0  0.5605075E-005  0.3524811E+03  0.7546771E-02  0.1061601E+00
         21   -1    0    0  502  501  0.00000000000E+00  0.00000000000E+00  0.14340041684E+03  0.14340041684E+03  0.00000000000E+00 0. -1.
         21   -1    0    0  501  502 -0.00000000000E+00 -0.00000000000E+00 -0.86640540249E+03  0.86640540249E+03  0.00000000000E+00 0. -1.
         25    1    1    2    0    0  0.24481903945E+03 -0.82475427170E+02 -0.15677909460E+03  0.32702177705E+03  0.12500000000E+03 0.  0.
         25    1    1    2    0    0 -0.14353469399E+03  0.19828719590E+02 -0.39854988074E+03  0.44211129135E+03  0.12500000000E+03 0.  0.
         25    1    1    2    0    0 -0.10128434546E+03  0.62646707581E+02 -0.16767601031E+03  0.24067275093E+03  0.12500000000E+03 0.  0.
</event>
<event>
 5    0  0.5605075E-005  0.2391240E+03  0.7546771E-02  0.1120378E+00
         21   -1    0    0  502  501  0.00000000000E+00  0.00000000000E+00  0.18874899719E+03  0.18874899719E+03  0.00000000000E+00 0. -1.
         21   -1    0    0  501  502 -0.00000000000E+00 -0.00000000000E+00 -0.30294358596E+03  0.30294358596E+03  0.00000000000E+00 0. -1.
         25    1    1    2    0    0  0.24022466776E+02  0.18732415767E+01 -0.10693522827E+03  0.16625501794E+03  0.12500000000E+03 0.  0.
         25    1    1    2    0    0  0.29262456280E+02 -0.62091256099E+02 -0.76099233027E+02  0.16164067774E+03  0.12500000000E+03 0.  0.
         25    1    1    2    0    0 -0.53284923055E+02  0.60218014522E+02  0.68839872523E+02  0.16379688748E+03  0.12500000000E+03 0.  0.
</event>
<event>
 5    0  0.5605075E-005  0.3847677E+03  0.7546771E-02  0.1049186E+00
         21   -1    0    0  502  501  0.00000000000E+00  0.00000000000E+00  0.12317057343E+03  0.12317057343E+03  0.00000000000E+00 0.  1.
         21   -1    0    0  501  502 -0.00000000000E+00 -0.00000000000E+00 -0.12019604585E+04  0.12019604585E+04  0.00000000000E+00 0.  1.
         25    1    1    2    0    0 -0.82054409228E+02  0.25308486488E+03 -0.22767013776E+03  0.37181119743E+03  0.12500000000E+03 0.  0.
         25    1    1    2    0    0 -0.69074282990E+02 -0.11959351764E+03 -0.45402342802E+03  0.49075058760E+03  0.12500000000E+03 0.  0.
         25    1    1    2    0    0  0.15112869222E+03 -0.13349134724E+03 -0.39709631932E+03  0.46256924694E+03  0.12500000000E+03 0.  0.
</event>
<event>
 5    0  0.5605075E-005  0.2358090E+03  0.7546771E-02  0.1122617E+00
         21   -1    0    0  502  501  0.00000000000E+00  0.00000000000E+00  0.20186772765E+03  0.20186772765E+03  0.00000000000E+00 0. -1.
         21   -1    0    0  501  502 -0.00000000000E+00 -0.00000000000E+00 -0.27545691640E+03  0.27545691640E+03  0.00000000000E+00 0. -1.
         25    1    1    2    0    0  0.10300542999E+03 -0.17284168502E+02 -0.66253509410E+01  0.16302685780E+03  0.12500000000E+03 0.  0.
         25    1    1    2    0    0  0.24563173366E+02  0.16617049102E+02 -0.29143966971E+02  0.13173399947E+03  0.12500000000E+03 0.  0.
         25    1    1    2    0    0 -0.12756860335E+03  0.66711940032E+00 -0.37819870839E+02  0.18256378677E+03  0.12500000000E+03 0.  0.
</event>
<event>
 5    0  0.5605075E-005  0.5595861E+03  0.7546771E-02  0.9992992E-01
         21   -1    0    0  502  501  0.00000000000E+00  0.00000000000E+00  0.76768480928E+03  0.76768480928E+03  0.00000000000E+00 0.  1.
         21   -1    0    0  501  502 -0.00000000000E+00 -0.00000000000E+00 -0.40789735207E+03  0.40789735207E+03  0.00000000000E+00 0.  1.
         25    1    1    2    0    0  0.23688413395E+03 -0.13823006517E+03  0.24141993150E+03  0.38617383023E+03  0.12500000000E+03 0.  0.
         25    1    1    2    0    0 -0.41766288744E+03  0.17260585451E+03 -0.98063992101E+02  0.47903717507E+03  0.12500000000E+03 0.  0.
         25    1    1    2    0    0  0.18077875349E+03 -0.34375789340E+02  0.21643151780E+03  0.31037115605E+03  0.12500000000E+03 0.  0.
</event>
<event>
 5    0  0.5605075E-005  0.2757601E+03  0.7546771E-02  0.1098027E+00
         21   -1    0    0  502  501  0.00000000000E+00  0.00000000000E+00  0.38549021473E+03  0.38549021473E+03  0.00000000000E+00 0. -1.
         21   -1    0    0  501  502 -0.00000000000E+00 -0.00000000000E+00 -0.19726479610E+03  0.19726479610E+03  0.00000000000E+00 0. -1.
         25    1    1    2    0    0 -0.59556104509E+02  0.98456212842E+02  0.36429133663E+02  0.17376028663E+03  0.12500000000E+03 0.  0.
         25    1    1    2    0    0  0.11130657897E+03 -0.49640473321E+02 -0.30047398448E+02  0.17714733209E+03  0.12500000000E+03 0.  0.
         25    1    1    2    0    0 -0.51750474458E+02 -0.48815739521E+02  0.18184368341E+03  0.23184739211E+03  0.12500000000E+03 0.  0.
</event>
<event>
 5    0  0.5605075E-005  0.2802940E+03  0.7546771E-02  0.1095528E+00
         21   -1    0    0  502  501  0.00000000000E+00  0.00000000000E+00  0.14299658527E+03  0.14299658527E+03  0.00000000000E+00 0. -1.
         21   -1    0    0  501  502 -0.00000000000E+00 -0.00000000000E+00 -0.54941682094E+03  0.54941682094E+03  0.00000000000E+00 0. -1.
         25    1    1    2    0    0  0.49831298446E+02  0.88154420531E+02 -0.87691822317E+02  0.18321903794E+03  0.12500000000E+03 0.  0.
         25    1    1    2    0    0  0.75933818298E+02 -0.13582851342E+03 -0.23224231028E+03  0.30623001241E+03  0.12500000000E+03 0.  0.
         25    1    1    2    0    0 -0.12576511674E+03  0.47674092888E+02 -0.86486103080E+02  0.20296435586E+03  0.12500000000E+03 0.  0.
</event>
<event>
 5    0  0.5605075E-005  0.2519746E+03  0.7546771E-02  0.1112063E+00
         21   -1    0    0  502  501  0.00000000000E+00  0.00000000000E+00  0.73784249452E+02  0.73784249452E+02  0.00000000000E+00 0.  1.
         21   -1    0    0  501  502 -0.00000000000E+00 -0.00000000000E+00 -0.86049778175E+03  0.86049778175E+03  0.00000000000E+00 0.  1.
         25    1    1    2    0    0  0.23760839690E+02 -0.10312654429E+03 -0.13952250565E+03  0.21515387801E+03  0.12500000000E+03 0.  0.
         25    1    1    2    0    0  0.67065718854E+01 -0.19822406197E+02 -0.18870276036E+03  0.22731396275E+03  0.12500000000E+03 0.  0.
         25    1    1    2    0    0 -0.30467411576E+02  0.12294895049E+03 -0.45848826629E+03  0.49181419044E+03  0.12500000000E+03 0.  0.
</event>
<event>
 5    0  0.5605075E-005  0.2360969E+03  0.7546771E-02  0.1122421E+00
         21   -1    0    0  502  501  0.00000000000E+00  0.00000000000E+00  0.24868104568E+03  0.24868104568E+03  0.00000000000E+00 0.  1.
         21   -1    0    0  501  502 -0.00000000000E+00 -0.00000000000E+00 -0.22414946291E+03  0.22414946291E+03  0.00000000000E+00 0.  1.
         25    1    1    2    0    0  0.32616470334E+02 -0.20938325281E+02  0.12906753668E+02  0.13150601466E+03  0.12500000000E+03 0.  0.
         25    1    1    2    0    0  0.72782753336E+02 -0.15815631697E+02 -0.62142876876E+02  0.15822199763E+03  0.12500000000E+03 0.  0.
         25    1    1    2    0    0 -0.10539922367E+03  0.36753956979E+02  0.73767705982E+02  0.18310249630E+03  0.12500000000E+03 0.  0.
</event>
<event>
 5    0  0.5605075E-005  0.4279803E+03  0.7546771E-02  0.1034500E+00
         21   -1    0    0  502  501  0.00000000000E+00  0.00000000000E+00  0.30054433704E+03  0.30054433704E+03  0.00000000000E+00 0. -1.
         21   -1    0    0  501  502 -0.00000000000E+00 -0.00000000000E+00 -0.60945137510E+03  0.60945137510E+03  0.00000000000E+00 0. -1.
         25    1    1    2    0    0 -0.53707128907E+02 -0.78025208326E+02 -0.29244414592E+03  0.33184479401E+03  0.12500000000E+03 0.  0.
         25    1    1    2    0    0 -0.10595986053E+03 -0.41938088571E+02  0.19739976585E+03  0.25995761745E+03  0.12500000000E+03 0.  0.
         25    1    1    2    0    0  0.15966698944E+03  0.11996329690E+03 -0.21386265798E+03  0.31819330068E+03  0.12500000000E+03 0.  0.
</event>
<event>
 5    0  0.5605075E-005  0.5730978E+03  0.7546771E-02  0.9962847E-01
         21   -1    0    0  502  501  0.00000000000E+00  0.00000000000E+00  0.14520173670E+03  0.14520173670E+03  0.00000000000E+00 0. -1.
         21   -1    0    0  501  502 -0.00000000000E+00 -0.00000000000E+00 -0.22619639920E+04  0.22619639920E+04  0.00000000000E+00 0. -1.
         25    1    1    2    0    0 -0.77815341856E+02 -0.35591095214E+03 -0.80940128617E+03  0.89637228613E+03  0.12500000000E+03 0.  0.
         25    1    1    2    0    0  0.52215922265E+01 -0.10941414099E+03 -0.76004949490E+03  0.77800961046E+03  0.12500000000E+03 0.  0.
         25    1    1    2    0    0  0.72593749629E+02  0.46532509313E+03 -0.54731147427E+03  0.73278383214E+03  0.12500000000E+03 0.  0.
</event>
<event>
 5    0  0.5605075E-005  0.3800645E+03  0.7546771E-02  0.1050910E+00
         21   -1    0    0  502  501  0.00000000000E+00  0.00000000000E+00  0.37718850977E+03  0.37718850977E+03  0.00000000000E+00 0. -1.
         21   -1    0    0  501  502 -0.00000000000E+00 -0.00000000000E+00 -0.38296251040E+03  0.38296251040E+03  0.00000000000E+00 0. -1.
         25    1    1    2    0    0  0.27134950243E+03 -0.15451677080E+03 -0.88805213486E+02  0.34787548184E+03  0.12500000000E+03 0.  0.
         25    1    1    2    0    0 -0.12712327446E+03  0.68846105148E+02  0.66764475565E+02  0.20244161702E+03  0.12500000000E+03 0.  0.
         25    1    1    2    0    0 -0.14422622797E+03  0.85670665653E+02  0.16266737289E+02  0.20983392130E+03  0.12500000000E+03 0.  0.
</event>
<event>
 5    0  0.5725208E-005  0.4249388E+03  0.7546771E-02  0.1035471E+00
         21   -1    0    0  502  501  0.00000000000E+00  0.00000000000E+00  0.88886016030E+03  0.88886016030E+03  0.00000000000E+00 0.  1.
         21   -1    0    0  501  502 -0.00000000000E+00 -0.00000000000E+00 -0.20315116369E+03  0.20315116369E+03  0.00000000000E+00 0.  1.
         25    1    1    2    0    0 -0.22822532478E+03 -0.88782693291E+01  0.19726094152E+03  0.32665348855E+03  0.12500000000E+03 0.  0.
         25    1    1    2    0    0  0.40281222509E+02 -0.30433605862E+02 -0.77003340289E+02  0.15525236123E+03  0.12500000000E+03 0.  0.
         25    1    1    2    0    0  0.18794410227E+03  0.39311875192E+02  0.56545139538E+03  0.61010547420E+03  0.12500000000E+03 0.  0.
</event>
<event>
 5    0  0.5605075E-005  0.4218526E+03  0.7546771E-02  0.1036465E+00
         21   -1    0    0  502  501  0.00000000000E+00  0.00000000000E+00  0.17954637725E+03  0.17954637725E+03  0.00000000000E+00 0. -1.
         21   -1    0    0  501  502 -0.00000000000E+00 -0.00000000000E+00 -0.99116227931E+03  0.99116227931E+03  0.00000000000E+00 0. -1.
         25    1    1    2    0    0 -0.89845463507E+02 -0.26349691618E+03 -0.48129816598E+03  0.56989100424E+03  0.12500000000E+03 0.  0.
         25    1    1    2    0    0  0.82412745727E+02  0.32625385796E+03 -0.26547414231E+03  0.44646943986E+03  0.12500000000E+03 0.  0.
         25    1    1    2    0    0  0.74327177800E+01 -0.62756941783E+02 -0.64843593769E+02  0.15434821246E+03  0.12500000000E+03 0.  0.
</event>
<event>
 5    0  0.5605075E-005  0.2490303E+03  0.7546771E-02  0.1113919E+00
         21   -1    0    0  502  501  0.00000000000E+00  0.00000000000E+00  0.23077127085E+03  0.23077127085E+03  0.00000000000E+00 0.  1.
         21   -1    0    0  501  502 -0.00000000000E+00 -0.00000000000E+00 -0.26873391350E+03  0.26873391350E+03  0.00000000000E+00 0.  1.
         25    1    1    2    0    0  0.93079463428E+02 -0.90053508873E+02 -0.59046803276E+02  0.18943322293E+03  0.12500000000E+03 0.  0.
         25    1    1    2    0    0 -0.93186750076E+02  0.92857172258E+02 -0.82076142413E+01  0.18165513965E+03  0.12500000000E+03 0.  0.
         25    1    1    2    0    0  0.10728664837E+00 -0.28036633854E+01  0.29291774870E+02  0.12841682177E+03  0.12500000000E+03 0.  0.
</event>
<event>
 5    0  0.5605075E-005  0.2288156E+03  0.7546771E-02  0.1127476E+00
         21   -1    0    0  502  501  0.00000000000E+00  0.00000000000E+00  0.87612603999E+02  0.87612603999E+02  0.00000000000E+00 0. -1.
         21   -1    0    0  501  502 -0.00000000000E+00 -0.00000000000E+00 -0.59759210117E+03  0.59759210117E+03  0.00000000000E+00 0. -1.
         25    1    1    2    0    0  0.40696112822E+02 -0.30622294971E+02 -0.21449995861E+03  0.25343466770E+03  0.12500000000E+03 0.  0.
         25    1    1    2    0    0 -0.10119002100E+02  0.75071131180E+02 -0.24746518344E+03  0.28740578622E+03  0.12500000000E+03 0.  0.
         25    1    1    2    0    0 -0.30577110722E+02 -0.44448836209E+02 -0.48014355125E+02  0.14436425125E+03  0.12500000000E+03 0.  0.
</event>
<event>
 5    0  0.5605075E-005  0.2854592E+03  0.7546771E-02  0.1092744E+00
         21   -1    0    0  502  501  0.00000000000E+00  0.00000000000E+00  0.58612484897E+02  0.58612484897E+02  0.00000000000E+00 0. -1.
         21   -1    0    0  501  502 -0.00000000000E+00 -0.00000000000E+00 -0.13902657921E+04  0.13902657921E+04  0.00000000000E+00 0. -1.
         25    1    1    2    0    0  0.71284385697E+02  0.37734725633E+02 -0.24905076889E+03  0.29009767087E+03  0.12500000000E+03 0.  0.
         25    1    1    2    0    0 -0.18901688857E+03 -0.21186409157E+02 -0.75463447971E+03  0.78820964601E+03  0.12500000000E+03 0.  0.
         25    1    1    2    0    0  0.11773250287E+03 -0.16548316476E+02 -0.32796805858E+03  0.37057096009E+03  0.12500000000E+03 0.  0.
</event>
<event>
 5    0  0.5605075E-005  0.3830544E+03  0.7546771E-02  0.1049811E+00
         21   -1    0    0  502  501  0.00000000000E+00  0.00000000000E+00  0.63976537761E+03  0.63976537761E+03  0.00000000000E+00 0.  1.
         21   -1    0    0  501  502 -0.00000000000E+00 -0.00000000000E+00 -0.22935071794E+03  0.22935071794E+03  0.00000000000E+00 0.  1.
         25    1    1    2    0    0  0.50984035374E+02  0.23673374324E+03  0.33894747675E+03  0.43491680704E+03  0.12500000000E+03 0.  0.
         25    1    1    2    0    0  0.88234617241E+02 -0.14887333195E+03 -0.57148183771E+01  0.21355625909E+03  0.12500000000E+03 0.  0.
         25    1    1    2    0    0 -0.13921865261E+03 -0.87860411286E+02  0.77182001298E+02  0.22064302942E+03  0.12500000000E+03 0.  0.
</event>
<event>
 5    0  0.5605075E-005  0.2481152E+03  0.7546771E-02  0.1114502E+00
         21   -1    0    0  502  501  0.00000000000E+00  0.00000000000E+00  0.11807810021E+04  0.11807810021E+04  0.00000000000E+00 0. -1.
         21   -1    0    0  501  502 -0.00000000000E+00 -0.00000000000E+00 -0.52135956540E+02  0.52135956540E+02  0.00000000000E+00 0. -1.
         25    1    1    2    0    0 -0.57440243520E+00 -0.61590253777E+02  0.15050787502E+03  0.20511291949E+03  0.12500000000E+03 0.  0.
         25    1    1    2    0    0  0.13897185075E+02 -0.50264114755E+02  0.30093397648E+03  0.33000889562E+03  0.12500000000E+03 0.  0.
         25    1    1    2    0    0 -0.13322782639E+02  0.11185436853E+03  0.67720319403E+03  0.69779514351E+03  0.12500000000E+03 0.  0.
</event>
<event>
 5    0  0.5605075E-005  0.2202580E+03  0.7546771E-02  0.1133691E+00
         21   -1    0    0  502  501  0.00000000000E+00  0.00000000000E+00  0.19528594553E+03  0.19528594553E+03  0.00000000000E+00 0.  1.
         21   -1    0    0  501  502 -0.00000000000E+00 -0.00000000000E+00 -0.24842326975E+03  0.24842326975E+03  0.00000000000E+00 0.  1.
         25    1    1    2    0    0 -0.12650147635E+02  0.16967982023E+02 -0.28182527639E+02  0.12987375991E+03  0.12500000000E+03 0.  0.
         25    1    1    2    0    0 -0.18157867174E+02  0.64438165086E+02 -0.65524114227E+02  0.15620625725E+03  0.12500000000E+03 0.  0.
         25    1    1    2    0    0  0.30808014809E+02 -0.81406147110E+02  0.40569317655E+02  0.15762919812E+03  0.12500000000E+03 0.  0.
</event>
<event>
 5    0  0.5605075E-005  0.3788949E+03  0.7546771E-02  0.1051343E+00
         21   -1    0    0  502  501  0.00000000000E+00  0.00000000000E+00  0.33449348173E+04  0.33449348173E+04  0.00000000000E+00 0. -1.
         21   -1    0    0  501  502 -0.00000000000E+00 -0.00000000000E+00 -0.42919031889E+02  0.42919031889E+02  0.00000000000E+00 0. -1.
         25    1    1    2    0    0  0.21748950230E+03  0.74601421921E+02  0.16563250304E+04  0.16768734783E+04  0.12500000000E+03 0.  0.
         25    1    1    2    0    0 -0.56852447807E+02 -0.17959799215E+03  0.10182581934E+04  0.10430543552E+04  0.12500000000E+03 0.  0.
         25    1    1    2    0    0 -0.16063705449E+03  0.10499657023E+03  0.62743256168E+03  0.66792601574E+03  0.12500000000E+03 0.  0.
</event>
<event>
 5    0  0.5605075E-005  0.2753464E+03  0.7546771E-02  0.1098258E+00
         21   -1    0    0  502  501  0.00000000000E+00  0.00000000000E+00  0.97201679493E+03  0.97201679493E+03  0.00000000000E+00 0. -1.
         21   -1    0    0  501  502 -0.00000000000E+00 -0.00000000000E+00 -0.77998270935E+02  0.77998270935E+02  0.00000000000E+00 0. -1.
         25    1    1    2    0    0  0.11066892857E+03 -0.39391356825E+02  0.17177728007E+03  0.24275857285E+03  0.12500000000E+03 0.  0.
         25    1    1    2    0    0 -0.59349504831E+02 -0.55251438924E+02  0.14886963694E+03  0.21062348879E+03  0.12500000000E+03 0.  0.
         25    1    1    2    0    0 -0.51319423737E+02  0.94642795749E+02  0.57337160698E+03  0.59663300423E+03  0.12500000000E+03 0.  0.
</event>
<event>
 5    0  0.5605075E-005  0.3142074E+03  0.7546771E-02  0.1078347E+00
         21   -1    0    0  502  501  0.00000000000E+00  0.00000000000E+00  0.98288517858E+02  0.98288517858E+02  0.00000000000E+00 0. -1.
         21   -1    0    0  501  502 -0.00000000000E+00 -0.00000000000E+00 -0.10044539079E+04  0.10044539079E+04  0.00000000000E+00 0. -1.
         25    1    1    2    0    0  0.15383526260E+03 -0.91627601623E+02 -0.22725827731E+03  0.31517016039E+03  0.12500000000E+03 0.  0.
         25    1    1    2    0    0 -0.11670170649E+03  0.36350175486E+02 -0.12263558299E+03  0.21355352905E+03  0.12500000000E+03 0.  0.
         25    1    1    2    0    0 -0.37133556114E+02  0.55277426137E+02 -0.55627152973E+03  0.57401873630E+03  0.12500000000E+03 0.  0.
</event>
<event>
 5    0  0.6082874E-005  0.2895636E+03  0.7546771E-02  0.1090577E+00
         21   -1    0    0  502  501  0.00000000000E+00  0.00000000000E+00  0.10333147926E+04  0.10333147926E+04  0.00000000000E+00 0. -1.
         21   -1    0    0  501  502 -0.00000000000E+00 -0.00000000000E+00 -0.81143777298E+02  0.81143777298E+02  0.00000000000E+00 0. -1.
         25    1    1    2    0    0 -0.75651131962E+02  0.13522023865E+03  0.19057490282E+03  0.27559281611E+03  0.12500000000E+03 0.  0.
         25    1    1    2    0    0 -0.33495263192E+02 -0.91299533621E+02  0.51202182758E+03  0.53595605176E+03  0.12500000000E+03 0.  0.
         25    1    1    2    0    0  0.10914639515E+03 -0.43920705027E+02  0.24957428494E+03  0.30290970207E+03  0.12500000000E+03 0.  0.
</event>
<event>
 5    0  0.5605075E-005  0.3258620E+03  0.7546771E-02  0.1072983E+00
         21   -1    0    0  502  501  0.00000000000E+00  0.00000000000E+00  0.49274347322E+03  0.49274347322E+03  0.00000000000E+00 0.  1.
         21   -1    0    0  501  502 -0.00000000000E+00 -0.00000000000E+00 -0.21549970792E+03  0.21549970792E+03  0.00000000000E+00 0.  1.
         25    1    1    2    0    0  0.13484737347E+03  0.10793165842E+03 -0.18571796313E+02  0.21401628125E+03  0.12500000000E+03 0.  0.
         25    1    1    2    0    0 -0.14168456030E+02 -0.13357371762E+03  0.25459356709E+03  0.31382410294E+03  0.12500000000E+03 0.  0.
         25    1    1    2    0    0 -0.12067891744E+03  0.25642059192E+02  0.41221994532E+02  0.18040279695E+03  0.12500000000E+03 0.  0.
</event>
<event>
 5    0  0.5605075E-005  0.2415036E+03  0.7546771E-02  0.1118795E+00
         21   -1    0    0  502  501  0.00000000000E+00  0.00000000000E+00  0.41794699242E+03  0.41794699242E+03  0.00000000000E+00 0. -1.
         21   -1    0    0  501  502 -0.00000000000E+00 -0.00000000000E+00 -0.13954872908E+03  0.13954872908E+03  0.00000000000E+00 0. -1.
         25    1    1    2    0    0  0.15154027512E+02  0.10713830709E+03  0.10621342474E+03  0.19650585994E+03  0.12500000000E+03 0.  0.
         25    1    1    2    0    0 -0.67121762948E+02 -0.26498452408E+02  0.13813113232E+03  0.19978165271E+03  0.12500000000E+03 0.  0.
         25    1    1    2    0    0  0.51967735436E+02 -0.80639854683E+02  0.34053706280E+02  0.16120820885E+03  0.12500000000E+03 0.  0.
</event>
<event>
 5    0  0.5605075E-005  0.2890956E+03  0.7546771E-02  0.1090822E+00
         21   -1    0    0  502  501  0.00000000000E+00  0.00000000000E+00  0.62723540093E+02  0.62723540093E+02  0.00000000000E+00 0.  1.
         21   -1    0    0  501  502 -0.00000000000E+00 -0.00000000000E+00 -0.13324545878E+04  0.13324545878E+04  0.00000000000E+00 0.  1.
         25    1    1    2    0    0 -0.11685784410E+03  0.28447541605E+02 -0.23075035059E+03  0.28867930762E+03  0.12500000000E+03 0.  0.
         25    1    1    2    0    0  0.25700108356E+02 -0.43800486468E+02 -0.14097892734E+03  0.19513850501E+03  0.12500000000E+03 0.  0.
         25    1    1    2    0    0  0.91157735749E+02  0.15352944863E+02 -0.89800176973E+03  0.91136031521E+03  0.12500000000E+03 0.  0.
</event>
<event>
 5    0  0.5605075E-005  0.3606799E+03  0.7546771E-02  0.1058315E+00
         21   -1    0    0  502  501  0.00000000000E+00  0.00000000000E+00  0.68296559432E+02  0.68296559432E+02  0.00000000000E+00 0.  1.
         21   -1    0    0  501  502 -0.00000000000E+00 -0.00000000000E+00 -0.19047812599E+04  0.19047812599E+04  0.00000000000E+00 0.  1.
         25    1    1    2    0    0 -0.60778954309E+02  0.17746213218E+03 -0.62290115696E+03  0.66243319738E+03  0.12500000000E+03 0.  0.
         25    1    1    2    0    0  0.22178130465E+03 -0.67535758645E+02 -0.64188871303E+03  0.69382573151E+03  0.12500000000E+03 0.  0.
         25    1    1    2    0    0 -0.16100235034E+03 -0.10992637354E+03 -0.57169483045E+03  0.61681889042E+03  0.12500000000E+03 0.  0.
</event>
<event>
 5    0  0.5605075E-005  0.2464265E+03  0.7546771E-02  0.1115584E+00
         21   -1    0    0  502  501  0.00000000000E+00  0.00000000000E+00  0.62063638000E+03  0.62063638000E+03  0.00000000000E+00 0. -1.
         21   -1    0    0  501  502 -0.00000000000E+00 -0.00000000000E+00 -0.97844754495E+02  0.97844754495E+02  0.00000000000E+00 0. -1.
         25    1    1    2    0    0  0.54454915581E+01  0.11607984800E+03  0.72031974887E+02  0.18525061375E+03  0.12500000000E+03 0.  0.
         25    1    1    2    0    0  0.41327269666E+01 -0.91109130277E+02  0.28019218263E+03  0.32007907189E+03  0.12500000000E+03 0.  0.
         25    1    1    2    0    0 -0.95782185246E+01 -0.24970717724E+02  0.17056746799E+03  0.21315144885E+03  0.12500000000E+03 0.  0.
</event>
<event>
 5    0  0.5605075E-005  0.1987342E+03  0.7546771E-02  0.1150811E+00
         21   -1    0    0  502  501  0.00000000000E+00  0.00000000000E+00  0.28172215951E+03  0.28172215951E+03  0.00000000000E+00 0.  1.
         21   -1    0    0  501  502 -0.00000000000E+00 -0.00000000000E+00 -0.14019235604E+03  0.14019235604E+03  0.00000000000E+00 0.  1.
         25    1    1    2    0    0 -0.21044282348E+02  0.41912445433E+02  0.51823359050E+02  0.14321374042E+03  0.12500000000E+03 0.  0.
         25    1    1    2    0    0 -0.16811576722E+02 -0.18887748190E+02  0.20698579900E+02  0.12920064765E+03  0.12500000000E+03 0.  0.
         25    1    1    2    0    0  0.37855859069E+02 -0.23024697243E+02  0.69007864517E+02  0.14950012747E+03  0.12500000000E+03 0.  0.
</event>
<event>
 5    0  0.5605075E-005  0.4353075E+03  0.7546771E-02  0.1032196E+00
         21   -1    0    0  502  501  0.00000000000E+00  0.00000000000E+00  0.88955731617E+03  0.88955731617E+03  0.00000000000E+00 0.  1.
         21   -1    0    0  501  502 -0.00000000000E+00 -0.00000000000E+00 -0.21301897652E+03  0.21301897652E+03  0.00000000000E+00 0.  1.
         25    1    1    2    0    0 -0.80790082102E+02 -0.87549069790E+02 -0.10996774526E+02  0.17302544910E+03  0.12500000000E+03 0.  0.
         25    1    1    2    0    0  0.25435581033E+03  0.21804255761E+03  0.29353678684E+03  0.46263190595E+03  0.12500000000E+03 0.  0.
         25    1    1    2    0    0 -0.17356572822E+03 -0.13049348782E+03  0.39399832733E+03  0.46691893763E+03  0.12500000000E+03 0.  0.
</event>
<event>
 5    0  0.5605075E-005  0.4789089E+03  0.7546771E-02  0.1019435E+00
         21   -1    0    0  502  501  0.00000000000E+00  0.00000000000E+00  0.22737964063E+03  0.22737964063E+03  0.00000000000E+00 0.  1.
         21   -1    0    0  501  502 -0.00000000000E+00 -0.00000000000E+00 -0.10086820927E+04  0.10086820927E+04  0.00000000000E+00 0.  1.
         25    1    1    2    0    0 -0.26947384404E+02 -0.45959149518E+02 -0.85092921314E+03  0.86170988780E+03  0.12500000000E+03 0.  0.
         25    1    1    2    0    0 -0.11229102112E+03  0.43386737907E+02  0.70239919256E+02  0.18721733015E+03  0.12500000000E+03 0.  0.
         25    1    1    2    0    0  0.13923840552E+03  0.25724116102E+01 -0.61315814844E+00  0.18713451536E+03  0.12500000000E+03 0.  0.
</event>
<event>
 5    0  0.5605075E-005  0.3388140E+03  0.7546771E-02  0.1067302E+00
         21   -1    0    0  502  501  0.00000000000E+00  0.00000000000E+00  0.87278207043E+03  0.87278207043E+03  0.00000000000E+00 0.  1.
         21   -1    0    0  501  502 -0.00000000000E+00 -0.00000000000E+00 -0.13152757066E+03  0.13152757066E+03  0.00000000000E+00 0.  1.
         25    1    1    2    0    0 -0.11690812942E+03  0.13532782407E+03  0.57045740462E+02  0.22552238735E+03  0.12500000000E+03 0.  0.
         25    1    1    2    0    0 -0.28418127805E+02 -0.91560677144E+02  0.42631237299E+03  0.45448672912E+03  0.12500000000E+03 0.  0.
         25    1    1    2    0    0  0.14532625723E+03 -0.43767146925E+02  0.25789638632E+03  0.32430052461E+03  0.12500000000E+03 0.  0.
</event>
<event>
 5    0  0.5605075E-005  0.2691620E+03  0.7546771E-02  0.1101760E+00
         21   -1    0    0  502  501  0.00000000000E+00  0.00000000000E+00  0.10732727715E+04  0.10732727715E+04  0.00000000000E+00 0. -1.
         21   -1    0    0  501  502 -0.00000000000E+00 -0.00000000000E+00 -0.67502122869E+02  0.67502122869E+02  0.00000000000E+00 0. -1.
         25    1    1    2    0    0  0.55301847289E+02 -0.82949611392E+02  0.34660782644E+03  0.38170789577E+03  0.12500000000E+03 0.  0.
         25    1    1    2    0    0  0.87488308237E+02  0.62565296859E+02  0.43176320029E+03  0.46218295249E+03  0.12500000000E+03 0.  0.
         25    1    1    2    0    0 -0.14279015553E+03  0.20384314533E+02  0.22739962192E+03  0.29688404612E+03  0.12500000000E+03 0.  0.
</event>
<event>
 5    0  0.5605075E-005  0.4781246E+03  0.7546771E-02  0.1019652E+00
         21   -1    0    0  502  501  0.00000000000E+00  0.00000000000E+00  0.22859439937E+04  0.22859439937E+04  0.00000000000E+00 0. -1.
         21   -1    0    0  501  502 -0.00000000000E+00 -0.00000000000E+00 -0.10000382871E+03  0.10000382871E+03  0.00000000000E+00 0. -1.
         25    1    1    2    0    0 -0.14973746246E+03 -0.10762208726E+03  0.90510642784E+03  0.93211934163E+03  0.12500000000E+03 0.  0.
         25    1    1    2    0    0  0.20345894672E+03  0.42714091959E+02  0.12803043305E+04  0.13030825820E+04  0.12500000000E+03 0.  0.
         25    1    1    2    0    0 -0.53721484253E+02  0.64907995306E+02  0.52940657212E+00  0.15074589877E+03  0.12500000000E+03 0.  0.
</event>
<event>
 5    0  0.5605075E-005  0.2743901E+03  0.7546771E-02  0.1098793E+00
         21   -1    0    0  502  501  0.00000000000E+00  0.00000000000E+00  0.43388078599E+03  0.43388078599E+03  0.00000000000E+00 0.  1.
         21   -1    0    0  501  502 -0.00000000000E+00 -0.00000000000E+00 -0.17352680548E+03  0.17352680548E+03  0.00000000000E+00 0.  1.
         25    1    1    2    0    0 -0.16404865885E+03 -0.13022188949E+02  0.96654028626E+02  0.22814149365E+03  0.12500000000E+03 0.  0.
         25    1    1    2    0    0  0.51305582009E+02  0.71392098327E+02  0.28134210991E+02  0.15538863625E+03  0.12500000000E+03 0.  0.
         25    1    1    2    0    0  0.11274307684E+03 -0.58369909378E+02  0.13556574089E+03  0.22387746157E+03  0.12500000000E+03 0.  0.
</event>
<event>
 5    0  0.5605075E-005  0.2920302E+03  0.7546771E-02  0.1089294E+00
         21   -1    0    0  502  501  0.00000000000E+00  0.00000000000E+00  0.50429651806E+03  0.50429651806E+03  0.00000000000E+00 0.  1.
         21   -1    0    0  501  502 -0.00000000000E+00 -0.00000000000E+00 -0.16911012359E+03  0.16911012359E+03  0.00000000000E+00 0.  1.
         25    1    1    2    0    0  0.13115041657E+03  0.15311961410E+02 -0.24859764289E+02  0.18351538303E+03  0.12500000000E+03 0.  0.
         25    1    1    2    0    0 -0.97188651864E+02  0.16817704354E+02  0.30784935511E+03  0.34659009604E+03  0.12500000000E+03 0.  0.
         25    1    1    2    0    0 -0.33961764707E+02 -0.32129665764E+02  0.52196803643E+02  0.14330116257E+03  0.12500000000E+03 0.  0.
</event>
<event>
 5    0  0.5605075E-005  0.2489534E+03  0.7546771E-02  0.1113968E+00
         21   -1    0    0  502  501  0.00000000000E+00  0.00000000000E+00  0.25400334115E+03  0.25400334115E+03  0.00000000000E+00 0.  1.
         21   -1    0    0  501  502 -0.00000000000E+00 -0.00000000000E+00 -0.24400395603E+03  0.24400395603E+03  0.00000000000E+00 0.  1.
         25    1    1    2    0    0 -0.51243384935E+01 -0.86258642701E+02  0.24924495071E+02  0.15399039821E+03  0.12500000000E+03 0.  0.
         25    1    1    2    0    0 -0.78179375302E+02  0.11956181975E+03 -0.69652399459E+01  0.18994883003E+03  0.12500000000E+03 0.  0.
         25    1    1    2    0    0  0.83303713795E+02 -0.33303177048E+02 -0.79598700032E+01  0.15406806893E+03  0.12500000000E+03 0.  0.
</event>
<event>
 5    0  0.5605075E-005  0.4443050E+03  0.7546771E-02  0.1029434E+00
         21   -1    0    0  502  501  0.00000000000E+00  0.00000000000E+00  0.17323221390E+03  0.17323221390E+03  0.00000000000E+00 0.  1.
         21   -1    0    0  501  502 -0.00000000000E+00 -0.00000000000E+00 -0.11395511858E+04  0.11395511858E+04  0.00000000000E+00 0.  1.
         25    1    1    2    0    0  0.13929679027E+03  0.18573531122E+03 -0.62714994663E+03  0.68032584631E+03  0.12500000000E+03 0.  0.
         25    1    1    2    0    0 -0.58704150391E+02 -0.69694553376E+02 -0.40430526225E+03  0.43288711360E+03  0.12500000000E+03 0.  0.
         25    1    1    2    0    0 -0.80592639874E+02 -0.11604075784E+03  0.65136236951E+02  0.19957043981E+03  0.12500000000E+03 0.  0.
</event>
<event>
 5    0  0.5605075E-005  0.3281693E+03  0.7546771E-02  0.1071950E+00
         21   -1    0    0  502  501  0.00000000000E+00  0.00000000000E+00  0.50841388656E+03  0.50841388656E+03  0.00000000000E+00 0. -1.
         21   -1    0    0  501  502 -0.00000000000E+00 -0.00000000000E+00 -0.21182560937E+03  0.21182560937E+03  0.00000000000E+00 0. -1.
         25    1    1    2    0    0 -0.81650251119E+02  0.21181016294E+03  0.69844347777E+02  0.26839065101E+03  0.12500000000E+03 0.  0.
         25    1    1    2    0    0 -0.21427693636E+02 -0.36122836007E+02  0.15305275415E+02  0.13275261501E+03  0.12500000000E+03 0.  0.
         25    1    1    2    0    0  0.10307794476E+03 -0.17568732693E+03  0.21143865400E+03  0.31909622991E+03  0.12500000000E+03 0.  0.
</event>
<event>
 5    0  0.5605075E-005  0.3183547E+03  0.7546771E-02  0.1076409E+00
         21   -1    0    0  502  501  0.00000000000E+00  0.00000000000E+00  0.23038200968E+04  0.23038200968E+04  0.00000000000E+00 0. -1.
         21   -1    0    0  501  502 -0.00000000000E+00 -0.00000000000E+00 -0.43992031700E+02  0.43992031700E+02  0.00000000000E+00 0. -1.
         25    1    1    2    0    0 -0.37319040278E+00 -0.18971443172E+03  0.13188907574E+04  0.13383159324E+04  0.12500000000E+03 0.  0.
         25    1    1    2    0    0 -0.20165937467E+02 -0.94946434910E+01  0.27342647165E+03  0.30146948218E+03  0.12500000000E+03 0.  0.
         25    1    1    2    0    0  0.20539127870E+02  0.19920907521E+03  0.66751083599E+03  0.70802671389E+03  0.12500000000E+03 0.  0.
</event>
<event>
 5    0  0.5605075E-005  0.3594497E+03  0.7546771E-02  0.1058802E+00
         21   -1    0    0  502  501  0.00000000000E+00  0.00000000000E+00  0.32239576651E+03  0.32239576651E+03  0.00000000000E+00 0. -1.
         21   -1    0    0  501  502 -0.00000000000E+00 -0.00000000000E+00 -0.40076232247E+03  0.40076232247E+03  0.00000000000E+00 0. -1.
         25    1    1    2    0    0  0.13552453811E+03 -0.83147869560E+01  0.59410934145E+02  0.19388319991E+03  0.12500000000E+03 0.  0.
         25    1    1    2    0    0 -0.19212541035E+03  0.17350290048E+03 -0.12695122190E+03  0.31425633250E+03  0.12500000000E+03 0.  0.
         25    1    1    2    0    0  0.56600872239E+02 -0.16518811352E+03 -0.10826268202E+02  0.21501855657E+03  0.12500000000E+03 0.  0.
</event>
<event>
 5    0  0.5605075E-005  0.2253833E+03  0.7546771E-02  0.1129932E+00
         21   -1    0    0  502  501  0.00000000000E+00  0.00000000000E+00  0.40526444428E+03  0.40526444428E+03  0.00000000000E+00 0.  1.
         21   -1    0    0  501  502 -0.00000000000E+00 -0.00000000000E+00 -0.12534441182E+03  0.12534441182E+03  0.00000000000E+00 0.  1.
         25    1    1    2    0    0  0.71851111395E+02  0.72836260298E+02  0.15189216868E+03  0.22172941602E+03  0.12500000000E+03 0.  0.
         25    1    1    2    0    0 -0.52470860180E+02 -0.72924024719E+02  0.80837309892E+02  0.17386999517E+03  0.12500000000E+03 0.  0.
         25    1    1    2    0    0 -0.19380251215E+02  0.87764420579E-01  0.47190553890E+02  0.13500944491E+03  0.12500000000E+03 0.  0.
</event>
<event>
 5    0  0.5605075E-005  0.2485810E+03  0.7546771E-02  0.1114205E+00
         21   -1    0    0  502  501  0.00000000000E+00  0.00000000000E+00  0.92701190401E+02  0.92701190401E+02  0.00000000000E+00 0. -1.
         21   -1    0    0  501  502 -0.00000000000E+00 -0.00000000000E+00 -0.66657749603E+03  0.66657749603E+03  0.00000000000E+00 0. -1.
         25    1    1    2    0    0 -0.36087055862E+02  0.28035032930E+02 -0.20168952677E+03  0.24164416790E+03  0.12500000000E+03 0.  0.
         25    1    1    2    0    0  0.13701175344E+03 -0.61978307236E+02 -0.20330030689E+03  0.28208074364E+03  0.12500000000E+03 0.  0.
         25    1    1    2    0    0 -0.10092469758E+03  0.33943274305E+02 -0.16888647196E+03  0.23555377489E+03  0.12500000000E+03 0.  0.
</event>
<event>
 5    0  0.5605075E-005  0.3180134E+03  0.7546771E-02  0.1076567E+00
         21   -1    0    0  502  501  0.00000000000E+00  0.00000000000E+00  0.99442405595E+02  0.99442405595E+02  0.00000000000E+00 0.  1.
         21   -1    0    0  501  502 -0.00000000000E+00 -0.00000000000E+00 -0.10169962204E+04  0.10169962204E+04  0.00000000000E+00 0.  1.
         25    1    1    2    0    0 -0.86247477233E+02  0.34199373827E+02 -0.66726668501E+02  0.16936845275E+03  0.12500000000E+03 0.  0.
         25    1    1    2    0    0  0.91912325181E+02 -0.16220916748E+03 -0.35597277219E+03  0.42083405764E+03  0.12500000000E+03 0.  0.
         25    1    1    2    0    0 -0.56648479487E+01  0.12800979365E+03 -0.49485437407E+03  0.52623611555E+03  0.12500000000E+03 0.  0.
</event>
<event>
 5    0  0.5605075E-005  0.2907295E+03  0.7546771E-02  0.1089969E+00
         21   -1    0    0  502  501  0.00000000000E+00  0.00000000000E+00  0.16320964914E+03  0.16320964914E+03  0.00000000000E+00 0.  1.
         21   -1    0    0  501  502 -0.00000000000E+00 -0.00000000000E+00 -0.51788392659E+03  0.51788392659E+03  0.00000000000E+00 0.  1.
         25    1    1    2    0    0  0.46553695413E+02 -0.13539377473E+03 -0.16180400299E+03  0.24960820535E+03  0.12500000000E+03 0.  0.
         25    1    1    2    0    0 -0.98695689411E+01  0.20318271500E+03 -0.12851993339E+03  0.27115124441E+03  0.12500000000E+03 0.  0.
         25    1    1    2    0    0 -0.36684126472E+02 -0.67788940266E+02 -0.64350341070E+02  0.16033412598E+03  0.12500000000E+03 0.  0.
</event>
<event>
 5    0  0.5605075E-005  0.3527616E+03  0.7546771E-02  0.1061487E+00
         21   -1    0    0  502  501  0.00000000000E+00  0.00000000000E+00  0.12918527769E+03  0.12918527769E+03  0.00000000000E+00 0. -1.
         21   -1    0    0  501  502 -0.00000000000E+00 -0.00000000000E+00 -0.96327366051E+03  0.96327366051E+03  0.00000000000E+00 0. -1.
         25    1    1    2    0    0 -0.10806057775E+03 -0.89737904127E+02 -0.64198251995E+03  0.66895181876E+03  0.12500000000E+03 0.  0.
         25    1    1    2    0    0  0.14523504080E+02 -0.23461212707E+01  0.37171574974E+02  0.13123704676E+03  0.12500000000E+03 0.  0.
         25    1    1    2    0    0  0.93537073672E+02  0.92084025398E+02 -0.22927743784E+03  0.29227007269E+03  0.12500000000E+03 0.  0.
</event>
<event>
 5    0  0.5605075E-005  0.3441995E+03  0.7546771E-02  0.1065021E+00
         21   -1    0    0  502  501  0.00000000000E+00  0.00000000000E+00  0.15367642206E+04  0.15367642206E+04  0.00000000000E+00 0.  1.
         21   -1    0    0  501  502 -0.00000000000E+00 -0.00000000000E+00 -0.77092684620E+02  0.77092684620E+02  0.00000000000E+00 0.  1.
         25    1    1    2    0    0  0.20283031258E+03 -0.15193310124E+03  0.81252096206E+03  0.86025526254E+03  0.12500000000E+03 0.  0.
         25    1    1    2    0    0 -0.12406733040E+03  0.19610401206E+02  0.39392368969E+03  0.43194692221E+03  0.12500000000E+03 0.  0.
         25    1    1    2    0    0 -0.78762982178E+02  0.13232270003E+03  0.25322688427E+03  0.32165472050E+03  0.12500000000E+03 0.  0.
</event>
<event>
 5    0  0.5605075E-005  0.4289045E+03  0.7546771E-02  0.1034207E+00
         21   -1    0    0  502  501  0.00000000000E+00  0.00000000000E+00  0.16804851057E+03  0.16804851057E+03  0.00000000000E+00 0.  1.
         21   -1    0    0  501  502 -0.00000000000E+00 -0.00000000000E+00 -0.10946783990E+04  0.10946783990E+04  0.00000000000E+00 0.  1.
         25    1    1    2    0    0 -0.14563816217E+03  0.66608683985E+02 -0.10671122839E+03  0.22947652893E+03  0.12500000000E+03 0.  0.
         25    1    1    2    0    0 -0.16713359682E+03 -0.96124077562E+02 -0.56459219148E+03  0.60955952962E+03  0.12500000000E+03 0.  0.
         25    1    1    2    0    0  0.31277175899E+03  0.29515393576E+02 -0.25532646854E+03  0.42369085100E+03  0.12500000000E+03 0.  0.
</event>
<event>
 5    0  0.5605075E-005  0.5271348E+03  0.7546771E-02  0.1006929E+00
         21   -1    0    0  502  501  0.00000000000E+00  0.00000000000E+00  0.25056342769E+03  0.25056342769E+03  0.00000000000E+00 0. -1.
         21   -1    0    0  501  502 -0.00000000000E+00 -0.00000000000E+00 -0.11089850090E+04  0.11089850090E+04  0.00000000000E+00 0. -1.
         25    1    1    2    0    0 -0.20078389416E+03 -0.27656427692E+02 -0.22494712111E+03  0.32757481198E+03  0.12500000000E+03 0.  0.
         25    1    1    2    0    0 -0.26328775663E+03 -0.57765498971E+02 -0.37868332353E+03  0.48133497191E+03  0.12500000000E+03 0.  0.
         25    1    1    2    0    0  0.46407165079E+03  0.85421926663E+02 -0.25479113664E+03  0.55063865278E+03  0.12500000000E+03 0.  0.
</event>
<event>
 5    0  0.5605075E-005  0.2870562E+03  0.7546771E-02  0.1091896E+00
         21   -1    0    0  502  501  0.00000000000E+00  0.00000000000E+00  0.20057584501E+03  0.20057584501E+03  0.00000000000E+00 0. -1.
         21   -1    0    0  501  502 -0.00000000000E+00 -0.00000000000E+00 -0.41082340427E+03  0.41082340427E+03  0.00000000000E+00 0. -1.
         25    1    1    2    0    0  0.71046808533E+02  0.14888624584E+03  0.11871237873E+01  0.20698109205E+03  0.12500000000E+03 0.  0.
         25    1    1    2    0    0 -0.62187087765E+02 -0.10499031512E+03 -0.26396000924E+02  0.17666903809E+03  0.12500000000E+03 0.  0.
         25    1    1    2    0    0 -0.88597207686E+01 -0.43895930715E+02 -0.18503868212E+03  0.22774911914E+03  0.12500000000E+03 0.  0.
</event>
<event>
 5    0  0.5605075E-005  0.5133789E+03  0.7546771E-02  0.1010345E+00
         21   -1    0    0  502  501  0.00000000000E+00  0.00000000000E+00  0.50572571667E+03  0.50572571667E+03  0.00000000000E+00 0. -1.
         21   -1    0    0  501  502 -0.00000000000E+00 -0.00000000000E+00 -0.52114793452E+03  0.52114793452E+03  0.00000000000E+00 0. -1.
         25    1    1    2    0    0 -0.12630445738E+03 -0.13434072443E+03 -0.38370105756E+03  0.44367978066E+03  0.12500000000E+03 0.  0.
         25    1    1    2    0    0  0.64471717970E+02  0.68541781603E+02 -0.27118347147E+02  0.15879226365E+03  0.12500000000E+03 0.  0.
         25    1    1    2    0    0  0.61832739412E+02  0.65798942830E+02  0.39539718686E+03  0.42440160688E+03  0.12500000000E+03 0.  0.
</event>
<event>
 5    0  0.5605075E-005  0.3875308E+03  0.7546771E-02  0.1048185E+00
         21   -1    0    0  502  501  0.00000000000E+00  0.00000000000E+00  0.22664204405E+03  0.22664204405E+03  0.00000000000E+00 0. -1.
         21   -1    0    0  501  502 -0.00000000000E+00 -0.00000000000E+00 -0.66263142623E+03  0.66263142623E+03  0.00000000000E+00 0. -1.
         25    1    1    2    0    0 -0.87125557918E+01 -0.19263896959E+03 -0.97020502339E+02  0.24944670594E+03  0.12500000000E+03 0.  0.
         25    1    1    2    0    0 -0.20113364657E+03  0.15578673036E+03 -0.24785730678E+03  0.37654016208E+03  0.12500000000E+03 0.  0.
         25    1    1    2    0    0  0.20984620236E+03  0.36852239233E+02 -0.91111573055E+02  0.26328660225E+03  0.12500000000E+03 0.  0.
</event>
<event>
 5    0  0.5605075E-005  0.3407294E+03  0.7546771E-02  0.1066486E+00
         21   -1    0    0  502  501  0.00000000000E+00  0.00000000000E+00  0.48426953002E+03  0.48426953002E+03  0.00000000000E+00 0. -1.
         21   -1    0    0  501  502 -0.00000000000E+00 -0.00000000000E+00 -0.23973530250E+03  0.23973530250E+03  0.00000000000E+00 0. -1.
         25    1    1    2    0    0 -0.19473455964E+03 -0.15274271240E+03  0.43314046134E+02  0.28062963404E+03  0.12500000000E+03 0.  0.
         25    1    1    2    0    0  0.66971416502E+02  0.16297756197E+03  0.10816751326E+03  0.24160311931E+03  0.12500000000E+03 0.  0.
         25    1    1    2    0    0  0.12776314314E+03 -0.10234849574E+02  0.93052668129E+02  0.20177207918E+03  0.12500000000E+03 0.  0.
</event>
<event>
 5    0  0.5605075E-005  0.2250455E+03  0.7546771E-02  0.1130176E+00
         21   -1    0    0  502  501  0.00000000000E+00  0.00000000000E+00  0.24686342445E+02  0.24686342445E+02  0.00000000000E+00 0. -1.
         21   -1    0    0  501  502 -0.00000000000E+00 -0.00000000000E+00 -0.20515590604E+04  0.20515590604E+04  0.00000000000E+00 0. -1.
         25    1    1    2    0    0  0.53774769601E+02  0.66485812742E+02 -0.56146947111E+03  0.58153680548E+03  0.12500000000E+03 0.  0.
         25    1    1    2    0    0 -0.32566411812E+02  0.28468023120E+02 -0.54850907237E+03  0.56423240070E+03  0.12500000000E+03 0.  0.
         25    1    1    2    0    0 -0.21208357789E+02 -0.94953835862E+02 -0.91689417446E+03  0.93047619666E+03  0.12500000000E+03 0.  0.
</event>
<event>
 5    0  0.5605075E-005  0.2511807E+03  0.7546771E-02  0.1112561E+00
         21   -1    0    0  502  501  0.00000000000E+00  0.00000000000E+00  0.12052535747E+04  0.12052535747E+04  0.00000000000E+00 0.  1.
         21   -1    0    0  501  502 -0.00000000000E+00 -0.00000000000E+00 -0.52347284105E+02  0.52347284105E+02  0.00000000000E+00 0.  1.
         25    1    1    2    0    0  0.19922318773E+02 -0.67260614917E+02  0.33521327459E+03  0.36457348857E+03  0.12500000000E+03 0.  0.
         25    1    1    2    0    0  0.49588779033E+02  0.45941166705E+02  0.67526744123E+03  0.69005851562E+03  0.12500000000E+03 0.  0.
         25    1    1    2    0    0 -0.69511097806E+02  0.21319448212E+02  0.14242557476E+03  0.20296885459E+03  0.12500000000E+03 0.  0.
</event>
<event>
 5    0  0.5605075E-005  0.3740946E+03  0.7546771E-02  0.1053138E+00
         21   -1    0    0  502  501  0.00000000000E+00  0.00000000000E+00  0.15144711267E+03  0.15144711267E+03  0.00000000000E+00 0. -1.
         21   -1    0    0  501  502 -0.00000000000E+00 -0.00000000000E+00 -0.92406383761E+03  0.92406383761E+03  0.00000000000E+00 0. -1.
         25    1    1    2    0    0  0.17296994131E+03  0.15216271423E+03 -0.54649578090E+03  0.60609795474E+03  0.12500000000E+03 0.  0.
         25    1    1    2    0    0  0.14862039734E+02 -0.82875852427E+02 -0.12767677024E+02  0.15125244037E+03  0.12500000000E+03 0.  0.
         25    1    1    2    0    0 -0.18783198105E+03 -0.69286861807E+02 -0.21335326701E+03  0.31816055517E+03  0.12500000000E+03 0.  0.
</event>
<event>
 5    0  0.5605075E-005  0.4039525E+03  0.7546771E-02  0.1042420E+00
         21   -1    0    0  502  501  0.00000000000E+00  0.00000000000E+00  0.23632643780E+04  0.23632643780E+04  0.00000000000E+00 0. -1.
         21   -1    0    0  501  502 -0.00000000000E+00 -0.00000000000E+00 -0.69047569178E+02  0.69047569178E+02  0.00000000000E+00 0. -1.
         25    1    1    2    0    0  0.12497935712E+03  0.34350862410E+02  0.92091318122E+03  0.93835276352E+03  0.12500000000E+03 0.  0.
         25    1    1    2    0    0  0.17867653610E+03 -0.52370320234E+02  0.82173761396E+03  0.85178968131E+03  0.12500000000E+03 0.  0.
         25    1    1    2    0    0 -0.30365589322E+03  0.18019457824E+02  0.55156601368E+03  0.64216950239E+03  0.12500000000E+03 0.  0.
</event>
<event>
 5    0  0.5605075E-005  0.3459663E+03  0.7546771E-02  0.1064283E+00
         21   -1    0    0  502  501  0.00000000000E+00  0.00000000000E+00  0.37175128421E+03  0.37175128421E+03  0.00000000000E+00 0.  1.
         21   -1    0    0  501  502 -0.00000000000E+00 -0.00000000000E+00 -0.32196975995E+03  0.32196975995E+03  0.00000000000E+00 0.  1.
         25    1    1    2    0    0  0.35033695244E+02  0.13470236911E+02  0.32035533139E+02  0.13438780625E+03  0.12500000000E+03 0.  0.
         25    1    1    2    0    0 -0.25266621708E+03 -0.86382712971E+02 -0.18824423681E+02  0.29543450929E+03  0.12500000000E+03 0.  0.
         25    1    1    2    0    0  0.21763252184E+03  0.72912476061E+02  0.36570414807E+02  0.26389872862E+03  0.12500000000E+03 0.  0.
</event>
<event>
 5    0  0.5605075E-005  0.3506236E+03  0.7546771E-02  0.1062359E+00
         21   -1    0    0  502  501  0.00000000000E+00  0.00000000000E+00  0.39903277975E+03  0.39903277975E+03  0.00000000000E+00 0.  1.
         21   -1    0    0  501  502 -0.00000000000E+00 -0.00000000000E+00 -0.30808727244E+03  0.30808727244E+03  0.00000000000E+00 0.  1.
         25    1    1    2    0    0  0.24084274550E+03 -0.64599492096E+01  0.40272927593E+02  0.27439728078E+03  0.12500000000E+03 0.  0.
         25    1    1    2    0    0 -0.19641533208E+03  0.11362811020E+03  0.35949542634E+02  0.26154865650E+03  0.12500000000E+03 0.  0.
         25    1    1    2    0    0 -0.44427413421E+02 -0.10716816099E+03  0.14723037087E+02  0.17117411491E+03  0.12500000000E+03 0.  0.
</event>
<event>
 5    0  0.5605075E-005  0.2085419E+03  0.7546771E-02  0.1142726E+00
         21   -1    0    0  502  501  0.00000000000E+00  0.00000000000E+00  0.26638562658E+03  0.26638562658E+03  0.00000000000E+00 0.  1.
         21   -1    0    0  501  502 -0.00000000000E+00 -0.00000000000E+00 -0.16325856183E+03  0.16325856183E+03  0.00000000000E+00 0.  1.
         25    1    1    2    0    0  0.33280112079E+02 -0.29484943272E+02  0.31211072825E+02  0.13629401603E+03  0.12500000000E+03 0.  0.
         25    1    1    2    0    0 -0.25029179670E+02 -0.48099123361E+02  0.45501484624E+02  0.14365016744E+03  0.12500000000E+03 0.  0.
         25    1    1    2    0    0 -0.82509324096E+01  0.77584066633E+02  0.26414507307E+02  0.14970000493E+03  0.12500000000E+03 0.  0.
</event>
<event>
 5    0  0.5605075E-005  0.5876065E+03  0.7546771E-02  0.9931458E-01
         21   -1    0    0  502  501  0.00000000000E+00  0.00000000000E+00  0.96970756174E+03  0.96970756174E+03  0.00000000000E+00 0. -1.
         21   -1    0    0  501  502 -0.00000000000E+00 -0.00000000000E+00 -0.35606751917E+03  0.35606751917E+03  0.00000000000E+00 0. -1.
         25    1    1    2    0    0 -0.25832920620E+03 -0.68097284828E+02 -0.13909918216E+03  0.32610550663E+03  0.12500000000E+03 0.  0.
         25    1    1    2    0    0 -0.15989386880E+03  0.61727306707E+02  0.32776780297E+03  0.39042674388E+03  0.12500000000E+03 0.  0.
         25    1    1    2    0    0  0.41822307501E+03  0.63699781207E+01  0.42497142176E+03  0.60924283041E+03  0.12500000000E+03 0.  0.
</event>
<event>
 5    0  0.5605075E-005  0.2375624E+03  0.7546771E-02  0.1121427E+00
         21   -1    0    0  502  501  0.00000000000E+00  0.00000000000E+00  0.21889804939E+03  0.21889804939E+03  0.00000000000E+00 0.  1.
         21   -1    0    0  501  502 -0.00000000000E+00 -0.00000000000E+00 -0.25781812066E+03  0.25781812066E+03  0.00000000000E+00 0.  1.
         25    1    1    2    0    0  0.68793650523E+02 -0.60710879312E+02  0.66612640054E+02  0.16876202486E+03  0.12500000000E+03 0.  0.
         25    1    1    2    0    0 -0.50745304741E+02 -0.18072751659E+02 -0.23932657604E+02  0.13820087701E+03  0.12500000000E+03 0.  0.
         25    1    1    2    0    0 -0.18048345782E+02  0.78783630971E+02 -0.81600053721E+02  0.16975326819E+03  0.12500000000E+03 0.  0.
</event>
<event>
 5    0  0.6145449E-005  0.3342105E+03  0.7546771E-02  0.1069289E+00
         21   -1    0    0  502  501  0.00000000000E+00  0.00000000000E+00  0.35019268161E+03  0.35019268161E+03  0.00000000000E+00 0. -1.
         21   -1    0    0  501  502 -0.00000000000E+00 -0.00000000000E+00 -0.31895768504E+03  0.31895768504E+03  0.00000000000E+00 0. -1.
         25    1    1    2    0    0  0.21360075717E+03 -0.25742817508E+02  0.58209306464E+01  0.24889126010E+03  0.12500000000E+03 0.  0.
         25    1    1    2    0    0 -0.65849065346E+02 -0.26681594462E+02 -0.10764943057E+03  0.17961460629E+03  0.12500000000E+03 0.  0.
         25    1    1    2    0    0 -0.14775169183E+03  0.52424411970E+02  0.13306349650E+03  0.24064450027E+03  0.12500000000E+03 0.  0.
</event>
<event>
 5    0  0.5605075E-005  0.2568900E+03  0.7546771E-02  0.1109026E+00
         21   -1    0    0  502  501  0.00000000000E+00  0.00000000000E+00  0.13061587699E+04  0.13061587699E+04  0.00000000000E+00 0. -1.
         21   -1    0    0  501  502 -0.00000000000E+00 -0.00000000000E+00 -0.50524080002E+02  0.50524080002E+02  0.00000000000E+00 0. -1.
         25    1    1    2    0    0 -0.31871495596E+02 -0.42239809184E+01  0.19536580137E+03  0.23415044435E+03  0.12500000000E+03 0.  0.
         25    1    1    2    0    0 -0.19153610492E+02  0.13043627840E+03  0.46490249307E+03  0.49913907039E+03  0.12500000000E+03 0.  0.
         25    1    1    2    0    0  0.51025106088E+02 -0.12621229748E+03  0.59536639542E+03  0.62339333513E+03  0.12500000000E+03 0.  0.
</event>
<event>
 5    0  0.5605075E-005  0.2487960E+03  0.7546771E-02  0.1114068E+00
         21   -1    0    0  502  501  0.00000000000E+00  0.00000000000E+00  0.64029064201E+03  0.64029064201E+03  0.00000000000E+00 0. -1.
         21   -1    0    0  501  502 -0.00000000000E+00 -0.00000000000E+00 -0.96673958280E+02  0.96673958280E+02  0.00000000000E+00 0. -1.
         25    1    1    2    0    0 -0.73056643647E+01 -0.38168747294E+02  0.40242250478E+03  0.42317738403E+03  0.12500000000E+03 0.  0.
         25    1    1    2    0    0  0.50548941213E+02  0.40920476693E+02  0.10759829157E+03  0.17729092819E+03  0.12500000000E+03 0.  0.
         25    1    1    2    0    0 -0.43243276848E+02 -0.27517293989E+01  0.33595887382E+02  0.13649628807E+03  0.12500000000E+03 0.  0.
</event>
<event>
 5    0  0.5605075E-005  0.4854680E+03  0.7546771E-02  0.1017643E+00
         21   -1    0    0  502  501  0.00000000000E+00  0.00000000000E+00  0.10959343962E+04  0.10959343962E+04  0.00000000000E+00 0.  1.
         21   -1    0    0  501  502 -0.00000000000E+00 -0.00000000000E+00 -0.21504864375E+03  0.21504864375E+03  0.00000000000E+00 0.  1.
         25    1    1    2    0    0 -0.12238943080E+03 -0.83002040062E+02  0.76187355913E+03  0.78609467084E+03  0.12500000000E+03 0.  0.
         25    1    1    2    0    0  0.10768182630E+02 -0.16318452400E+03  0.93209277817E+02  0.22596042154E+03  0.12500000000E+03 0.  0.
         25    1    1    2    0    0  0.11162124817E+03  0.24618656406E+03  0.25802915465E+02  0.29892794753E+03  0.12500000000E+03 0.  0.
</event>
<event>
 5    0  0.5605075E-005  0.2557989E+03  0.7546771E-02  0.1109694E+00
         21   -1    0    0  502  501  0.00000000000E+00  0.00000000000E+00  0.85191848193E+03  0.85191848193E+03  0.00000000000E+00 0. -1.
         21   -1    0    0  501  502 -0.00000000000E+00 -0.00000000000E+00 -0.76806723264E+02  0.76806723264E+02  0.00000000000E+00 0. -1.
         25    1    1    2    0    0  0.72615880876E+02  0.11028181426E+02  0.11618173268E+03  0.18578988657E+03  0.12500000000E+03 0.  0.
         25    1    1    2    0    0  0.64529952346E+02 -0.20281803751E+02  0.18080663519E+03  0.22998153326E+03  0.12500000000E+03 0.  0.
         25    1    1    2    0    0 -0.13714583322E+03  0.92536223246E+01  0.47812339079E+03  0.51295378536E+03  0.12500000000E+03 0.  0.
</event>
<event>
 5    0  0.5605075E-005  0.3672491E+03  0.7546771E-02  0.1055750E+00
         21   -1    0    0  502  501  0.00000000000E+00  0.00000000000E+00  0.25392814481E+03  0.25392814481E+03  0.00000000000E+00 0. -1.
         21   -1    0    0  501  502 -0.00000000000E+00 -0.00000000000E+00 -0.53114211163E+03  0.53114211163E+03  0.00000000000E+00 0. -1.
         25    1    1    2    0    0 -0.39640033318E+01  0.16317357333E+03 -0.25606206932E+03  0.32838104650E+03  0.12500000000E+03 0.  0.
         25    1    1    2    0    0  0.61776052784E+02  0.70545020897E+02 -0.85161978562E+02  0.17796191521E+03  0.12500000000E+03 0.  0.
         25    1    1    2    0    0 -0.57812049452E+02 -0.23371859423E+03  0.64010081069E+02  0.27872729473E+03  0.12500000000E+03 0.  0.
</event>
<event>
 5    0  0.5605075E-005  0.3238309E+03  0.7546771E-02  0.1073900E+00
         21   -1    0    0  502  501  0.00000000000E+00  0.00000000000E+00  0.57499544976E+02  0.57499544976E+02  0.00000000000E+00 0.  1.
         21   -1    0    0  501  502 -0.00000000000E+00 -0.00000000000E+00 -0.18237786822E+04  0.18237786822E+04  0.00000000000E+00 0.  1.
         25    1    1    2    0    0  0.15015323105E+03 -0.10579814791E+03 -0.46988040125E+03  0.51976132251E+03  0.12500000000E+03 0.  0.
         25    1    1    2    0    0 -0.14116738922E+03 -0.59895170345E+02 -0.78463371134E+03  0.80919140145E+03  0.12500000000E+03 0.  0.
         25    1    1    2    0    0 -0.89858418357E+01  0.16569331826E+03 -0.51176502468E+03  0.55232550326E+03  0.12500000000E+03 0.  0.
</event>
<event>
 5    0  0.5605075E-005  0.2750773E+03  0.7546771E-02  0.1098408E+00
         21   -1    0    0  502  501  0.00000000000E+00  0.00000000000E+00  0.16729303040E+03  0.16729303040E+03  0.00000000000E+00 0.  1.
         21   -1    0    0  501  502 -0.00000000000E+00 -0.00000000000E+00 -0.45230542315E+03  0.45230542315E+03  0.00000000000E+00 0.  1.
         25    1    1    2    0    0  0.55413181570E+01  0.87379713804E+02 -0.66540248173E+02  0.16648881409E+03  0.12500000000E+03 0.  0.
         25    1    1    2    0    0 -0.20096009092E+01  0.83903082539E+02 -0.27289086399E+01  0.15058623011E+03  0.12500000000E+03 0.  0.
         25    1    1    2    0    0 -0.35317172478E+01 -0.17128279634E+03 -0.21574323594E+03  0.30252340935E+03  0.12500000000E+03 0.  0.
</event>
<event>
 5    0  0.5605075E-005  0.3730613E+03  0.7546771E-02  0.1053529E+00
         21   -1    0    0  502  501  0.00000000000E+00  0.00000000000E+00  0.75987983387E+03  0.75987983387E+03  0.00000000000E+00 0.  1.
         21   -1    0    0  501  502 -0.00000000000E+00 -0.00000000000E+00 -0.18315361628E+03  0.18315361628E+03  0.00000000000E+00 0.  1.
         25    1    1    2    0    0 -0.18268490620E+03  0.57180918140E+01  0.37542015228E+03  0.43585750224E+03  0.12500000000E+03 0.  0.
         25    1    1    2    0    0  0.23122334763E+03 -0.20150610340E+02 -0.14952176971E+01  0.26362382150E+03  0.12500000000E+03 0.  0.
         25    1    1    2    0    0 -0.48538441427E+02  0.14432518526E+02  0.20280128301E+03  0.24355212641E+03  0.12500000000E+03 0.  0.
</event>
<event>
 5    0  0.5605075E-005  0.4120894E+03  0.7546771E-02  0.1039672E+00
         21   -1    0    0  502  501  0.00000000000E+00  0.00000000000E+00  0.17286306670E+03  0.17286306670E+03  0.00000000000E+00 0.  1.
         21   -1    0    0  501  502 -0.00000000000E+00 -0.00000000000E+00 -0.98238268070E+03  0.98238268070E+03  0.00000000000E+00 0.  1.
         25    1    1    2    0    0 -0.27656232330E+03 -0.39829549371E+01 -0.45880477313E+03  0.55011762601E+03  0.12500000000E+03 0.  0.
         25    1    1    2    0    0  0.46990184743E+02  0.57402254232E+02  0.21742924373E+02  0.14697227974E+03  0.12500000000E+03 0.  0.
         25    1    1    2    0    0  0.22957213856E+03 -0.53419299295E+02 -0.37245776524E+03  0.45815584164E+03  0.12500000000E+03 0.  0.
</event>
<event>
 5    0  0.5605075E-005  0.2880665E+03  0.7546771E-02  0.1091363E+00
         21   -1    0    0  502  501  0.00000000000E+00  0.00000000000E+00  0.17900560763E+03  0.17900560763E+03  0.00000000000E+00 0.  1.
         21   -1    0    0  501  502 -0.00000000000E+00 -0.00000000000E+00 -0.46357376891E+03  0.46357376891E+03  0.00000000000E+00 0.  1.
         25    1    1    2    0    0 -0.11076365415E+03  0.88454274524E+02  0.33255681443E+01  0.18902064746E+03  0.12500000000E+03 0.  0.
         25    1    1    2    0    0  0.80926003138E+02  0.47992896918E+02 -0.87878841613E+02  0.17944365952E+03  0.12500000000E+03 0.  0.
         25    1    1    2    0    0  0.29837651014E+02 -0.13644717144E+03 -0.20001488782E+03  0.27411506956E+03  0.12500000000E+03 0.  0.
</event>
<event>
 5    0  0.5756546E-005  0.7004735E+03  0.7546771E-02  0.9716423E-01
         21   -1    0    0  502  501  0.00000000000E+00  0.00000000000E+00  0.52298485356E+03  0.52298485356E+03  0.00000000000E+00 0. -1.
         21   -1    0    0  501  502 -0.00000000000E+00 -0.00000000000E+00 -0.93819752913E+03  0.93819752913E+03  0.00000000000E+00 0. -1.
         25    1    1    2    0    0 -0.34430036436E+03  0.11742768046E+02 -0.54742579207E+03  0.65877206325E+03  0.12500000000E+03 0.  0.
         25    1    1    2    0    0  0.37793036459E+03  0.16885711763E+03 -0.13677574188E+03  0.45351592058E+03  0.12500000000E+03 0.  0.
         25    1    1    2    0    0 -0.33630000235E+02 -0.18059988567E+03  0.26898885838E+03  0.34889439886E+03  0.12500000000E+03 0.  0.
</event>
<event>
 5    0  0.5605075E-005  0.2379298E+03  0.7546771E-02  0.1121180E+00
         21   -1    0    0  502  501  0.00000000000E+00  0.00000000000E+00  0.44217839830E+02  0.44217839830E+02  0.00000000000E+00 0. -1.
         21   -1    0    0  501  502 -0.00000000000E+00 -0.00000000000E+00 -0.12802659761E+04  0.12802659761E+04  0.00000000000E+00 0. -1.
         25    1    1    2    0    0  0.86077541991E+02 -0.40167232637E+00 -0.40152131277E+03  0.42924802759E+03  0.12500000000E+03 0.  0.
         25    1    1    2    0    0 -0.67068875490E+02 -0.76992944722E+02 -0.56533399584E+03  0.58792318754E+03  0.12500000000E+03 0.  0.
         25    1    1    2    0    0 -0.19008666501E+02  0.77394617048E+02 -0.26919282766E+03  0.30731260080E+03  0.12500000000E+03 0.  0.
</event>
<event>
 5    0  0.5605075E-005  0.3277245E+03  0.7546771E-02  0.1072148E+00
         21   -1    0    0  502  501  0.00000000000E+00  0.00000000000E+00  0.33022521107E+03  0.33022521107E+03  0.00000000000E+00 0.  1.
         21   -1    0    0  501  502 -0.00000000000E+00 -0.00000000000E+00 -0.32524281024E+03  0.32524281024E+03  0.00000000000E+00 0.  1.
         25    1    1    2    0    0  0.10322777576E+03  0.19816313530E+02 -0.10662076142E+03  0.19504267927E+03  0.12500000000E+03 0.  0.
         25    1    1    2    0    0  0.70439626942E+02  0.12095645472E+03  0.21411553787E+02  0.18888001381E+03  0.12500000000E+03 0.  0.
         25    1    1    2    0    0 -0.17366740270E+03 -0.14077276825E+03  0.90191608467E+02  0.27154532822E+03  0.12500000000E+03 0.  0.
</event>
<event>
 5    0  0.5605075E-005  0.3386584E+03  0.7546771E-02  0.1067369E+00
         21   -1    0    0  502  501  0.00000000000E+00  0.00000000000E+00  0.13061789005E+04  0.13061789005E+04  0.00000000000E+00 0. -1.
         21   -1    0    0  501  502 -0.00000000000E+00 -0.00000000000E+00 -0.87805336805E+02  0.87805336805E+02  0.00000000000E+00 0. -1.
         25    1    1    2    0    0 -0.11557007914E+03  0.14701586721E+03  0.87353306040E+03  0.90202833438E+03  0.12500000000E+03 0.  0.
         25    1    1    2    0    0  0.11715823514E+03 -0.55823125663E+02  0.11125262183E+03  0.21176500958E+03  0.12500000000E+03 0.  0.
         25    1    1    2    0    0 -0.15881559993E+01 -0.91192741548E+02  0.23358788151E+03  0.28019089339E+03  0.12500000000E+03 0.  0.
</event>
<event>
 5    0  0.5605075E-005  0.3994871E+03  0.7546771E-02  0.1043957E+00
         21   -1    0    0  502  501  0.00000000000E+00  0.00000000000E+00  0.11520250793E+03  0.11520250793E+03  0.00000000000E+00 0. -1.
         21   -1    0    0  501  502 -0.00000000000E+00 -0.00000000000E+00 -0.13852994314E+04  0.13852994314E+04  0.00000000000E+00 0. -1.
         25    1    1    2    0    0 -0.32842069363E+02 -0.10438055334E+03 -0.30159539195E+03  0.34432351340E+03  0.12500000000E+03 0.  0.
         25    1    1    2    0    0  0.25545536317E+03  0.21056309885E+03 -0.57729312206E+03  0.67711639321E+03  0.12500000000E+03 0.  0.
         25    1    1    2    0    0 -0.22261329381E+03 -0.10618254551E+03 -0.39120840943E+03  0.47906203268E+03  0.12500000000E+03 0.  0.
</event>
<event>
 5    0  0.5605075E-005  0.3494949E+03  0.7546771E-02  0.1062823E+00
         21   -1    0    0  502  501  0.00000000000E+00  0.00000000000E+00  0.10074302447E+03  0.10074302447E+03  0.00000000000E+00 0.  1.
         21   -1    0    0  501  502 -0.00000000000E+00 -0.00000000000E+00 -0.12124579601E+04  0.12124579601E+04  0.00000000000E+00 0.  1.
         25    1    1    2    0    0  0.16643420921E+03  0.17751442984E+02 -0.64551495121E+02  0.21864893150E+03  0.12500000000E+03 0.  0.
         25    1    1    2    0    0 -0.75540445111E+02 -0.35164790634E+02 -0.66889534121E+03  0.68555736364E+03  0.12500000000E+03 0.  0.
         25    1    1    2    0    0 -0.90893764100E+02  0.17413347650E+02 -0.37826809932E+03  0.40899468944E+03  0.12500000000E+03 0.  0.
</event>
<event>
 5    0  0.5674796E-005  0.3050382E+03  0.7546771E-02  0.1082749E+00
         21   -1    0    0  502  501  0.00000000000E+00  0.00000000000E+00  0.41671674398E+03  0.41671674398E+03  0.00000000000E+00 0.  1.
         21   -1    0    0  501  502 -0.00000000000E+00 -0.00000000000E+00 -0.22328916266E+03  0.22328916266E+03  0.00000000000E+00 0.  1.
         25    1    1    2    0    0 -0.95017056874E+02  0.18906256393E+02 -0.19813861995E+02  0.15938405427E+03  0.12500000000E+03 0.  0.
         25    1    1    2    0    0  0.77814790499E+02 -0.69193487437E+02 -0.61669510758E+02  0.17398565711E+03  0.12500000000E+03 0.  0.
         25    1    1    2    0    0  0.17202266375E+02  0.50287231044E+02  0.27491095407E+03  0.30663619526E+03  0.12500000000E+03 0.  0.
</event>
<event>
 5    0  0.5605075E-005  0.2740768E+03  0.7546771E-02  0.1098969E+00
         21   -1    0    0  502  501  0.00000000000E+00  0.00000000000E+00  0.61692011275E+03  0.61692011275E+03  0.00000000000E+00 0.  1.
         21   -1    0    0  501  502 -0.00000000000E+00 -0.00000000000E+00 -0.12176309690E+03  0.12176309690E+03  0.00000000000E+00 0.  1.
         25    1    1    2    0    0 -0.17466779392E+02  0.80894055451E+02  0.57187990256E+01  0.15002213587E+03  0.12500000000E+03 0.  0.
         25    1    1    2    0    0 -0.78375141770E+02 -0.36366698513E+02  0.31331042885E+03  0.34821491128E+03  0.12500000000E+03 0.  0.
         25    1    1    2    0    0  0.95841921162E+02 -0.44527356938E+02  0.17612778797E+03  0.24044616250E+03  0.12500000000E+03 0.  0.
</event>
<event>
 5    0  0.5605075E-005  0.2535240E+03  0.7546771E-02  0.1111098E+00
         21   -1    0    0  502  501  0.00000000000E+00  0.00000000000E+00  0.15020734269E+03  0.15020734269E+03  0.00000000000E+00 0. -1.
         21   -1    0    0  501  502 -0.00000000000E+00 -0.00000000000E+00 -0.42790477014E+03  0.42790477014E+03  0.00000000000E+00 0. -1.
         25    1    1    2    0    0  0.27589439744E+02  0.14968454031E+02 -0.10469504080E+03  0.16604602786E+03  0.12500000000E+03 0.  0.
         25    1    1    2    0    0 -0.29064740138E+02  0.12946910574E+03 -0.72147076466E+02  0.19605409739E+03  0.12500000000E+03 0.  0.
         25    1    1    2    0    0  0.14753003942E+01 -0.14443755977E+03 -0.10085531018E+03  0.21601198757E+03  0.12500000000E+03 0.  0.
</event>
<event>
 5    0  0.5605075E-005  0.2768890E+03  0.7546771E-02  0.1097400E+00
         21   -1    0    0  502  501  0.00000000000E+00  0.00000000000E+00  0.16172019884E+03  0.16172019884E+03  0.00000000000E+00 0.  1.
         21   -1    0    0  501  502 -0.00000000000E+00 -0.00000000000E+00 -0.47407501719E+03  0.47407501719E+03  0.00000000000E+00 0.  1.
         25    1    1    2    0    0 -0.68985865574E+01  0.14909153316E+03 -0.61387161785E+02  0.20413049598E+03  0.12500000000E+03 0.  0.
         25    1    1    2    0    0 -0.99668419312E+01 -0.21808234846E+02 -0.21355403422E+03  0.24860664226E+03  0.12500000000E+03 0.  0.
         25    1    1    2    0    0  0.16865428489E+02 -0.12728329831E+03 -0.37413622341E+02  0.18305807779E+03  0.12500000000E+03 0.  0.
</event>
<event>
 5    0  0.5605075E-005  0.2903757E+03  0.7546771E-02  0.1090153E+00
         21   -1    0    0  502  501  0.00000000000E+00  0.00000000000E+00  0.16636724960E+03  0.16636724960E+03  0.00000000000E+00 0.  1.
         21   -1    0    0  501  502 -0.00000000000E+00 -0.00000000000E+00 -0.50681876968E+03  0.50681876968E+03  0.00000000000E+00 0.  1.
         25    1    1    2    0    0  0.58491716308E+02  0.39375335589E+02 -0.75516980271E+02  0.16217124356E+03  0.12500000000E+03 0.  0.
         25    1    1    2    0    0 -0.20601226837E+03 -0.16423915356E+02 -0.16131268282E+03  0.29044376625E+03  0.12500000000E+03 0.  0.
         25    1    1    2    0    0  0.14752055206E+03 -0.22951420233E+02 -0.10362185699E+03  0.22057100947E+03  0.12500000000E+03 0.  0.
</event>
<event>
 5    0  0.5605075E-005  0.2120259E+03  0.7546771E-02  0.1139972E+00
         21   -1    0    0  502  501  0.00000000000E+00  0.00000000000E+00  0.16332783040E+03  0.16332783040E+03  0.00000000000E+00 0. -1.
         21   -1    0    0  501  502 -0.00000000000E+00 -0.00000000000E+00 -0.27524389646E+03  0.27524389646E+03  0.00000000000E+00 0. -1.
         25    1    1    2    0    0 -0.41342628527E+02 -0.32664488595E+02 -0.41785796481E+02  0.14194095440E+03  0.12500000000E+03 0.  0.
         25    1    1    2    0    0  0.62619303801E+02 -0.23135654363E+02 -0.70096457856E+02  0.15809790990E+03  0.12500000000E+03 0.  0.
         25    1    1    2    0    0 -0.21276675275E+02  0.55800142957E+02 -0.33811726054E-01  0.13853286256E+03  0.12500000000E+03 0.  0.
</event>
<event>
 5    0  0.5605075E-005  0.3141719E+03  0.7546771E-02  0.1078363E+00
         21   -1    0    0  502  501  0.00000000000E+00  0.00000000000E+00  0.48595322079E+03  0.48595322079E+03  0.00000000000E+00 0.  1.
         21   -1    0    0  501  502 -0.00000000000E+00 -0.00000000000E+00 -0.20311419179E+03  0.20311419179E+03  0.00000000000E+00 0.  1.
         25    1    1    2    0    0  0.13526506763E+03  0.85203999990E+02  0.26584508612E+03  0.33444726034E+03  0.12500000000E+03 0.  0.
         25    1    1    2    0    0 -0.49350528228E+02  0.27983087185E+02  0.75323876365E+02  0.15657973737E+03  0.12500000000E+03 0.  0.
         25    1    1    2    0    0 -0.85914539400E+02 -0.11318708717E+03 -0.58329933478E+02  0.19804041487E+03  0.12500000000E+03 0.  0.
</event>
<event>
 5    0  0.5605075E-005  0.2814231E+03  0.7546771E-02  0.1094914E+00
         21   -1    0    0  502  501  0.00000000000E+00  0.00000000000E+00  0.21616904703E+03  0.21616904703E+03  0.00000000000E+00 0. -1.
         21   -1    0    0  501  502 -0.00000000000E+00 -0.00000000000E+00 -0.36637515719E+03  0.36637515719E+03  0.00000000000E+00 0. -1.
         25    1    1    2    0    0 -0.14774463534E+03 -0.12147586035E+03 -0.12195960650E+03  0.25900580599E+03  0.12500000000E+03 0.  0.
         25    1    1    2    0    0  0.98435812280E+02  0.95080174052E+02 -0.14955352516E+02  0.18595298117E+03  0.12500000000E+03 0.  0.
         25    1    1    2    0    0  0.49308823061E+02  0.26395686302E+02 -0.13291151146E+02  0.13758541705E+03  0.12500000000E+03 0.  0.
</event>
<event>
 5    0  0.5605075E-005  0.5702648E+03  0.7546771E-02  0.9969093E-01
         21   -1    0    0  502  501  0.00000000000E+00  0.00000000000E+00  0.40355970820E+03  0.40355970820E+03  0.00000000000E+00 0.  1.
         21   -1    0    0  501  502 -0.00000000000E+00 -0.00000000000E+00 -0.80583343286E+03  0.80583343286E+03  0.00000000000E+00 0.  1.
         25    1    1    2    0    0  0.12402225595E+03  0.85306467998E+02 -0.25254099675E+02  0.19728528329E+03  0.12500000000E+03 0.  0.
         25    1    1    2    0    0 -0.32069569669E+03 -0.35996693171E+03 -0.41717300754E+03  0.64967702747E+03  0.12500000000E+03 0.  0.
         25    1    1    2    0    0  0.19667344075E+03  0.27466046371E+03  0.40153382554E+02  0.36243083030E+03  0.12500000000E+03 0.  0.
</event>
<event>
 5    0  0.5605075E-005  0.5907179E+03  0.7546771E-02  0.9924853E-01
         21   -1    0    0  502  501  0.00000000000E+00  0.00000000000E+00  0.52910558290E+03  0.52910558290E+03  0.00000000000E+00 0.  1.
         21   -1    0    0  501  502 -0.00000000000E+00 -0.00000000000E+00 -0.65950469657E+03  0.65950469657E+03  0.00000000000E+00 0.  1.
         25    1    1    2    0    0  0.45086888062E+03 -0.15833806226E+02  0.13822202994E+03  0.48812271664E+03  0.12500000000E+03 0.  0.
         25    1    1    2    0    0 -0.36028159611E+03  0.75549902623E+02 -0.34353948525E+03  0.51880149789E+03  0.12500000000E+03 0.  0.
         25    1    1    2    0    0 -0.90587284516E+02 -0.59716096397E+02  0.74918341643E+02  0.18168606496E+03  0.12500000000E+03 0.  0.
</event>
<event>
 5    0  0.5605075E-005  0.3495672E+03  0.7546771E-02  0.1062793E+00
         21   -1    0    0  502  501  0.00000000000E+00  0.00000000000E+00  0.69496081620E+03  0.69496081620E+03  0.00000000000E+00 0.  1.
         21   -1    0    0  501  502 -0.00000000000E+00 -0.00000000000E+00 -0.17583325473E+03  0.17583325473E+03  0.00000000000E+00 0.  1.
         25    1    1    2    0    0 -0.26621311816E+02  0.13851413835E+02  0.15228258421E+03  0.19928758457E+03  0.12500000000E+03 0.  0.
         25    1    1    2    0    0 -0.22728447730E+03  0.15768503497E+02  0.91395042608E+02  0.27547220029E+03  0.12500000000E+03 0.  0.
         25    1    1    2    0    0  0.25390578911E+03 -0.29619917333E+02  0.27544993464E+03  0.39603428607E+03  0.12500000000E+03 0.  0.
</event>
<event>
 5    0  0.5605075E-005  0.3562825E+03  0.7546771E-02  0.1060066E+00
         21   -1    0    0  502  501  0.00000000000E+00  0.00000000000E+00  0.19260203394E+03  0.19260203394E+03  0.00000000000E+00 0. -1.
         21   -1    0    0  501  502 -0.00000000000E+00 -0.00000000000E+00 -0.65906478655E+03  0.65906478655E+03  0.00000000000E+00 0. -1.
         25    1    1    2    0    0  0.20604536037E+03 -0.45977199113E+02 -0.14127350048E+02  0.24575022968E+03  0.12500000000E+03 0.  0.
         25    1    1    2    0    0 -0.10096934126E+02 -0.69702600161E+02 -0.15640970150E+03  0.21224842819E+03  0.12500000000E+03 0.  0.
         25    1    1    2    0    0 -0.19594842624E+03  0.11567979927E+03 -0.29592570106E+03  0.39366816262E+03  0.12500000000E+03 0.  0.
</event>
<event>
 5    0  0.5605075E-005  0.2297113E+03  0.7546771E-02  0.1126843E+00
         21   -1    0    0  502  501  0.00000000000E+00  0.00000000000E+00  0.54734298658E+03  0.54734298658E+03  0.00000000000E+00 0. -1.
         21   -1    0    0  501  502 -0.00000000000E+00 -0.00000000000E+00 -0.96406208136E+02  0.96406208136E+02  0.00000000000E+00 0. -1.
         25    1    1    2    0    0  0.84621776648E+02 -0.38949709221E+02  0.28899138768E+03  0.32835795572E+03  0.12500000000E+03 0.  0.
         25    1    1    2    0    0 -0.48707154825E+02  0.33018216076E+02  0.10379137378E+03  0.17280115392E+03  0.12500000000E+03 0.  0.
         25    1    1    2    0    0 -0.35914621823E+02  0.59314931447E+01  0.58154016986E+02  0.14259008508E+03  0.12500000000E+03 0.  0.
</event>
<event>
 5    0  0.5605075E-005  0.3284214E+03  0.7546771E-02  0.1071837E+00
         21   -1    0    0  502  501  0.00000000000E+00  0.00000000000E+00  0.52848043362E+03  0.52848043362E+03  0.00000000000E+00 0.  1.
         21   -1    0    0  501  502 -0.00000000000E+00 -0.00000000000E+00 -0.20409578426E+03  0.20409578426E+03  0.00000000000E+00 0.  1.
         25    1    1    2    0    0  0.74234289085E+02 -0.20233845415E+02  0.11942349901E+03  0.18922766788E+03  0.12500000000E+03 0.  0.
         25    1    1    2    0    0 -0.97274635395E+02  0.96733963016E+02 -0.95157550364E+02  0.20856599359E+03  0.12500000000E+03 0.  0.
         25    1    1    2    0    0  0.23040346310E+02 -0.76500117601E+02  0.30011870072E+03  0.33478255641E+03  0.12500000000E+03 0.  0.
</event>
<event>
 5    0  0.5605075E-005  0.4293549E+03  0.7546771E-02  0.1034064E+00
         21   -1    0    0  502  501  0.00000000000E+00  0.00000000000E+00  0.10068819856E+04  0.10068819856E+04  0.00000000000E+00 0. -1.
         21   -1    0    0  501  502 -0.00000000000E+00 -0.00000000000E+00 -0.18308560665E+03  0.18308560665E+03  0.00000000000E+00 0. -1.
         25    1    1    2    0    0 -0.15023326482E+03 -0.15622777887E+03  0.33386368659E+03  0.41721351126E+03  0.12500000000E+03 0.  0.
         25    1    1    2    0    0  0.23014375894E+03  0.63084172391E+02  0.18726447648E+02  0.27003970528E+03  0.12500000000E+03 0.  0.
         25    1    1    2    0    0 -0.79910494121E+02  0.93143606479E+02  0.47120624473E+03  0.50271437574E+03  0.12500000000E+03 0.  0.
</event>
<event>
 5    0  0.5605075E-005  0.3343864E+03  0.7546771E-02  0.1069212E+00
         21   -1    0    0  502  501  0.00000000000E+00  0.00000000000E+00  0.15895850333E+04  0.15895850333E+04  0.00000000000E+00 0. -1.
         21   -1    0    0  501  502 -0.00000000000E+00 -0.00000000000E+00 -0.70341779314E+02  0.70341779314E+02  0.00000000000E+00 0. -1.
         25    1    1    2    0    0 -0.11973997214E+03 -0.91845558810E+02  0.30954103155E+03  0.36635217731E+03  0.12500000000E+03 0.  0.
         25    1    1    2    0    0 -0.32714076819E+02  0.17730920122E+03  0.81682423517E+03  0.84577514437E+03  0.12500000000E+03 0.  0.
         25    1    1    2    0    0  0.15245404896E+03 -0.85463642411E+02  0.39287798731E+03  0.44779949099E+03  0.12500000000E+03 0.  0.
</event>
<event>
 5    0  0.5605075E-005  0.3065426E+03  0.7546771E-02  0.1082015E+00
         21   -1    0    0  502  501  0.00000000000E+00  0.00000000000E+00  0.94461400054E+02  0.94461400054E+02  0.00000000000E+00 0. -1.
         21   -1    0    0  501  502 -0.00000000000E+00 -0.00000000000E+00 -0.99478067122E+03  0.99478067122E+03  0.00000000000E+00 0. -1.
         25    1    1    2    0    0  0.45254425202E+02 -0.34648598010E+02 -0.15850171021E+03  0.20975290340E+03  0.12500000000E+03 0.  0.
         25    1    1    2    0    0 -0.15312916893E+03  0.16779754780E+03 -0.43705091747E+03  0.50817621342E+03  0.12500000000E+03 0.  0.
         25    1    1    2    0    0  0.10787474373E+03 -0.13314894979E+03 -0.30476664348E+03  0.37131295446E+03  0.12500000000E+03 0.  0.
</event>
<event>
 5    0  0.5605075E-005  0.2651340E+03  0.7546771E-02  0.1104097E+00
         21   -1    0    0  502  501  0.00000000000E+00  0.00000000000E+00  0.63586540014E+03  0.63586540014E+03  0.00000000000E+00 0.  1.
         21   -1    0    0  501  502 -0.00000000000E+00 -0.00000000000E+00 -0.11055172067E+03  0.11055172067E+03  0.00000000000E+00 0.  1.
         25    1    1    2    0    0 -0.12107708510E+03 -0.24273510032E+02  0.50373096209E+02  0.18278761623E+03  0.12500000000E+03 0.  0.
         25    1    1    2    0    0  0.11967705592E+03  0.33162690561E+02  0.30862313714E+03  0.35538092596E+03  0.12500000000E+03 0.  0.
         25    1    1    2    0    0  0.14000291795E+01 -0.88891805292E+01  0.16631744612E+03  0.20824857862E+03  0.12500000000E+03 0.  0.
</event>
<event>
 5    0  0.5605075E-005  0.3562941E+03  0.7546771E-02  0.1060061E+00
         21   -1    0    0  502  501  0.00000000000E+00  0.00000000000E+00  0.23820331239E+03  0.23820331239E+03  0.00000000000E+00 0.  1.
         21   -1    0    0  501  502 -0.00000000000E+00 -0.00000000000E+00 -0.53292926988E+03  0.53292926988E+03  0.00000000000E+00 0.  1.
         25    1    1    2    0    0  0.49116054725E+02 -0.96089674802E+01  0.81484794718E+02  0.15738326105E+03  0.12500000000E+03 0.  0.
         25    1    1    2    0    0  0.12897885932E+03  0.14224203701E+03 -0.15858131192E+03  0.27864202076E+03  0.12500000000E+03 0.  0.
         25    1    1    2    0    0 -0.17809491404E+03 -0.13263306953E+03 -0.21762944029E+03  0.33510730046E+03  0.12500000000E+03 0.  0.
</event>
<event>
 5    0  0.5605075E-005  0.4412349E+03  0.7546771E-02  0.1030369E+00
         21   -1    0    0  502  501  0.00000000000E+00  0.00000000000E+00  0.20279881084E+03  0.20279881084E+03  0.00000000000E+00 0.  1.
         21   -1    0    0  501  502 -0.00000000000E+00 -0.00000000000E+00 -0.96000690272E+03  0.96000690272E+03  0.00000000000E+00 0.  1.
         25    1    1    2    0    0 -0.17640288813E+03 -0.14007729584E+02 -0.87008811001E+02  0.23347318608E+03  0.12500000000E+03 0.  0.
         25    1    1    2    0    0  0.24381265404E+03  0.12480040753E+03 -0.68535914813E+03  0.74857325220E+03  0.12500000000E+03 0.  0.
         25    1    1    2    0    0 -0.67409765909E+02 -0.11079267794E+03  0.15159867247E+02  0.18075927528E+03  0.12500000000E+03 0.  0.
</event>
<event>
 5    0  0.5605075E-005  0.2399066E+03  0.7546771E-02  0.1119855E+00
         21   -1    0    0  502  501  0.00000000000E+00  0.00000000000E+00  0.93059564267E+03  0.93059564267E+03  0.00000000000E+00 0. -1.
         21   -1    0    0  501  502 -0.00000000000E+00 -0.00000000000E+00 -0.61847657010E+02  0.61847657010E+02  0.00000000000E+00 0. -1.
         25    1    1    2    0    0  0.85240404028E+01 -0.28178706154E+02  0.15150256524E+03  0.19860696367E+03  0.12500000000E+03 0.  0.
         25    1    1    2    0    0 -0.36772497078E+02  0.21561423994E+02  0.61706336347E+03  0.63103827624E+03  0.12500000000E+03 0.  0.
         25    1    1    2    0    0  0.28248456676E+02  0.66172821606E+01  0.10018205695E+03  0.16279805976E+03  0.12500000000E+03 0.  0.
</event>
<event>
 5    0  0.5969119E-005  0.3794569E+03  0.7546771E-02  0.1051135E+00
         21   -1    0    0  502  501  0.00000000000E+00  0.00000000000E+00  0.24729877023E+03  0.24729877023E+03  0.00000000000E+00 0.  1.
         21   -1    0    0  501  502 -0.00000000000E+00 -0.00000000000E+00 -0.58224137352E+03  0.58224137352E+03  0.00000000000E+00 0.  1.
         25    1    1    2    0    0  0.17154532333E+02  0.84764929138E+02  0.40206757724E+02  0.15722898765E+03  0.12500000000E+03 0.  0.
         25    1    1    2    0    0 -0.20640904317E+03 -0.18681815569E+03 -0.24653140596E+03  0.39231167523E+03  0.12500000000E+03 0.  0.
         25    1    1    2    0    0  0.18925451084E+03  0.10205322655E+03 -0.12861795506E+03  0.27999948086E+03  0.12500000000E+03 0.  0.
</event>
<event>
 5    0  0.5605075E-005  0.3002222E+03  0.7546771E-02  0.1085130E+00
         21   -1    0    0  502  501  0.00000000000E+00  0.00000000000E+00  0.67783181791E+02  0.67783181791E+02  0.00000000000E+00 0.  1.
         21   -1    0    0  501  502 -0.00000000000E+00 -0.00000000000E+00 -0.13297302904E+04  0.13297302904E+04  0.00000000000E+00 0.  1.
         25    1    1    2    0    0 -0.18880427932E+03 -0.26168256299E+02 -0.42040887865E+03  0.47822636771E+03  0.12500000000E+03 0.  0.
         25    1    1    2    0    0  0.57400584720E+02  0.61565797895E+02 -0.57866489267E+03  0.59796591258E+03  0.12500000000E+03 0.  0.
         25    1    1    2    0    0  0.13140369460E+03 -0.35397541596E+02 -0.26287333728E+03  0.32132119189E+03  0.12500000000E+03 0.  0.
</event>
<event>
 5    0  0.5605075E-005  0.3299190E+03  0.7546771E-02  0.1071173E+00
         21   -1    0    0  502  501  0.00000000000E+00  0.00000000000E+00  0.17312472868E+04  0.17312472868E+04  0.00000000000E+00 0. -1.
         21   -1    0    0  501  502 -0.00000000000E+00 -0.00000000000E+00 -0.62871757217E+02  0.62871757217E+02  0.00000000000E+00 0. -1.
         25    1    1    2    0    0 -0.22591293378E+02  0.29516488532E+01  0.32437003225E+03  0.34836761702E+03  0.12500000000E+03 0.  0.
         25    1    1    2    0    0 -0.11875960919E+03  0.12906839108E+03  0.10522119532E+04  0.10740286257E+04  0.12500000000E+03 0.  0.
         25    1    1    2    0    0  0.14135090257E+03 -0.13202003993E+03  0.29179354407E+03  0.37172280124E+03  0.12500000000E+03 0.  0.
</event>
<event>
 5    0  0.5605075E-005  0.2609901E+03  0.7546771E-02  0.1106550E+00
         21   -1    0    0  502  501  0.00000000000E+00  0.00000000000E+00  0.23004533977E+03  0.23004533977E+03  0.00000000000E+00 0. -1.
         21   -1    0    0  501  502 -0.00000000000E+00 -0.00000000000E+00 -0.29609740941E+03  0.29609740941E+03  0.00000000000E+00 0. -1.
         25    1    1    2    0    0  0.68121730843E+02 -0.11034521798E+03 -0.54665744915E+02  0.18822853400E+03  0.12500000000E+03 0.  0.
         25    1    1    2    0    0  0.49490965597E+02  0.36590571538E+02  0.38512553903E+02  0.14455601824E+03  0.12500000000E+03 0.  0.
         25    1    1    2    0    0 -0.11761269644E+03  0.73754646441E+02 -0.49898878624E+02  0.19335819694E+03  0.12500000000E+03 0.  0.
</event>
<event>
 5    0  0.5605075E-005  0.2404048E+03  0.7546771E-02  0.1119523E+00
         21   -1    0    0  502  501  0.00000000000E+00  0.00000000000E+00  0.80522256963E+03  0.80522256963E+03  0.00000000000E+00 0.  1.
         21   -1    0    0  501  502 -0.00000000000E+00 -0.00000000000E+00 -0.71774551585E+02  0.71774551585E+02  0.00000000000E+00 0.  1.
         25    1    1    2    0    0  0.67337046342E+02  0.57937439691E+02  0.42401084516E+03  0.45088936730E+03  0.12500000000E+03 0.  0.
         25    1    1    2    0    0 -0.83679947982E+01  0.21707001861E+02  0.18160299458E+03  0.22168866662E+03  0.12500000000E+03 0.  0.
         25    1    1    2    0    0 -0.58969051543E+02 -0.79644441552E+02  0.12783417830E+03  0.20441908730E+03  0.12500000000E+03 0.  0.
</event>
<event>
 5    0  0.5605075E-005  0.4542825E+03  0.7546771E-02  0.1026453E+00
         21   -1    0    0  502  501  0.00000000000E+00  0.00000000000E+00  0.43991421651E+03  0.43991421651E+03  0.00000000000E+00 0.  1.
         21   -1    0    0  501  502 -0.00000000000E+00 -0.00000000000E+00 -0.46911998694E+03  0.46911998694E+03  0.00000000000E+00 0.  1.
         25    1    1    2    0    0 -0.27690784216E+03 -0.17552137007E+03 -0.23069636469E+03  0.41991846480E+03  0.12500000000E+03 0.  0.
         25    1    1    2    0    0  0.21653254815E+03  0.47336569127E+02  0.13987856142E+03  0.29037580328E+03  0.12500000000E+03 0.  0.
         25    1    1    2    0    0  0.60375294015E+02  0.12818480094E+03  0.61612032842E+02  0.19873993537E+03  0.12500000000E+03 0.  0.
</event>
<event>
 5    0  0.5605075E-005  0.3821022E+03  0.7546771E-02  0.1050160E+00
         21   -1    0    0  502  501  0.00000000000E+00  0.00000000000E+00  0.82448700086E+02  0.82448700086E+02  0.00000000000E+00 0.  1.
         21   -1    0    0  501  502 -0.00000000000E+00 -0.00000000000E+00 -0.17708230412E+04  0.17708230412E+04  0.00000000000E+00 0.  1.
         25    1    1    2    0    0  0.26067981764E+02  0.29130385304E+02 -0.65539457297E+03  0.66835257559E+03  0.12500000000E+03 0.  0.
         25    1    1    2    0    0 -0.18071807291E+03  0.61021964389E+02 -0.14443417511E+03  0.26994246230E+03  0.12500000000E+03 0.  0.
         25    1    1    2    0    0  0.15465009115E+03 -0.90152349693E+02 -0.88854559300E+03  0.91497670336E+03  0.12500000000E+03 0.  0.
</event>
<event>
 5    0  0.5605075E-005  0.2857551E+03  0.7546771E-02  0.1092586E+00
         21   -1    0    0  502  501  0.00000000000E+00  0.00000000000E+00  0.36329283000E+03  0.36329283000E+03  0.00000000000E+00 0.  1.
         21   -1    0    0  501  502 -0.00000000000E+00 -0.00000000000E+00 -0.22476631675E+03  0.22476631675E+03  0.00000000000E+00 0.  1.
         25    1    1    2    0    0  0.13995929634E+03  0.40215949214E+02  0.69036970232E+02  0.20395350073E+03  0.12500000000E+03 0.  0.
         25    1    1    2    0    0 -0.28104067568E+01 -0.11788819143E+03  0.17913483665E+01  0.17185381286E+03  0.12500000000E+03 0.  0.
         25    1    1    2    0    0 -0.13714888958E+03  0.77672242214E+02  0.67698194651E+02  0.21225183317E+03  0.12500000000E+03 0.  0.
</event>
<event>
 5    0  0.6088905E-005  0.2917653E+03  0.7546771E-02  0.1089431E+00
         21   -1    0    0  502  501  0.00000000000E+00  0.00000000000E+00  0.27353807943E+03  0.27353807943E+03  0.00000000000E+00 0.  1.
         21   -1    0    0  501  502 -0.00000000000E+00 -0.00000000000E+00 -0.31120716647E+03  0.31120716647E+03  0.00000000000E+00 0.  1.
         25    1    1    2    0    0 -0.10617532055E+03 -0.46964210421E+02 -0.21411259116E+02  0.17193684239E+03  0.12500000000E+03 0.  0.
         25    1    1    2    0    0  0.10263192078E+02 -0.95866381512E+02  0.82742068481E+02  0.17823284241E+03  0.12500000000E+03 0.  0.
         25    1    1    2    0    0  0.95912128468E+02  0.14283059193E+03 -0.98999896410E+02  0.23457556111E+03  0.12500000000E+03 0.  0.
</event>
<event>
 5    0  0.5605075E-005  0.4295265E+03  0.7546771E-02  0.1034010E+00
         21   -1    0    0  502  501  0.00000000000E+00  0.00000000000E+00  0.67108856265E+03  0.67108856265E+03  0.00000000000E+00 0.  1.
         21   -1    0    0  501  502 -0.00000000000E+00 -0.00000000000E+00 -0.27491602861E+03  0.27491602861E+03  0.00000000000E+00 0.  1.
         25    1    1    2    0    0  0.19179429597E+03  0.40755063024E+02 -0.89360415160E+02  0.24911104136E+03  0.12500000000E+03 0.  0.
         25    1    1    2    0    0 -0.60391701758E+02  0.68404204459E+02  0.45798998073E+03  0.48343160351E+03  0.12500000000E+03 0.  0.
         25    1    1    2    0    0 -0.13140259421E+03 -0.10915926748E+03  0.27542968481E+02  0.21346194639E+03  0.12500000000E+03 0.  0.
</event>
<event>
 5    0  0.5605075E-005  0.2386947E+03  0.7546771E-02  0.1120665E+00
         21   -1    0    0  502  501  0.00000000000E+00  0.00000000000E+00  0.23311305426E+03  0.23311305426E+03  0.00000000000E+00 0.  1.
         21   -1    0    0  501  502 -0.00000000000E+00 -0.00000000000E+00 -0.24441002010E+03  0.24441002010E+03  0.00000000000E+00 0.  1.
         25    1    1    2    0    0 -0.68488260625E+02 -0.65201895235E+02 -0.64579503579E+02  0.16952121185E+03  0.12500000000E+03 0.  0.
         25    1    1    2    0    0  0.34107033199E+01  0.28841822115E+02 -0.40847667640E+02  0.13467373742E+03  0.12500000000E+03 0.  0.
         25    1    1    2    0    0  0.65077557305E+02  0.36360073121E+02  0.94130205377E+02  0.17332812509E+03  0.12500000000E+03 0.  0.
</event>
<event>
 5    0  0.5629479E-005  0.2969765E+03  0.7546771E-02  0.1086762E+00
         21   -1    0    0  502  501  0.00000000000E+00  0.00000000000E+00  0.86249859657E+03  0.86249859657E+03  0.00000000000E+00 0.  1.
         21   -1    0    0  501  502 -0.00000000000E+00 -0.00000000000E+00 -0.10225525459E+03  0.10225525459E+03  0.00000000000E+00 0.  1.
         25    1    1    2    0    0  0.12961704336E+03 -0.12784147406E+03  0.31470445178E+03  0.38445794619E+03  0.12500000000E+03 0.  0.
         25    1    1    2    0    0 -0.86045216818E+02  0.81398227079E+01  0.75995488194E+02  0.16991277255E+03  0.12500000000E+03 0.  0.
         25    1    1    2    0    0 -0.43571826542E+02  0.11970165135E+03  0.36954340200E+03  0.41038313241E+03  0.12500000000E+03 0.  0.
</event>
<event>
 5    0  0.5605075E-005  0.2565966E+03  0.7546771E-02  0.1109205E+00
         21   -1    0    0  502  501  0.00000000000E+00  0.00000000000E+00  0.49209970646E+03  0.49209970646E+03  0.00000000000E+00 0. -1.
         21   -1    0    0  501  502 -0.00000000000E+00 -0.00000000000E+00 -0.13379772533E+03  0.13379772533E+03  0.00000000000E+00 0. -1.
         25    1    1    2    0    0 -0.26497834834E+02 -0.10845944870E+03  0.23860203401E+03  0.29158449530E+03  0.12500000000E+03 0.  0.
         25    1    1    2    0    0  0.66998565857E+02  0.76745191932E+01  0.27134923032E+02  0.14459948174E+03  0.12500000000E+03 0.  0.
         25    1    1    2    0    0 -0.40500731022E+02  0.10078492951E+03  0.92565024086E+02  0.18971345475E+03  0.12500000000E+03 0.  0.
</event>
<event>
 5    0  0.5605075E-005  0.2291916E+03  0.7546771E-02  0.1127210E+00
         21   -1    0    0  502  501  0.00000000000E+00  0.00000000000E+00  0.41008247860E+02  0.41008247860E+02  0.00000000000E+00 0.  1.
         21   -1    0    0  501  502 -0.00000000000E+00 -0.00000000000E+00 -0.12809318490E+04  0.12809318490E+04  0.00000000000E+00 0.  1.
         25    1    1    2    0    0 -0.17797013649E+01  0.67076887784E+02 -0.30491985960E+03  0.33630878221E+03  0.12500000000E+03 0.  0.
         25    1    1    2    0    0 -0.52801287468E+02 -0.89050669606E+02 -0.63384408156E+03  0.65429451889E+03  0.12500000000E+03 0.  0.
         25    1    1    2    0    0  0.54580988833E+02  0.21973781823E+02 -0.30115965999E+03  0.33133679578E+03  0.12500000000E+03 0.  0.
</event>
<event>
 5    0  0.5605075E-005  0.3677392E+03  0.7546771E-02  0.1055561E+00
         21   -1    0    0  502  501  0.00000000000E+00  0.00000000000E+00  0.66586977190E+03  0.66586977190E+03  0.00000000000E+00 0. -1.
         21   -1    0    0  501  502 -0.00000000000E+00 -0.00000000000E+00 -0.20309097942E+03  0.20309097942E+03  0.00000000000E+00 0. -1.
         25    1    1    2    0    0 -0.23298203598E+02  0.23704347372E+03  0.41880442037E+03  0.49774949246E+03  0.12500000000E+03 0.  0.
         25    1    1    2    0    0  0.15376403259E+02 -0.75991625444E+02  0.74556842934E+02  0.16490871336E+03  0.12500000000E+03 0.  0.
         25    1    1    2    0    0  0.79218003391E+01 -0.16105184828E+03 -0.30582470820E+02  0.20630254549E+03  0.12500000000E+03 0.  0.
</event>
<event>
 5    0  0.5605075E-005  0.2549247E+03  0.7546771E-02  0.1110231E+00
         21   -1    0    0  502  501  0.00000000000E+00  0.00000000000E+00  0.28305544421E+03  0.28305544421E+03  0.00000000000E+00 0.  1.
         21   -1    0    0  501  502 -0.00000000000E+00 -0.00000000000E+00 -0.22958962561E+03  0.22958962561E+03  0.00000000000E+00 0.  1.
         25    1    1    2    0    0  0.89775769207E+02 -0.34815317433E+02 -0.16273671212E+01  0.15779557468E+03  0.12500000000E+03 0.  0.
         25    1    1    2    0    0 -0.11483240522E+03  0.40831588369E+02  0.11982200558E+03  0.21174516032E+03  0.12500000000E+03 0.  0.
         25    1    1    2    0    0  0.25056636009E+02 -0.60162709365E+01 -0.64728819869E+02  0.14310433482E+03  0.12500000000E+03 0.  0.
</event>
<event>
 5    0  0.5605075E-005  0.3261402E+03  0.7546771E-02  0.1072858E+00
         21   -1    0    0  502  501  0.00000000000E+00  0.00000000000E+00  0.39406320428E+03  0.39406320428E+03  0.00000000000E+00 0.  1.
         21   -1    0    0  501  502 -0.00000000000E+00 -0.00000000000E+00 -0.26992486674E+03  0.26992486674E+03  0.00000000000E+00 0.  1.
         25    1    1    2    0    0 -0.79584689307E+02 -0.17882296741E+03  0.72200528270E+02  0.24320627609E+03  0.12500000000E+03 0.  0.
         25    1    1    2    0    0  0.69818612618E+02  0.14433526259E+03 -0.95138170554E+02  0.22446286595E+03  0.12500000000E+03 0.  0.
         25    1    1    2    0    0  0.97660766893E+01  0.34487704827E+02  0.14707597982E+03  0.19631892899E+03  0.12500000000E+03 0.  0.
</event>
<event>
 5    0  0.5605075E-005  0.2991212E+03  0.7546771E-02  0.1085681E+00
         21   -1    0    0  502  501  0.00000000000E+00  0.00000000000E+00  0.18090506862E+04  0.18090506862E+04  0.00000000000E+00 0.  1.
         21   -1    0    0  501  502 -0.00000000000E+00 -0.00000000000E+00 -0.49458816026E+02  0.49458816026E+02  0.00000000000E+00 0.  1.
         25    1    1    2    0    0  0.15941961565E+03  0.13173508468E+03  0.63487745233E+03  0.67931077267E+03  0.12500000000E+03 0.  0.
         25    1    1    2    0    0 -0.30415730798E+02 -0.25832689075E+02  0.28144369568E+03  0.31052857894E+03  0.12500000000E+03 0.  0.
         25    1    1    2    0    0 -0.12900388485E+03 -0.10590239560E+03  0.84327072217E+03  0.86867015061E+03  0.12500000000E+03 0.  0.
</event>
<event>
 5    0  0.5605075E-005  0.2148179E+03  0.7546771E-02  0.1137807E+00
         21   -1    0    0  502  501  0.00000000000E+00  0.00000000000E+00  0.57750707679E+03  0.57750707679E+03  0.00000000000E+00 0.  1.
         21   -1    0    0  501  502 -0.00000000000E+00 -0.00000000000E+00 -0.79906748078E+02  0.79906748078E+02  0.00000000000E+00 0.  1.
         25    1    1    2    0    0 -0.17486076449E+02 -0.51273476534E+02  0.13604227547E+03  0.19252852511E+03  0.12500000000E+03 0.  0.
         25    1    1    2    0    0  0.62507445617E+02  0.27201364164E+02  0.25815721085E+03  0.29481730017E+03  0.12500000000E+03 0.  0.
         25    1    1    2    0    0 -0.45021369167E+02  0.24072112370E+02  0.10340084240E+03  0.17006799959E+03  0.12500000000E+03 0.  0.
</event>
<event>
 5    0  0.5605075E-005  0.2399597E+03  0.7546771E-02  0.1119820E+00
         21   -1    0    0  502  501  0.00000000000E+00  0.00000000000E+00  0.83623946957E+02  0.83623946957E+02  0.00000000000E+00 0.  1.
         21   -1    0    0  501  502 -0.00000000000E+00 -0.00000000000E+00 -0.68856684892E+03  0.68856684892E+03  0.00000000000E+00 0.  1.
         25    1    1    2    0    0  0.26681389725E+02 -0.64238286605E+02 -0.36347242717E+03  0.39060934364E+03  0.12500000000E+03 0.  0.
         25    1    1    2    0    0 -0.12506313030E+02  0.69517192931E+02 -0.49239378895E+02  0.15178459873E+03  0.12500000000E+03 0.  0.
         25    1    1    2    0    0 -0.14175076695E+02 -0.52789063255E+01 -0.19223109589E+03  0.22979685350E+03  0.12500000000E+03 0.  0.
</event>
<event>
 5    0  0.5605075E-005  0.2420272E+03  0.7546771E-02  0.1118450E+00
         21   -1    0    0  502  501  0.00000000000E+00  0.00000000000E+00  0.17709896192E+03  0.17709896192E+03  0.00000000000E+00 0. -1.
         21   -1    0    0  501  502 -0.00000000000E+00 -0.00000000000E+00 -0.33075960581E+03  0.33075960581E+03  0.00000000000E+00 0. -1.
         25    1    1    2    0    0 -0.11719486133E+02  0.11895632515E+02 -0.62456025444E+02  0.14072884403E+03  0.12500000000E+03 0.  0.
         25    1    1    2    0    0 -0.10644201432E+03  0.37928871047E+01  0.14115759088E+02  0.16482882958E+03  0.12500000000E+03 0.  0.
         25    1    1    2    0    0  0.11816150045E+03 -0.15688519620E+02 -0.10532037754E+03  0.20230089412E+03  0.12500000000E+03 0.  0.
</event>
<event>
 5    0  0.5605075E-005  0.3202397E+03  0.7546771E-02  0.1075539E+00
         21   -1    0    0  502  501  0.00000000000E+00  0.00000000000E+00  0.52392424489E+03  0.52392424489E+03  0.00000000000E+00 0. -1.
         21   -1    0    0  501  502 -0.00000000000E+00 -0.00000000000E+00 -0.19574102927E+03  0.19574102927E+03  0.00000000000E+00 0. -1.
         25    1    1    2    0    0 -0.17051593529E+03  0.71506105514E+02  0.29892493329E+02  0.22518296665E+03  0.12500000000E+03 0.  0.
         25    1    1    2    0    0  0.57165878916E+02  0.61693818050E+02  0.21800806562E+03  0.26500298408E+03  0.12500000000E+03 0.  0.
         25    1    1    2    0    0  0.11335005637E+03 -0.13319992356E+03  0.80282656679E+02  0.22947932343E+03  0.12500000000E+03 0.  0.
</event>
<event>
 5    0  0.5605075E-005  0.2445313E+03  0.7546771E-02  0.1116810E+00
         21   -1    0    0  502  501  0.00000000000E+00  0.00000000000E+00  0.25356040311E+03  0.25356040311E+03  0.00000000000E+00 0. -1.
         21   -1    0    0  501  502 -0.00000000000E+00 -0.00000000000E+00 -0.23582375905E+03  0.23582375905E+03  0.00000000000E+00 0. -1.
         25    1    1    2    0    0  0.14785955148E+02 -0.26976061624E+02  0.12038861130E+03  0.17625195063E+03  0.12500000000E+03 0.  0.
         25    1    1    2    0    0  0.46336068257E+02  0.15897024032E+02 -0.10969371630E+03  0.17337086834E+03  0.12500000000E+03 0.  0.
         25    1    1    2    0    0 -0.61122023405E+02  0.11079037592E+02  0.70417490634E+01  0.13976134319E+03  0.12500000000E+03 0.  0.
</event>
<event>
 5    0  0.5605075E-005  0.3181384E+03  0.7546771E-02  0.1076509E+00
         21   -1    0    0  502  501  0.00000000000E+00  0.00000000000E+00  0.50655528155E+03  0.50655528155E+03  0.00000000000E+00 0.  1.
         21   -1    0    0  501  502 -0.00000000000E+00 -0.00000000000E+00 -0.19980448266E+03  0.19980448266E+03  0.00000000000E+00 0.  1.
         25    1    1    2    0    0 -0.60723797869E+02 -0.16709591717E+02  0.24951446903E+03  0.28609274779E+03  0.12500000000E+03 0.  0.
         25    1    1    2    0    0 -0.54485060624E+02  0.23157597960E+02  0.16774134954E+03  0.21740988138E+03  0.12500000000E+03 0.  0.
         25    1    1    2    0    0  0.11520885849E+03 -0.64480062434E+01 -0.11050501969E+03  0.20285713504E+03  0.12500000000E+03 0.  0.
</event>
<event>
 5    0  0.5605075E-005  0.2234839E+03  0.7546771E-02  0.1131312E+00
         21   -1    0    0  502  501  0.00000000000E+00  0.00000000000E+00  0.53594164148E+03  0.53594164148E+03  0.00000000000E+00 0.  1.
         21   -1    0    0  501  502 -0.00000000000E+00 -0.00000000000E+00 -0.93191206585E+02  0.93191206585E+02  0.00000000000E+00 0.  1.
         25    1    1    2    0    0 -0.44704878941E+02  0.69485237697E+01  0.10003437830E+03  0.16636912281E+03  0.12500000000E+03 0.  0.
         25    1    1    2    0    0  0.39230855505E+02 -0.54974883759E+02  0.28171214450E+03  0.31551232975E+03  0.12500000000E+03 0.  0.
         25    1    1    2    0    0  0.54740234369E+01  0.48026359989E+02  0.61003912101E+02  0.14725139550E+03  0.12500000000E+03 0.  0.
</event>
<event>
 5    0  0.5605075E-005  0.5474034E+03  0.7546771E-02  0.1002097E+00
         21   -1    0    0  502  501  0.00000000000E+00  0.00000000000E+00  0.55706225049E+03  0.55706225049E+03  0.00000000000E+00 0. -1.
         21   -1    0    0  501  502 -0.00000000000E+00 -0.00000000000E+00 -0.53791202772E+03  0.53791202772E+03  0.00000000000E+00 0. -1.
         25    1    1    2    0    0 -0.33600995339E+03 -0.31433914130E+03 -0.13438050833E+03  0.49537350106E+03  0.12500000000E+03 0.  0.
         25    1    1    2    0    0  0.33110779955E+03  0.18856033764E+03  0.12411871994E+03  0.41978307790E+03  0.12500000000E+03 0.  0.
         25    1    1    2    0    0  0.49021538390E+01  0.12577880366E+03  0.29412011164E+02  0.17981769925E+03  0.12500000000E+03 0.  0.
</event>
<event>
 5    0  0.5605075E-005  0.2839792E+03  0.7546771E-02  0.1093535E+00
         21   -1    0    0  502  501  0.00000000000E+00  0.00000000000E+00  0.28178602883E+03  0.28178602883E+03  0.00000000000E+00 0. -1.
         21   -1    0    0  501  502 -0.00000000000E+00 -0.00000000000E+00 -0.28618939596E+03  0.28618939596E+03  0.00000000000E+00 0. -1.
         25    1    1    2    0    0  0.53446362025E+01  0.11642362197E+03 -0.76953227028E+02  0.18742951752E+03  0.12500000000E+03 0.  0.
         25    1    1    2    0    0  0.90335754123E+02 -0.70473885735E+02  0.12242821103E+03  0.20914297478E+03  0.12500000000E+03 0.  0.
         25    1    1    2    0    0 -0.95680390326E+02 -0.45949736234E+02 -0.49878351139E+02  0.17140293249E+03  0.12500000000E+03 0.  0.
</event>
<event>
 5    0  0.5605075E-005  0.2655369E+03  0.7546771E-02  0.1103861E+00
         21   -1    0    0  502  501  0.00000000000E+00  0.00000000000E+00  0.22019342585E+03  0.22019342585E+03  0.00000000000E+00 0.  1.
         21   -1    0    0  501  502 -0.00000000000E+00 -0.00000000000E+00 -0.32021779922E+03  0.32021779922E+03  0.00000000000E+00 0.  1.
         25    1    1    2    0    0 -0.74802234507E+02  0.12001656764E+01 -0.38206771687E+02  0.15060402414E+03  0.12500000000E+03 0.  0.
         25    1    1    2    0    0  0.16615818555E+03 -0.94909635132E+01 -0.98812755127E+02  0.23040742521E+03  0.12500000000E+03 0.  0.
         25    1    1    2    0    0 -0.91355951046E+02  0.82907978368E+01  0.36995153444E+02  0.15939977572E+03  0.12500000000E+03 0.  0.
</event>
<event>
 5    0  0.5605075E-005  0.2820462E+03  0.7546771E-02  0.1094577E+00
         21   -1    0    0  502  501  0.00000000000E+00  0.00000000000E+00  0.18058210040E+03  0.18058210040E+03  0.00000000000E+00 0.  1.
         21   -1    0    0  501  502 -0.00000000000E+00 -0.00000000000E+00 -0.44052017398E+03  0.44052017398E+03  0.00000000000E+00 0.  1.
         25    1    1    2    0    0 -0.70407143656E+02 -0.15506435624E+03 -0.93749903584E+02  0.23111937365E+03  0.12500000000E+03 0.  0.
         25    1    1    2    0    0  0.46697183132E+02  0.37742628959E+01 -0.13501202198E+03  0.18986341947E+03  0.12500000000E+03 0.  0.
         25    1    1    2    0    0  0.23709960523E+02  0.15129009335E+03 -0.31176148016E+02  0.20011948126E+03  0.12500000000E+03 0.  0.
</event>
<event>
 5    0  0.5605075E-005  0.2526915E+03  0.7546771E-02  0.1111616E+00
         21   -1    0    0  502  501  0.00000000000E+00  0.00000000000E+00  0.11665520427E+04  0.11665520427E+04  0.00000000000E+00 0.  1.
         21   -1    0    0  501  502 -0.00000000000E+00 -0.00000000000E+00 -0.54736507242E+02  0.54736507242E+02  0.00000000000E+00 0.  1.
         25    1    1    2    0    0 -0.38270062686E+02  0.95827573172E+02  0.22947803362E+03  0.28094962074E+03  0.12500000000E+03 0.  0.
         25    1    1    2    0    0 -0.17411473596E+02  0.24515613038E+02  0.50779447695E+03  0.52381714893E+03  0.12500000000E+03 0.  0.
         25    1    1    2    0    0  0.55681536282E+02 -0.12034318621E+03  0.37454302490E+03  0.41652178028E+03  0.12500000000E+03 0.  0.
</event>
<event>
 5    0  0.5605075E-005  0.2668616E+03  0.7546771E-02  0.1103089E+00
         21   -1    0    0  502  501  0.00000000000E+00  0.00000000000E+00  0.99517985078E+03  0.99517985078E+03  0.00000000000E+00 0.  1.
         21   -1    0    0  501  502 -0.00000000000E+00 -0.00000000000E+00 -0.71560059622E+02  0.71560059622E+02  0.00000000000E+00 0.  1.
         25    1    1    2    0    0  0.10406323438E+03 -0.91761369650E+02  0.50688813462E+03  0.54019430461E+03  0.12500000000E+03 0.  0.
         25    1    1    2    0    0 -0.69342071268E+02  0.74071927808E+02  0.11565963119E+03  0.19823502118E+03  0.12500000000E+03 0.  0.
         25    1    1    2    0    0 -0.34721163112E+02  0.17689441843E+02  0.30107202535E+03  0.32831058462E+03  0.12500000000E+03 0.  0.
</event>
<event>
 5    0  0.5605075E-005  0.2847074E+03  0.7546771E-02  0.1093145E+00
         21   -1    0    0  502  501  0.00000000000E+00  0.00000000000E+00  0.14624616655E+03  0.14624616655E+03  0.00000000000E+00 0.  1.
         21   -1    0    0  501  502 -0.00000000000E+00 -0.00000000000E+00 -0.55425945658E+03  0.55425945658E+03  0.00000000000E+00 0.  1.
         25    1    1    2    0    0 -0.17476830871E+02  0.51910951603E+02 -0.25468047054E+03  0.28894173909E+03  0.12500000000E+03 0.  0.
         25    1    1    2    0    0  0.60996251300E+02  0.98083025201E+02 -0.12124347458E+03  0.20896363950E+03  0.12500000000E+03 0.  0.
         25    1    1    2    0    0 -0.43519420429E+02 -0.14999397680E+03 -0.32089344902E+02  0.20260024454E+03  0.12500000000E+03 0.  0.
</event>
<event>
 5    0  0.5605075E-005  0.2678825E+03  0.7546771E-02  0.1102498E+00
         21   -1    0    0  502  501  0.00000000000E+00  0.00000000000E+00  0.45268024244E+02  0.45268024244E+02  0.00000000000E+00 0. -1.
         21   -1    0    0  501  502 -0.00000000000E+00 -0.00000000000E+00 -0.15852477587E+04  0.15852477587E+04  0.00000000000E+00 0. -1.
         25    1    1    2    0    0 -0.28255907700E+02  0.98951496102E+01 -0.39343256371E+03  0.41389671718E+03  0.12500000000E+03 0.  0.
         25    1    1    2    0    0 -0.35286601001E+02  0.12220492237E+03 -0.80470979618E+03  0.82423421630E+03  0.12500000000E+03 0.  0.
         25    1    1    2    0    0  0.63542508701E+02 -0.13210007198E+03 -0.34183737453E+03  0.39238484942E+03  0.12500000000E+03 0.  0.
</event>
<event>
 5    0  0.5605075E-005  0.3039975E+03  0.7546771E-02  0.1083259E+00
         21   -1    0    0  502  501  0.00000000000E+00  0.00000000000E+00  0.10278538992E+03  0.10278538992E+03  0.00000000000E+00 0.  1.
         21   -1    0    0  501  502 -0.00000000000E+00 -0.00000000000E+00 -0.89910123000E+03  0.89910123000E+03  0.00000000000E+00 0.  1.
         25    1    1    2    0    0 -0.14665137126E+03 -0.15395345928E+03 -0.25667040400E+03  0.35596767916E+03  0.12500000000E+03 0.  0.
         25    1    1    2    0    0  0.49433801109E+02  0.81761748873E+02 -0.37361223012E+03  0.40538843442E+03  0.12500000000E+03 0.  0.
         25    1    1    2    0    0  0.97217570155E+02  0.72191710409E+02 -0.16603320596E+03  0.24053050634E+03  0.12500000000E+03 0.  0.
</event>
<event>
 5    0  0.5605075E-005  0.4499792E+03  0.7546771E-02  0.1027728E+00
         21   -1    0    0  502  501  0.00000000000E+00  0.00000000000E+00  0.45274605089E+03  0.45274605089E+03  0.00000000000E+00 0. -1.
         21   -1    0    0  501  502 -0.00000000000E+00 -0.00000000000E+00 -0.44722921294E+03  0.44722921294E+03  0.00000000000E+00 0. -1.
         25    1    1    2    0    0 -0.23637676112E+02  0.62304761880E+02 -0.15382417442E+03  0.20911121376E+03  0.12500000000E+03 0.  0.
         25    1    1    2    0    0 -0.18470098145E+03  0.16215154507E+03  0.22225552764E+03  0.35416111543E+03  0.12500000000E+03 0.  0.
         25    1    1    2    0    0  0.20833865756E+03 -0.22445630695E+03 -0.62914515268E+02  0.33670293464E+03  0.12500000000E+03 0.  0.
</event>
<event>
 5    0  0.5605075E-005  0.3071394E+03  0.7546771E-02  0.1081725E+00
         21   -1    0    0  502  501  0.00000000000E+00  0.00000000000E+00  0.11658609971E+03  0.11658609971E+03  0.00000000000E+00 0. -1.
         21   -1    0    0  501  502 -0.00000000000E+00 -0.00000000000E+00 -0.80914120871E+03  0.80914120871E+03  0.00000000000E+00 0. -1.
         25    1    1    2    0    0  0.17196145291E+03  0.18734603251E+01 -0.37948057535E+03  0.43497673295E+03  0.12500000000E+03 0.  0.
         25    1    1    2    0    0 -0.20174868063E+03 -0.46018600605E+02 -0.19113704065E+03  0.30818599911E+03  0.12500000000E+03 0.  0.
         25    1    1    2    0    0  0.29787227720E+02  0.44145140280E+02 -0.12193749298E+03  0.18256457636E+03  0.12500000000E+03 0.  0.
</event>
<event>
 5    0  0.5605075E-005  0.2129136E+03  0.7546771E-02  0.1139279E+00
         21   -1    0    0  502  501  0.00000000000E+00  0.00000000000E+00  0.22982628436E+03  0.22982628436E+03  0.00000000000E+00 0.  1.
         21   -1    0    0  501  502 -0.00000000000E+00 -0.00000000000E+00 -0.19724557452E+03  0.19724557452E+03  0.00000000000E+00 0.  1.
         25    1    1    2    0    0 -0.22222935804E+02 -0.67345390987E+02  0.43680507155E+02  0.15020734758E+03  0.12500000000E+03 0.  0.
         25    1    1    2    0    0  0.22320096182E+02 -0.12957014738E+02  0.25980032067E+01  0.12766291766E+03  0.12500000000E+03 0.  0.
         25    1    1    2    0    0 -0.97160378476E-01  0.80302405725E+02 -0.13697800516E+02  0.14920159364E+03  0.12500000000E+03 0.  0.
</event>
<event>
 5    0  0.5605075E-005  0.5340229E+03  0.7546771E-02  0.1005261E+00
         21   -1    0    0  502  501  0.00000000000E+00  0.00000000000E+00  0.30027974097E+03  0.30027974097E+03  0.00000000000E+00 0.  1.
         21   -1    0    0  501  502 -0.00000000000E+00 -0.00000000000E+00 -0.94971610801E+03  0.94971610801E+03  0.00000000000E+00 0.  1.
         25    1    1    2    0    0  0.50159430078E+02  0.26468145625E+03 -0.55407541759E+03  0.62864680870E+03  0.12500000000E+03 0.  0.
         25    1    1    2    0    0  0.11498905996E+03 -0.20106078208E+03 -0.24375459444E+03  0.35873280351E+03  0.12500000000E+03 0.  0.
         25    1    1    2    0    0 -0.16514849004E+03 -0.63620674162E+02  0.14839364499E+03  0.26261623677E+03  0.12500000000E+03 0.  0.
</event>
<event>
 5    0  0.5605075E-005  0.4598070E+03  0.7546771E-02  0.1024837E+00
         21   -1    0    0  502  501  0.00000000000E+00  0.00000000000E+00  0.35944423554E+03  0.35944423554E+03  0.00000000000E+00 0. -1.
         21   -1    0    0  501  502 -0.00000000000E+00 -0.00000000000E+00 -0.58819261544E+03  0.58819261544E+03  0.00000000000E+00 0. -1.
         25    1    1    2    0    0  0.45626231576E+02  0.41877499375E+02 -0.24482603810E+02  0.14163289113E+03  0.12500000000E+03 0.  0.
         25    1    1    2    0    0  0.29843874469E+03 -0.26153999726E+02 -0.28366745245E+03  0.43109388724E+03  0.12500000000E+03 0.  0.
         25    1    1    2    0    0 -0.34406497627E+03 -0.15723499649E+02  0.79401676361E+02  0.37491007261E+03  0.12500000000E+03 0.  0.
</event>
<event>
 5    0  0.5605075E-005  0.3900643E+03  0.7546771E-02  0.1047275E+00
         21   -1    0    0  502  501  0.00000000000E+00  0.00000000000E+00  0.92338075480E+02  0.92338075480E+02  0.00000000000E+00 0. -1.
         21   -1    0    0  501  502 -0.00000000000E+00 -0.00000000000E+00 -0.16477514181E+04  0.16477514181E+04  0.00000000000E+00 0. -1.
         25    1    1    2    0    0  0.89553128268E+02 -0.15523134749E+03 -0.12619100408E+03  0.25232063637E+03  0.12500000000E+03 0.  0.
         25    1    1    2    0    0 -0.11960235839E+03  0.46260325394E+02 -0.32779747110E+03  0.37352499769E+03  0.12500000000E+03 0.  0.
         25    1    1    2    0    0  0.30049230118E+02  0.10897102209E+03 -0.11014248675E+04  0.11142438596E+04  0.12500000000E+03 0.  0.
</event>
<event>
 5    0  0.5605075E-005  0.3362231E+03  0.7546771E-02  0.1068416E+00
         21   -1    0    0  502  501  0.00000000000E+00  0.00000000000E+00  0.48341422113E+03  0.48341422113E+03  0.00000000000E+00 0. -1.
         21   -1    0    0  501  502 -0.00000000000E+00 -0.00000000000E+00 -0.23384903596E+03  0.23384903596E+03  0.00000000000E+00 0. -1.
         25    1    1    2    0    0 -0.13907833549E+03 -0.12033386289E+03  0.23167789103E+03  0.32112718221E+03  0.12500000000E+03 0.  0.
         25    1    1    2    0    0  0.11816814379E+03  0.12974575993E+03 -0.86003128132E+02  0.23198967752E+03  0.12500000000E+03 0.  0.
         25    1    1    2    0    0  0.20910191698E+02 -0.94118970427E+01  0.10389042227E+03  0.16414639735E+03  0.12500000000E+03 0.  0.
</event>
<event>
 5    0  0.5605075E-005  0.2626659E+03  0.7546771E-02  0.1105552E+00
         21   -1    0    0  502  501  0.00000000000E+00  0.00000000000E+00  0.72412834726E+03  0.72412834726E+03  0.00000000000E+00 0. -1.
         21   -1    0    0  501  502 -0.00000000000E+00 -0.00000000000E+00 -0.95277819078E+02  0.95277819078E+02  0.00000000000E+00 0. -1.
         25    1    1    2    0    0  0.11030700870E+02  0.13099328118E+03  0.12139286546E+03  0.21827080396E+03  0.12500000000E+03 0.  0.
         25    1    1    2    0    0 -0.59616611740E+02 -0.12666191506E+03  0.28099993485E+03  0.33791026103E+03  0.12500000000E+03 0.  0.
         25    1    1    2    0    0  0.48585910870E+02 -0.43313661206E+01  0.22645772788E+03  0.26322510136E+03  0.12500000000E+03 0.  0.
</event>
<event>
 5    0  0.5605075E-005  0.2912025E+03  0.7546771E-02  0.1089723E+00
         21   -1    0    0  502  501  0.00000000000E+00  0.00000000000E+00  0.20543859733E+03  0.20543859733E+03  0.00000000000E+00 0.  1.
         21   -1    0    0  501  502 -0.00000000000E+00 -0.00000000000E+00 -0.41277016581E+03  0.41277016581E+03  0.00000000000E+00 0.  1.
         25    1    1    2    0    0 -0.14830239919E+02 -0.48258968252E+02  0.12864981878E+03  0.18634548533E+03  0.12500000000E+03 0.  0.
         25    1    1    2    0    0  0.58315721867E+01  0.35059889346E+02 -0.98670155891E+02  0.16316863283E+03  0.12500000000E+03 0.  0.
         25    1    1    2    0    0  0.89986677323E+01  0.13199078906E+02 -0.23731123136E+03  0.26869464497E+03  0.12500000000E+03 0.  0.
</event>
<event>
 5    0  0.5605075E-005  0.2963912E+03  0.7546771E-02  0.1087059E+00
         21   -1    0    0  502  501  0.00000000000E+00  0.00000000000E+00  0.40287289637E+03  0.40287289637E+03  0.00000000000E+00 0.  1.
         21   -1    0    0  501  502 -0.00000000000E+00 -0.00000000000E+00 -0.21805326768E+03  0.21805326768E+03  0.00000000000E+00 0.  1.
         25    1    1    2    0    0 -0.29196580762E+02  0.22204877553E+02  0.17812847219E+03  0.22068133024E+03  0.12500000000E+03 0.  0.
         25    1    1    2    0    0  0.46079736577E+02  0.79142341410E+02 -0.11898113358E+03  0.19536725026E+03  0.12500000000E+03 0.  0.
         25    1    1    2    0    0 -0.16883155814E+02 -0.10134721896E+03  0.12567229009E+03  0.20487758354E+03  0.12500000000E+03 0.  0.
</event>
<event>
 5    0  0.5605075E-005  0.2407318E+03  0.7546771E-02  0.1119306E+00
         21   -1    0    0  502  501  0.00000000000E+00  0.00000000000E+00  0.15124387257E+03  0.15124387257E+03  0.00000000000E+00 0. -1.
         21   -1    0    0  501  502 -0.00000000000E+00 -0.00000000000E+00 -0.38316799354E+03  0.38316799354E+03  0.00000000000E+00 0. -1.
         25    1    1    2    0    0  0.54978542524E+02 -0.67211644881E+02 -0.44577968056E+02  0.15859457929E+03  0.12500000000E+03 0.  0.
         25    1    1    2    0    0  0.64898412955E+02  0.29977294636E+02 -0.11572757839E+03  0.18473850329E+03  0.12500000000E+03 0.  0.
         25    1    1    2    0    0 -0.11987695548E+03  0.37234350244E+02 -0.71618574522E+02  0.19107878352E+03  0.12500000000E+03 0.  0.
</event>
<event>
 5    0  0.5605075E-005  0.3407386E+03  0.7546771E-02  0.1066482E+00
         21   -1    0    0  502  501  0.00000000000E+00  0.00000000000E+00  0.23071423544E+03  0.23071423544E+03  0.00000000000E+00 0.  1.
         21   -1    0    0  501  502 -0.00000000000E+00 -0.00000000000E+00 -0.50323199301E+03  0.50323199301E+03  0.00000000000E+00 0.  1.
         25    1    1    2    0    0  0.10649758415E+03  0.13748109794E+03 -0.34079853154E+03  0.40250643078E+03  0.12500000000E+03 0.  0.
         25    1    1    2    0    0 -0.39955119878E+02 -0.12042941808E+03  0.62257921132E+02  0.18868149111E+03  0.12500000000E+03 0.  0.
         25    1    1    2    0    0 -0.66542464274E+02 -0.17051679867E+02  0.60228528322E+01  0.14275830657E+03  0.12500000000E+03 0.  0.
</event>
<event>
 5    0  0.5605075E-005  0.4757404E+03  0.7546771E-02  0.1020312E+00
         21   -1    0    0  502  501  0.00000000000E+00  0.00000000000E+00  0.44423446340E+03  0.44423446340E+03  0.00000000000E+00 0. -1.
         21   -1    0    0  501  502 -0.00000000000E+00 -0.00000000000E+00 -0.50948081691E+03  0.50948081691E+03  0.00000000000E+00 0. -1.
         25    1    1    2    0    0  0.12899078434E+03 -0.31954819042E+03  0.10583663769E+03  0.38154431240E+03  0.12500000000E+03 0.  0.
         25    1    1    2    0    0  0.37719586802E+02  0.85048766682E+02 -0.20405007808E+03  0.25674402487E+03  0.12500000000E+03 0.  0.
         25    1    1    2    0    0 -0.16671037114E+03  0.23449942373E+03  0.32967086882E+02  0.31542694304E+03  0.12500000000E+03 0.  0.
</event>
<event>
 5    0  0.5605075E-005  0.2650950E+03  0.7546771E-02  0.1104120E+00
         21   -1    0    0  502  501  0.00000000000E+00  0.00000000000E+00  0.39685987610E+02  0.39685987610E+02  0.00000000000E+00 0.  1.
         21   -1    0    0  501  502 -0.00000000000E+00 -0.00000000000E+00 -0.17707855698E+04  0.17707855698E+04  0.00000000000E+00 0.  1.
         25    1    1    2    0    0  0.99951853178E+02  0.21052688326E+02 -0.46287953745E+03  0.49022041454E+03  0.12500000000E+03 0.  0.
         25    1    1    2    0    0  0.23812617768E+02 -0.66501787582E+02 -0.27168743155E+03  0.30729235099E+03  0.12500000000E+03 0.  0.
         25    1    1    2    0    0 -0.12376447095E+03  0.45449099256E+02 -0.99653261316E+03  0.10129587918E+04  0.12500000000E+03 0.  0.
</event>
<event>
 5    0  0.5605075E-005  0.2539602E+03  0.7546771E-02  0.1110827E+00
         21   -1    0    0  502  501  0.00000000000E+00  0.00000000000E+00  0.62161676477E+03  0.62161676477E+03  0.00000000000E+00 0. -1.
         21   -1    0    0  501  502 -0.00000000000E+00 -0.00000000000E+00 -0.10375490040E+03  0.10375490040E+03  0.00000000000E+00 0. -1.
         25    1    1    2    0    0 -0.69647151919E+02  0.91514625282E+02  0.12155554288E+03  0.20886934293E+03  0.12500000000E+03 0.  0.
         25    1    1    2    0    0  0.10613137770E+03 -0.27414716246E+02  0.12216747787E+03  0.20631366569E+03  0.12500000000E+03 0.  0.
         25    1    1    2    0    0 -0.36484225785E+02 -0.64099909037E+02  0.27413884362E+03  0.31018865655E+03  0.12500000000E+03 0.  0.
</event>
<event>
 5    0  0.5605075E-005  0.3410293E+03  0.7546771E-02  0.1066358E+00
         21   -1    0    0  502  501  0.00000000000E+00  0.00000000000E+00  0.12975544500E+03  0.12975544500E+03  0.00000000000E+00 0. -1.
         21   -1    0    0  501  502 -0.00000000000E+00 -0.00000000000E+00 -0.89630929408E+03  0.89630929408E+03  0.00000000000E+00 0. -1.
         25    1    1    2    0    0 -0.23991581631E+02  0.12971610446E+03 -0.20746445183E+03  0.27580493563E+03  0.12500000000E+03 0.  0.
         25    1    1    2    0    0  0.19245963791E+03 -0.41196673266E+02 -0.13634355626E+03  0.27009710003E+03  0.12500000000E+03 0.  0.
         25    1    1    2    0    0 -0.16846805628E+03 -0.88519431191E+02 -0.42274584099E+03  0.48016270342E+03  0.12500000000E+03 0.  0.
</event>
<event>
 5    0  0.6830249E-005  0.2906026E+03  0.7546771E-02  0.1090035E+00
         21   -1    0    0  502  501  0.00000000000E+00  0.00000000000E+00  0.21571827787E+03  0.21571827787E+03  0.00000000000E+00 0. -1.
         21   -1    0    0  501  502 -0.00000000000E+00 -0.00000000000E+00 -0.39148233742E+03  0.39148233742E+03  0.00000000000E+00 0. -1.
         25    1    1    2    0    0  0.53694513879E+02 -0.80765913430E+02 -0.62616939115E+02  0.17015320936E+03  0.12500000000E+03 0.  0.
         25    1    1    2    0    0 -0.75868802381E+02  0.16708120900E+03 -0.16322387272E+03  0.27557074990E+03  0.12500000000E+03 0.  0.
         25    1    1    2    0    0  0.22174288502E+02 -0.86315295569E+02  0.50076752286E+02  0.16147665602E+03  0.12500000000E+03 0.  0.
</event>
<event>
 5    0  0.5605075E-005  0.2464068E+03  0.7546771E-02  0.1115597E+00
         21   -1    0    0  502  501  0.00000000000E+00  0.00000000000E+00  0.52357880750E+02  0.52357880750E+02  0.00000000000E+00 0.  1.
         21   -1    0    0  501  502 -0.00000000000E+00 -0.00000000000E+00 -0.11596404843E+04  0.11596404843E+04  0.00000000000E+00 0.  1.
         25    1    1    2    0    0  0.18302940606E+02  0.32156176419E+01 -0.28858869594E+03  0.31504566852E+03  0.12500000000E+03 0.  0.
         25    1    1    2    0    0  0.86057521560E+01 -0.58783660295E+02 -0.11606494633E+03  0.18062571648E+03  0.12500000000E+03 0.  0.
         25    1    1    2    0    0 -0.26908692762E+02  0.55568042653E+02 -0.70262896129E+03  0.71632698005E+03  0.12500000000E+03 0.  0.
</event>
<event>
 5    0  0.5605075E-005  0.3004571E+03  0.7546771E-02  0.1085012E+00
         21   -1    0    0  502  501  0.00000000000E+00  0.00000000000E+00  0.95691944912E+02  0.95691944912E+02  0.00000000000E+00 0. -1.
         21   -1    0    0  501  502 -0.00000000000E+00 -0.00000000000E+00 -0.94338631005E+03  0.94338631005E+03  0.00000000000E+00 0. -1.
         25    1    1    2    0    0  0.99807223542E+02 -0.15517964947E+03 -0.49256911488E+03  0.54063993416E+03  0.12500000000E+03 0.  0.
         25    1    1    2    0    0 -0.51071343662E+02  0.71744705571E+02 -0.28941716510E+03  0.32732687084E+03  0.12500000000E+03 0.  0.
         25    1    1    2    0    0 -0.48735879880E+02  0.83434943899E+02 -0.65708085163E+02  0.17111144996E+03  0.12500000000E+03 0.  0.
</event>
<event>
 5    0  0.5605075E-005  0.2286581E+03  0.7546771E-02  0.1127588E+00
         21   -1    0    0  502  501  0.00000000000E+00  0.00000000000E+00  0.31416486557E+03  0.31416486557E+03  0.00000000000E+00 0. -1.
         21   -1    0    0  501  502 -0.00000000000E+00 -0.00000000000E+00 -0.16642383990E+03  0.16642383990E+03  0.00000000000E+00 0. -1.
         25    1    1    2    0    0  0.65808490875E+01  0.42531614021E+02  0.20985741656E+02  0.13385681574E+03  0.12500000000E+03 0.  0.
         25    1    1    2    0    0 -0.42734752085E+02 -0.91281721540E+02  0.13172126412E+03  0.20768751321E+03  0.12500000000E+03 0.  0.
         25    1    1    2    0    0  0.36153902997E+02  0.48750107519E+02 -0.49659801025E+01  0.13904437653E+03  0.12500000000E+03 0.  0.
</event>
<event>
 5    0  0.5605075E-005  0.2788931E+03  0.7546771E-02  0.1096295E+00
         21   -1    0    0  502  501  0.00000000000E+00  0.00000000000E+00  0.12026652883E+03  0.12026652883E+03  0.00000000000E+00 0. -1.
         21   -1    0    0  501  502 -0.00000000000E+00 -0.00000000000E+00 -0.64674166754E+03  0.64674166754E+03  0.00000000000E+00 0. -1.
         25    1    1    2    0    0 -0.86019048552E+02  0.11044886985E+03 -0.33424270998E+03  0.38332938675E+03  0.12500000000E+03 0.  0.
         25    1    1    2    0    0  0.24906311132E+02  0.10623177046E+02 -0.16562626113E+02  0.12896703768E+03  0.12500000000E+03 0.  0.
         25    1    1    2    0    0  0.61112737420E+02 -0.12107204690E+03 -0.17566980261E+03  0.25471177194E+03  0.12500000000E+03 0.  0.
</event>
<event>
 5    0  0.5605075E-005  0.2542845E+03  0.7546771E-02  0.1110627E+00
         21   -1    0    0  502  501  0.00000000000E+00  0.00000000000E+00  0.12357895527E+04  0.12357895527E+04  0.00000000000E+00 0.  1.
         21   -1    0    0  501  502 -0.00000000000E+00 -0.00000000000E+00 -0.52323316466E+02  0.52323316466E+02  0.00000000000E+00 0.  1.
         25    1    1    2    0    0  0.73263897065E+02 -0.18751944683E+02  0.23497160923E+03  0.27668735278E+03  0.12500000000E+03 0.  0.
         25    1    1    2    0    0  0.69976136044E+01 -0.10798326365E+02  0.13693764165E+03  0.18585609527E+03  0.12500000000E+03 0.  0.
         25    1    1    2    0    0 -0.80261510669E+02  0.29550271048E+02  0.81155698540E+03  0.82556942117E+03  0.12500000000E+03 0.  0.
</event>
<event>
 5    0  0.6113589E-005  0.5697058E+03  0.7546771E-02  0.9970330E-01
         21   -1    0    0  502  501  0.00000000000E+00  0.00000000000E+00  0.71611321735E+03  0.71611321735E+03  0.00000000000E+00 0. -1.
         21   -1    0    0  501  502 -0.00000000000E+00 -0.00000000000E+00 -0.45323104594E+03  0.45323104594E+03  0.00000000000E+00 0. -1.
         25    1    1    2    0    0 -0.42723927757E+01 -0.36615060751E+03 -0.80987629742E+02  0.39530812904E+03  0.12500000000E+03 0.  0.
         25    1    1    2    0    0 -0.25136283858E+03  0.15090816313E+03  0.25007815160E+03  0.40511804728E+03  0.12500000000E+03 0.  0.
         25    1    1    2    0    0  0.25563523136E+03  0.21524244437E+03  0.93791649546E+02  0.36891808697E+03  0.12500000000E+03 0.  0.
</event>
<event>
 5    0  0.5605075E-005  0.4561105E+03  0.7546771E-02  0.1025915E+00
         21   -1    0    0  502  501  0.00000000000E+00  0.00000000000E+00  0.55315650918E+03  0.55315650918E+03  0.00000000000E+00 0.  1.
         21   -1    0    0  501  502 -0.00000000000E+00 -0.00000000000E+00 -0.37609032817E+03  0.37609032817E+03  0.00000000000E+00 0.  1.
         25    1    1    2    0    0 -0.23928894019E+03 -0.76950427649E+02  0.64472379819E+02  0.28803168745E+03  0.12500000000E+03 0.  0.
         25    1    1    2    0    0 -0.30218869816E+02  0.14546391521E+03  0.24178201776E+03  0.31009107506E+03  0.12500000000E+03 0.  0.
         25    1    1    2    0    0  0.26950781001E+03 -0.68513487557E+02 -0.12918821657E+03  0.33112407483E+03  0.12500000000E+03 0.  0.
</event>
<event>
 5    0  0.5605075E-005  0.4236431E+03  0.7546771E-02  0.1035887E+00
         21   -1    0    0  502  501  0.00000000000E+00  0.00000000000E+00  0.90485292490E+02  0.90485292490E+02  0.00000000000E+00 0.  1.
         21   -1    0    0  501  502 -0.00000000000E+00 -0.00000000000E+00 -0.19834548908E+04  0.19834548908E+04  0.00000000000E+00 0.  1.
         25    1    1    2    0    0 -0.46913017088E+02  0.76381519503E+02 -0.91499435080E+03  0.92783329844E+03  0.12500000000E+03 0.  0.
         25    1    1    2    0    0  0.20701174590E+03 -0.23664310051E+03 -0.57786035683E+03  0.66962781600E+03  0.12500000000E+03 0.  0.
         25    1    1    2    0    0 -0.16009872881E+03  0.16026158100E+03 -0.40011489065E+03  0.47647906883E+03  0.12500000000E+03 0.  0.
</event>
<event>
 5    0  0.5605075E-005  0.2391714E+03  0.7546771E-02  0.1120346E+00
         21   -1    0    0  502  501  0.00000000000E+00  0.00000000000E+00  0.12108634332E+03  0.12108634332E+03  0.00000000000E+00 0.  1.
         21   -1    0    0  501  502 -0.00000000000E+00 -0.00000000000E+00 -0.47241470548E+03  0.47241470548E+03  0.00000000000E+00 0.  1.
         25    1    1    2    0    0  0.52864675899E+02  0.16959237776E+02 -0.14314194230E+03  0.19798208340E+03  0.12500000000E+03 0.  0.
         25    1    1    2    0    0 -0.70190076191E+02  0.87320864228E+02 -0.13840843220E+03  0.21756257543E+03  0.12500000000E+03 0.  0.
         25    1    1    2    0    0  0.17325400292E+02 -0.10428010200E+03 -0.69777987658E+02  0.17795638997E+03  0.12500000000E+03 0.  0.
</event>
<event>
 5    0  0.5996169E-005  0.6827384E+03  0.7546771E-02  0.9747216E-01
         21   -1    0    0  502  501  0.00000000000E+00  0.00000000000E+00  0.10863656119E+04  0.10863656119E+04  0.00000000000E+00 0. -1.
         21   -1    0    0  501  502 -0.00000000000E+00 -0.00000000000E+00 -0.42907444085E+03  0.42907444085E+03  0.00000000000E+00 0. -1.
         25    1    1    2    0    0 -0.13924780326E+03  0.31820604428E+03  0.16090711708E+03  0.40269236106E+03  0.12500000000E+03 0.  0.
         25    1    1    2    0    0 -0.11655921763E+03 -0.12985481692E+03 -0.22727260746E+03  0.31261184046E+03  0.12500000000E+03 0.  0.
         25    1    1    2    0    0  0.25580702090E+03 -0.18835122736E+03  0.72365666139E+03  0.80013585119E+03  0.12500000000E+03 0.  0.
</event>
<event>
 5    0  0.5605075E-005  0.3226886E+03  0.7546771E-02  0.1074419E+00
         21   -1    0    0  502  501  0.00000000000E+00  0.00000000000E+00  0.19952281559E+03  0.19952281559E+03  0.00000000000E+00 0. -1.
         21   -1    0    0  501  502 -0.00000000000E+00 -0.00000000000E+00 -0.52188471862E+03  0.52188471862E+03  0.00000000000E+00 0. -1.
         25    1    1    2    0    0  0.23888240385E+02 -0.78838089706E+02 -0.14409099952E+03  0.20778187736E+03  0.12500000000E+03 0.  0.
         25    1    1    2    0    0 -0.19824231226E+03  0.90707423286E+02 -0.16016583025E+03  0.29800326205E+03  0.12500000000E+03 0.  0.
         25    1    1    2    0    0  0.17435407188E+03 -0.11869333580E+02 -0.18105073258E+02  0.21562239480E+03  0.12500000000E+03 0.  0.
</event>
<event>
 5    0  0.5605075E-005  0.2398185E+03  0.7546771E-02  0.1119914E+00
         21   -1    0    0  502  501  0.00000000000E+00  0.00000000000E+00  0.47300090553E+02  0.47300090553E+02  0.00000000000E+00 0. -1.
         21   -1    0    0  501  502 -0.00000000000E+00 -0.00000000000E+00 -0.12159160001E+04  0.12159160001E+04  0.00000000000E+00 0. -1.
         25    1    1    2    0    0 -0.26341370400E+02  0.11389390062E+03 -0.48906609511E+03  0.51814701947E+03  0.12500000000E+03 0.  0.
         25    1    1    2    0    0 -0.38588933999E+02 -0.17714731802E+02 -0.24617993001E+03  0.27934293528E+03  0.12500000000E+03 0.  0.
         25    1    1    2    0    0  0.64930304399E+02 -0.96179168822E+02 -0.43336988446E+03  0.46572613594E+03  0.12500000000E+03 0.  0.
</event>
<event>
 5    0  0.5605075E-005  0.4219275E+03  0.7546771E-02  0.1036441E+00
         21   -1    0    0  502  501  0.00000000000E+00  0.00000000000E+00  0.29305075914E+03  0.29305075914E+03  0.00000000000E+00 0. -1.
         21   -1    0    0  501  502 -0.00000000000E+00 -0.00000000000E+00 -0.60748109848E+03  0.60748109848E+03  0.00000000000E+00 0. -1.
         25    1    1    2    0    0 -0.17151023118E+03  0.38329237550E+02  0.42235209073E+02  0.21975828252E+03  0.12500000000E+03 0.  0.
         25    1    1    2    0    0  0.23028701483E+01 -0.24724483649E+03 -0.12231340384E+03  0.30285455444E+03  0.12500000000E+03 0.  0.
         25    1    1    2    0    0  0.16920736103E+03  0.20891559894E+03 -0.23435214457E+03  0.37791902066E+03  0.12500000000E+03 0.  0.
</event>
<event>
 5    0  0.5605075E-005  0.5485625E+03  0.7546771E-02  0.1001827E+00
         21   -1    0    0  502  501  0.00000000000E+00  0.00000000000E+00  0.55002765962E+03  0.55002765962E+03  0.00000000000E+00 0. -1.
         21   -1    0    0  501  502 -0.00000000000E+00 -0.00000000000E+00 -0.54710121665E+03  0.54710121665E+03  0.00000000000E+00 0. -1.
         25    1    1    2    0    0  0.31310870136E+03 -0.21037094633E+03 -0.23004095774E+03  0.45916972479E+03  0.12500000000E+03 0.  0.
         25    1    1    2    0    0 -0.12216423988E+03  0.27318095668E+03  0.23623876384E+03  0.40123022087E+03  0.12500000000E+03 0.  0.
         25    1    1    2    0    0 -0.19094446148E+03 -0.62810010353E+02 -0.32713631433E+01  0.23672893061E+03  0.12500000000E+03 0.  0.
</event>
<event>
 5    0  0.5605075E-005  0.2577680E+03  0.7546771E-02  0.1108492E+00
         21   -1    0    0  502  501  0.00000000000E+00  0.00000000000E+00  0.11106312024E+03  0.11106312024E+03  0.00000000000E+00 0. -1.
         21   -1    0    0  501  502 -0.00000000000E+00 -0.00000000000E+00 -0.59825743416E+03  0.59825743416E+03  0.00000000000E+00 0. -1.
         25    1    1    2    0    0 -0.95572763442E+02 -0.23639990069E+02 -0.42451918987E+02  0.16468201987E+03  0.12500000000E+03 0.  0.
         25    1    1    2    0    0  0.14372378450E+02 -0.10734199040E+02 -0.33023852456E+03  0.35355943121E+03  0.12500000000E+03 0.  0.
         25    1    1    2    0    0  0.81200384991E+02  0.34374189109E+02 -0.11450387037E+03  0.19107910333E+03  0.12500000000E+03 0.  0.
</event>
<event>
 5    0  0.5605075E-005  0.3185887E+03  0.7546771E-02  0.1076301E+00
         21   -1    0    0  502  501  0.00000000000E+00  0.00000000000E+00  0.43898052212E+03  0.43898052212E+03  0.00000000000E+00 0.  1.
         21   -1    0    0  501  502 -0.00000000000E+00 -0.00000000000E+00 -0.23121467918E+03  0.23121467918E+03  0.00000000000E+00 0.  1.
         25    1    1    2    0    0 -0.63604861829E+02  0.12112714198E+03  0.10221699348E+03  0.21163807958E+03  0.12500000000E+03 0.  0.
         25    1    1    2    0    0  0.16993665073E+02 -0.35311177018E+02  0.22474681053E+03  0.26013802629E+03  0.12500000000E+03 0.  0.
         25    1    1    2    0    0  0.46611196756E+02 -0.85815964963E+02 -0.11919796108E+03  0.19841909543E+03  0.12500000000E+03 0.  0.
</event>
<event>
 5    0  0.5605075E-005  0.2191171E+03  0.7546771E-02  0.1134543E+00
         21   -1    0    0  502  501  0.00000000000E+00  0.00000000000E+00  0.78795542574E+02  0.78795542574E+02  0.00000000000E+00 0.  1.
         21   -1    0    0  501  502 -0.00000000000E+00 -0.00000000000E+00 -0.60932770332E+03  0.60932770332E+03  0.00000000000E+00 0.  1.
         25    1    1    2    0    0  0.63766861064E+02 -0.63483372979E+02 -0.18390753219E+03  0.23988191180E+03  0.12500000000E+03 0.  0.
         25    1    1    2    0    0 -0.31850550072E+02  0.82495892122E+02 -0.17166120267E+03  0.23002738589E+03  0.12500000000E+03 0.  0.
         25    1    1    2    0    0 -0.31916310992E+02 -0.19012519144E+02 -0.17496342589E+03  0.21821394820E+03  0.12500000000E+03 0.  0.
</event>
<event>
 5    0  0.5605075E-005  0.2910342E+03  0.7546771E-02  0.1089810E+00
         21   -1    0    0  502  501  0.00000000000E+00  0.00000000000E+00  0.18949899761E+03  0.18949899761E+03  0.00000000000E+00 0. -1.
         21   -1    0    0  501  502 -0.00000000000E+00 -0.00000000000E+00 -0.44697292191E+03  0.44697292191E+03  0.00000000000E+00 0. -1.
         25    1    1    2    0    0 -0.99545542190E+02  0.75586709818E+02  0.32839901431E+02  0.17979467400E+03  0.12500000000E+03 0.  0.
         25    1    1    2    0    0  0.41769124795E+02 -0.87675473796E+02 -0.27538473280E+03  0.31763721374E+03  0.12500000000E+03 0.  0.
         25    1    1    2    0    0  0.57776417395E+02  0.12088763978E+02 -0.14929092927E+02  0.13904003178E+03  0.12500000000E+03 0.  0.
</event>
<event>
 5    0  0.5605075E-005  0.3517363E+03  0.7546771E-02  0.1061905E+00
         21   -1    0    0  502  501  0.00000000000E+00  0.00000000000E+00  0.91695444387E+03  0.91695444387E+03  0.00000000000E+00 0.  1.
         21   -1    0    0  501  502 -0.00000000000E+00 -0.00000000000E+00 -0.13492319753E+03  0.13492319753E+03  0.00000000000E+00 0.  1.
         25    1    1    2    0    0  0.14067018749E+03 -0.16197313080E+03  0.72495641876E+02  0.25865810414E+03  0.12500000000E+03 0.  0.
         25    1    1    2    0    0 -0.12876840271E+03  0.13530004628E+03  0.48590603036E+03  0.53536629928E+03  0.12500000000E+03 0.  0.
         25    1    1    2    0    0 -0.11901784777E+02  0.26673084521E+02  0.22362957410E+03  0.25785323797E+03  0.12500000000E+03 0.  0.
</event>
<event>
 5    0  0.5605075E-005  0.2744652E+03  0.7546771E-02  0.1098751E+00
         21   -1    0    0  502  501  0.00000000000E+00  0.00000000000E+00  0.15866471980E+03  0.15866471980E+03  0.00000000000E+00 0. -1.
         21   -1    0    0  501  502 -0.00000000000E+00 -0.00000000000E+00 -0.47478208457E+03  0.47478208457E+03  0.00000000000E+00 0. -1.
         25    1    1    2    0    0  0.10740052271E+00  0.11674704812E+02  0.59159061910E+02  0.13878438267E+03  0.12500000000E+03 0.  0.
         25    1    1    2    0    0 -0.82787758057E+01  0.52710305917E+02 -0.31188036893E+03  0.34020769980E+03  0.12500000000E+03 0.  0.
         25    1    1    2    0    0  0.81713752830E+01 -0.64385010728E+02 -0.63396057751E+02  0.15445472191E+03  0.12500000000E+03 0.  0.
</event>
<event>
 5    0  0.5605075E-005  0.2631987E+03  0.7546771E-02  0.1105236E+00
         21   -1    0    0  502  501  0.00000000000E+00  0.00000000000E+00  0.21076630960E+03  0.21076630960E+03  0.00000000000E+00 0. -1.
         21   -1    0    0  501  502 -0.00000000000E+00 -0.00000000000E+00 -0.32867480454E+03  0.32867480454E+03  0.00000000000E+00 0. -1.
         25    1    1    2    0    0  0.15732894542E+03  0.38884193796E+02 -0.61690087079E+02  0.21376399238E+03  0.12500000000E+03 0.  0.
         25    1    1    2    0    0 -0.35550831467E+02  0.15602019572E+01  0.19074175799E+02  0.13135874554E+03  0.12500000000E+03 0.  0.
         25    1    1    2    0    0 -0.12177811395E+03 -0.40444395753E+02 -0.75292583654E+02  0.19431837622E+03  0.12500000000E+03 0.  0.
</event>
<event>
 5    0  0.5605075E-005  0.3117319E+03  0.7546771E-02  0.1079519E+00
         21   -1    0    0  502  501  0.00000000000E+00  0.00000000000E+00  0.90077465076E+02  0.90077465076E+02  0.00000000000E+00 0. -1.
         21   -1    0    0  501  502 -0.00000000000E+00 -0.00000000000E+00 -0.10788136905E+04  0.10788136905E+04  0.00000000000E+00 0. -1.
         25    1    1    2    0    0  0.14668486263E+03  0.17804941085E+02 -0.71989350279E+03  0.74545631677E+03  0.12500000000E+03 0.  0.
         25    1    1    2    0    0 -0.12636806415E+02 -0.53528765687E+02 -0.82088253357E+02  0.15933768848E+03  0.12500000000E+03 0.  0.
         25    1    1    2    0    0 -0.13404805622E+03  0.35723824601E+02 -0.18675446932E+03  0.26409715037E+03  0.12500000000E+03 0.  0.
</event>
<event>
 5    0  0.5605075E-005  0.5011615E+03  0.7546771E-02  0.1013476E+00
         21   -1    0    0  502  501  0.00000000000E+00  0.00000000000E+00  0.53279540768E+03  0.53279540768E+03  0.00000000000E+00 0.  1.
         21   -1    0    0  501  502 -0.00000000000E+00 -0.00000000000E+00 -0.47140579119E+03  0.47140579119E+03  0.00000000000E+00 0.  1.
         25    1    1    2    0    0  0.33169428258E+03 -0.25525962354E+03  0.97348584640E+02  0.44752689241E+03  0.12500000000E+03 0.  0.
         25    1    1    2    0    0 -0.32979949298E+03  0.16505085528E+03  0.26580916530E+02  0.39030889757E+03  0.12500000000E+03 0.  0.
         25    1    1    2    0    0 -0.18947895942E+01  0.90208768264E+02 -0.62539884683E+02  0.16636540889E+03  0.12500000000E+03 0.  0.
</event>
<event>
 5    0  0.5605075E-005  0.3153501E+03  0.7546771E-02  0.1077809E+00
         21   -1    0    0  502  501  0.00000000000E+00  0.00000000000E+00  0.36355911658E+03  0.36355911658E+03  0.00000000000E+00 0. -1.
         21   -1    0    0  501  502 -0.00000000000E+00 -0.00000000000E+00 -0.27353372604E+03  0.27353372604E+03  0.00000000000E+00 0. -1.
         25    1    1    2    0    0  0.26832001775E+02 -0.73179879364E+02  0.46454152553E+02  0.15446112570E+03  0.12500000000E+03 0.  0.
         25    1    1    2    0    0 -0.16852634040E+03 -0.84241161531E+02  0.66369546700E+02  0.23564298723E+03  0.12500000000E+03 0.  0.
         25    1    1    2    0    0  0.14169433862E+03  0.15742104089E+03 -0.22798308716E+02  0.24698872969E+03  0.12500000000E+03 0.  0.
</event>
<event>
 5    0  0.5605075E-005  0.4538700E+03  0.7546771E-02  0.1026574E+00
         21   -1    0    0  502  501  0.00000000000E+00  0.00000000000E+00  0.92654568009E+03  0.92654568009E+03  0.00000000000E+00 0.  1.
         21   -1    0    0  501  502 -0.00000000000E+00 -0.00000000000E+00 -0.22232901140E+03  0.22232901140E+03  0.00000000000E+00 0.  1.
         25    1    1    2    0    0 -0.83588971103E+02 -0.24104215482E+03  0.64666723619E+03  0.70632283755E+03  0.12500000000E+03 0.  0.
         25    1    1    2    0    0  0.50784046394E+02  0.13549369428E+03  0.15777873612E+03  0.24790459885E+03  0.12500000000E+03 0.  0.
         25    1    1    2    0    0  0.32804924710E+02  0.10554846054E+03 -0.10022930362E+03  0.19464725509E+03  0.12500000000E+03 0.  0.
</event>
<event>
 5    0  0.5605075E-005  0.2236643E+03  0.7546771E-02  0.1131180E+00
         21   -1    0    0  502  501  0.00000000000E+00  0.00000000000E+00  0.21876904170E+02  0.21876904170E+02  0.00000000000E+00 0.  1.
         21   -1    0    0  501  502 -0.00000000000E+00 -0.00000000000E+00 -0.22866902098E+04  0.22866902098E+04  0.00000000000E+00 0.  1.
         25    1    1    2    0    0  0.95750852230E+02  0.53304334753E+01 -0.10677303266E+04  0.10792912905E+04  0.12500000000E+03 0.  0.
         25    1    1    2    0    0 -0.32743008710E+02 -0.21089255832E+02 -0.72094782543E+03  0.73273980943E+03  0.12500000000E+03 0.  0.
         25    1    1    2    0    0 -0.63007843520E+02  0.15758822356E+02 -0.47613515352E+03  0.49653601404E+03  0.12500000000E+03 0.  0.
</event>
<event>
 5    0  0.5605075E-005  0.3134157E+03  0.7546771E-02  0.1078720E+00
         21   -1    0    0  502  501  0.00000000000E+00  0.00000000000E+00  0.38283373530E+03  0.38283373530E+03  0.00000000000E+00 0.  1.
         21   -1    0    0  501  502 -0.00000000000E+00 -0.00000000000E+00 -0.25658498129E+03  0.25658498129E+03  0.00000000000E+00 0.  1.
         25    1    1    2    0    0 -0.12932583216E+03 -0.18603851680E+03  0.58099722174E+01  0.25883248709E+03  0.12500000000E+03 0.  0.
         25    1    1    2    0    0  0.53432611409E+02  0.13719513932E+03  0.14829449046E+02  0.19370715726E+03  0.12500000000E+03 0.  0.
         25    1    1    2    0    0  0.75893220748E+02  0.48843377485E+02  0.10560933274E+03  0.18687907224E+03  0.12500000000E+03 0.  0.
</event>
<event>
 5    0  0.5605075E-005  0.2516713E+03  0.7546771E-02  0.1112253E+00
         21   -1    0    0  502  501  0.00000000000E+00  0.00000000000E+00  0.44679860812E+03  0.44679860812E+03  0.00000000000E+00 0.  1.
         21   -1    0    0  501  502 -0.00000000000E+00 -0.00000000000E+00 -0.14176065786E+03  0.14176065786E+03  0.00000000000E+00 0.  1.
         25    1    1    2    0    0 -0.11742115617E+03 -0.45957251967E+02  0.15861750448E+03  0.23808466908E+03  0.12500000000E+03 0.  0.
         25    1    1    2    0    0 -0.20007582990E+02  0.32934962277E+02  0.44421547896E+02  0.13814227823E+03  0.12500000000E+03 0.  0.
         25    1    1    2    0    0  0.13742873916E+03  0.13022289690E+02  0.10199889789E+03  0.21233231866E+03  0.12500000000E+03 0.  0.
</event>
<event>
 5    0  0.5605075E-005  0.2280033E+03  0.7546771E-02  0.1128053E+00
         21   -1    0    0  502  501  0.00000000000E+00  0.00000000000E+00  0.97686130859E+02  0.97686130859E+02  0.00000000000E+00 0. -1.
         21   -1    0    0  501  502 -0.00000000000E+00 -0.00000000000E+00 -0.53216890456E+03  0.53216890456E+03  0.00000000000E+00 0. -1.
         25    1    1    2    0    0  0.25259561782E+02  0.21072640422E+02 -0.21154389156E+03  0.24790707875E+03  0.12500000000E+03 0.  0.
         25    1    1    2    0    0  0.52433423568E+02  0.50329401183E+02 -0.12606317377E+03  0.19183127042E+03  0.12500000000E+03 0.  0.
         25    1    1    2    0    0 -0.77692985350E+02 -0.71402041605E+02 -0.96875708362E+02  0.19011668624E+03  0.12500000000E+03 0.  0.
</event>
<event>
 5    0  0.5605075E-005  0.3322161E+03  0.7546771E-02  0.1070160E+00
         21   -1    0    0  502  501  0.00000000000E+00  0.00000000000E+00  0.16377890239E+03  0.16377890239E+03  0.00000000000E+00 0.  1.
         21   -1    0    0  501  502 -0.00000000000E+00 -0.00000000000E+00 -0.67388139143E+03  0.67388139143E+03  0.00000000000E+00 0.  1.
         25    1    1    2    0    0 -0.15934893810E+03 -0.78357611919E+02 -0.25084918313E+03  0.33178654599E+03  0.12500000000E+03 0.  0.
         25    1    1    2    0    0  0.12499249585E+03  0.18300565346E+03 -0.94093870879E+02  0.27128002093E+03  0.12500000000E+03 0.  0.
         25    1    1    2    0    0  0.34356442255E+02 -0.10464804154E+03 -0.16515943502E+03  0.23459372690E+03  0.12500000000E+03 0.  0.
</event>
<event>
 5    0  0.5605075E-005  0.2883166E+03  0.7546771E-02  0.1091231E+00
         21   -1    0    0  502  501  0.00000000000E+00  0.00000000000E+00  0.31857641000E+03  0.31857641000E+03  0.00000000000E+00 0. -1.
         21   -1    0    0  501  502 -0.00000000000E+00 -0.00000000000E+00 -0.26093091842E+03  0.26093091842E+03  0.00000000000E+00 0. -1.
         25    1    1    2    0    0 -0.12037521650E+03  0.60753771283E+01  0.80245247890E+02  0.19128879414E+03  0.12500000000E+03 0.  0.
         25    1    1    2    0    0  0.10162490636E+02  0.12132310141E+03 -0.35455027111E+02  0.17805794029E+03  0.12500000000E+03 0.  0.
         25    1    1    2    0    0  0.11021272587E+03 -0.12739847854E+03  0.12855270801E+02  0.21016059399E+03  0.12500000000E+03 0.  0.
</event>
<event>
 5    0  0.5605075E-005  0.3703562E+03  0.7546771E-02  0.1054557E+00
         21   -1    0    0  502  501  0.00000000000E+00  0.00000000000E+00  0.11943580444E+04  0.11943580444E+04  0.00000000000E+00 0. -1.
         21   -1    0    0  501  502 -0.00000000000E+00 -0.00000000000E+00 -0.11484306273E+03  0.11484306273E+03  0.00000000000E+00 0. -1.
         25    1    1    2    0    0  0.10459314208E+03 -0.16631060791E+03  0.56571599022E+03  0.61176672455E+03  0.12500000000E+03 0.  0.
         25    1    1    2    0    0  0.50318193902E+02 -0.38106806051E+02  0.42221602776E+02  0.14625906142E+03  0.12500000000E+03 0.  0.
         25    1    1    2    0    0 -0.15491133598E+03  0.20441741397E+03  0.47157738865E+03  0.55117532114E+03  0.12500000000E+03 0.  0.
</event>
<event>
 5    0  0.5605075E-005  0.2611676E+03  0.7546771E-02  0.1106444E+00
         21   -1    0    0  502  501  0.00000000000E+00  0.00000000000E+00  0.11614540022E+04  0.11614540022E+04  0.00000000000E+00 0.  1.
         21   -1    0    0  501  502 -0.00000000000E+00 -0.00000000000E+00 -0.58726853082E+02  0.58726853082E+02  0.00000000000E+00 0.  1.
         25    1    1    2    0    0 -0.43565141796E+02  0.38010738506E+02  0.61837521273E+03  0.63352635426E+03  0.12500000000E+03 0.  0.
         25    1    1    2    0    0  0.14727468369E+02 -0.45938358852E+02  0.66693675204E+02  0.14966722237E+03  0.12500000000E+03 0.  0.
         25    1    1    2    0    0  0.28837673428E+02  0.79276203461E+01  0.41765826120E+03  0.43698727868E+03  0.12500000000E+03 0.  0.
</event>
<event>
 5    0  0.5605075E-005  0.3326815E+03  0.7546771E-02  0.1069956E+00
         21   -1    0    0  502  501  0.00000000000E+00  0.00000000000E+00  0.74044070183E+03  0.74044070183E+03  0.00000000000E+00 0.  1.
         21   -1    0    0  501  502 -0.00000000000E+00 -0.00000000000E+00 -0.14947450381E+03  0.14947450381E+03  0.00000000000E+00 0.  1.
         25    1    1    2    0    0  0.57116776466E+02 -0.70900972749E+02  0.18402051842E+02  0.15573345691E+03  0.12500000000E+03 0.  0.
         25    1    1    2    0    0 -0.45279138697E+02 -0.33286690365E+02 -0.18306142182E+01  0.13706405548E+03  0.12500000000E+03 0.  0.
         25    1    1    2    0    0 -0.11837637769E+02  0.10418766311E+03  0.57439476040E+03  0.59711769324E+03  0.12500000000E+03 0.  0.
</event>
<event>
 5    0  0.5605075E-005  0.2472628E+03  0.7546771E-02  0.1115047E+00
         21   -1    0    0  502  501  0.00000000000E+00  0.00000000000E+00  0.52014606602E+02  0.52014606602E+02  0.00000000000E+00 0. -1.
         21   -1    0    0  501  502 -0.00000000000E+00 -0.00000000000E+00 -0.11754179498E+04  0.11754179498E+04  0.00000000000E+00 0. -1.
         25    1    1    2    0    0 -0.40941303200E+02 -0.86349164541E+01 -0.37008978705E+03  0.39286410191E+03  0.12500000000E+03 0.  0.
         25    1    1    2    0    0  0.10013283271E+03 -0.59325802480E+02 -0.57025258683E+03  0.59528073025E+03  0.12500000000E+03 0.  0.
         25    1    1    2    0    0 -0.59191529508E+02  0.67960718934E+02 -0.18306096932E+03  0.23928772424E+03  0.12500000000E+03 0.  0.
</event>
<event>
 5    0  0.5605075E-005  0.3359014E+03  0.7546771E-02  0.1068555E+00
         21   -1    0    0  502  501  0.00000000000E+00  0.00000000000E+00  0.13710007112E+04  0.13710007112E+04  0.00000000000E+00 0. -1.
         21   -1    0    0  501  502 -0.00000000000E+00 -0.00000000000E+00 -0.82297375986E+02  0.82297375986E+02  0.00000000000E+00 0. -1.
         25    1    1    2    0    0 -0.10564812254E+03 -0.63754393789E+02  0.76122027275E+02  0.19143069650E+03  0.12500000000E+03 0.  0.
         25    1    1    2    0    0  0.62862420547E+02 -0.45937670416E+02  0.82368264497E+03  0.83674372008E+03  0.12500000000E+03 0.  0.
         25    1    1    2    0    0  0.42785701997E+02  0.10969206420E+03  0.38889866292E+03  0.42512367056E+03  0.12500000000E+03 0.  0.
</event>
<event>
 5    0  0.5605075E-005  0.4848212E+03  0.7546771E-02  0.1017819E+00
         21   -1    0    0  502  501  0.00000000000E+00  0.00000000000E+00  0.37187324030E+03  0.37187324030E+03  0.00000000000E+00 0. -1.
         21   -1    0    0  501  502 -0.00000000000E+00 -0.00000000000E+00 -0.63207463506E+03  0.63207463506E+03  0.00000000000E+00 0. -1.
         25    1    1    2    0    0 -0.22424235737E+02  0.60387824463E+02 -0.27468336069E+03  0.30858626725E+03  0.12500000000E+03 0.  0.
         25    1    1    2    0    0 -0.10711092681E+03  0.21668660856E+03 -0.16610848616E+03  0.31881478345E+03  0.12500000000E+03 0.  0.
         25    1    1    2    0    0  0.12953516254E+03 -0.27707443303E+03  0.18059045210E+03  0.37654682466E+03  0.12500000000E+03 0.  0.
</event>
<event>
 5    0  0.5605075E-005  0.3333554E+03  0.7546771E-02  0.1069662E+00
         21   -1    0    0  502  501  0.00000000000E+00  0.00000000000E+00  0.28330685515E+03  0.28330685515E+03  0.00000000000E+00 0.  1.
         21   -1    0    0  501  502 -0.00000000000E+00 -0.00000000000E+00 -0.39224540653E+03  0.39224540653E+03  0.00000000000E+00 0.  1.
         25    1    1    2    0    0  0.50687849948E+02  0.20088814906E+03  0.83548427214E+02  0.25598954326E+03  0.12500000000E+03 0.  0.
         25    1    1    2    0    0 -0.54766037438E+02 -0.47626367493E+02 -0.14338495114E+01  0.14454980340E+03  0.12500000000E+03 0.  0.
         25    1    1    2    0    0  0.40781874903E+01 -0.15326178157E+03 -0.19105312908E+03  0.27501291503E+03  0.12500000000E+03 0.  0.
</event>
<event>
 5    0  0.5605075E-005  0.5372867E+03  0.7546771E-02  0.1004480E+00
         21   -1    0    0  502  501  0.00000000000E+00  0.00000000000E+00  0.88580250131E+03  0.88580250131E+03  0.00000000000E+00 0.  1.
         21   -1    0    0  501  502 -0.00000000000E+00 -0.00000000000E+00 -0.32589316719E+03  0.32589316719E+03  0.00000000000E+00 0.  1.
         25    1    1    2    0    0 -0.47790467425E+02  0.71430301211E+02 -0.49257410426E+02  0.15949140789E+03  0.12500000000E+03 0.  0.
         25    1    1    2    0    0 -0.15377770863E+02 -0.31512957755E+02  0.80094490836E+03  0.81139835381E+03  0.12500000000E+03 0.  0.
         25    1    1    2    0    0  0.63168238288E+02 -0.39917343457E+02 -0.19177816381E+03  0.24080590681E+03  0.12500000000E+03 0.  0.
</event>
<event>
 5    0  0.6857775E-005  0.3068666E+03  0.7546771E-02  0.1081858E+00
         21   -1    0    0  502  501  0.00000000000E+00  0.00000000000E+00  0.30542701487E+03  0.30542701487E+03  0.00000000000E+00 0. -1.
         21   -1    0    0  501  502 -0.00000000000E+00 -0.00000000000E+00 -0.30831287477E+03  0.30831287477E+03  0.00000000000E+00 0. -1.
         25    1    1    2    0    0 -0.64718018010E+02  0.80775758774E+02  0.93820765903E+02  0.18745794508E+03  0.12500000000E+03 0.  0.
         25    1    1    2    0    0 -0.83883154112E+02  0.56060981200E+02 -0.99045015978E+02  0.18871706957E+03  0.12500000000E+03 0.  0.
         25    1    1    2    0    0  0.14860117212E+03 -0.13683673997E+03  0.23383901743E+01  0.23756487500E+03  0.12500000000E+03 0.  0.
</event>
<event>
 5    0  0.5605075E-005  0.5229679E+03  0.7546771E-02  0.1007952E+00
         21   -1    0    0  502  501  0.00000000000E+00  0.00000000000E+00  0.20935794107E+04  0.20935794107E+04  0.00000000000E+00 0. -1.
         21   -1    0    0  501  502 -0.00000000000E+00 -0.00000000000E+00 -0.13063531179E+03  0.13063531179E+03  0.00000000000E+00 0. -1.
         25    1    1    2    0    0 -0.19937908107E+03  0.15720741663E+03  0.52921354767E+03  0.60013179290E+03  0.12500000000E+03 0.  0.
         25    1    1    2    0    0  0.41486432730E+03 -0.19991101099E+03  0.11444115222E+04  0.12399111075E+04  0.12500000000E+03 0.  0.
         25    1    1    2    0    0 -0.21548524623E+03  0.42703594358E+02  0.28931902906E+03  0.38417182210E+03  0.12500000000E+03 0.  0.
</event>
<event>
 5    0  0.5605075E-005  0.3620330E+03  0.7546771E-02  0.1057782E+00
         21   -1    0    0  502  501  0.00000000000E+00  0.00000000000E+00  0.28774065964E+03  0.28774065964E+03  0.00000000000E+00 0.  1.
         21   -1    0    0  501  502 -0.00000000000E+00 -0.00000000000E+00 -0.45550697093E+03  0.45550697093E+03  0.00000000000E+00 0.  1.
         25    1    1    2    0    0  0.25129059993E+03  0.19614327173E+02  0.22057890309E+02  0.28221133565E+03  0.12500000000E+03 0.  0.
         25    1    1    2    0    0 -0.55092354294E+02  0.61868728071E+02 -0.14860963534E+03  0.21112254908E+03  0.12500000000E+03 0.  0.
         25    1    1    2    0    0 -0.19619824564E+03 -0.81483055244E+02 -0.41214566268E+02  0.24991374583E+03  0.12500000000E+03 0.  0.
</event>
<event>
 5    0  0.5605075E-005  0.4496867E+03  0.7546771E-02  0.1027816E+00
         21   -1    0    0  502  501  0.00000000000E+00  0.00000000000E+00  0.23451164064E+03  0.23451164064E+03  0.00000000000E+00 0. -1.
         21   -1    0    0  501  502 -0.00000000000E+00 -0.00000000000E+00 -0.86229461509E+03  0.86229461509E+03  0.00000000000E+00 0. -1.
         25    1    1    2    0    0 -0.15945991892E+02 -0.27397936739E+02  0.60065343642E+02  0.14225950619E+03  0.12500000000E+03 0.  0.
         25    1    1    2    0    0 -0.55995167529E+02 -0.78430492914E+02 -0.74903673691E+03  0.76548535861E+03  0.12500000000E+03 0.  0.
         25    1    1    2    0    0  0.71941159420E+02  0.10582842965E+03  0.61188418815E+02  0.18906139093E+03  0.12500000000E+03 0.  0.
</event>
<event>
 5    0  0.5605075E-005  0.2570399E+03  0.7546771E-02  0.1108935E+00
         21   -1    0    0  502  501  0.00000000000E+00  0.00000000000E+00  0.47219205286E+03  0.47219205286E+03  0.00000000000E+00 0.  1.
         21   -1    0    0  501  502 -0.00000000000E+00 -0.00000000000E+00 -0.13992080664E+03  0.13992080664E+03  0.00000000000E+00 0.  1.
         25    1    1    2    0    0 -0.13987640311E+03  0.24377207025E+02  0.13737178491E+03  0.23378550780E+03  0.12500000000E+03 0.  0.
         25    1    1    2    0    0  0.58131312416E+02  0.41035339210E+02  0.15296752990E+03  0.20996955434E+03  0.12500000000E+03 0.  0.
         25    1    1    2    0    0  0.81745090696E+02 -0.65412546234E+02  0.41931931418E+02  0.16835779735E+03  0.12500000000E+03 0.  0.
</event>
<event>
 5    0  0.5605075E-005  0.3764988E+03  0.7546771E-02  0.1052235E+00
         21   -1    0    0  502  501  0.00000000000E+00  0.00000000000E+00  0.89723438672E+03  0.89723438672E+03  0.00000000000E+00 0.  1.
         21   -1    0    0  501  502 -0.00000000000E+00 -0.00000000000E+00 -0.15798699349E+03  0.15798699349E+03  0.00000000000E+00 0.  1.
         25    1    1    2    0    0  0.18577341902E+03 -0.14925834116E+03  0.30428049774E+03  0.40620368896E+03  0.12500000000E+03 0.  0.
         25    1    1    2    0    0  0.57272947212E+02  0.97056655505E+02  0.28993147633E+03  0.33523938585E+03  0.12500000000E+03 0.  0.
         25    1    1    2    0    0 -0.24304636624E+03  0.52201685650E+02  0.14503541917E+03  0.31377830540E+03  0.12500000000E+03 0.  0.
</event>
<event>
 5    0  0.5605075E-005  0.3155516E+03  0.7546771E-02  0.1077715E+00
         21   -1    0    0  502  501  0.00000000000E+00  0.00000000000E+00  0.74866012725E+02  0.74866012725E+02  0.00000000000E+00 0.  1.
         21   -1    0    0  501  502 -0.00000000000E+00 -0.00000000000E+00 -0.13300135253E+04  0.13300135253E+04  0.00000000000E+00 0.  1.
         25    1    1    2    0    0  0.82115963760E+01 -0.18302946759E+03 -0.24780275153E+03  0.33256340747E+03  0.12500000000E+03 0.  0.
         25    1    1    2    0    0  0.71783633333E+02  0.20834069068E+02 -0.45858994815E+03  0.48116181166E+03  0.12500000000E+03 0.  0.
         25    1    1    2    0    0 -0.79995229709E+02  0.16219539853E+03 -0.54875481287E+03  0.59115431888E+03  0.12500000000E+03 0.  0.
</event>
<event>
 5    0  0.5605075E-005  0.2753052E+03  0.7546771E-02  0.1098281E+00
         21   -1    0    0  502  501  0.00000000000E+00  0.00000000000E+00  0.11551746854E+04  0.11551746854E+04  0.00000000000E+00 0.  1.
         21   -1    0    0  501  502 -0.00000000000E+00 -0.00000000000E+00 -0.65611697036E+02  0.65611697036E+02  0.00000000000E+00 0.  1.
         25    1    1    2    0    0 -0.68291160034E+02 -0.12569424563E+03  0.30383366988E+03  0.35833311998E+03  0.12500000000E+03 0.  0.
         25    1    1    2    0    0  0.12114240700E+03  0.10776132846E+03  0.34731201969E+03  0.40316079386E+03  0.12500000000E+03 0.  0.
         25    1    1    2    0    0 -0.52851246964E+02  0.17932917171E+02  0.43841729882E+03  0.45929246862E+03  0.12500000000E+03 0.  0.
</event>
<event>
 5    0  0.5605075E-005  0.2785888E+03  0.7546771E-02  0.1096462E+00
         21   -1    0    0  502  501  0.00000000000E+00  0.00000000000E+00  0.99914301577E+02  0.99914301577E+02  0.00000000000E+00 0.  1.
         21   -1    0    0  501  502 -0.00000000000E+00 -0.00000000000E+00 -0.77678270285E+03  0.77678270285E+03  0.00000000000E+00 0.  1.
         25    1    1    2    0    0 -0.89952750701E+02  0.62064737117E+02 -0.35274370869E+03  0.38986748130E+03  0.12500000000E+03 0.  0.
         25    1    1    2    0    0  0.72166565873E+02 -0.12404927103E+03 -0.82892758628E+02  0.20758719687E+03  0.12500000000E+03 0.  0.
         25    1    1    2    0    0  0.17786184828E+02  0.61984533909E+02 -0.24123193396E+03  0.27924232626E+03  0.12500000000E+03 0.  0.
</event>
<event>
 5    0  0.5605075E-005  0.3351477E+03  0.7546771E-02  0.1068882E+00
         21   -1    0    0  502  501  0.00000000000E+00  0.00000000000E+00  0.50436904443E+03  0.50436904443E+03  0.00000000000E+00 0.  1.
         21   -1    0    0  501  502 -0.00000000000E+00 -0.00000000000E+00 -0.22270191244E+03  0.22270191244E+03  0.00000000000E+00 0.  1.
         25    1    1    2    0    0 -0.11131540336E+03  0.75189064238E+02 -0.49349623325E+01  0.18355889589E+03  0.12500000000E+03 0.  0.
         25    1    1    2    0    0  0.13146651873E+03 -0.14351400799E+03  0.97596084809E+01  0.23151666462E+03  0.12500000000E+03 0.  0.
         25    1    1    2    0    0 -0.20151115364E+02  0.68324943756E+02  0.27684248584E+03  0.31199539637E+03  0.12500000000E+03 0.  0.
</event>
<event>
 5    0  0.5605075E-005  0.2308940E+03  0.7546771E-02  0.1126012E+00
         21   -1    0    0  502  501  0.00000000000E+00  0.00000000000E+00  0.48594162359E+02  0.48594162359E+02  0.00000000000E+00 0.  1.
         21   -1    0    0  501  502 -0.00000000000E+00 -0.00000000000E+00 -0.10970872745E+04  0.10970872745E+04  0.00000000000E+00 0.  1.
         25    1    1    2    0    0 -0.59614767269E+02  0.29057633206E+02 -0.24256530122E+03  0.28082234932E+03  0.12500000000E+03 0.  0.
         25    1    1    2    0    0  0.41713931406E+02 -0.10277739917E+03 -0.40668180746E+03  0.43967981347E+03  0.12500000000E+03 0.  0.
         25    1    1    2    0    0  0.17900835864E+02  0.73719765961E+02 -0.39924600350E+03  0.42517927411E+03  0.12500000000E+03 0.  0.
</event>
<event>
 5    0  0.5605075E-005  0.3228198E+03  0.7546771E-02  0.1074359E+00
         21   -1    0    0  502  501  0.00000000000E+00  0.00000000000E+00  0.47276630722E+03  0.47276630722E+03  0.00000000000E+00 0. -1.
         21   -1    0    0  501  502 -0.00000000000E+00 -0.00000000000E+00 -0.22043161284E+03  0.22043161284E+03  0.00000000000E+00 0. -1.
         25    1    1    2    0    0 -0.81978838505E+01 -0.15881077251E+03 -0.95383837475E+01  0.20249456173E+03  0.12500000000E+03 0.  0.
         25    1    1    2    0    0  0.13653367707E+02  0.88762031717E+02 -0.37800581014E+02  0.15848973673E+03  0.12500000000E+03 0.  0.
         25    1    1    2    0    0 -0.54554838570E+01  0.70048740792E+02  0.29967365914E+03  0.33221362160E+03  0.12500000000E+03 0.  0.
</event>
<event>
 5    0  0.5605075E-005  0.3816342E+03  0.7546771E-02  0.1050331E+00
         21   -1    0    0  502  501  0.00000000000E+00  0.00000000000E+00  0.14714769984E+03  0.14714769984E+03  0.00000000000E+00 0. -1.
         21   -1    0    0  501  502 -0.00000000000E+00 -0.00000000000E+00 -0.98978568503E+03  0.98978568503E+03  0.00000000000E+00 0. -1.
         25    1    1    2    0    0  0.17483963731E+03  0.80155490884E+02 -0.19681700699E+03  0.30225111370E+03  0.12500000000E+03 0.  0.
         25    1    1    2    0    0 -0.43847144750E+02 -0.14682087700E+02 -0.62724740709E+03  0.64125068850E+03  0.12500000000E+03 0.  0.
         25    1    1    2    0    0 -0.13099249256E+03 -0.65473403183E+02 -0.18573571109E+02  0.19343158267E+03  0.12500000000E+03 0.  0.
</event>
<event>
 5    0  0.5605075E-005  0.2900948E+03  0.7546771E-02  0.1090300E+00
         21   -1    0    0  502  501  0.00000000000E+00  0.00000000000E+00  0.43375252642E+03  0.43375252642E+03  0.00000000000E+00 0. -1.
         21   -1    0    0  501  502 -0.00000000000E+00 -0.00000000000E+00 -0.19401619713E+03  0.19401619713E+03  0.00000000000E+00 0. -1.
         25    1    1    2    0    0  0.13399943592E+03  0.56243446306E+02  0.18513567594E+03  0.26649463894E+03  0.12500000000E+03 0.  0.
         25    1    1    2    0    0 -0.11841239094E+03 -0.93374320557E+02 -0.39372408420E+02  0.19978849970E+03  0.12500000000E+03 0.  0.
         25    1    1    2    0    0 -0.15587044976E+02  0.37130874251E+02  0.93973061764E+02  0.16148558490E+03  0.12500000000E+03 0.  0.
</event>
<event>
 5    0  0.5605075E-005  0.3273262E+03  0.7546771E-02  0.1072326E+00
         21   -1    0    0  502  501  0.00000000000E+00  0.00000000000E+00  0.38878368401E+03  0.38878368401E+03  0.00000000000E+00 0. -1.
         21   -1    0    0  501  502 -0.00000000000E+00 -0.00000000000E+00 -0.27558367398E+03  0.27558367398E+03  0.00000000000E+00 0. -1.
         25    1    1    2    0    0 -0.34578236709E+02  0.12233855988E+03 -0.18726297165E+02  0.17927088970E+03  0.12500000000E+03 0.  0.
         25    1    1    2    0    0 -0.74892171818E+01  0.12461035275E+03  0.25303487156E+01  0.17667832649E+03  0.12500000000E+03 0.  0.
         25    1    1    2    0    0  0.42067453891E+02 -0.24694891263E+03  0.12939595848E+03  0.30841814181E+03  0.12500000000E+03 0.  0.
</event>
<event>
 5    0  0.5605075E-005  0.3204721E+03  0.7546771E-02  0.1075432E+00
         21   -1    0    0  502  501  0.00000000000E+00  0.00000000000E+00  0.39148325715E+03  0.39148325715E+03  0.00000000000E+00 0.  1.
         21   -1    0    0  501  502 -0.00000000000E+00 -0.00000000000E+00 -0.26234167294E+03  0.26234167294E+03  0.00000000000E+00 0.  1.
         25    1    1    2    0    0  0.29134267629E+01 -0.69882425180E+02  0.57202683640E+02  0.15423744169E+03  0.12500000000E+03 0.  0.
         25    1    1    2    0    0 -0.45328563467E+02  0.23148962455E+03 -0.27628642340E+02  0.26838492286E+03  0.12500000000E+03 0.  0.
         25    1    1    2    0    0  0.42415136704E+02 -0.16160719937E+03  0.99567542911E+02  0.23120256554E+03  0.12500000000E+03 0.  0.
</event>
<event>
 5    0  0.5605075E-005  0.3752753E+03  0.7546771E-02  0.1052694E+00
         21   -1    0    0  502  501  0.00000000000E+00  0.00000000000E+00  0.64737243846E+03  0.64737243846E+03  0.00000000000E+00 0. -1.
         21   -1    0    0  501  502 -0.00000000000E+00 -0.00000000000E+00 -0.21754327926E+03  0.21754327926E+03  0.00000000000E+00 0. -1.
         25    1    1    2    0    0 -0.45563311888E+02  0.50864192330E+02  0.14607914723E+03  0.20402769103E+03  0.12500000000E+03 0.  0.
         25    1    1    2    0    0  0.26016586190E+03 -0.14638414882E+03  0.10463172274E+03  0.34012849355E+03  0.12500000000E+03 0.  0.
         25    1    1    2    0    0 -0.21460255001E+03  0.95519956486E+02  0.17911828923E+03  0.32075953313E+03  0.12500000000E+03 0.  0.
</event>
<event>
 5    0  0.5605075E-005  0.3237455E+03  0.7546771E-02  0.1073938E+00
         21   -1    0    0  502  501  0.00000000000E+00  0.00000000000E+00  0.13677091119E+04  0.13677091119E+04  0.00000000000E+00 0. -1.
         21   -1    0    0  501  502 -0.00000000000E+00 -0.00000000000E+00 -0.76632611913E+02  0.76632611913E+02  0.00000000000E+00 0. -1.
         25    1    1    2    0    0 -0.77616959878E+02  0.13744458393E+03  0.50990638118E+03  0.54821977681E+03  0.12500000000E+03 0.  0.
         25    1    1    2    0    0 -0.87417552907E+02 -0.11545151794E+03  0.56273417405E+03  0.59436153324E+03  0.12500000000E+03 0.  0.
         25    1    1    2    0    0  0.16503451279E+03 -0.21993065996E+02  0.21843594480E+03  0.30176041381E+03  0.12500000000E+03 0.  0.
</event>
<event>
 5    0  0.5605075E-005  0.2897339E+03  0.7546771E-02  0.1090488E+00
         21   -1    0    0  502  501  0.00000000000E+00  0.00000000000E+00  0.15637669244E+04  0.15637669244E+04  0.00000000000E+00 0.  1.
         21   -1    0    0  501  502 -0.00000000000E+00 -0.00000000000E+00 -0.53681734321E+02  0.53681734321E+02  0.00000000000E+00 0.  1.
         25    1    1    2    0    0  0.12335142911E+03  0.28044153548E+02  0.58694823204E+03  0.61329868474E+03  0.12500000000E+03 0.  0.
         25    1    1    2    0    0  0.41672575630E+02  0.78095419944E+02  0.26469667461E+03  0.30581829200E+03  0.12500000000E+03 0.  0.
         25    1    1    2    0    0 -0.16502400474E+03 -0.10613957349E+03  0.65844028342E+03  0.69833168197E+03  0.12500000000E+03 0.  0.
</event>
<event>
 5    0  0.5605075E-005  0.3995508E+03  0.7546771E-02  0.1043935E+00
         21   -1    0    0  502  501  0.00000000000E+00  0.00000000000E+00  0.16316950340E+03  0.16316950340E+03  0.00000000000E+00 0. -1.
         21   -1    0    0  501  502 -0.00000000000E+00 -0.00000000000E+00 -0.97837430514E+03  0.97837430514E+03  0.00000000000E+00 0. -1.
         25    1    1    2    0    0 -0.18934596581E+03 -0.21653429307E+03 -0.28737971223E+03  0.42538346682E+03  0.12500000000E+03 0.  0.
         25    1    1    2    0    0  0.56070584114E+02 -0.60915913275E+02 -0.19416298824E+03  0.24531393131E+03  0.12500000000E+03 0.  0.
         25    1    1    2    0    0  0.13327538170E+03  0.27745020635E+03 -0.33366210127E+03  0.47084641040E+03  0.12500000000E+03 0.  0.
</event>
<event>
 5    0  0.5605075E-005  0.3126047E+03  0.7546771E-02  0.1079104E+00
         21   -1    0    0  502  501  0.00000000000E+00  0.00000000000E+00  0.32119745930E+03  0.32119745930E+03  0.00000000000E+00 0.  1.
         21   -1    0    0  501  502 -0.00000000000E+00 -0.00000000000E+00 -0.30424172874E+03  0.30424172874E+03  0.00000000000E+00 0.  1.
         25    1    1    2    0    0  0.58573496134E+02  0.28968185365E+02  0.62679804899E+02  0.15434950001E+03  0.12500000000E+03 0.  0.
         25    1    1    2    0    0 -0.14011327241E+03  0.38099232232E+02 -0.17736474366E+03  0.26108721320E+03  0.12500000000E+03 0.  0.
         25    1    1    2    0    0  0.81539776275E+02 -0.67067417597E+02  0.13164066932E+03  0.21000247483E+03  0.12500000000E+03 0.  0.
</event>
<event>
 5    0  0.5605075E-005  0.3079510E+03  0.7546771E-02  0.1081332E+00
         21   -1    0    0  502  501  0.00000000000E+00  0.00000000000E+00  0.49682299423E+02  0.49682299423E+02  0.00000000000E+00 0. -1.
         21   -1    0    0  501  502 -0.00000000000E+00 -0.00000000000E+00 -0.19088048409E+04  0.19088048409E+04  0.00000000000E+00 0. -1.
         25    1    1    2    0    0 -0.49019456287E+02 -0.27043738050E+02 -0.17268806583E+03  0.22040970701E+03  0.12500000000E+03 0.  0.
         25    1    1    2    0    0 -0.15033326866E+02 -0.14276025074E+03 -0.97071566049E+03  0.98920189225E+03  0.12500000000E+03 0.  0.
         25    1    1    2    0    0  0.64052783153E+02  0.16980398879E+03 -0.71571881515E+03  0.74887554106E+03  0.12500000000E+03 0.  0.
</event>
<event>
 5    0  0.5605075E-005  0.3298576E+03  0.7546771E-02  0.1071200E+00
         21   -1    0    0  502  501  0.00000000000E+00  0.00000000000E+00  0.59507168880E+03  0.59507168880E+03  0.00000000000E+00 0. -1.
         21   -1    0    0  501  502 -0.00000000000E+00 -0.00000000000E+00 -0.18284526080E+03  0.18284526080E+03  0.00000000000E+00 0. -1.
         25    1    1    2    0    0  0.12598317982E+03 -0.94162519379E+02 -0.21777232300E+02  0.20208312522E+03  0.12500000000E+03 0.  0.
         25    1    1    2    0    0 -0.15033846865E+03 -0.11257955594E+02  0.14795405420E+03  0.24544612214E+03  0.12500000000E+03 0.  0.
         25    1    1    2    0    0  0.24355288834E+02  0.10542047497E+03  0.28604960610E+03  0.33038770224E+03  0.12500000000E+03 0.  0.
</event>
<event>
 5    0  0.5605075E-005  0.2408350E+03  0.7546771E-02  0.1119238E+00
         21   -1    0    0  502  501  0.00000000000E+00  0.00000000000E+00  0.80393715192E+02  0.80393715192E+02  0.00000000000E+00 0. -1.
         21   -1    0    0  501  502 -0.00000000000E+00 -0.00000000000E+00 -0.72146777708E+03  0.72146777708E+03  0.00000000000E+00 0. -1.
         25    1    1    2    0    0 -0.69872225063E+02  0.59091546252E+02 -0.10657212344E+03  0.18803339110E+03  0.12500000000E+03 0.  0.
         25    1    1    2    0    0  0.61206162399E+02  0.11812049077E+02 -0.15882502695E+03  0.21150912038E+03  0.12500000000E+03 0.  0.
         25    1    1    2    0    0  0.86660626647E+01 -0.70903595329E+02 -0.37567691150E+03  0.40231898079E+03  0.12500000000E+03 0.  0.
</event>
<event>
 5    0  0.5605075E-005  0.3061854E+03  0.7546771E-02  0.1082189E+00
         21   -1    0    0  502  501  0.00000000000E+00  0.00000000000E+00  0.30485054840E+03  0.30485054840E+03  0.00000000000E+00 0.  1.
         21   -1    0    0  501  502 -0.00000000000E+00 -0.00000000000E+00 -0.30752609439E+03  0.30752609439E+03  0.00000000000E+00 0.  1.
         25    1    1    2    0    0 -0.18772670077E+03 -0.87255999583E+02 -0.10366406360E+03  0.26310865005E+03  0.12500000000E+03 0.  0.
         25    1    1    2    0    0  0.11521334505E+03  0.78732700483E+02  0.76914268431E+02  0.20251853666E+03  0.12500000000E+03 0.  0.
         25    1    1    2    0    0  0.72513355719E+02  0.85232990992E+01  0.24074249180E+02  0.14674945608E+03  0.12500000000E+03 0.  0.
</event>
<event>
 5    0  0.5605075E-005  0.2486071E+03  0.7546771E-02  0.1114188E+00
         21   -1    0    0  502  501  0.00000000000E+00  0.00000000000E+00  0.12071271280E+03  0.12071271280E+03  0.00000000000E+00 0. -1.
         21   -1    0    0  501  502 -0.00000000000E+00 -0.00000000000E+00 -0.51200501959E+03  0.51200501959E+03  0.00000000000E+00 0. -1.
         25    1    1    2    0    0 -0.19338705606E+02  0.32886933176E+02 -0.10624780016E+03  0.16843138350E+03  0.12500000000E+03 0.  0.
         25    1    1    2    0    0  0.13452858149E+03  0.24709042646E+02 -0.16722354626E+03  0.24959405131E+03  0.12500000000E+03 0.  0.
         25    1    1    2    0    0 -0.11518987588E+03 -0.57595975821E+02 -0.11782096037E+03  0.21469229758E+03  0.12500000000E+03 0.  0.
</event>
<event>
 5    0  0.5605075E-005  0.2987095E+03  0.7546771E-02  0.1085888E+00
         21   -1    0    0  502  501  0.00000000000E+00  0.00000000000E+00  0.23820566675E+03  0.23820566675E+03  0.00000000000E+00 0. -1.
         21   -1    0    0  501  502 -0.00000000000E+00 -0.00000000000E+00 -0.37458111430E+03  0.37458111430E+03  0.00000000000E+00 0. -1.
         25    1    1    2    0    0 -0.63057335654E+02 -0.87590632190E+02  0.10540091460E+03  0.19591503063E+03  0.12500000000E+03 0.  0.
         25    1    1    2    0    0 -0.77744462896E+01  0.95289913703E+02 -0.22128858869E+03  0.27154051107E+03  0.12500000000E+03 0.  0.
         25    1    1    2    0    0  0.70831781944E+02 -0.76992815132E+01 -0.20487773470E+02  0.14533123935E+03  0.12500000000E+03 0.  0.
</event>
<event>
 5    0  0.5605075E-005  0.2986781E+03  0.7546771E-02  0.1085903E+00
         21   -1    0    0  502  501  0.00000000000E+00  0.00000000000E+00  0.27527920389E+03  0.27527920389E+03  0.00000000000E+00 0. -1.
         21   -1    0    0  501  502 -0.00000000000E+00 -0.00000000000E+00 -0.32406589829E+03  0.32406589829E+03  0.00000000000E+00 0. -1.
         25    1    1    2    0    0 -0.13848084644E+03  0.20782721248E+02 -0.10951413486E+01  0.18771005745E+03  0.12500000000E+03 0.  0.
         25    1    1    2    0    0  0.14072041297E+03  0.49363042176E+02  0.88622145134E+02  0.21381727986E+03  0.12500000000E+03 0.  0.
         25    1    1    2    0    0 -0.22395665248E+01 -0.70145763424E+02 -0.13631369819E+03  0.19781776487E+03  0.12500000000E+03 0.  0.
</event>
<event>
 5    0  0.5605075E-005  0.3113489E+03  0.7546771E-02  0.1079701E+00
         21   -1    0    0  502  501  0.00000000000E+00  0.00000000000E+00  0.44150857742E+03  0.44150857742E+03  0.00000000000E+00 0. -1.
         21   -1    0    0  501  502 -0.00000000000E+00 -0.00000000000E+00 -0.21956112184E+03  0.21956112184E+03  0.00000000000E+00 0. -1.
         25    1    1    2    0    0  0.63365985794E+02  0.91991871939E+02  0.12828322414E+03  0.21109082940E+03  0.12500000000E+03 0.  0.
         25    1    1    2    0    0  0.12964801042E+03 -0.10724575949E+03  0.48157211482E+02  0.21506830671E+03  0.12500000000E+03 0.  0.
         25    1    1    2    0    0 -0.19301399621E+03  0.15253887551E+02  0.45507019949E+02  0.23491056316E+03  0.12500000000E+03 0.  0.
</event>
<event>
 5    0  0.6622054E-005  0.2899024E+03  0.7546771E-02  0.1090400E+00
         21   -1    0    0  502  501  0.00000000000E+00  0.00000000000E+00  0.51084901525E+03  0.51084901525E+03  0.00000000000E+00 0. -1.
         21   -1    0    0  501  502 -0.00000000000E+00 -0.00000000000E+00 -0.16451715309E+03  0.16451715309E+03  0.00000000000E+00 0. -1.
         25    1    1    2    0    0 -0.93085455302E+02  0.90885717279E+02  0.32111305077E+02  0.18325187996E+03  0.12500000000E+03 0.  0.
         25    1    1    2    0    0 -0.80506134379E+02 -0.64269850855E+02  0.11560745286E+03  0.19900234812E+03  0.12500000000E+03 0.  0.
         25    1    1    2    0    0  0.17359158968E+03 -0.26615866424E+02  0.19861310423E+03  0.29311194027E+03  0.12500000000E+03 0.  0.
</event>
<event>
 5    0  0.5605075E-005  0.2346427E+03  0.7546771E-02  0.1123414E+00
         21   -1    0    0  502  501  0.00000000000E+00  0.00000000000E+00  0.14675313811E+03  0.14675313811E+03  0.00000000000E+00 0.  1.
         21   -1    0    0  501  502 -0.00000000000E+00 -0.00000000000E+00 -0.37516870542E+03  0.37516870542E+03  0.00000000000E+00 0.  1.
         25    1    1    2    0    0  0.70055569799E+02  0.71714926371E+02 -0.40161848585E+02  0.16519318269E+03  0.12500000000E+03 0.  0.
         25    1    1    2    0    0 -0.24703400262E+02 -0.35152778758E+02 -0.11695472879E+02  0.13269423471E+03  0.12500000000E+03 0.  0.
         25    1    1    2    0    0 -0.45352169537E+02 -0.36562147613E+02 -0.17655824584E+03  0.22403442614E+03  0.12500000000E+03 0.  0.
</event>
<event>
 5    0  0.5605075E-005  0.2398685E+03  0.7546771E-02  0.1119880E+00
         21   -1    0    0  502  501  0.00000000000E+00  0.00000000000E+00  0.22779358613E+03  0.22779358613E+03  0.00000000000E+00 0. -1.
         21   -1    0    0  501  502 -0.00000000000E+00 -0.00000000000E+00 -0.25258341104E+03  0.25258341104E+03  0.00000000000E+00 0. -1.
         25    1    1    2    0    0  0.69940635173E+02 -0.68107360403E+02 -0.66995317081E+02  0.17217339371E+03  0.12500000000E+03 0.  0.
         25    1    1    2    0    0 -0.17096940635E+02 -0.78244339564E+01 -0.39634262285E+02  0.13247415557E+03  0.12500000000E+03 0.  0.
         25    1    1    2    0    0 -0.52843694538E+02  0.75931794359E+02  0.81839754462E+02  0.17572944789E+03  0.12500000000E+03 0.  0.
</event>
<event>
 5    0  0.5605075E-005  0.2548097E+03  0.7546771E-02  0.1110302E+00
         21   -1    0    0  502  501  0.00000000000E+00  0.00000000000E+00  0.17364465032E+03  0.17364465032E+03  0.00000000000E+00 0.  1.
         21   -1    0    0  501  502 -0.00000000000E+00 -0.00000000000E+00 -0.37391305064E+03  0.37391305064E+03  0.00000000000E+00 0.  1.
         25    1    1    2    0    0 -0.17429337052E+01 -0.44501098759E+02 -0.12124884852E+03  0.17974890508E+03  0.12500000000E+03 0.  0.
         25    1    1    2    0    0 -0.38989842093E+02  0.85195588590E+02 -0.14682782141E+03  0.21438727863E+03  0.12500000000E+03 0.  0.
         25    1    1    2    0    0  0.40732775798E+02 -0.40694489831E+02  0.67808269611E+02  0.15342151725E+03  0.12500000000E+03 0.  0.
</event>
<event>
 5    0  0.5605075E-005  0.3528550E+03  0.7546771E-02  0.1061449E+00
         21   -1    0    0  502  501  0.00000000000E+00  0.00000000000E+00  0.18041323799E+03  0.18041323799E+03  0.00000000000E+00 0.  1.
         21   -1    0    0  501  502 -0.00000000000E+00 -0.00000000000E+00 -0.69011938773E+03  0.69011938773E+03  0.00000000000E+00 0.  1.
         25    1    1    2    0    0 -0.10905564046E+03  0.22986282821E+03 -0.22021421857E+03  0.35895592288E+03  0.12500000000E+03 0.  0.
         25    1    1    2    0    0  0.15302064873E+03 -0.14739753101E+03 -0.24890394180E+03  0.35031346439E+03  0.12500000000E+03 0.  0.
         25    1    1    2    0    0 -0.43965008270E+02 -0.82465297197E+02 -0.40587989372E+02  0.16126323845E+03  0.12500000000E+03 0.  0.
</event>
<event>
 5    0  0.5605075E-005  0.2299036E+03  0.7546771E-02  0.1126708E+00
         21   -1    0    0  502  501  0.00000000000E+00  0.00000000000E+00  0.10128290620E+03  0.10128290620E+03  0.00000000000E+00 0. -1.
         21   -1    0    0  501  502 -0.00000000000E+00 -0.00000000000E+00 -0.52186170897E+03  0.52186170897E+03  0.00000000000E+00 0. -1.
         25    1    1    2    0    0  0.68156483531E+01  0.12329488622E+02 -0.18745879659E+03  0.22575267389E+03  0.12500000000E+03 0.  0.
         25    1    1    2    0    0  0.45255613936E+02  0.49184518409E+02 -0.19980350175E+03  0.24497678820E+03  0.12500000000E+03 0.  0.
         25    1    1    2    0    0 -0.52071262289E+02 -0.61514007031E+02 -0.33316504429E+02  0.15241515307E+03  0.12500000000E+03 0.  0.
</event>
<event>
 5    0  0.5605075E-005  0.2943188E+03  0.7546771E-02  0.1088116E+00
         21   -1    0    0  502  501  0.00000000000E+00  0.00000000000E+00  0.57827713799E+02  0.57827713799E+02  0.00000000000E+00 0. -1.
         21   -1    0    0  501  502 -0.00000000000E+00 -0.00000000000E+00 -0.14979594607E+04  0.14979594607E+04  0.00000000000E+00 0. -1.
         25    1    1    2    0    0 -0.12554700794E+03  0.36763508182E+02 -0.59226526492E+03  0.61928729259E+03  0.12500000000E+03 0.  0.
         25    1    1    2    0    0 -0.64781398765E+02  0.12623065782E+02 -0.48574645711E+03  0.50589583118E+03  0.12500000000E+03 0.  0.
         25    1    1    2    0    0  0.19032840670E+03 -0.49386573964E+02 -0.36212002488E+03  0.43060405073E+03  0.12500000000E+03 0.  0.
</event>
<event>
 5    0  0.5605075E-005  0.3041110E+03  0.7546771E-02  0.1083203E+00
         21   -1    0    0  502  501  0.00000000000E+00  0.00000000000E+00  0.13612260690E+04  0.13612260690E+04  0.00000000000E+00 0. -1.
         21   -1    0    0  501  502 -0.00000000000E+00 -0.00000000000E+00 -0.67941317735E+02  0.67941317735E+02  0.00000000000E+00 0. -1.
         25    1    1    2    0    0 -0.14481469588E+03  0.95439206171E+02  0.70409017050E+03  0.73583143885E+03  0.12500000000E+03 0.  0.
         25    1    1    2    0    0  0.15528854267E+03 -0.12322446941E+03  0.33961311537E+03  0.41262679200E+03  0.12500000000E+03 0.  0.
         25    1    1    2    0    0 -0.10473846798E+02  0.27785263244E+02  0.24958146537E+03  0.28070915585E+03  0.12500000000E+03 0.  0.
</event>
<event>
 5    0  0.5605075E-005  0.2403816E+03  0.7546771E-02  0.1119539E+00
         21   -1    0    0  502  501  0.00000000000E+00  0.00000000000E+00  0.26316232033E+03  0.26316232033E+03  0.00000000000E+00 0. -1.
         21   -1    0    0  501  502 -0.00000000000E+00 -0.00000000000E+00 -0.21957289115E+03  0.21957289115E+03  0.00000000000E+00 0. -1.
         25    1    1    2    0    0 -0.43951337273E+02  0.45894330913E+02  0.36305379232E+02  0.14484850783E+03  0.12500000000E+03 0.  0.
         25    1    1    2    0    0 -0.25168393254E+02 -0.96201494853E+02  0.69465667915E+02  0.17417994905E+03  0.12500000000E+03 0.  0.
         25    1    1    2    0    0  0.69119730528E+02  0.50307163940E+02 -0.62181617960E+02  0.16370675461E+03  0.12500000000E+03 0.  0.
</event>
<event>
 5    0  0.5605075E-005  0.4014849E+03  0.7546771E-02  0.1043267E+00
         21   -1    0    0  502  501  0.00000000000E+00  0.00000000000E+00  0.20801283328E+03  0.20801283328E+03  0.00000000000E+00 0.  1.
         21   -1    0    0  501  502 -0.00000000000E+00 -0.00000000000E+00 -0.77490459152E+03  0.77490459152E+03  0.00000000000E+00 0.  1.
         25    1    1    2    0    0 -0.13591721694E+03 -0.14466386044E+03 -0.30088312697E+03  0.38151904077E+03  0.12500000000E+03 0.  0.
         25    1    1    2    0    0  0.15521274586E+03  0.71331176795E+00 -0.34153662385E+03  0.39542859118E+03  0.12500000000E+03 0.  0.
         25    1    1    2    0    0 -0.19295528922E+02  0.14395054867E+03  0.75527992576E+02  0.20596979284E+03  0.12500000000E+03 0.  0.
</event>
<event>
 5    0  0.5708438E-005  0.2978992E+03  0.7546771E-02  0.1086296E+00
         21   -1    0    0  502  501  0.00000000000E+00  0.00000000000E+00  0.63692729594E+03  0.63692729594E+03  0.00000000000E+00 0.  1.
         21   -1    0    0  501  502 -0.00000000000E+00 -0.00000000000E+00 -0.13933136565E+03  0.13933136565E+03  0.00000000000E+00 0.  1.
         25    1    1    2    0    0 -0.51066422951E+02  0.66654569515E+02  0.20365116573E+03  0.25327733514E+03  0.12500000000E+03 0.  0.
         25    1    1    2    0    0  0.10062812741E+03 -0.18947219754E+03  0.14362855453E+03  0.28684472340E+03  0.12500000000E+03 0.  0.
         25    1    1    2    0    0 -0.49561704455E+02  0.12281762803E+03  0.15031621003E+03  0.23613660305E+03  0.12500000000E+03 0.  0.
</event>
<event>
 5    0  0.5605075E-005  0.4511572E+03  0.7546771E-02  0.1027378E+00
         21   -1    0    0  502  501  0.00000000000E+00  0.00000000000E+00  0.90685810792E+03  0.90685810792E+03  0.00000000000E+00 0.  1.
         21   -1    0    0  501  502 -0.00000000000E+00 -0.00000000000E+00 -0.22444838060E+03  0.22444838060E+03  0.00000000000E+00 0.  1.
         25    1    1    2    0    0  0.46519543753E+02  0.35247847497E+03  0.28572566674E+03  0.47293688786E+03  0.12500000000E+03 0.  0.
         25    1    1    2    0    0  0.59122800637E+02 -0.24829680069E+03  0.94948537122E+02  0.29964484225E+03  0.12500000000E+03 0.  0.
         25    1    1    2    0    0 -0.10564234439E+03 -0.10418167428E+03  0.30173552345E+03  0.35872475841E+03  0.12500000000E+03 0.  0.
</event>
<event>
 5    0  0.5605075E-005  0.2835395E+03  0.7546771E-02  0.1093771E+00
         21   -1    0    0  502  501  0.00000000000E+00  0.00000000000E+00  0.67250773868E+02  0.67250773868E+02  0.00000000000E+00 0. -1.
         21   -1    0    0  501  502 -0.00000000000E+00 -0.00000000000E+00 -0.11954452834E+04  0.11954452834E+04  0.00000000000E+00 0. -1.
         25    1    1    2    0    0  0.14905987512E+02 -0.14470763506E+03 -0.29176139990E+03  0.34915927967E+03  0.12500000000E+03 0.  0.
         25    1    1    2    0    0 -0.35827799327E+02  0.54633075707E+02 -0.13557179015E+03  0.19563515648E+03  0.12500000000E+03 0.  0.
         25    1    1    2    0    0  0.20921811815E+02  0.90074559358E+02 -0.70086131945E+03  0.71790162108E+03  0.12500000000E+03 0.  0.
</event>
<event>
 5    0  0.5605075E-005  0.2921422E+03  0.7546771E-02  0.1089236E+00
         21   -1    0    0  502  501  0.00000000000E+00  0.00000000000E+00  0.58578239943E+03  0.58578239943E+03  0.00000000000E+00 0.  1.
         21   -1    0    0  501  502 -0.00000000000E+00 -0.00000000000E+00 -0.14569758364E+03  0.14569758364E+03  0.00000000000E+00 0.  1.
         25    1    1    2    0    0  0.10823992538E+02 -0.16143684842E+03  0.85714871258E+02  0.22170036986E+03  0.12500000000E+03 0.  0.
         25    1    1    2    0    0  0.52666954565E+02  0.17922206323E+03  0.20623325144E+03  0.30504345600E+03  0.12500000000E+03 0.  0.
         25    1    1    2    0    0 -0.63490947103E+02 -0.17785214806E+02  0.14813669309E+03  0.20473615721E+03  0.12500000000E+03 0.  0.
</event>
<event>
 5    0  0.5956238E-005  0.3446614E+03  0.7546771E-02  0.1064828E+00
         21   -1    0    0  502  501  0.00000000000E+00  0.00000000000E+00  0.16750825807E+03  0.16750825807E+03  0.00000000000E+00 0.  1.
         21   -1    0    0  501  502 -0.00000000000E+00 -0.00000000000E+00 -0.70916775156E+03  0.70916775156E+03  0.00000000000E+00 0.  1.
         25    1    1    2    0    0 -0.16546099854E+03 -0.84845026605E+02 -0.41232432741E+03  0.46926791021E+03  0.12500000000E+03 0.  0.
         25    1    1    2    0    0  0.18332383096E+02  0.12573944337E+03 -0.13908851038E+02  0.17878741573E+03  0.12500000000E+03 0.  0.
         25    1    1    2    0    0  0.14712861544E+03 -0.40894416761E+02 -0.11542631504E+03  0.22862068369E+03  0.12500000000E+03 0.  0.
</event>
<event>
 5    0  0.5605075E-005  0.8617625E+03  0.7546771E-02  0.9474684E-01
         21   -1    0    0  502  501  0.00000000000E+00  0.00000000000E+00  0.99352329663E+03  0.99352329663E+03  0.00000000000E+00 0.  1.
         21   -1    0    0  501  502 -0.00000000000E+00 -0.00000000000E+00 -0.74747583705E+03  0.74747583705E+03  0.00000000000E+00 0.  1.
         25    1    1    2    0    0 -0.12000613084E+03 -0.23503610467E+03  0.34224106202E+02  0.29400634582E+03  0.12500000000E+03 0.  0.
         25    1    1    2    0    0 -0.37258184557E+03 -0.22721561086E+03 -0.33891233415E+03  0.56650748954E+03  0.12500000000E+03 0.  0.
         25    1    1    2    0    0  0.49258797641E+03  0.46225171553E+03  0.55073568754E+03  0.88048529831E+03  0.12500000000E+03 0.  0.
</event>
<event>
 5    0  0.5605075E-005  0.3482567E+03  0.7546771E-02  0.1063333E+00
         21   -1    0    0  502  501  0.00000000000E+00  0.00000000000E+00  0.27852607263E+03  0.27852607263E+03  0.00000000000E+00 0.  1.
         21   -1    0    0  501  502 -0.00000000000E+00 -0.00000000000E+00 -0.43544471447E+03  0.43544471447E+03  0.00000000000E+00 0.  1.
         25    1    1    2    0    0  0.18346082322E+03 -0.31835695103E+02  0.12663911327E+03  0.25755358694E+03  0.12500000000E+03 0.  0.
         25    1    1    2    0    0 -0.49060660230E+02 -0.22324581738E+02 -0.31113237155E+02  0.13963655989E+03  0.12500000000E+03 0.  0.
         25    1    1    2    0    0 -0.13440016299E+03  0.54160276840E+02 -0.25244451795E+03  0.31678064026E+03  0.12500000000E+03 0.  0.
</event>
<event>
 5    0  0.5605075E-005  0.5089393E+03  0.7546771E-02  0.1011472E+00
         21   -1    0    0  502  501  0.00000000000E+00  0.00000000000E+00  0.39077361575E+04  0.39077361575E+04  0.00000000000E+00 0. -1.
         21   -1    0    0  501  502 -0.00000000000E+00 -0.00000000000E+00 -0.66283712215E+02  0.66283712215E+02  0.00000000000E+00 0. -1.
         25    1    1    2    0    0 -0.56553688904E+02 -0.41871471357E+03  0.22260043185E+04  0.22691938122E+04  0.12500000000E+03 0.  0.
         25    1    1    2    0    0 -0.29922290578E+02  0.67156538598E+02  0.27712838864E+03  0.31277865647E+03  0.12500000000E+03 0.  0.
         25    1    1    2    0    0  0.86475979482E+02  0.35155817497E+03  0.13383197381E+04  0.13920474010E+04  0.12500000000E+03 0.  0.
</event>
<event>
 5    0  0.5605075E-005  0.2357863E+03  0.7546771E-02  0.1122632E+00
         21   -1    0    0  502  501  0.00000000000E+00  0.00000000000E+00  0.20864016263E+04  0.20864016263E+04  0.00000000000E+00 0.  1.
         21   -1    0    0  501  502 -0.00000000000E+00 -0.00000000000E+00 -0.26646432533E+02  0.26646432533E+02  0.00000000000E+00 0.  1.
         25    1    1    2    0    0 -0.11387473114E+02  0.28371099782E+02  0.28337617790E+03  0.31122604654E+03  0.12500000000E+03 0.  0.
         25    1    1    2    0    0 -0.14151152285E+02 -0.36499388569E+02  0.43312697871E+03  0.45250021013E+03  0.12500000000E+03 0.  0.
         25    1    1    2    0    0  0.25538625398E+02  0.81282887875E+01  0.13432520372E+04  0.13493218022E+04  0.12500000000E+03 0.  0.
</event>
<event>
 5    0  0.5605075E-005  0.4151116E+03  0.7546771E-02  0.1038669E+00
         21   -1    0    0  502  501  0.00000000000E+00  0.00000000000E+00  0.21711348648E+04  0.21711348648E+04  0.00000000000E+00 0. -1.
         21   -1    0    0  501  502 -0.00000000000E+00 -0.00000000000E+00 -0.79367540655E+02  0.79367540655E+02  0.00000000000E+00 0. -1.
         25    1    1    2    0    0 -0.27751891070E+02  0.31934731396E+02  0.33283855408E+03  0.35804538485E+03  0.12500000000E+03 0.  0.
         25    1    1    2    0    0 -0.24594534957E+02  0.27495032027E+03  0.12246684260E+04  0.12616022842E+04  0.12500000000E+03 0.  0.
         25    1    1    2    0    0  0.52346426027E+02 -0.30688505166E+03  0.53426034404E+03  0.63085473642E+03  0.12500000000E+03 0.  0.
</event>
<event>
 5    0  0.5605075E-005  0.2479106E+03  0.7546771E-02  0.1114632E+00
         21   -1    0    0  502  501  0.00000000000E+00  0.00000000000E+00  0.55795595071E+02  0.55795595071E+02  0.00000000000E+00 0. -1.
         21   -1    0    0  501  502 -0.00000000000E+00 -0.00000000000E+00 -0.11015143520E+04  0.11015143520E+04  0.00000000000E+00 0. -1.
         25    1    1    2    0    0  0.93335085505E+00 -0.82813806555E+01 -0.26521487457E+03  0.29331447647E+03  0.12500000000E+03 0.  0.
         25    1    1    2    0    0  0.13165688046E+03 -0.26590895304E+02 -0.34887349070E+03  0.39418057080E+03  0.12500000000E+03 0.  0.
         25    1    1    2    0    0 -0.13259023132E+03  0.34872275960E+02 -0.43163039161E+03  0.46981489976E+03  0.12500000000E+03 0.  0.
</event>
<event>
 5    0  0.5605075E-005  0.3980373E+03  0.7546771E-02  0.1044461E+00
         21   -1    0    0  502  501  0.00000000000E+00  0.00000000000E+00  0.13974903098E+03  0.13974903098E+03  0.00000000000E+00 0. -1.
         21   -1    0    0  501  502 -0.00000000000E+00 -0.00000000000E+00 -0.11337016671E+04  0.11337016671E+04  0.00000000000E+00 0. -1.
         25    1    1    2    0    0 -0.94961874852E+01  0.22536670203E+03 -0.70689594169E+03  0.75246740816E+03  0.12500000000E+03 0.  0.
         25    1    1    2    0    0 -0.12208872133E+03 -0.91684986352E+02 -0.19524165937E+03  0.27758980196E+03  0.12500000000E+03 0.  0.
         25    1    1    2    0    0  0.13158490882E+03 -0.13368171567E+03 -0.91815035096E+02  0.24339348801E+03  0.12500000000E+03 0.  0.
</event>
<event>
 5    0  0.5605075E-005  0.3506829E+03  0.7546771E-02  0.1062335E+00
         21   -1    0    0  502  501  0.00000000000E+00  0.00000000000E+00  0.15344037902E+03  0.15344037902E+03  0.00000000000E+00 0. -1.
         21   -1    0    0  501  502 -0.00000000000E+00 -0.00000000000E+00 -0.80147409679E+03  0.80147409679E+03  0.00000000000E+00 0. -1.
         25    1    1    2    0    0 -0.41426220537E+02 -0.22915648089E+02 -0.20908509337E+02  0.13529014908E+03  0.12500000000E+03 0.  0.
         25    1    1    2    0    0  0.17148792855E+03 -0.74851754469E+01 -0.59775029855E+03  0.63434577078E+03  0.12500000000E+03 0.  0.
         25    1    1    2    0    0 -0.13006170801E+03  0.30400823536E+02 -0.29374909883E+02  0.18527855594E+03  0.12500000000E+03 0.  0.
</event>
<event>
 5    0  0.5605075E-005  0.3088338E+03  0.7546771E-02  0.1080906E+00
         21   -1    0    0  502  501  0.00000000000E+00  0.00000000000E+00  0.17237080465E+03  0.17237080465E+03  0.00000000000E+00 0.  1.
         21   -1    0    0  501  502 -0.00000000000E+00 -0.00000000000E+00 -0.55333229606E+03  0.55333229606E+03  0.00000000000E+00 0.  1.
         25    1    1    2    0    0 -0.10496762156E+03 -0.15311773231E+03 -0.27807262850E+03  0.35694905553E+03  0.12500000000E+03 0.  0.
         25    1    1    2    0    0  0.12911346634E+03  0.11533751297E+03 -0.10032677295E+03  0.23593111380E+03  0.12500000000E+03 0.  0.
         25    1    1    2    0    0 -0.24145844777E+02  0.37780219343E+02 -0.25620899649E+01  0.13282293137E+03  0.12500000000E+03 0.  0.
</event>
<event>
 5    0  0.5605075E-005  0.3230829E+03  0.7546771E-02  0.1074239E+00
         21   -1    0    0  502  501  0.00000000000E+00  0.00000000000E+00  0.58078830384E+03  0.58078830384E+03  0.00000000000E+00 0. -1.
         21   -1    0    0  501  502 -0.00000000000E+00 -0.00000000000E+00 -0.17972567434E+03  0.17972567434E+03  0.00000000000E+00 0. -1.
         25    1    1    2    0    0  0.10781190286E+03 -0.21555023394E+02  0.29140617579E+02  0.16900355329E+03  0.12500000000E+03 0.  0.
         25    1    1    2    0    0 -0.13831918278E+03  0.86859747667E+02  0.14643665880E+02  0.20619468723E+03  0.12500000000E+03 0.  0.
         25    1    1    2    0    0  0.30507279918E+02 -0.65304724273E+02  0.35727834604E+03  0.38531573766E+03  0.12500000000E+03 0.  0.
</event>
<event>
 5    0  0.5605075E-005  0.2085670E+03  0.7546771E-02  0.1142706E+00
         21   -1    0    0  502  501  0.00000000000E+00  0.00000000000E+00  0.49469745624E+02  0.49469745624E+02  0.00000000000E+00 0.  1.
         21   -1    0    0  501  502 -0.00000000000E+00 -0.00000000000E+00 -0.87932885669E+03  0.87932885669E+03  0.00000000000E+00 0.  1.
         25    1    1    2    0    0 -0.27223148481E+02  0.15004674143E+00 -0.26180721956E+03  0.29139173382E+03  0.12500000000E+03 0.  0.
         25    1    1    2    0    0  0.53055934539E+02  0.58962650626E+02 -0.30877584542E+03  0.34243108660E+03  0.12500000000E+03 0.  0.
         25    1    1    2    0    0 -0.25832786057E+02 -0.59112697367E+02 -0.25927604610E+03  0.29497578190E+03  0.12500000000E+03 0.  0.
</event>
<event>
 5    0  0.5605075E-005  0.4537599E+03  0.7546771E-02  0.1026607E+00
         21   -1    0    0  502  501  0.00000000000E+00  0.00000000000E+00  0.38723359093E+03  0.38723359093E+03  0.00000000000E+00 0.  1.
         21   -1    0    0  501  502 -0.00000000000E+00 -0.00000000000E+00 -0.53171531410E+03  0.53171531410E+03  0.00000000000E+00 0.  1.
         25    1    1    2    0    0  0.15459940603E+03 -0.67335551988E+02  0.10413305990E+03  0.23431548619E+03  0.12500000000E+03 0.  0.
         25    1    1    2    0    0 -0.11501024443E+02  0.67988820651E+02 -0.41075112856E+03  0.43485197816E+03  0.12500000000E+03 0.  0.
         25    1    1    2    0    0 -0.14309838159E+03 -0.65326866258E+00  0.16213634550E+03  0.24978144067E+03  0.12500000000E+03 0.  0.
</event>
<event>
 5    0  0.5605075E-005  0.2751095E+03  0.7546771E-02  0.1098390E+00
         21   -1    0    0  502  501  0.00000000000E+00  0.00000000000E+00  0.11467453915E+04  0.11467453915E+04  0.00000000000E+00 0.  1.
         21   -1    0    0  501  502 -0.00000000000E+00 -0.00000000000E+00 -0.66000056733E+02  0.66000056733E+02  0.00000000000E+00 0.  1.
         25    1    1    2    0    0  0.56980708962E+02  0.68980452107E+02  0.37167071858E+03  0.40220545374E+03  0.12500000000E+03 0.  0.
         25    1    1    2    0    0  0.78992582321E+01  0.52505964906E+02  0.87073316564E+02  0.16132587235E+03  0.12500000000E+03 0.  0.
         25    1    1    2    0    0 -0.64879967194E+02 -0.12148641701E+03  0.62200129958E+03  0.64921412210E+03  0.12500000000E+03 0.  0.
</event>
<event>
 5    0  0.5731525E-005  0.3089987E+03  0.7546771E-02  0.1080827E+00
         21   -1    0    0  502  501  0.00000000000E+00  0.00000000000E+00  0.16210247288E+03  0.16210247288E+03  0.00000000000E+00 0. -1.
         21   -1    0    0  501  502 -0.00000000000E+00 -0.00000000000E+00 -0.58901145478E+03  0.58901145478E+03  0.00000000000E+00 0. -1.
         25    1    1    2    0    0  0.14380223613E+03 -0.85206595987E+02 -0.10379126382E+03  0.23310271033E+03  0.12500000000E+03 0.  0.
         25    1    1    2    0    0 -0.21908550945E+02 -0.52331569510E+02 -0.14991513521E+02  0.13808809959E+03  0.12500000000E+03 0.  0.
         25    1    1    2    0    0 -0.12189368518E+03  0.13753816550E+03 -0.30812620455E+03  0.37992311773E+03  0.12500000000E+03 0.  0.
</event>
<event>
 5    0  0.5605075E-005  0.3465631E+03  0.7546771E-02  0.1064035E+00
         21   -1    0    0  502  501  0.00000000000E+00  0.00000000000E+00  0.12602349450E+03  0.12602349450E+03  0.00000000000E+00 0.  1.
         21   -1    0    0  501  502 -0.00000000000E+00 -0.00000000000E+00 -0.95304429999E+03  0.95304429999E+03  0.00000000000E+00 0.  1.
         25    1    1    2    0    0  0.11617006417E+02 -0.99683764646E+02  0.92565461885E+01  0.16056927296E+03  0.12500000000E+03 0.  0.
         25    1    1    2    0    0 -0.69067436009E+02  0.14801102662E+03 -0.65104781381E+03  0.68276337818E+03  0.12500000000E+03 0.  0.
         25    1    1    2    0    0  0.57450429592E+02 -0.48327261972E+02 -0.18522953787E+03  0.23573514335E+03  0.12500000000E+03 0.  0.
</event>
<event>
 5    0  0.5605075E-005  0.2648485E+03  0.7546771E-02  0.1104265E+00
         21   -1    0    0  502  501  0.00000000000E+00  0.00000000000E+00  0.26933512863E+03  0.26933512863E+03  0.00000000000E+00 0.  1.
         21   -1    0    0  501  502 -0.00000000000E+00 -0.00000000000E+00 -0.26043653496E+03  0.26043653496E+03  0.00000000000E+00 0.  1.
         25    1    1    2    0    0 -0.50306851714E+02 -0.77364418368E+02 -0.93657501850E+02  0.18141874272E+03  0.12500000000E+03 0.  0.
         25    1    1    2    0    0 -0.21889125279E+02  0.11436547594E+03  0.10271716582E+03  0.19933492431E+03  0.12500000000E+03 0.  0.
         25    1    1    2    0    0  0.72195976993E+02 -0.37001057574E+02 -0.16107029844E+00  0.14901799656E+03  0.12500000000E+03 0.  0.
</event>
<event>
 5    0  0.5605075E-005  0.2582497E+03  0.7546771E-02  0.1108199E+00
         21   -1    0    0  502  501  0.00000000000E+00  0.00000000000E+00  0.81391310034E+02  0.81391310034E+02  0.00000000000E+00 0. -1.
         21   -1    0    0  501  502 -0.00000000000E+00 -0.00000000000E+00 -0.81941062797E+03  0.81941062797E+03  0.00000000000E+00 0. -1.
         25    1    1    2    0    0  0.48753075101E+02  0.23458864910E+02 -0.38730093297E+03  0.41055352070E+03  0.12500000000E+03 0.  0.
         25    1    1    2    0    0 -0.11569758479E+03 -0.78571140346E+02 -0.16200540004E+03  0.24785097309E+03  0.12500000000E+03 0.  0.
         25    1    1    2    0    0  0.66944509693E+02  0.55112275436E+02 -0.18871298493E+03  0.24239744422E+03  0.12500000000E+03 0.  0.
</event>
<event>
 5    0  0.5605075E-005  0.3214991E+03  0.7546771E-02  0.1074961E+00
         21   -1    0    0  502  501  0.00000000000E+00  0.00000000000E+00  0.65672271912E+03  0.65672271912E+03  0.00000000000E+00 0. -1.
         21   -1    0    0  501  502 -0.00000000000E+00 -0.00000000000E+00 -0.15739010017E+03  0.15739010017E+03  0.00000000000E+00 0. -1.
         25    1    1    2    0    0 -0.53228977246E+02  0.63335332545E+02  0.84927674466E+02  0.17228580399E+03  0.12500000000E+03 0.  0.
         25    1    1    2    0    0 -0.10879387870E+03 -0.17478627613E+03  0.29231742414E+03  0.37876222993E+03  0.12500000000E+03 0.  0.
         25    1    1    2    0    0  0.16202285595E+03  0.11145094359E+03  0.12208752035E+03  0.26306478537E+03  0.12500000000E+03 0.  0.
</event>
<event>
 5    0  0.5605075E-005  0.5598545E+03  0.7546771E-02  0.9992384E-01
         21   -1    0    0  502  501  0.00000000000E+00  0.00000000000E+00  0.91650118868E+03  0.91650118868E+03  0.00000000000E+00 0. -1.
         21   -1    0    0  501  502 -0.00000000000E+00 -0.00000000000E+00 -0.34199303102E+03  0.34199303102E+03  0.00000000000E+00 0. -1.
         25    1    1    2    0    0 -0.35512812835E+03  0.56293748047E+02 -0.10373207793E+03  0.39455077950E+03  0.12500000000E+03 0.  0.
         25    1    1    2    0    0  0.37709298347E+03 -0.63097758955E+01  0.47648052052E+03  0.62040117496E+03  0.12500000000E+03 0.  0.
         25    1    1    2    0    0 -0.21964855119E+02 -0.49983972152E+02  0.20175971507E+03  0.24354226524E+03  0.12500000000E+03 0.  0.
</event>
<event>
 5    0  0.5605075E-005  0.2126373E+03  0.7546771E-02  0.1139494E+00
         21   -1    0    0  502  501  0.00000000000E+00  0.00000000000E+00  0.26969981445E+03  0.26969981445E+03  0.00000000000E+00 0.  1.
         21   -1    0    0  501  502 -0.00000000000E+00 -0.00000000000E+00 -0.16764795984E+03  0.16764795984E+03  0.00000000000E+00 0.  1.
         25    1    1    2    0    0 -0.18632214123E+02  0.55525857239E+02  0.83285768674E+02  0.16121972426E+03  0.12500000000E+03 0.  0.
         25    1    1    2    0    0 -0.96943099522E+01  0.14553661939E+02  0.29626751430E+02  0.12964772702E+03  0.12500000000E+03 0.  0.
         25    1    1    2    0    0  0.28326524075E+02 -0.70079519178E+02 -0.10860665496E+02  0.14648032301E+03  0.12500000000E+03 0.  0.
</event>
<event>
 5    0  0.5605075E-005  0.5418366E+03  0.7546771E-02  0.1003401E+00
         21   -1    0    0  502  501  0.00000000000E+00  0.00000000000E+00  0.15369606500E+03  0.15369606500E+03  0.00000000000E+00 0. -1.
         21   -1    0    0  501  502 -0.00000000000E+00 -0.00000000000E+00 -0.19101786264E+04  0.19101786264E+04  0.00000000000E+00 0. -1.
         25    1    1    2    0    0 -0.18149060818E+03 -0.60010521876E+02 -0.13117871439E+04  0.13315219166E+04  0.12500000000E+03 0.  0.
         25    1    1    2    0    0 -0.12497029601E+03  0.59058694674E+02 -0.10854682806E+02  0.18667706994E+03  0.12500000000E+03 0.  0.
         25    1    1    2    0    0  0.30646090419E+03  0.95182720249E+00 -0.43384073479E+03  0.54567570492E+03  0.12500000000E+03 0.  0.
</event>
<event>
 5    0  0.5605075E-005  0.4198028E+03  0.7546771E-02  0.1037130E+00
         21   -1    0    0  502  501  0.00000000000E+00  0.00000000000E+00  0.39789612957E+03  0.39789612957E+03  0.00000000000E+00 0. -1.
         21   -1    0    0  501  502 -0.00000000000E+00 -0.00000000000E+00 -0.44291566313E+03  0.44291566313E+03  0.00000000000E+00 0. -1.
         25    1    1    2    0    0 -0.16656970469E+02 -0.30907950574E+03  0.15982894198E+03  0.37010523669E+03  0.12500000000E+03 0.  0.
         25    1    1    2    0    0  0.19835597403E+02  0.22669495358E+03 -0.18687118645E+03  0.31989043941E+03  0.12500000000E+03 0.  0.
         25    1    1    2    0    0 -0.31786269341E+01  0.82384552160E+02 -0.17977289097E+02  0.15081611660E+03  0.12500000000E+03 0.  0.
</event>
<event>
 5    0  0.5605075E-005  0.3772881E+03  0.7546771E-02  0.1051941E+00
         21   -1    0    0  502  501  0.00000000000E+00  0.00000000000E+00  0.99659177251E+02  0.99659177251E+02  0.00000000000E+00 0.  1.
         21   -1    0    0  501  502 -0.00000000000E+00 -0.00000000000E+00 -0.14283308308E+04  0.14283308308E+04  0.00000000000E+00 0.  1.
         25    1    1    2    0    0  0.38170534435E+02  0.66138196310E+02 -0.68834331555E+02  0.16184689033E+03  0.12500000000E+03 0.  0.
         25    1    1    2    0    0 -0.18862116623E+03 -0.18853282724E+03 -0.63237167460E+03  0.69759695107E+03  0.12500000000E+03 0.  0.
         25    1    1    2    0    0  0.15045063180E+03  0.12239463093E+03 -0.62746564744E+03  0.66854616670E+03  0.12500000000E+03 0.  0.
</event>
<event>
 5    0  0.5605075E-005  0.4070413E+03  0.7546771E-02  0.1041368E+00
         21   -1    0    0  502  501  0.00000000000E+00  0.00000000000E+00  0.25295514031E+03  0.25295514031E+03  0.00000000000E+00 0.  1.
         21   -1    0    0  501  502 -0.00000000000E+00 -0.00000000000E+00 -0.65498806280E+03  0.65498806280E+03  0.00000000000E+00 0.  1.
         25    1    1    2    0    0  0.51370600519E+02 -0.10923732877E+03 -0.18416152593E+03  0.25320387087E+03  0.12500000000E+03 0.  0.
         25    1    1    2    0    0 -0.27739500781E+03 -0.32437409630E+02 -0.18684414531E+03  0.35851905184E+03  0.12500000000E+03 0.  0.
         25    1    1    2    0    0  0.22602440729E+03  0.14167473840E+03 -0.31027251259E+02  0.29622028038E+03  0.12500000000E+03 0.  0.
</event>
<event>
 5    0  0.5605075E-005  0.3299529E+03  0.7546771E-02  0.1071158E+00
         21   -1    0    0  502  501  0.00000000000E+00  0.00000000000E+00  0.41099100368E+02  0.41099100368E+02  0.00000000000E+00 0.  1.
         21   -1    0    0  501  502 -0.00000000000E+00 -0.00000000000E+00 -0.26489373245E+04  0.26489373245E+04  0.00000000000E+00 0.  1.
         25    1    1    2    0    0 -0.14393593692E+03  0.95621885493E+02 -0.47915378495E+03  0.52447540319E+03  0.12500000000E+03 0.  0.
         25    1    1    2    0    0  0.56485036468E+02 -0.13186219644E+03 -0.61459314436E+03  0.64337231157E+03  0.12500000000E+03 0.  0.
         25    1    1    2    0    0  0.87450900451E+02  0.36240310948E+02 -0.15140912948E+04  0.15221887101E+04  0.12500000000E+03 0.  0.
</event>
<event>
 5    0  0.5605075E-005  0.2722159E+03  0.7546771E-02  0.1100018E+00
         21   -1    0    0  502  501  0.00000000000E+00  0.00000000000E+00  0.44182085946E+03  0.44182085946E+03  0.00000000000E+00 0.  1.
         21   -1    0    0  501  502 -0.00000000000E+00 -0.00000000000E+00 -0.16771837406E+03  0.16771837406E+03  0.00000000000E+00 0.  1.
         25    1    1    2    0    0 -0.80545005913E+02  0.34305876931E+02  0.68039145893E+01  0.15276021872E+03  0.12500000000E+03 0.  0.
         25    1    1    2    0    0  0.63748992554E+02 -0.49539057736E+02  0.29165728635E+03  0.32742483867E+03  0.12500000000E+03 0.  0.
         25    1    1    2    0    0  0.16796013359E+02  0.15233180805E+02 -0.24358715542E+02  0.12935417614E+03  0.12500000000E+03 0.  0.
</event>
<event>
 5    0  0.5605075E-005  0.6672267E+03  0.7546771E-02  0.9774981E-01
         21   -1    0    0  502  501  0.00000000000E+00  0.00000000000E+00  0.48473380665E+03  0.48473380665E+03  0.00000000000E+00 0.  1.
         21   -1    0    0  501  502 -0.00000000000E+00 -0.00000000000E+00 -0.91842454579E+03  0.91842454579E+03  0.00000000000E+00 0.  1.
         25    1    1    2    0    0 -0.49338188363E+02 -0.11181122050E+03 -0.86454032722E+03  0.88203797155E+03  0.12500000000E+03 0.  0.
         25    1    1    2    0    0  0.59858846447E+02  0.61860004895E+02  0.28133232301E+03  0.31966015966E+03  0.12500000000E+03 0.  0.
         25    1    1    2    0    0 -0.10520658083E+02  0.49951215604E+02  0.14951726506E+03  0.20146022123E+03  0.12500000000E+03 0.  0.
</event>
<event>
 5    0  0.5605075E-005  0.2157261E+03  0.7546771E-02  0.1137110E+00
         21   -1    0    0  502  501  0.00000000000E+00  0.00000000000E+00  0.11674458152E+03  0.11674458152E+03  0.00000000000E+00 0.  1.
         21   -1    0    0  501  502 -0.00000000000E+00 -0.00000000000E+00 -0.39862877320E+03  0.39862877320E+03  0.00000000000E+00 0.  1.
         25    1    1    2    0    0  0.63822546042E+02  0.16495402070E+02 -0.26676562610E+02  0.14381256783E+03  0.12500000000E+03 0.  0.
         25    1    1    2    0    0 -0.23109353641E+01 -0.88493734823E+01 -0.15722563321E+03  0.20106852457E+03  0.12500000000E+03 0.  0.
         25    1    1    2    0    0 -0.61511610678E+02 -0.76460285876E+01 -0.97981995855E+02  0.17049226233E+03  0.12500000000E+03 0.  0.
</event>
<event>
 5    0  0.6301242E-005  0.2856432E+03  0.7546771E-02  0.1092646E+00
         21   -1    0    0  502  501  0.00000000000E+00  0.00000000000E+00  0.31455002573E+03  0.31455002573E+03  0.00000000000E+00 0. -1.
         21   -1    0    0  501  502 -0.00000000000E+00 -0.00000000000E+00 -0.25939293029E+03  0.25939293029E+03  0.00000000000E+00 0. -1.
         25    1    1    2    0    0  0.60658351651E+02  0.90389082435E+02  0.14678085966E+02  0.16640332946E+03  0.12500000000E+03 0.  0.
         25    1    1    2    0    0  0.96812402521E+02 -0.54834330049E+01  0.92392477443E+02  0.18320501960E+03  0.12500000000E+03 0.  0.
         25    1    1    2    0    0 -0.15747075417E+03 -0.84905649430E+02 -0.51913467970E+02  0.22433460696E+03  0.12500000000E+03 0.  0.
</event>
<event>
 5    0  0.5605075E-005  0.4832769E+03  0.7546771E-02  0.1018238E+00
         21   -1    0    0  502  501  0.00000000000E+00  0.00000000000E+00  0.17381714844E+04  0.17381714844E+04  0.00000000000E+00 0.  1.
         21   -1    0    0  501  502 -0.00000000000E+00 -0.00000000000E+00 -0.13436911409E+03  0.13436911409E+03  0.00000000000E+00 0.  1.
         25    1    1    2    0    0  0.15490479276E+01 -0.50691936829E+02  0.64008414776E+03  0.65414431758E+03  0.12500000000E+03 0.  0.
         25    1    1    2    0    0 -0.19910640844E+03 -0.32936075965E+02  0.93938724955E+03  0.96891772179E+03  0.12500000000E+03 0.  0.
         25    1    1    2    0    0  0.19755736051E+03  0.83628012794E+02  0.24330973001E+02  0.24947855913E+03  0.12500000000E+03 0.  0.
</event>
<event>
 5    0  0.5605075E-005  0.4893149E+03  0.7546771E-02  0.1016606E+00
         21   -1    0    0  502  501  0.00000000000E+00  0.00000000000E+00  0.10668968495E+04  0.10668968495E+04  0.00000000000E+00 0. -1.
         21   -1    0    0  501  502 -0.00000000000E+00 -0.00000000000E+00 -0.22441632871E+03  0.22441632871E+03  0.00000000000E+00 0. -1.
         25    1    1    2    0    0  0.21120127738E+03 -0.32821644285E+03  0.42837575569E+03  0.59284298173E+03  0.12500000000E+03 0.  0.
         25    1    1    2    0    0 -0.16082092525E+03  0.12954751968E+03  0.38803319199E+03  0.45699090576E+03  0.12500000000E+03 0.  0.
         25    1    1    2    0    0 -0.50380352132E+02  0.19866892317E+03  0.26071573093E+02  0.24147929070E+03  0.12500000000E+03 0.  0.
</event>
<event>
 5    0  0.5605075E-005  0.5801194E+03  0.7546771E-02  0.9947533E-01
         21   -1    0    0  502  501  0.00000000000E+00  0.00000000000E+00  0.50733160080E+03  0.50733160080E+03  0.00000000000E+00 0.  1.
         21   -1    0    0  501  502 -0.00000000000E+00 -0.00000000000E+00 -0.66335023887E+03  0.66335023887E+03  0.00000000000E+00 0.  1.
         25    1    1    2    0    0  0.43440681152E+03  0.12171905656E+02  0.10861200928E+03  0.46505806276E+03  0.12500000000E+03 0.  0.
         25    1    1    2    0    0 -0.28854686734E+03 -0.10319615149E+03 -0.34527022433E+03  0.47827321496E+03  0.12500000000E+03 0.  0.
         25    1    1    2    0    0 -0.14585994418E+03  0.91024245838E+02  0.80639576988E+02  0.22735056196E+03  0.12500000000E+03 0.  0.
</event>
<event>
 5    0  0.6071013E-005  0.3312546E+03  0.7546771E-02  0.1070583E+00
         21   -1    0    0  502  501  0.00000000000E+00  0.00000000000E+00  0.10228634657E+03  0.10228634657E+03  0.00000000000E+00 0. -1.
         21   -1    0    0  501  502 -0.00000000000E+00 -0.00000000000E+00 -0.10727691353E+04  0.10727691353E+04  0.00000000000E+00 0. -1.
         25    1    1    2    0    0  0.13623367657E+03  0.15039462860E+01 -0.45943682587E+03  0.49524647748E+03  0.12500000000E+03 0.  0.
         25    1    1    2    0    0 -0.14449171096E+03 -0.15045945839E+03 -0.20991730648E+03  0.32125718469E+03  0.12500000000E+03 0.  0.
         25    1    1    2    0    0  0.82580343936E+01  0.14895551210E+03 -0.30112865642E+03  0.35855181974E+03  0.12500000000E+03 0.  0.
</event>
<event>
 5    0  0.5605075E-005  0.2177786E+03  0.7546771E-02  0.1135550E+00
         21   -1    0    0  502  501  0.00000000000E+00  0.00000000000E+00  0.18318745848E+03  0.18318745848E+03  0.00000000000E+00 0. -1.
         21   -1    0    0  501  502 -0.00000000000E+00 -0.00000000000E+00 -0.25890159369E+03  0.25890159369E+03  0.00000000000E+00 0. -1.
         25    1    1    2    0    0  0.24603569617E+02 -0.45207332523E+02  0.85730750881E+01  0.13545307737E+03  0.12500000000E+03 0.  0.
         25    1    1    2    0    0 -0.49527842716E+02  0.64128247605E+02 -0.96045462035E+02  0.17724325128E+03  0.12500000000E+03 0.  0.
         25    1    1    2    0    0  0.24924273099E+02 -0.18920915082E+02  0.11758251736E+02  0.12939272352E+03  0.12500000000E+03 0.  0.
</event>
<event>
 5    0  0.5605075E-005  0.2421671E+03  0.7546771E-02  0.1118358E+00
         21   -1    0    0  502  501  0.00000000000E+00  0.00000000000E+00  0.33410256033E+03  0.33410256033E+03  0.00000000000E+00 0.  1.
         21   -1    0    0  501  502 -0.00000000000E+00 -0.00000000000E+00 -0.17552965285E+03  0.17552965285E+03  0.00000000000E+00 0.  1.
         25    1    1    2    0    0 -0.41199631774E+02 -0.94981826781E+02  0.12774819305E+03  0.20655158655E+03  0.12500000000E+03 0.  0.
         25    1    1    2    0    0  0.22283753749E+02 -0.22447811307E+02  0.14997610256E+02  0.12980908376E+03  0.12500000000E+03 0.  0.
         25    1    1    2    0    0  0.18915878025E+02  0.11742963809E+03  0.15827104163E+02  0.17327154287E+03  0.12500000000E+03 0.  0.
</event>
<event>
 5    0  0.5727708E-005  0.2783791E+03  0.7546771E-02  0.1096578E+00
         21   -1    0    0  502  501  0.00000000000E+00  0.00000000000E+00  0.98811073790E+02  0.98811073790E+02  0.00000000000E+00 0. -1.
         21   -1    0    0  501  502 -0.00000000000E+00 -0.00000000000E+00 -0.78427381892E+03  0.78427381892E+03  0.00000000000E+00 0. -1.
         25    1    1    2    0    0 -0.20590366969E+02  0.60017784428E+02 -0.64364604461E+01  0.14033005980E+03  0.12500000000E+03 0.  0.
         25    1    1    2    0    0  0.74450850752E+02  0.11201435997E+02 -0.36755154029E+03  0.39545864021E+03  0.12500000000E+03 0.  0.
         25    1    1    2    0    0 -0.53860483783E+02 -0.71219220425E+02 -0.31147474439E+03  0.34729619270E+03  0.12500000000E+03 0.  0.
</event>
<event>
 5    0  0.5605075E-005  0.2842143E+03  0.7546771E-02  0.1093409E+00
         21   -1    0    0  502  501  0.00000000000E+00  0.00000000000E+00  0.23437193394E+03  0.23437193394E+03  0.00000000000E+00 0.  1.
         21   -1    0    0  501  502 -0.00000000000E+00 -0.00000000000E+00 -0.34465630602E+03  0.34465630602E+03  0.00000000000E+00 0.  1.
         25    1    1    2    0    0 -0.74406409402E+02 -0.11050304874E+03  0.40345209530E+02  0.18708279844E+03  0.12500000000E+03 0.  0.
         25    1    1    2    0    0 -0.51878684320E+02  0.99641998381E+01 -0.12798117818E+03  0.18653381767E+03  0.12500000000E+03 0.  0.
         25    1    1    2    0    0  0.12628509372E+03  0.10053884890E+03 -0.22648403437E+02  0.20541162385E+03  0.12500000000E+03 0.  0.
</event>
<event>
 5    0  0.6214912E-005  0.3171718E+03  0.7546771E-02  0.1076958E+00
         21   -1    0    0  502  501  0.00000000000E+00  0.00000000000E+00  0.72675429406E+03  0.72675429406E+03  0.00000000000E+00 0. -1.
         21   -1    0    0  501  502 -0.00000000000E+00 -0.00000000000E+00 -0.13842083746E+03  0.13842083746E+03  0.00000000000E+00 0. -1.
         25    1    1    2    0    0  0.11058559127E+03  0.12154980207E+03  0.85093169721E+02  0.22331452015E+03  0.12500000000E+03 0.  0.
         25    1    1    2    0    0 -0.55339249950E+02  0.24551424920E+02  0.38543430268E+03  0.40969477264E+03  0.12500000000E+03 0.  0.
         25    1    1    2    0    0 -0.55246341319E+02 -0.14610122699E+03  0.11780598420E+03  0.23216583872E+03  0.12500000000E+03 0.  0.
</event>
<event>
 5    0  0.5605075E-005  0.2697043E+03  0.7546771E-02  0.1101449E+00
         21   -1    0    0  502  501  0.00000000000E+00  0.00000000000E+00  0.62672066986E+02  0.62672066986E+02  0.00000000000E+00 0.  1.
         21   -1    0    0  501  502 -0.00000000000E+00 -0.00000000000E+00 -0.11606509096E+04  0.11606509096E+04  0.00000000000E+00 0.  1.
         25    1    1    2    0    0  0.66860839645E+02  0.14382001372E+02 -0.55662761726E+03  0.57457507615E+03  0.12500000000E+03 0.  0.
         25    1    1    2    0    0 -0.78957763207E+02 -0.10640544022E+03 -0.18381699766E+03  0.25878588583E+03  0.12500000000E+03 0.  0.
         25    1    1    2    0    0  0.12096923561E+02  0.92023438849E+02 -0.35753422773E+03  0.38996201463E+03  0.12500000000E+03 0.  0.
</event>
<event>
 5    0  0.5605075E-005  0.2273376E+03  0.7546771E-02  0.1128528E+00
         21   -1    0    0  502  501  0.00000000000E+00  0.00000000000E+00  0.78531877869E+03  0.78531877869E+03  0.00000000000E+00 0.  1.
         21   -1    0    0  501  502 -0.00000000000E+00 -0.00000000000E+00 -0.65810707077E+02  0.65810707077E+02  0.00000000000E+00 0.  1.
         25    1    1    2    0    0  0.57222444380E+01  0.86557418418E+02  0.30185624761E+03  0.33803420683E+03  0.12500000000E+03 0.  0.
         25    1    1    2    0    0  0.51530950691E+02  0.88850328257E-02  0.17694879070E+03  0.22269107186E+03  0.12500000000E+03 0.  0.
         25    1    1    2    0    0 -0.57253195129E+02 -0.86566303450E+02  0.24070303330E+03  0.29040420708E+03  0.12500000000E+03 0.  0.
</event>
<event>
 5    0  0.5605075E-005  0.3139376E+03  0.7546771E-02  0.1078474E+00
         21   -1    0    0  502  501  0.00000000000E+00  0.00000000000E+00  0.17338230917E+03  0.17338230917E+03  0.00000000000E+00 0. -1.
         21   -1    0    0  501  502 -0.00000000000E+00 -0.00000000000E+00 -0.56843650021E+03  0.56843650021E+03  0.00000000000E+00 0. -1.
         25    1    1    2    0    0 -0.16449853165E+03 -0.15327879855E+03 -0.73317542668E+02  0.26749695150E+03  0.12500000000E+03 0.  0.
         25    1    1    2    0    0  0.97604081106E+02  0.31903772363E+02 -0.14322793729E+03  0.21606399367E+03  0.12500000000E+03 0.  0.
         25    1    1    2    0    0  0.66894450545E+02  0.12137502619E+03 -0.17850871107E+03  0.25825786421E+03  0.12500000000E+03 0.  0.
</event>
<event>
 5    0  0.5605075E-005  0.2403308E+03  0.7546771E-02  0.1119573E+00
         21   -1    0    0  502  501  0.00000000000E+00  0.00000000000E+00  0.61387242398E+03  0.61387242398E+03  0.00000000000E+00 0. -1.
         21   -1    0    0  501  502 -0.00000000000E+00 -0.00000000000E+00 -0.94089374583E+02  0.94089374583E+02  0.00000000000E+00 0. -1.
         25    1    1    2    0    0 -0.30453957940E+02  0.36596308812E+02  0.22354630662E+03  0.26050851152E+03  0.12500000000E+03 0.  0.
         25    1    1    2    0    0  0.12056840270E+03 -0.27720869944E+02  0.11858732285E+03  0.21211586339E+03  0.12500000000E+03 0.  0.
         25    1    1    2    0    0 -0.90114444763E+02 -0.88754388675E+01  0.17764941993E+03  0.23533742365E+03  0.12500000000E+03 0.  0.
</event>
<event>
 5    0  0.5605075E-005  0.7141498E+03  0.7546771E-02  0.9693336E-01
         21   -1    0    0  502  501  0.00000000000E+00  0.00000000000E+00  0.73781504360E+03  0.73781504360E+03  0.00000000000E+00 0. -1.
         21   -1    0    0  501  502 -0.00000000000E+00 -0.00000000000E+00 -0.69124361823E+03  0.69124361823E+03  0.00000000000E+00 0. -1.
         25    1    1    2    0    0 -0.20523961238E+02 -0.47725169809E+03  0.20546983421E+03  0.53482078221E+03  0.12500000000E+03 0.  0.
         25    1    1    2    0    0 -0.12026417103E+03 -0.12719300888E+03 -0.14793042878E+03  0.26105544258E+03  0.12500000000E+03 0.  0.
         25    1    1    2    0    0  0.14078813227E+03  0.60444470697E+03 -0.10967980063E+02  0.63318243703E+03  0.12500000000E+03 0.  0.
</event>
<event>
 5    0  0.5605075E-005  0.2547146E+03  0.7546771E-02  0.1110361E+00
         21   -1    0    0  502  501  0.00000000000E+00  0.00000000000E+00  0.21266181357E+04  0.21266181357E+04  0.00000000000E+00 0. -1.
         21   -1    0    0  501  502 -0.00000000000E+00 -0.00000000000E+00 -0.30508308305E+02  0.30508308305E+02  0.00000000000E+00 0. -1.
         25    1    1    2    0    0  0.16597110388E+02 -0.12517984033E+03  0.99558689049E+03  0.10113178101E+04  0.12500000000E+03 0.  0.
         25    1    1    2    0    0 -0.66056888704E+02  0.43528506483E+02  0.70104499369E+03  0.71648260732E+03  0.12500000000E+03 0.  0.
         25    1    1    2    0    0  0.49459778315E+02  0.81651333848E+02  0.39947794324E+03  0.42932602661E+03  0.12500000000E+03 0.  0.
</event>
<event>
 5    0  0.6124362E-005  0.3372459E+03  0.7546771E-02  0.1067975E+00
         21   -1    0    0  502  501  0.00000000000E+00  0.00000000000E+00  0.27926494008E+03  0.27926494008E+03  0.00000000000E+00 0.  1.
         21   -1    0    0  501  502 -0.00000000000E+00 -0.00000000000E+00 -0.40726493263E+03  0.40726493263E+03  0.00000000000E+00 0.  1.
         25    1    1    2    0    0  0.12857154520E+02 -0.50698131426E+02  0.17504087157E+03  0.22135924122E+03  0.12500000000E+03 0.  0.
         25    1    1    2    0    0 -0.45130261649E+01  0.13258831710E+03 -0.86046551898E+02  0.20156646133E+03  0.12500000000E+03 0.  0.
         25    1    1    2    0    0 -0.83441283551E+01 -0.81890185679E+02 -0.21699431223E+03  0.26360417016E+03  0.12500000000E+03 0.  0.
</event>
<event>
 5    0  0.5605075E-005  0.2378930E+03  0.7546771E-02  0.1121204E+00
         21   -1    0    0  502  501  0.00000000000E+00  0.00000000000E+00  0.16495175315E+03  0.16495175315E+03  0.00000000000E+00 0.  1.
         21   -1    0    0  501  502 -0.00000000000E+00 -0.00000000000E+00 -0.34308871655E+03  0.34308871655E+03  0.00000000000E+00 0.  1.
         25    1    1    2    0    0 -0.60229721075E+02 -0.10792394646E+03 -0.21350179038E+02  0.17707633288E+03  0.12500000000E+03 0.  0.
         25    1    1    2    0    0  0.31543595231E+02  0.69879724252E+02 -0.36617795123E+02  0.15114244004E+03  0.12500000000E+03 0.  0.
         25    1    1    2    0    0  0.28686125844E+02  0.38044222212E+02 -0.12016898924E+03  0.17982169678E+03  0.12500000000E+03 0.  0.
</event>
<event>
 5    0  0.5605075E-005  0.2896441E+03  0.7546771E-02  0.1090535E+00
         21   -1    0    0  502  501  0.00000000000E+00  0.00000000000E+00  0.11901631804E+04  0.11901631804E+04  0.00000000000E+00 0. -1.
         21   -1    0    0  501  502 -0.00000000000E+00 -0.00000000000E+00 -0.70489239162E+02  0.70489239162E+02  0.00000000000E+00 0. -1.
         25    1    1    2    0    0 -0.11033150825E+03  0.15273269687E+03  0.30822570579E+03  0.38226745103E+03  0.12500000000E+03 0.  0.
         25    1    1    2    0    0  0.11073393641E+03 -0.72727543008E+02  0.52628780597E+03  0.55691575206E+03  0.12500000000E+03 0.  0.
         25    1    1    2    0    0 -0.40242815252E+00 -0.80005153866E+02  0.28516042944E+03  0.32146921643E+03  0.12500000000E+03 0.  0.
</event>
<event>
 5    0  0.5605075E-005  0.3768989E+03  0.7546771E-02  0.1052086E+00
         21   -1    0    0  502  501  0.00000000000E+00  0.00000000000E+00  0.92106570983E+03  0.92106570983E+03  0.00000000000E+00 0.  1.
         21   -1    0    0  501  502 -0.00000000000E+00 -0.00000000000E+00 -0.15422656514E+03  0.15422656514E+03  0.00000000000E+00 0.  1.
         25    1    1    2    0    0  0.41808818653E+02 -0.56929475843E+02 -0.38051078837E+02  0.14853224275E+03  0.12500000000E+03 0.  0.
         25    1    1    2    0    0 -0.14283981020E+03  0.11755023885E+03  0.20620559991E+03  0.30391942923E+03  0.12500000000E+03 0.  0.
         25    1    1    2    0    0  0.10103099155E+03 -0.60620763010E+02  0.59868462362E+03  0.62284060298E+03  0.12500000000E+03 0.  0.
</event>
<event>
 5    0  0.5605075E-005  0.2940868E+03  0.7546771E-02  0.1088234E+00
         21   -1    0    0  502  501  0.00000000000E+00  0.00000000000E+00  0.22081024711E+03  0.22081024711E+03  0.00000000000E+00 0.  1.
         21   -1    0    0  501  502 -0.00000000000E+00 -0.00000000000E+00 -0.39168039805E+03  0.39168039805E+03  0.00000000000E+00 0.  1.
         25    1    1    2    0    0 -0.13754086198E+03 -0.51621819662E+02  0.96061940321E+02  0.21548827661E+03  0.12500000000E+03 0.  0.
         25    1    1    2    0    0  0.60270379826E+02  0.27490480474E+01 -0.13348914468E+03  0.19257317492E+03  0.12500000000E+03 0.  0.
         25    1    1    2    0    0  0.77270482156E+02  0.48872771615E+02 -0.13344294658E+03  0.20442919363E+03  0.12500000000E+03 0.  0.
</event>
<event>
 5    0  0.5605075E-005  0.3919457E+03  0.7546771E-02  0.1046605E+00
         21   -1    0    0  502  501  0.00000000000E+00  0.00000000000E+00  0.42616279957E+03  0.42616279957E+03  0.00000000000E+00 0. -1.
         21   -1    0    0  501  502 -0.00000000000E+00 -0.00000000000E+00 -0.36047587483E+03  0.36047587483E+03  0.00000000000E+00 0. -1.
         25    1    1    2    0    0  0.17028947800E+03 -0.13919100234E+03  0.13778098826E+03  0.28806464930E+03  0.12500000000E+03 0.  0.
         25    1    1    2    0    0  0.97901430360E+02  0.81913399503E+02 -0.82987818369E+02  0.19699358640E+03  0.12500000000E+03 0.  0.
         25    1    1    2    0    0 -0.26819090836E+03  0.57277602841E+02  0.10893754857E+02  0.30158043870E+03  0.12500000000E+03 0.  0.
</event>
<event>
 5    0  0.5605075E-005  0.2726524E+03  0.7546771E-02  0.1099771E+00
         21   -1    0    0  502  501  0.00000000000E+00  0.00000000000E+00  0.12488722185E+03  0.12488722185E+03  0.00000000000E+00 0.  1.
         21   -1    0    0  501  502 -0.00000000000E+00 -0.00000000000E+00 -0.59525149534E+03  0.59525149534E+03  0.00000000000E+00 0.  1.
         25    1    1    2    0    0 -0.11357342944E+03  0.83153886565E+02 -0.29859732564E+03  0.35298563088E+03  0.12500000000E+03 0.  0.
         25    1    1    2    0    0  0.19418307842E+02  0.40149984827E+01 -0.12011991221E+02  0.12713173807E+03  0.12500000000E+03 0.  0.
         25    1    1    2    0    0  0.94155121598E+02 -0.87168885048E+02 -0.15975495663E+03  0.24002134824E+03  0.12500000000E+03 0.  0.
</event>
<event>
 5    0  0.5605075E-005  0.3859277E+03  0.7546771E-02  0.1048764E+00
         21   -1    0    0  502  501  0.00000000000E+00  0.00000000000E+00  0.69253527681E+03  0.69253527681E+03  0.00000000000E+00 0.  1.
         21   -1    0    0  501  502 -0.00000000000E+00 -0.00000000000E+00 -0.21506512703E+03  0.21506512703E+03  0.00000000000E+00 0.  1.
         25    1    1    2    0    0 -0.22388080701E+03 -0.27858912283E+02  0.90429090411E+02  0.27331512058E+03  0.12500000000E+03 0.  0.
         25    1    1    2    0    0 -0.43699128465E+02 -0.10582772769E+03  0.78731963300E+02  0.18690330072E+03  0.12500000000E+03 0.  0.
         25    1    1    2    0    0  0.26757993548E+03  0.13368663997E+03  0.30830909607E+03  0.44738198254E+03  0.12500000000E+03 0.  0.
</event>
<event>
 5    0  0.5605075E-005  0.3459403E+03  0.7546771E-02  0.1064294E+00
         21   -1    0    0  502  501  0.00000000000E+00  0.00000000000E+00  0.10059044199E+04  0.10059044199E+04  0.00000000000E+00 0.  1.
         21   -1    0    0  501  502 -0.00000000000E+00 -0.00000000000E+00 -0.11897220405E+03  0.11897220405E+03  0.00000000000E+00 0.  1.
         25    1    1    2    0    0 -0.10675151422E+03  0.38647385769E+02  0.46520585404E+03  0.49490503417E+03  0.12500000000E+03 0.  0.
         25    1    1    2    0    0  0.23292296432E+03  0.10198354615E+02  0.15750456852E+03  0.30787952652E+03  0.12500000000E+03 0.  0.
         25    1    1    2    0    0 -0.12617145010E+03 -0.48845740384E+02  0.26422179334E+03  0.32209206331E+03  0.12500000000E+03 0.  0.
</event>
<event>
 5    0  0.5605075E-005  0.2266742E+03  0.7546771E-02  0.1129003E+00
         21   -1    0    0  502  501  0.00000000000E+00  0.00000000000E+00  0.35769107739E+03  0.35769107739E+03  0.00000000000E+00 0. -1.
         21   -1    0    0  501  502 -0.00000000000E+00 -0.00000000000E+00 -0.14364685651E+03  0.14364685651E+03  0.00000000000E+00 0. -1.
         25    1    1    2    0    0  0.57959361167E+02  0.36999027053E+02  0.37171351061E+02  0.14742769377E+03  0.12500000000E+03 0.  0.
         25    1    1    2    0    0 -0.24743604852E+02  0.16283120354E+02  0.17103550647E+03  0.21390542411E+03  0.12500000000E+03 0.  0.
         25    1    1    2    0    0 -0.33215756314E+02 -0.53282147407E+02  0.58373633468E+01  0.14000481603E+03  0.12500000000E+03 0.  0.
</event>
<event>
 5    0  0.6490901E-005  0.2966748E+03  0.7546771E-02  0.1086915E+00
         21   -1    0    0  502  501  0.00000000000E+00  0.00000000000E+00  0.32687875980E+03  0.32687875980E+03  0.00000000000E+00 0.  1.
         21   -1    0    0  501  502 -0.00000000000E+00 -0.00000000000E+00 -0.26926171285E+03  0.26926171285E+03  0.00000000000E+00 0.  1.
         25    1    1    2    0    0  0.37389816423E+02  0.13908270486E+03 -0.62172239109E+02  0.20058011985E+03  0.12500000000E+03 0.  0.
         25    1    1    2    0    0 -0.71088085652E+01 -0.64407620823E+02  0.18557160439E+03  0.23293925632E+03  0.12500000000E+03 0.  0.
         25    1    1    2    0    0 -0.30281007858E+02 -0.74675084034E+02 -0.65782318332E+02  0.16262109647E+03  0.12500000000E+03 0.  0.
</event>
<event>
 5    0  0.5605075E-005  0.3066171E+03  0.7546771E-02  0.1081979E+00
         21   -1    0    0  502  501  0.00000000000E+00  0.00000000000E+00  0.23251218220E+03  0.23251218220E+03  0.00000000000E+00 0.  1.
         21   -1    0    0  501  502 -0.00000000000E+00 -0.00000000000E+00 -0.40434035014E+03  0.40434035014E+03  0.00000000000E+00 0.  1.
         25    1    1    2    0    0  0.15781258831E+03 -0.23897140947E+01 -0.19766051353E+03  0.28214393910E+03  0.12500000000E+03 0.  0.
         25    1    1    2    0    0 -0.11371267523E+02  0.63965121427E+02 -0.31983831727E+02  0.14446040280E+03  0.12500000000E+03 0.  0.
         25    1    1    2    0    0 -0.14644132079E+03 -0.61575407332E+02  0.57816177317E+02  0.21024819044E+03  0.12500000000E+03 0.  0.
</event>
<event>
 5    0  0.5605075E-005  0.2630565E+03  0.7546771E-02  0.1105321E+00
         21   -1    0    0  502  501  0.00000000000E+00  0.00000000000E+00  0.27784412537E+03  0.27784412537E+03  0.00000000000E+00 0. -1.
         21   -1    0    0  501  502 -0.00000000000E+00 -0.00000000000E+00 -0.24905596347E+03  0.24905596347E+03  0.00000000000E+00 0. -1.
         25    1    1    2    0    0 -0.28862816071E+02  0.13606807442E+03 -0.37316156284E+02  0.19069629925E+03  0.12500000000E+03 0.  0.
         25    1    1    2    0    0 -0.64982628613E+02 -0.46167415641E+02  0.16374577817E+02  0.14915528515E+03  0.12500000000E+03 0.  0.
         25    1    1    2    0    0  0.93845444685E+02 -0.89900658778E+02  0.49729740376E+02  0.18704850444E+03  0.12500000000E+03 0.  0.
</event>
<event>
 5    0  0.5605075E-005  0.3285727E+03  0.7546771E-02  0.1071770E+00
         21   -1    0    0  502  501  0.00000000000E+00  0.00000000000E+00  0.12763532210E+03  0.12763532210E+03  0.00000000000E+00 0.  1.
         21   -1    0    0  501  502 -0.00000000000E+00 -0.00000000000E+00 -0.84584728573E+03  0.84584728573E+03  0.00000000000E+00 0.  1.
         25    1    1    2    0    0  0.64822198949E+02  0.29957881651E+01 -0.28368411470E+03  0.31672159566E+03  0.12500000000E+03 0.  0.
         25    1    1    2    0    0 -0.10664291098E+03 -0.35286423140E+01 -0.48768637646E+03  0.51463400933E+03  0.12500000000E+03 0.  0.
         25    1    1    2    0    0  0.41820712030E+02  0.53285414890E+00  0.53158527532E+02  0.14212700284E+03  0.12500000000E+03 0.  0.
</event>
<event>
 5    0  0.5605075E-005  0.3034144E+03  0.7546771E-02  0.1083546E+00
         21   -1    0    0  502  501  0.00000000000E+00  0.00000000000E+00  0.12014279562E+03  0.12014279562E+03  0.00000000000E+00 0. -1.
         21   -1    0    0  501  502 -0.00000000000E+00 -0.00000000000E+00 -0.76625739546E+03  0.76625739546E+03  0.00000000000E+00 0. -1.
         25    1    1    2    0    0 -0.13656282353E+03  0.14188069983E+02 -0.47998833740E+03  0.51464989084E+03  0.12500000000E+03 0.  0.
         25    1    1    2    0    0  0.78538127659E+01  0.59056700610E+02 -0.61455085917E+02  0.15149621727E+03  0.12500000000E+03 0.  0.
         25    1    1    2    0    0  0.12870901076E+03 -0.73244770593E+02 -0.10467117653E+03  0.22025408297E+03  0.12500000000E+03 0.  0.
</event>
<event>
 5    0  0.5605075E-005  0.2438367E+03  0.7546771E-02  0.1117263E+00
         21   -1    0    0  502  501  0.00000000000E+00  0.00000000000E+00  0.72482568875E+03  0.72482568875E+03  0.00000000000E+00 0. -1.
         21   -1    0    0  501  502 -0.00000000000E+00 -0.00000000000E+00 -0.82028493030E+02  0.82028493030E+02  0.00000000000E+00 0. -1.
         25    1    1    2    0    0  0.78832086993E+02  0.24820023482E+02  0.13061667772E+03  0.19878694123E+03  0.12500000000E+03 0.  0.
         25    1    1    2    0    0 -0.98127714358E+02 -0.91696604106E+02  0.26175232368E+03  0.31965073827E+03  0.12500000000E+03 0.  0.
         25    1    1    2    0    0  0.19295627365E+02  0.66876580625E+02  0.25042819433E+03  0.28841650228E+03  0.12500000000E+03 0.  0.
</event>
<event>
 5    0  0.5605075E-005  0.6069701E+03  0.7546771E-02  0.9891050E-01
         21   -1    0    0  502  501  0.00000000000E+00  0.00000000000E+00  0.10572874727E+04  0.10572874727E+04  0.00000000000E+00 0. -1.
         21   -1    0    0  501  502 -0.00000000000E+00 -0.00000000000E+00 -0.34845089120E+03  0.34845089120E+03  0.00000000000E+00 0. -1.
         25    1    1    2    0    0  0.30377740234E+03  0.24576501685E+03  0.60116482227E+03  0.72780855808E+03  0.12500000000E+03 0.  0.
         25    1    1    2    0    0 -0.24714401202E+03  0.41528736522E+02  0.20264473813E+03  0.34568003779E+03  0.12500000000E+03 0.  0.
         25    1    1    2    0    0 -0.56633390319E+02 -0.28729375337E+03 -0.94972978914E+02  0.33224976802E+03  0.12500000000E+03 0.  0.
</event>
<event>
 5    0  0.5605075E-005  0.6186923E+03  0.7546771E-02  0.9867367E-01
         21   -1    0    0  502  501  0.00000000000E+00  0.00000000000E+00  0.19719506734E+03  0.19719506734E+03  0.00000000000E+00 0.  1.
         21   -1    0    0  501  502 -0.00000000000E+00 -0.00000000000E+00 -0.19411246387E+04  0.19411246387E+04  0.00000000000E+00 0.  1.
         25    1    1    2    0    0 -0.23518665318E+02  0.24916290872E+03 -0.10007910271E+04  0.10391549271E+04  0.12500000000E+03 0.  0.
         25    1    1    2    0    0 -0.39498008581E+02 -0.30713043753E+03  0.68671446075E+01  0.33400801789E+03  0.12500000000E+03 0.  0.
         25    1    1    2    0    0  0.63016673899E+02  0.57967528805E+02 -0.75000568894E+03  0.76515676108E+03  0.12500000000E+03 0.  0.
</event>
<event>
 5    0  0.5605075E-005  0.2395073E+03  0.7546771E-02  0.1120121E+00
         21   -1    0    0  502  501  0.00000000000E+00  0.00000000000E+00  0.29835457752E+02  0.29835457752E+02  0.00000000000E+00 0.  1.
         21   -1    0    0  501  502 -0.00000000000E+00 -0.00000000000E+00 -0.19226707838E+04  0.19226707838E+04  0.00000000000E+00 0.  1.
         25    1    1    2    0    0  0.84793250352E+01  0.22947163269E+02 -0.84765420886E+03  0.85717042008E+03  0.12500000000E+03 0.  0.
         25    1    1    2    0    0 -0.98101165249E+02 -0.16060777529E+02 -0.37310428919E+03  0.40584923039E+03  0.12500000000E+03 0.  0.
         25    1    1    2    0    0  0.89621840214E+02 -0.68863857405E+01 -0.67207682797E+03  0.68948659105E+03  0.12500000000E+03 0.  0.
</event>
<event>
 5    0  0.5605075E-005  0.2945030E+03  0.7546771E-02  0.1088021E+00
         21   -1    0    0  502  501  0.00000000000E+00  0.00000000000E+00  0.10300446762E+04  0.10300446762E+04  0.00000000000E+00 0. -1.
         21   -1    0    0  501  502 -0.00000000000E+00 -0.00000000000E+00 -0.84202212084E+02  0.84202212084E+02  0.00000000000E+00 0. -1.
         25    1    1    2    0    0  0.17473472572E+03  0.21895524775E+00  0.53068765576E+03  0.57252655859E+03  0.12500000000E+03 0.  0.
         25    1    1    2    0    0 -0.14202871592E+03 -0.32206403351E+02  0.14495377249E+03  0.24051196379E+03  0.12500000000E+03 0.  0.
         25    1    1    2    0    0 -0.32706009793E+02  0.31987448103E+02  0.27020103585E+03  0.30120836590E+03  0.12500000000E+03 0.  0.
</event>
<event>
 5    0  0.5605075E-005  0.2098982E+03  0.7546771E-02  0.1141647E+00
         21   -1    0    0  502  501  0.00000000000E+00  0.00000000000E+00  0.69917346162E+02  0.69917346162E+02  0.00000000000E+00 0. -1.
         21   -1    0    0  501  502 -0.00000000000E+00 -0.00000000000E+00 -0.63013329970E+03  0.63013329970E+03  0.00000000000E+00 0. -1.
         25    1    1    2    0    0 -0.29192763407E+02  0.18201370885E+02 -0.12744666824E+03  0.18179978158E+03  0.12500000000E+03 0.  0.
         25    1    1    2    0    0 -0.15279252074E+02 -0.41427009098E+02 -0.12460742356E+03  0.18193862326E+03  0.12500000000E+03 0.  0.
         25    1    1    2    0    0  0.44472015482E+02  0.23225638213E+02 -0.30816186174E+03  0.33631224102E+03  0.12500000000E+03 0.  0.
</event>
<event>
 5    0  0.5605075E-005  0.3378580E+03  0.7546771E-02  0.1067712E+00
         21   -1    0    0  502  501  0.00000000000E+00  0.00000000000E+00  0.42702031644E+03  0.42702031644E+03  0.00000000000E+00 0.  1.
         21   -1    0    0  501  502 -0.00000000000E+00 -0.00000000000E+00 -0.26731284599E+03  0.26731284599E+03  0.00000000000E+00 0.  1.
         25    1    1    2    0    0 -0.38509790209E+02  0.64766829292E+02 -0.93201664393E+02  0.17317417927E+03  0.12500000000E+03 0.  0.
         25    1    1    2    0    0  0.18374337192E+03 -0.55762910940E+01  0.35054960891E+02  0.22504793274E+03  0.12500000000E+03 0.  0.
         25    1    1    2    0    0 -0.14523358172E+03 -0.59190538198E+02  0.21785417395E+03  0.29611105042E+03  0.12500000000E+03 0.  0.
</event>
<event>
 5    0  0.5605075E-005  0.4874015E+03  0.7546771E-02  0.1017121E+00
         21   -1    0    0  502  501  0.00000000000E+00  0.00000000000E+00  0.11594978826E+03  0.11594978826E+03  0.00000000000E+00 0. -1.
         21   -1    0    0  501  502 -0.00000000000E+00 -0.00000000000E+00 -0.20488201642E+04  0.20488201642E+04  0.00000000000E+00 0. -1.
         25    1    1    2    0    0  0.13691056933E+03  0.17437222800E+03 -0.11217269561E+04  0.11502376024E+04  0.12500000000E+03 0.  0.
         25    1    1    2    0    0 -0.15764559333E+03 -0.31869333965E+03 -0.69355525339E+03  0.78934242717E+03  0.12500000000E+03 0.  0.
         25    1    1    2    0    0  0.20735023995E+02  0.14432111165E+03 -0.11758816644E+03  0.22518992290E+03  0.12500000000E+03 0.  0.
</event>
<event>
 5    0  0.5605075E-005  0.5655669E+03  0.7546771E-02  0.9979537E-01
         21   -1    0    0  502  501  0.00000000000E+00  0.00000000000E+00  0.26042061239E+03  0.26042061239E+03  0.00000000000E+00 0. -1.
         21   -1    0    0  501  502 -0.00000000000E+00 -0.00000000000E+00 -0.12282665391E+04  0.12282665391E+04  0.00000000000E+00 0. -1.
         25    1    1    2    0    0  0.20505184439E+03  0.19458363794E+03  0.12529677762E+02  0.30933969009E+03  0.12500000000E+03 0.  0.
         25    1    1    2    0    0 -0.33701373937E+03  0.19001435226E+01 -0.38581301552E+03  0.52731257714E+03  0.12500000000E+03 0.  0.
         25    1    1    2    0    0  0.13196189498E+03 -0.19648378146E+03 -0.59456258896E+03  0.65203488427E+03  0.12500000000E+03 0.  0.
</event>
<event>
 5    0  0.5605075E-005  0.3399570E+03  0.7546771E-02  0.1066814E+00
         21   -1    0    0  502  501  0.00000000000E+00  0.00000000000E+00  0.51052072176E+03  0.51052072176E+03  0.00000000000E+00 0. -1.
         21   -1    0    0  501  502 -0.00000000000E+00 -0.00000000000E+00 -0.22637817546E+03  0.22637817546E+03  0.00000000000E+00 0. -1.
         25    1    1    2    0    0 -0.33280716622E+02 -0.56093576754E+02 -0.11268971320E+03  0.18049395257E+03  0.12500000000E+03 0.  0.
         25    1    1    2    0    0 -0.12225737276E+03 -0.19620445652E+02  0.16347015638E+03  0.24016519129E+03  0.12500000000E+03 0.  0.
         25    1    1    2    0    0  0.15553808938E+03  0.75714022406E+02  0.23336210312E+03  0.31623975337E+03  0.12500000000E+03 0.  0.
</event>
<event>
 5    0  0.5605075E-005  0.2899403E+03  0.7546771E-02  0.1090380E+00
         21   -1    0    0  502  501  0.00000000000E+00  0.00000000000E+00  0.28525804697E+03  0.28525804697E+03  0.00000000000E+00 0.  1.
         21   -1    0    0  501  502 -0.00000000000E+00 -0.00000000000E+00 -0.29469934688E+03  0.29469934688E+03  0.00000000000E+00 0.  1.
         25    1    1    2    0    0  0.65347835448E+01 -0.11829749182E+03  0.11131333189E+03  0.20506744701E+03  0.12500000000E+03 0.  0.
         25    1    1    2    0    0 -0.19123898555E+02 -0.49349460410E+02 -0.90680463333E+02  0.16324533429E+03  0.12500000000E+03 0.  0.
         25    1    1    2    0    0  0.12589115010E+02  0.16764695223E+03 -0.30074168462E+02  0.21164461254E+03  0.12500000000E+03 0.  0.
</event>
<event>
 5    0  0.5605075E-005  0.2667657E+03  0.7546771E-02  0.1103145E+00
         21   -1    0    0  502  501  0.00000000000E+00  0.00000000000E+00  0.67576726676E+03  0.67576726676E+03  0.00000000000E+00 0. -1.
         21   -1    0    0  501  502 -0.00000000000E+00 -0.00000000000E+00 -0.10530832417E+03  0.10530832417E+03  0.00000000000E+00 0. -1.
         25    1    1    2    0    0  0.89751307182E+02 -0.11310357426E+03  0.16099491312E+03  0.24978406214E+03  0.12500000000E+03 0.  0.
         25    1    1    2    0    0 -0.12486005521E+03  0.95729698365E+02  0.19513502274E+03  0.28010156308E+03  0.12500000000E+03 0.  0.
         25    1    1    2    0    0  0.35108748031E+02  0.17373875891E+02  0.21432900672E+03  0.25118996571E+03  0.12500000000E+03 0.  0.
</event>
<event>
 5    0  0.5605075E-005  0.2902086E+03  0.7546771E-02  0.1090240E+00
         21   -1    0    0  502  501  0.00000000000E+00  0.00000000000E+00  0.66784119297E+03  0.66784119297E+03  0.00000000000E+00 0.  1.
         21   -1    0    0  501  502 -0.00000000000E+00 -0.00000000000E+00 -0.12610937514E+03  0.12610937514E+03  0.00000000000E+00 0.  1.
         25    1    1    2    0    0  0.11559808756E+03 -0.12171640480E+03  0.90180346720E+02  0.22789316791E+03  0.12500000000E+03 0.  0.
         25    1    1    2    0    0  0.24685950370E+02  0.24408153683E+02  0.16830950970E+03  0.21250469446E+03  0.12500000000E+03 0.  0.
         25    1    1    2    0    0 -0.14028403793E+03  0.97308251118E+02  0.28324196141E+03  0.35355270574E+03  0.12500000000E+03 0.  0.
</event>
<event>
 5    0  0.5605075E-005  0.3388625E+03  0.7546771E-02  0.1067281E+00
         21   -1    0    0  502  501  0.00000000000E+00  0.00000000000E+00  0.43693827890E+03  0.43693827890E+03  0.00000000000E+00 0.  1.
         21   -1    0    0  501  502 -0.00000000000E+00 -0.00000000000E+00 -0.26280097338E+03  0.26280097338E+03  0.00000000000E+00 0.  1.
         25    1    1    2    0    0 -0.66893051830E+02 -0.18078382900E+03  0.22520468890E+03  0.32171357621E+03  0.12500000000E+03 0.  0.
         25    1    1    2    0    0  0.12203668719E+03  0.50968383189E+02 -0.53054154726E+02  0.18955334985E+03  0.12500000000E+03 0.  0.
         25    1    1    2    0    0 -0.55143635363E+02  0.12981544581E+03  0.19867713400E+01  0.18847232623E+03  0.12500000000E+03 0.  0.
</event>
<event>
 5    0  0.5605075E-005  0.5577384E+03  0.7546771E-02  0.9997185E-01
         21   -1    0    0  502  501  0.00000000000E+00  0.00000000000E+00  0.61857967058E+03  0.61857967058E+03  0.00000000000E+00 0.  1.
         21   -1    0    0  501  502 -0.00000000000E+00 -0.00000000000E+00 -0.50288120915E+03  0.50288120915E+03  0.00000000000E+00 0.  1.
         25    1    1    2    0    0 -0.26977157848E+02 -0.10751086236E+03 -0.22527953566E+02  0.16857894668E+03  0.12500000000E+03 0.  0.
         25    1    1    2    0    0 -0.41791698405E+03  0.12525808199E+03  0.18066699577E+03  0.48847697594E+03  0.12500000000E+03 0.  0.
         25    1    1    2    0    0  0.44489414190E+03 -0.17747219630E+02 -0.42440580766E+02  0.46440495712E+03  0.12500000000E+03 0.  0.
</event>
<event>
 5    0  0.5605075E-005  0.2279640E+03  0.7546771E-02  0.1128081E+00
         21   -1    0    0  502  501  0.00000000000E+00  0.00000000000E+00  0.25123420307E+03  0.25123420307E+03  0.00000000000E+00 0. -1.
         21   -1    0    0  501  502 -0.00000000000E+00 -0.00000000000E+00 -0.20684919967E+03  0.20684919967E+03  0.00000000000E+00 0. -1.
         25    1    1    2    0    0  0.36588843278E+02 -0.71898286872E+02  0.70897218185E+02  0.16480146436E+03  0.12500000000E+03 0.  0.
         25    1    1    2    0    0 -0.67492078541E+02  0.37301825252E+02  0.27503410561E+02  0.14942571541E+03  0.12500000000E+03 0.  0.
         25    1    1    2    0    0  0.30903235263E+02  0.34596461620E+02 -0.54015625342E+02  0.14385622297E+03  0.12500000000E+03 0.  0.
</event>
<event>
 5    0  0.5605075E-005  0.3639826E+03  0.7546771E-02  0.1057018E+00
         21   -1    0    0  502  501  0.00000000000E+00  0.00000000000E+00  0.18578662407E+03  0.18578662407E+03  0.00000000000E+00 0. -1.
         21   -1    0    0  501  502 -0.00000000000E+00 -0.00000000000E+00 -0.71309417103E+03  0.71309417103E+03  0.00000000000E+00 0. -1.
         25    1    1    2    0    0  0.44801956812E+02 -0.12735406152E+03 -0.24321731419E+03  0.30496874306E+03  0.12500000000E+03 0.  0.
         25    1    1    2    0    0 -0.13964140737E+02 -0.16026626210E+03 -0.14139884899E+03  0.24798973061E+03  0.12500000000E+03 0.  0.
         25    1    1    2    0    0 -0.30837816075E+02  0.28762032362E+03 -0.14269138378E+03  0.34592232143E+03  0.12500000000E+03 0.  0.
</event>
<event>
 5    0  0.5605075E-005  0.2835193E+03  0.7546771E-02  0.1093782E+00
         21   -1    0    0  502  501  0.00000000000E+00  0.00000000000E+00  0.46276050701E+03  0.46276050701E+03  0.00000000000E+00 0. -1.
         21   -1    0    0  501  502 -0.00000000000E+00 -0.00000000000E+00 -0.17370367102E+03  0.17370367102E+03  0.00000000000E+00 0. -1.
         25    1    1    2    0    0 -0.15592144118E+03  0.60582982274E+02  0.14246797945E+03  0.25279224420E+03  0.12500000000E+03 0.  0.
         25    1    1    2    0    0  0.13505270223E+03 -0.41270111255E+01  0.16053136311E+03  0.24423673586E+03  0.12500000000E+03 0.  0.
         25    1    1    2    0    0  0.20868738942E+02 -0.56455971148E+02 -0.13942506578E+02  0.13943519797E+03  0.12500000000E+03 0.  0.
</event>
<event>
 5    0  0.5605075E-005  0.2150489E+03  0.7546771E-02  0.1137629E+00
         21   -1    0    0  502  501  0.00000000000E+00  0.00000000000E+00  0.31476553476E+02  0.31476553476E+02  0.00000000000E+00 0. -1.
         21   -1    0    0  501  502 -0.00000000000E+00 -0.00000000000E+00 -0.14692218464E+04  0.14692218464E+04  0.00000000000E+00 0. -1.
         25    1    1    2    0    0  0.13485396884E+02  0.14901166473E+02 -0.47016893176E+03  0.48691654838E+03  0.12500000000E+03 0.  0.
         25    1    1    2    0    0  0.51239448995E+02 -0.59534409211E+02 -0.59418216404E+03  0.61224772035E+03  0.12500000000E+03 0.  0.
         25    1    1    2    0    0 -0.64724845879E+02  0.44633242738E+02 -0.37339419716E+03  0.40153413118E+03  0.12500000000E+03 0.  0.
</event>
<event>
 5    0  0.5605075E-005  0.3784496E+03  0.7546771E-02  0.1051508E+00
         21   -1    0    0  502  501  0.00000000000E+00  0.00000000000E+00  0.73839999590E+03  0.73839999590E+03  0.00000000000E+00 0. -1.
         21   -1    0    0  501  502 -0.00000000000E+00 -0.00000000000E+00 -0.19396543806E+03  0.19396543806E+03  0.00000000000E+00 0. -1.
         25    1    1    2    0    0 -0.18672741985E+03  0.68473614140E+02  0.37292026593E+03  0.44073834630E+03  0.12500000000E+03 0.  0.
         25    1    1    2    0    0  0.72702684360E+01 -0.16710879490E+03  0.24485796812E+02  0.21024452521E+03  0.12500000000E+03 0.  0.
         25    1    1    2    0    0  0.17945715141E+03  0.98635180761E+02  0.14702849510E+03  0.28138256245E+03  0.12500000000E+03 0.  0.
</event>
<event>
 5    0  0.5605075E-005  0.2587967E+03  0.7546771E-02  0.1107868E+00
         21   -1    0    0  502  501  0.00000000000E+00  0.00000000000E+00  0.66127807441E+02  0.66127807441E+02  0.00000000000E+00 0.  1.
         21   -1    0    0  501  502 -0.00000000000E+00 -0.00000000000E+00 -0.10128221197E+04  0.10128221197E+04  0.00000000000E+00 0.  1.
         25    1    1    2    0    0 -0.42628272368E+01  0.77024267573E+02 -0.17943165773E+03  0.23188710461E+03  0.12500000000E+03 0.  0.
         25    1    1    2    0    0 -0.26044241497E+02 -0.14885133007E+03 -0.31159831418E+03  0.36817595030E+03  0.12500000000E+03 0.  0.
         25    1    1    2    0    0  0.30307068734E+02  0.71827062499E+02 -0.45566434032E+03  0.47888687219E+03  0.12500000000E+03 0.  0.
</event>
<event>
 5    0  0.5605075E-005  0.3777434E+03  0.7546771E-02  0.1051771E+00
         21   -1    0    0  502  501  0.00000000000E+00  0.00000000000E+00  0.14354139735E+03  0.14354139735E+03  0.00000000000E+00 0.  1.
         21   -1    0    0  501  502 -0.00000000000E+00 -0.00000000000E+00 -0.99406894232E+03  0.99406894232E+03  0.00000000000E+00 0.  1.
         25    1    1    2    0    0  0.93859127736E+01  0.11308181915E+03 -0.14715650156E+03  0.22395452470E+03  0.12500000000E+03 0.  0.
         25    1    1    2    0    0  0.21090529594E+03  0.86983696780E+02 -0.30148217611E+03  0.39820058999E+03  0.12500000000E+03 0.  0.
         25    1    1    2    0    0 -0.22029120871E+03 -0.20006551593E+03 -0.40188886730E+03  0.51545522498E+03  0.12500000000E+03 0.  0.
</event>
<event>
 5    0  0.5605075E-005  0.2360614E+03  0.7546771E-02  0.1122445E+00
         21   -1    0    0  502  501  0.00000000000E+00  0.00000000000E+00  0.21314959727E+02  0.21314959727E+02  0.00000000000E+00 0. -1.
         21   -1    0    0  501  502 -0.00000000000E+00 -0.00000000000E+00 -0.26143592853E+04  0.26143592853E+04  0.00000000000E+00 0. -1.
         25    1    1    2    0    0 -0.54937615092E+02  0.51995822452E+02 -0.10341256404E+04  0.10443957810E+04  0.12500000000E+03 0.  0.
         25    1    1    2    0    0 -0.13158882088E+02 -0.83436366747E+02 -0.49676371618E+03  0.51916661409E+03  0.12500000000E+03 0.  0.
         25    1    1    2    0    0  0.68096497179E+02  0.31440544295E+02 -0.10621549690E+04  0.10721118500E+04  0.12500000000E+03 0.  0.
</event>
<event>
 5    0  0.6318281E-005  0.3562361E+03  0.7546771E-02  0.1060084E+00
         21   -1    0    0  502  501  0.00000000000E+00  0.00000000000E+00  0.49421400274E+03  0.49421400274E+03  0.00000000000E+00 0. -1.
         21   -1    0    0  501  502 -0.00000000000E+00 -0.00000000000E+00 -0.25677970934E+03  0.25677970934E+03  0.00000000000E+00 0. -1.
         25    1    1    2    0    0  0.20987745893E+03  0.59906735649E+02  0.20579390458E+03  0.32498230091E+03  0.12500000000E+03 0.  0.
         25    1    1    2    0    0 -0.18213032384E+03  0.13332664419E+01  0.12719863878E+03  0.25490728936E+03  0.12500000000E+03 0.  0.
         25    1    1    2    0    0 -0.27747135091E+02 -0.61240002091E+02 -0.95558249967E+02  0.17110412180E+03  0.12500000000E+03 0.  0.
</event>
<event>
 5    0  0.5605075E-005  0.3248671E+03  0.7546771E-02  0.1073431E+00
         21   -1    0    0  502  501  0.00000000000E+00  0.00000000000E+00  0.31884678913E+03  0.31884678913E+03  0.00000000000E+00 0. -1.
         21   -1    0    0  501  502 -0.00000000000E+00 -0.00000000000E+00 -0.33100117010E+03  0.33100117010E+03  0.00000000000E+00 0. -1.
         25    1    1    2    0    0  0.18144037164E+02 -0.10822688190E+03 -0.27847984792E+02  0.16864985712E+03  0.12500000000E+03 0.  0.
         25    1    1    2    0    0 -0.89573132097E+02  0.15194652237E+03 -0.14558212568E+03  0.26063431656E+03  0.12500000000E+03 0.  0.
         25    1    1    2    0    0  0.71429094933E+02 -0.43719640472E+02  0.16127572950E+03  0.22056378554E+03  0.12500000000E+03 0.  0.
</event>
<event>
 5    0  0.5605075E-005  0.3171344E+03  0.7546771E-02  0.1076976E+00
         21   -1    0    0  502  501  0.00000000000E+00  0.00000000000E+00  0.24561632795E+03  0.24561632795E+03  0.00000000000E+00 0.  1.
         21   -1    0    0  501  502 -0.00000000000E+00 -0.00000000000E+00 -0.40947696014E+03  0.40947696014E+03  0.00000000000E+00 0.  1.
         25    1    1    2    0    0 -0.14634125326E+03  0.12119857176E+03 -0.12055904216E+03  0.25741860626E+03  0.12500000000E+03 0.  0.
         25    1    1    2    0    0  0.16056291224E+03 -0.64933432368E+02  0.64042437862E+02  0.22298706974E+03  0.12500000000E+03 0.  0.
         25    1    1    2    0    0 -0.14221658978E+02 -0.56265139392E+02 -0.10734402789E+03  0.17468761209E+03  0.12500000000E+03 0.  0.
</event>
<event>
 5    0  0.5605075E-005  0.2701690E+03  0.7546771E-02  0.1101183E+00
         21   -1    0    0  502  501  0.00000000000E+00  0.00000000000E+00  0.11712977267E+03  0.11712977267E+03  0.00000000000E+00 0.  1.
         21   -1    0    0  501  502 -0.00000000000E+00 -0.00000000000E+00 -0.62316600066E+03  0.62316600066E+03  0.00000000000E+00 0.  1.
         25    1    1    2    0    0  0.88156422135E+02 -0.13243261227E+03 -0.17743022356E+03  0.26910302077E+03  0.12500000000E+03 0.  0.
         25    1    1    2    0    0 -0.91929219832E+02  0.13444304016E+02 -0.21126022717E+03  0.26246450113E+03  0.12500000000E+03 0.  0.
         25    1    1    2    0    0  0.37727976967E+01  0.11898830826E+03 -0.11734577726E+03  0.20872825143E+03  0.12500000000E+03 0.  0.
</event>
<event>
 5    0  0.5605075E-005  0.3639339E+03  0.7546771E-02  0.1057037E+00
         21   -1    0    0  502  501  0.00000000000E+00  0.00000000000E+00  0.18074907543E+03  0.18074907543E+03  0.00000000000E+00 0.  1.
         21   -1    0    0  501  502 -0.00000000000E+00 -0.00000000000E+00 -0.73277216673E+03  0.73277216673E+03  0.00000000000E+00 0.  1.
         25    1    1    2    0    0  0.25923493974E+02 -0.67068334660E+02 -0.12823432023E+03  0.19297468730E+03  0.12500000000E+03 0.  0.
         25    1    1    2    0    0  0.67729800956E+02  0.89019709897E+02  0.84874218501E+02  0.18799060523E+03  0.12500000000E+03 0.  0.
         25    1    1    2    0    0 -0.93653294930E+02 -0.21951375237E+02 -0.50866298958E+03  0.53255594963E+03  0.12500000000E+03 0.  0.
</event>
<event>
 5    0  0.5605075E-005  0.3402622E+03  0.7546771E-02  0.1066684E+00
         21   -1    0    0  502  501  0.00000000000E+00  0.00000000000E+00  0.14443278938E+03  0.14443278938E+03  0.00000000000E+00 0. -1.
         21   -1    0    0  501  502 -0.00000000000E+00 -0.00000000000E+00 -0.80160736808E+03  0.80160736808E+03  0.00000000000E+00 0. -1.
         25    1    1    2    0    0  0.61091733708E+02 -0.18473268963E+03 -0.18481204055E+03  0.29603860707E+03  0.12500000000E+03 0.  0.
         25    1    1    2    0    0 -0.12091060067E+03  0.23269727154E+03 -0.37337594345E+03  0.47307714876E+03  0.12500000000E+03 0.  0.
         25    1    1    2    0    0  0.59818866959E+02 -0.47964581906E+02 -0.98986594697E+02  0.17692440163E+03  0.12500000000E+03 0.  0.
</event>
<event>
 5    0  0.5605075E-005  0.3141413E+03  0.7546771E-02  0.1078378E+00
         21   -1    0    0  502  501  0.00000000000E+00  0.00000000000E+00  0.21354724501E+03  0.21354724501E+03  0.00000000000E+00 0.  1.
         21   -1    0    0  501  502 -0.00000000000E+00 -0.00000000000E+00 -0.46212132465E+03  0.46212132465E+03  0.00000000000E+00 0.  1.
         25    1    1    2    0    0  0.81633825910E+02  0.90586699456E+02 -0.13377326754E+03  0.21997799608E+03  0.12500000000E+03 0.  0.
         25    1    1    2    0    0 -0.69224457814E+02 -0.21729091361E+03 -0.91834765800E+02  0.27580063616E+03  0.12500000000E+03 0.  0.
         25    1    1    2    0    0 -0.12409368096E+02  0.12670421416E+03 -0.22966046310E+02  0.17988993742E+03  0.12500000000E+03 0.  0.
</event>
<event>
 5    0  0.5605075E-005  0.3303811E+03  0.7546771E-02  0.1070968E+00
         21   -1    0    0  502  501  0.00000000000E+00  0.00000000000E+00  0.35353922966E+03  0.35353922966E+03  0.00000000000E+00 0.  1.
         21   -1    0    0  501  502 -0.00000000000E+00 -0.00000000000E+00 -0.30873987373E+03  0.30873987373E+03  0.00000000000E+00 0.  1.
         25    1    1    2    0    0 -0.11664986579E+03 -0.64393012478E+02 -0.27186358848E+02  0.18470990594E+03  0.12500000000E+03 0.  0.
         25    1    1    2    0    0 -0.78149615113E+02 -0.10031807296E+03  0.75069463195E+02  0.19347222645E+03  0.12500000000E+03 0.  0.
         25    1    1    2    0    0  0.19479948090E+03  0.16471108544E+03 -0.30837484124E+01  0.28409697100E+03  0.12500000000E+03 0.  0.
</event>
<event>
 5    0  0.5605075E-005  0.3928494E+03  0.7546771E-02  0.1046284E+00
         21   -1    0    0  502  501  0.00000000000E+00  0.00000000000E+00  0.11818296192E+04  0.11818296192E+04  0.00000000000E+00 0.  1.
         21   -1    0    0  501  502 -0.00000000000E+00 -0.00000000000E+00 -0.13058618778E+03  0.13058618778E+03  0.00000000000E+00 0.  1.
         25    1    1    2    0    0 -0.11876208001E+03  0.39345894638E+02  0.67403466361E+02  0.18926372698E+03  0.12500000000E+03 0.  0.
         25    1    1    2    0    0  0.17040258581E+03 -0.74792167235E+01  0.11005987134E+03  0.23839285898E+03  0.12500000000E+03 0.  0.
         25    1    1    2    0    0 -0.51640505799E+02 -0.31866677915E+02  0.87378009369E+03  0.88475922099E+03  0.12500000000E+03 0.  0.
</event>
<event>
 5    0  0.5605075E-005  0.4853693E+03  0.7546771E-02  0.1017670E+00
         21   -1    0    0  502  501  0.00000000000E+00  0.00000000000E+00  0.60540317314E+03  0.60540317314E+03  0.00000000000E+00 0. -1.
         21   -1    0    0  501  502 -0.00000000000E+00 -0.00000000000E+00 -0.38913460975E+03  0.38913460975E+03  0.00000000000E+00 0. -1.
         25    1    1    2    0    0 -0.18923369825E+03 -0.10968627442E+03 -0.38625228496E+02  0.25486737654E+03  0.12500000000E+03 0.  0.
         25    1    1    2    0    0  0.29845146237E+03 -0.17126844519E+03  0.16227133702E+03  0.40045367089E+03  0.12500000000E+03 0.  0.
         25    1    1    2    0    0 -0.10921776412E+03  0.28095471961E+03  0.92622454869E+02  0.33921673546E+03  0.12500000000E+03 0.  0.
</event>
<event>
 5    0  0.5605075E-005  0.3540368E+03  0.7546771E-02  0.1060970E+00
         21   -1    0    0  502  501  0.00000000000E+00  0.00000000000E+00  0.90656648079E+03  0.90656648079E+03  0.00000000000E+00 0. -1.
         21   -1    0    0  501  502 -0.00000000000E+00 -0.00000000000E+00 -0.13826023020E+03  0.13826023020E+03  0.00000000000E+00 0. -1.
         25    1    1    2    0    0  0.18933082264E+03  0.27220565035E+02  0.18294302187E+03  0.29271192120E+03  0.12500000000E+03 0.  0.
         25    1    1    2    0    0 -0.18225007366E+03  0.10829767555E+03  0.17439770042E+03  0.30163394005E+03  0.12500000000E+03 0.  0.
         25    1    1    2    0    0 -0.70807489785E+01 -0.13551824058E+03  0.41096552829E+03  0.45048084974E+03  0.12500000000E+03 0.  0.
</event>
<event>
 5    0  0.5605075E-005  0.4778279E+03  0.7546771E-02  0.1019734E+00
         21   -1    0    0  502  501  0.00000000000E+00  0.00000000000E+00  0.29343053684E+03  0.29343053684E+03  0.00000000000E+00 0. -1.
         21   -1    0    0  501  502 -0.00000000000E+00 -0.00000000000E+00 -0.77810408481E+03  0.77810408481E+03  0.00000000000E+00 0. -1.
         25    1    1    2    0    0 -0.66537240072E+02  0.40334137128E+02 -0.18521577634E+03  0.23660923638E+03  0.12500000000E+03 0.  0.
         25    1    1    2    0    0 -0.67065241587E+01  0.30562122376E+03 -0.31924385788E+03  0.45933751281E+03  0.12500000000E+03 0.  0.
         25    1    1    2    0    0  0.73243764230E+02 -0.34595536089E+03  0.19786086251E+02  0.37558787245E+03  0.12500000000E+03 0.  0.
</event>
<event>
 5    0  0.5605075E-005  0.3048589E+03  0.7546771E-02  0.1082837E+00
         21   -1    0    0  502  501  0.00000000000E+00  0.00000000000E+00  0.81545681457E+03  0.81545681457E+03  0.00000000000E+00 0. -1.
         21   -1    0    0  501  502 -0.00000000000E+00 -0.00000000000E+00 -0.11397161132E+03  0.11397161132E+03  0.00000000000E+00 0. -1.
         25    1    1    2    0    0 -0.13757326159E+03  0.17377759828E+03  0.19986623872E+03  0.32356849252E+03  0.12500000000E+03 0.  0.
         25    1    1    2    0    0  0.65215297751E+02 -0.12135271987E+03  0.26752009411E+03  0.32583971279E+03  0.12500000000E+03 0.  0.
         25    1    1    2    0    0  0.72357963835E+02 -0.52424878417E+02  0.23409887041E+03  0.28002022058E+03  0.12500000000E+03 0.  0.
</event>
<event>
 5    0  0.5605075E-005  0.2829636E+03  0.7546771E-02  0.1094081E+00
         21   -1    0    0  502  501  0.00000000000E+00  0.00000000000E+00  0.58959643697E+03  0.58959643697E+03  0.00000000000E+00 0.  1.
         21   -1    0    0  501  502 -0.00000000000E+00 -0.00000000000E+00 -0.13580203575E+03  0.13580203575E+03  0.00000000000E+00 0.  1.
         25    1    1    2    0    0 -0.44168102352E+02 -0.13885999785E+02  0.18773777849E+03  0.23024794402E+03  0.12500000000E+03 0.  0.
         25    1    1    2    0    0 -0.84123319276E+02 -0.10298363449E+03  0.45845804931E+02  0.18817332343E+03  0.12500000000E+03 0.  0.
         25    1    1    2    0    0  0.12829142163E+03  0.11686963428E+03  0.22021081780E+03  0.30697720527E+03  0.12500000000E+03 0.  0.
</event>
<event>
 5    0  0.6259944E-005  0.5517651E+03  0.7546771E-02  0.1001086E+00
         21   -1    0    0  502  501  0.00000000000E+00  0.00000000000E+00  0.51361206694E+03  0.51361206694E+03  0.00000000000E+00 0. -1.
         21   -1    0    0  501  502 -0.00000000000E+00 -0.00000000000E+00 -0.59275232833E+03  0.59275232833E+03  0.00000000000E+00 0. -1.
         25    1    1    2    0    0  0.25123428303E+03  0.42730719277E+02  0.89720469655E+02  0.29769000993E+03  0.12500000000E+03 0.  0.
         25    1    1    2    0    0 -0.35980747048E+03 -0.35068014331E+02  0.17976922898E+03  0.42265015927E+03  0.12500000000E+03 0.  0.
         25    1    1    2    0    0  0.10857318746E+03 -0.76627049466E+01 -0.34862996002E+03  0.38602422606E+03  0.12500000000E+03 0.  0.
</event>
<event>
 5    0  0.5605075E-005  0.2712744E+03  0.7546771E-02  0.1100552E+00
         21   -1    0    0  502  501  0.00000000000E+00  0.00000000000E+00  0.81987189615E+03  0.81987189615E+03  0.00000000000E+00 0.  1.
         21   -1    0    0  501  502 -0.00000000000E+00 -0.00000000000E+00 -0.89757670482E+02  0.89757670482E+02  0.00000000000E+00 0.  1.
         25    1    1    2    0    0  0.11042255291E+03 -0.71158672337E+02  0.43942480576E+03  0.47536917943E+03  0.12500000000E+03 0.  0.
         25    1    1    2    0    0  0.20760592174E+02  0.37727287041E+02  0.16397546215E+03  0.21063547318E+03  0.12500000000E+03 0.  0.
         25    1    1    2    0    0 -0.13118314509E+03  0.33431385296E+02  0.12671395776E+03  0.22362491402E+03  0.12500000000E+03 0.  0.
</event>
<event>
 5    0  0.5605075E-005  0.2984571E+03  0.7546771E-02  0.1086014E+00
         21   -1    0    0  502  501  0.00000000000E+00  0.00000000000E+00  0.10416239077E+04  0.10416239077E+04  0.00000000000E+00 0. -1.
         21   -1    0    0  501  502 -0.00000000000E+00 -0.00000000000E+00 -0.85517099550E+02  0.85517099550E+02  0.00000000000E+00 0. -1.
         25    1    1    2    0    0 -0.61764937577E+02  0.31859145517E+01  0.30774021210E+02  0.14281840899E+03  0.12500000000E+03 0.  0.
         25    1    1    2    0    0  0.12401072362E+03 -0.44035254020E+02  0.40071679971E+03  0.43990534975E+03  0.12500000000E+03 0.  0.
         25    1    1    2    0    0 -0.62245786040E+02  0.40849339468E+02  0.52461598719E+03  0.54441724847E+03  0.12500000000E+03 0.  0.
</event>
<event>
 5    0  0.6124581E-005  0.3562476E+03  0.7546771E-02  0.1060080E+00
         21   -1    0    0  502  501  0.00000000000E+00  0.00000000000E+00  0.56981621151E+03  0.56981621151E+03  0.00000000000E+00 0.  1.
         21   -1    0    0  501  502 -0.00000000000E+00 -0.00000000000E+00 -0.22272504924E+03  0.22272504924E+03  0.00000000000E+00 0.  1.
         25    1    1    2    0    0 -0.20793984702E+02 -0.58259110525E+02 -0.14655081014E+03  0.20230831350E+03  0.12500000000E+03 0.  0.
         25    1    1    2    0    0 -0.82744084774E+02  0.27715382109E+02  0.29361930422E+03  0.33083533938E+03  0.12500000000E+03 0.  0.
         25    1    1    2    0    0  0.10353806948E+03  0.30543728417E+02  0.20002266820E+03  0.25939760787E+03  0.12500000000E+03 0.  0.
</event>
<event>
 5    0  0.7186748E-005  0.2807467E+03  0.7546771E-02  0.1095282E+00
         21   -1    0    0  502  501  0.00000000000E+00  0.00000000000E+00  0.43998625519E+03  0.43998625519E+03  0.00000000000E+00 0.  1.
         21   -1    0    0  501  502 -0.00000000000E+00 -0.00000000000E+00 -0.17913905646E+03  0.17913905646E+03  0.00000000000E+00 0.  1.
         25    1    1    2    0    0 -0.54962321959E+02 -0.57097285676E+02  0.39526579638E+02  0.15319369231E+03  0.12500000000E+03 0.  0.
         25    1    1    2    0    0  0.11459744439E+03  0.11385162259E+03  0.23993878879E+03  0.31510377433E+03  0.12500000000E+03 0.  0.
         25    1    1    2    0    0 -0.59635122435E+02 -0.56754336916E+02 -0.18618169700E+02  0.15082784501E+03  0.12500000000E+03 0.  0.
</event>
<event>
 5    0  0.5605075E-005  0.4197019E+03  0.7546771E-02  0.1037163E+00
         21   -1    0    0  502  501  0.00000000000E+00  0.00000000000E+00  0.59907805875E+03  0.59907805875E+03  0.00000000000E+00 0. -1.
         21   -1    0    0  501  502 -0.00000000000E+00 -0.00000000000E+00 -0.29403467585E+03  0.29403467585E+03  0.00000000000E+00 0.  1.
         25    1    1    2    0    0  0.26808751619E+02  0.30555256814E+03 -0.22696203670E+02  0.33199578118E+03  0.12500000000E+03 0.  0.
         25    1    1    2    0    0  0.78089203936E+02 -0.87430838363E+02  0.19000382333E+03  0.25586818510E+03  0.12500000000E+03 0.  0.
         25    1    1    2    0    0 -0.10489795555E+03 -0.21812172977E+03  0.13773576324E+03  0.30524876831E+03  0.12500000000E+03 0.  0.
</event>
<event>
 5    0  0.5605075E-005  0.6264763E+03  0.7546771E-02  0.9851949E-01
         21   -1    0    0  502  501  0.00000000000E+00  0.00000000000E+00  0.43619194628E+03  0.43619194628E+03  0.00000000000E+00 0. -1.
         21   -1    0    0  501  502 -0.00000000000E+00 -0.00000000000E+00 -0.89977036148E+03  0.89977036148E+03  0.00000000000E+00 0. -1.
         25    1    1    2    0    0  0.34125485411E+03  0.10398568175E+03 -0.22167342174E+03  0.43821456316E+03  0.12500000000E+03 0.  0.
         25    1    1    2    0    0  0.11790527286E+03  0.12288674718E+03 -0.30049006516E+03  0.36731741758E+03  0.12500000000E+03 0.  0.
         25    1    1    2    0    0 -0.45916012696E+03 -0.22687242892E+03  0.58585071697E+02  0.53043032702E+03  0.12500000000E+03 0.  0.
</event>
<event>
 5    0  0.5605075E-005  0.2345108E+03  0.7546771E-02  0.1123505E+00
         21   -1    0    0  502  501  0.00000000000E+00  0.00000000000E+00  0.67459566724E+02  0.67459566724E+02  0.00000000000E+00 0.  1.
         21   -1    0    0  501  502 -0.00000000000E+00 -0.00000000000E+00 -0.81523398171E+03  0.81523398171E+03  0.00000000000E+00 0.  1.
         25    1    1    2    0    0  0.15095096496E+02 -0.40071362243E+02 -0.11233881848E+03  0.17343179105E+03  0.12500000000E+03 0.  0.
         25    1    1    2    0    0  0.79224748776E+02  0.14805390605E+02 -0.22996301298E+03  0.27386812109E+03  0.12500000000E+03 0.  0.
         25    1    1    2    0    0 -0.94319845272E+02  0.25265971638E+02 -0.40547258353E+03  0.43539363630E+03  0.12500000000E+03 0.  0.
</event>
<event>
 5    0  0.5605075E-005  0.2677636E+03  0.7546771E-02  0.1102566E+00
         21   -1    0    0  502  501  0.00000000000E+00  0.00000000000E+00  0.32121411655E+03  0.32121411655E+03  0.00000000000E+00 0.  1.
         21   -1    0    0  501  502 -0.00000000000E+00 -0.00000000000E+00 -0.22320738550E+03  0.22320738550E+03  0.00000000000E+00 0.  1.
         25    1    1    2    0    0 -0.33208068908E+02  0.70650557336E+02  0.54242419505E+02  0.15703985853E+03  0.12500000000E+03 0.  0.
         25    1    1    2    0    0 -0.10708698158E+03 -0.80745986184E+02  0.72256707562E+02  0.19706234470E+03  0.12500000000E+03 0.  0.
         25    1    1    2    0    0  0.14029505049E+03  0.10095428848E+02 -0.28492396017E+02  0.19031929883E+03  0.12500000000E+03 0.  0.
</event>
<event>
 5    0  0.5605075E-005  0.2656458E+03  0.7546771E-02  0.1103798E+00
         21   -1    0    0  502  501  0.00000000000E+00  0.00000000000E+00  0.70732934966E+03  0.70732934966E+03  0.00000000000E+00 0. -1.
         21   -1    0    0  501  502 -0.00000000000E+00 -0.00000000000E+00 -0.99766403749E+02  0.99766403749E+02  0.00000000000E+00 0. -1.
         25    1    1    2    0    0 -0.47536256279E+02  0.13811422005E+03  0.29571036285E+03  0.35271072019E+03  0.12500000000E+03 0.  0.
         25    1    1    2    0    0  0.64649949429E+02 -0.14719556268E+03  0.20227800848E+03  0.28703230192E+03  0.12500000000E+03 0.  0.
         25    1    1    2    0    0 -0.17113693150E+02  0.90813426272E+01  0.10957457458E+03  0.16735273129E+03  0.12500000000E+03 0.  0.
</event>
<event>
 5    0  0.5605075E-005  0.3274485E+03  0.7546771E-02  0.1072271E+00
         21   -1    0    0  502  501  0.00000000000E+00  0.00000000000E+00  0.30860431863E+03  0.30860431863E+03  0.00000000000E+00 0. -1.
         21   -1    0    0  501  502 -0.00000000000E+00 -0.00000000000E+00 -0.34744337588E+03  0.34744337588E+03  0.00000000000E+00 0. -1.
         25    1    1    2    0    0  0.11065661226E+03 -0.56285507552E+02  0.20965736064E+03  0.27385060355E+03  0.12500000000E+03 0.  0.
         25    1    1    2    0    0 -0.77994574614E+02  0.12265521122E+02 -0.90232292202E+02  0.17320641799E+03  0.12500000000E+03 0.  0.
         25    1    1    2    0    0 -0.32662037644E+02  0.44019986430E+02 -0.15826412568E+03  0.20899067296E+03  0.12500000000E+03 0.  0.
</event>
<event>
 5    0  0.5605075E-005  0.3283853E+03  0.7546771E-02  0.1071854E+00
         21   -1    0    0  502  501  0.00000000000E+00  0.00000000000E+00  0.26784299166E+03  0.26784299166E+03  0.00000000000E+00 0. -1.
         21   -1    0    0  501  502 -0.00000000000E+00 -0.00000000000E+00 -0.40261234050E+03  0.40261234050E+03  0.00000000000E+00 0.  1.
         25    1    1    2    0    0 -0.77290199431E+02 -0.41361812257E+02 -0.35911598753E+02  0.15684137645E+03  0.12500000000E+03 0.  0.
         25    1    1    2    0    0  0.10988482969E+03 -0.46726540503E+02 -0.24483151466E+03  0.29970905218E+03  0.12500000000E+03 0.  0.
         25    1    1    2    0    0 -0.32594630259E+02  0.88088352760E+02  0.14597376457E+03  0.21390490354E+03  0.12500000000E+03 0.  0.
</event>
<event>
 5    0  0.5605075E-005  0.4373124E+03  0.7546771E-02  0.1031575E+00
         21   -1    0    0  502  501  0.00000000000E+00  0.00000000000E+00  0.18189624311E+03  0.18189624311E+03  0.00000000000E+00 0. -1.
         21   -1    0    0  501  502 -0.00000000000E+00 -0.00000000000E+00 -0.10513801798E+04  0.10513801798E+04  0.00000000000E+00 0. -1.
         25    1    1    2    0    0 -0.21033223491E+02  0.26464048371E+03 -0.10741243546E+03  0.31247306028E+03  0.12500000000E+03 0.  0.
         25    1    1    2    0    0 -0.13889928718E+03 -0.23231082073E+02 -0.38966926952E+03  0.43278150926E+03  0.12500000000E+03 0.  0.
         25    1    1    2    0    0  0.15993251067E+03 -0.24140940164E+03 -0.37240223168E+03  0.48802185333E+03  0.12500000000E+03 0.  0.
</event>
<event>
 5    0  0.5605075E-005  0.5485230E+03  0.7546771E-02  0.1001836E+00
         21   -1    0    0  502  501  0.00000000000E+00  0.00000000000E+00  0.38011673969E+03  0.38011673969E+03  0.00000000000E+00 0.  1.
         21   -1    0    0  501  502 -0.00000000000E+00 -0.00000000000E+00 -0.79153956110E+03  0.79153956110E+03  0.00000000000E+00 0. -1.
         25    1    1    2    0    0 -0.99181921249E+02 -0.74919614585E+02  0.11776716688E+03  0.21200025412E+03  0.12500000000E+03 0.  0.
         25    1    1    2    0    0  0.27848535797E+03  0.27413426821E+03 -0.74102867246E+02  0.41691716988E+03  0.12500000000E+03 0.  0.
         25    1    1    2    0    0 -0.17930343672E+03 -0.19921465362E+03 -0.45508712105E+03  0.54273887679E+03  0.12500000000E+03 0.  0.
</event>
<event>
 5    0  0.5605075E-005  0.4799805E+03  0.7546771E-02  0.1019141E+00
         21   -1    0    0  502  501  0.00000000000E+00  0.00000000000E+00  0.91179691052E+02  0.91179691052E+02  0.00000000000E+00 0. -1.
         21   -1    0    0  501  502 -0.00000000000E+00 -0.00000000000E+00 -0.25266730273E+04  0.25266730273E+04  0.00000000000E+00 0. -1.
         25    1    1    2    0    0 -0.17406898483E+03 -0.20695354869E+03 -0.77469301033E+03  0.83000243557E+03  0.12500000000E+03 0.  0.
         25    1    1    2    0    0  0.55958104771E+01  0.82704979968E+02 -0.14716324117E+04  0.14792560232E+04  0.12500000000E+03 0.  0.
         25    1    1    2    0    0  0.16847317435E+03  0.12424856872E+03 -0.18916791415E+03  0.30859425959E+03  0.12500000000E+03 0.  0.
</event>
<event>
 5    0  0.5605075E-005  0.2882972E+03  0.7546771E-02  0.1091242E+00
         21   -1    0    0  502  501  0.00000000000E+00  0.00000000000E+00  0.71677218846E+03  0.71677218846E+03  0.00000000000E+00 0.  1.
         21   -1    0    0  501  502 -0.00000000000E+00 -0.00000000000E+00 -0.11595774636E+03  0.11595774636E+03  0.00000000000E+00 0.  1.
         25    1    1    2    0    0  0.26409015948E+02 -0.17643870168E+03  0.36020804751E+03  0.42095473518E+03  0.12500000000E+03 0.  0.
         25    1    1    2    0    0 -0.14710492409E+02  0.10950687057E+03  0.50465657300E+02  0.17429841037E+03  0.12500000000E+03 0.  0.
         25    1    1    2    0    0 -0.11698523539E+02  0.66931831111E+02  0.19014073729E+03  0.23747678928E+03  0.12500000000E+03 0.  0.
</event>
<event>
 5    0  0.5605075E-005  0.3529341E+03  0.7546771E-02  0.1061417E+00
         21   -1    0    0  502  501  0.00000000000E+00  0.00000000000E+00  0.14512751253E+03  0.14512751253E+03  0.00000000000E+00 0.  1.
         21   -1    0    0  501  502 -0.00000000000E+00 -0.00000000000E+00 -0.85829703281E+03  0.85829703281E+03  0.00000000000E+00 0.  1.
         25    1    1    2    0    0  0.37616346452E+02 -0.10615903513E+03  0.51306420635E+02  0.17590360730E+03  0.12500000000E+03 0.  0.
         25    1    1    2    0    0 -0.72686655956E+02  0.11482494565E+03 -0.49388902069E+03  0.52727552841E+03  0.12500000000E+03 0.  0.
         25    1    1    2    0    0  0.35070309505E+02 -0.86659105118E+01 -0.27058692023E+03  0.30024540964E+03  0.12500000000E+03 0.  0.
</event>
<event>
 5    0  0.5605075E-005  0.2484948E+03  0.7546771E-02  0.1114260E+00
         21   -1    0    0  502  501  0.00000000000E+00  0.00000000000E+00  0.29784390515E+03  0.29784390515E+03  0.00000000000E+00 0. -1.
         21   -1    0    0  501  502 -0.00000000000E+00 -0.00000000000E+00 -0.20732230350E+03  0.20732230350E+03  0.00000000000E+00 0. -1.
         25    1    1    2    0    0  0.22927127571E+02  0.66947487225E+02  0.82249445005E+02  0.16552217503E+03  0.12500000000E+03 0.  0.
         25    1    1    2    0    0 -0.46573551689E+02 -0.11834917093E+03  0.66861303201E+02  0.19044961497E+03  0.12500000000E+03 0.  0.
         25    1    1    2    0    0  0.23646424118E+02  0.51401683701E+02 -0.58589146558E+02  0.14919441865E+03  0.12500000000E+03 0.  0.
</event>
<event>
 5    0  0.5605075E-005  0.2936074E+03  0.7546771E-02  0.1088481E+00
         21   -1    0    0  502  501  0.00000000000E+00  0.00000000000E+00  0.48359823384E+02  0.48359823384E+02  0.00000000000E+00 0.  1.
         21   -1    0    0  501  502 -0.00000000000E+00 -0.00000000000E+00 -0.17825815108E+04  0.17825815108E+04  0.00000000000E+00 0.  1.
         25    1    1    2    0    0 -0.27821828805E+02 -0.92151375485E+02 -0.66595857906E+03  0.68439152478E+03  0.12500000000E+03 0.  0.
         25    1    1    2    0    0  0.51023014970E+02 -0.13080798196E+02 -0.90250640497E+03  0.91264301145E+03  0.12500000000E+03 0.  0.
         25    1    1    2    0    0 -0.23201186165E+02  0.10523217368E+03 -0.16575670342E+03  0.23390679799E+03  0.12500000000E+03 0.  0.
</event>
<event>
 5    0  0.5605075E-005  0.2423547E+03  0.7546771E-02  0.1118234E+00
         21   -1    0    0  502  501  0.00000000000E+00  0.00000000000E+00  0.14032323983E+03  0.14032323983E+03  0.00000000000E+00 0. -1.
         21   -1    0    0  501  502 -0.00000000000E+00 -0.00000000000E+00 -0.41857498372E+03  0.41857498372E+03  0.00000000000E+00 0. -1.
         25    1    1    2    0    0 -0.73275402792E+01  0.73826285993E+02  0.17001370344E+02  0.14634910298E+03  0.12500000000E+03 0.  0.
         25    1    1    2    0    0 -0.37505921329E+02  0.92907372747E+01 -0.14807234527E+03  0.19759410763E+03  0.12500000000E+03 0.  0.
         25    1    1    2    0    0  0.44833461609E+02 -0.83117023268E+02 -0.14718076896E+03  0.21495501294E+03  0.12500000000E+03 0.  0.
</event>
<event>
 5    0  0.5679538E-005  0.2934671E+03  0.7546771E-02  0.1088553E+00
         21   -1    0    0  502  501  0.00000000000E+00  0.00000000000E+00  0.15076710477E+03  0.15076710477E+03  0.00000000000E+00 0.  1.
         21   -1    0    0  501  502 -0.00000000000E+00 -0.00000000000E+00 -0.57123166291E+03  0.57123166291E+03  0.00000000000E+00 0.  1.
         25    1    1    2    0    0  0.92827171425E+02 -0.14291249038E+03 -0.32143977309E+03  0.38469389309E+03  0.12500000000E+03 0.  0.
         25    1    1    2    0    0 -0.14226815474E+02  0.95537945631E+02 -0.90365258360E+02  0.18199115707E+03  0.12500000000E+03 0.  0.
         25    1    1    2    0    0 -0.78600355950E+02  0.47374544751E+02 -0.86595266944E+01  0.15531371752E+03  0.12500000000E+03 0.  0.
</event>
<event>
 5    0  0.5605075E-005  0.2668448E+03  0.7546771E-02  0.1103099E+00
         21   -1    0    0  502  501  0.00000000000E+00  0.00000000000E+00  0.11417429216E+03  0.11417429216E+03  0.00000000000E+00 0. -1.
         21   -1    0    0  501  502 -0.00000000000E+00 -0.00000000000E+00 -0.62366161036E+03  0.62366161036E+03  0.00000000000E+00 0. -1.
         25    1    1    2    0    0  0.98126884282E+01  0.57788759679E+02 -0.22498152897E+03  0.26396499385E+03  0.12500000000E+03 0.  0.
         25    1    1    2    0    0  0.32857193597E+02 -0.15651141732E+03 -0.21271798548E+03  0.29402272066E+03  0.12500000000E+03 0.  0.
         25    1    1    2    0    0 -0.42669882026E+02  0.98722657638E+02 -0.71787803743E+02  0.17984818801E+03  0.12500000000E+03 0.  0.
</event>
<event>
 5    0  0.5605075E-005  0.3363439E+03  0.7546771E-02  0.1068364E+00
         21   -1    0    0  502  501  0.00000000000E+00  0.00000000000E+00  0.88068751063E+03  0.88068751063E+03  0.00000000000E+00 0. -1.
         21   -1    0    0  501  502 -0.00000000000E+00 -0.00000000000E+00 -0.12845327450E+03  0.12845327450E+03  0.00000000000E+00 0. -1.
         25    1    1    2    0    0 -0.12789349926E+03  0.13681351564E+02  0.97053801871E+02  0.20393226079E+03  0.12500000000E+03 0.  0.
         25    1    1    2    0    0  0.20517012658E+03  0.12011959521E+03  0.39865050680E+03  0.48069816368E+03  0.12500000000E+03 0.  0.
         25    1    1    2    0    0 -0.77276627315E+02 -0.13380094678E+03  0.25652992746E+03  0.32451036066E+03  0.12500000000E+03 0.  0.
</event>
<event>
 5    0  0.5605075E-005  0.4086288E+03  0.7546771E-02  0.1040832E+00
         21   -1    0    0  502  501  0.00000000000E+00  0.00000000000E+00  0.11246705814E+03  0.11246705814E+03  0.00000000000E+00 0. -1.
         21   -1    0    0  501  502 -0.00000000000E+00 -0.00000000000E+00 -0.14846792631E+04  0.14846792631E+04  0.00000000000E+00 0. -1.
         25    1    1    2    0    0 -0.12737276065E+03  0.82716709741E+02 -0.25007598125E+03  0.31816484819E+03  0.12500000000E+03 0.  0.
         25    1    1    2    0    0 -0.20843126861E+03 -0.57017431729E+02 -0.54025069809E+03  0.59513897373E+03  0.12500000000E+03 0.  0.
         25    1    1    2    0    0  0.33580402927E+03 -0.25699278012E+02 -0.58188552566E+03  0.68384249936E+03  0.12500000000E+03 0.  0.
</event>
<event>
 5    0  0.5605075E-005  0.2676415E+03  0.7546771E-02  0.1102637E+00
         21   -1    0    0  502  501  0.00000000000E+00  0.00000000000E+00  0.58449148809E+02  0.58449148809E+02  0.00000000000E+00 0.  1.
         21   -1    0    0  501  502 -0.00000000000E+00 -0.00000000000E+00 -0.12255432289E+04  0.12255432289E+04  0.00000000000E+00 0.  1.
         25    1    1    2    0    0  0.64270449417E+02  0.13447307266E+03 -0.38446165678E+03  0.43087058785E+03  0.12500000000E+03 0.  0.
         25    1    1    2    0    0 -0.11509269980E+03 -0.96383670000E+02 -0.38965500406E+03  0.43588090527E+03  0.12500000000E+03 0.  0.
         25    1    1    2    0    0  0.50822250386E+02 -0.38089402665E+02 -0.39297741925E+03  0.41724088458E+03  0.12500000000E+03 0.  0.
</event>
<event>
 5    0  0.5605075E-005  0.3058907E+03  0.7546771E-02  0.1082332E+00
         21   -1    0    0  502  501  0.00000000000E+00  0.00000000000E+00  0.13480207916E+03  0.13480207916E+03  0.00000000000E+00 0.  1.
         21   -1    0    0  501  502 -0.00000000000E+00 -0.00000000000E+00 -0.69412229258E+03  0.69412229258E+03  0.00000000000E+00 0.  1.
         25    1    1    2    0    0 -0.45098085356E+02 -0.15984697495E+03 -0.28057984834E+03  0.34919184412E+03  0.12500000000E+03 0.  0.
         25    1    1    2    0    0  0.10900730700E+03  0.11513710890E+03 -0.50590187059E+02  0.20814301298E+03  0.12500000000E+03 0.  0.
         25    1    1    2    0    0 -0.63909221646E+02  0.44709866048E+02 -0.22815017802E+03  0.27158951464E+03  0.12500000000E+03 0.  0.
</event>
<event>
 5    0  0.5605075E-005  0.3928684E+03  0.7546771E-02  0.1046277E+00
         21   -1    0    0  502  501  0.00000000000E+00  0.00000000000E+00  0.29668102819E+04  0.29668102819E+04  0.00000000000E+00 0. -1.
         21   -1    0    0  501  502 -0.00000000000E+00 -0.00000000000E+00 -0.52024082001E+02  0.52024082001E+02  0.00000000000E+00 0. -1.
         25    1    1    2    0    0 -0.49655625836E+01 -0.31955575196E+02  0.22794435155E+04  0.22830973602E+04  0.12500000000E+03 0.  0.
         25    1    1    2    0    0  0.99484495489E+02 -0.58003248713E+02  0.18886528999E+03  0.25407998635E+03  0.12500000000E+03 0.  0.
         25    1    1    2    0    0 -0.94518932905E+02  0.89958823909E+02  0.44647739437E+03  0.48165701735E+03  0.12500000000E+03 0.  0.
</event>
<event>
 5    0  0.5605075E-005  0.3431892E+03  0.7546771E-02  0.1065446E+00
         21   -1    0    0  502  501  0.00000000000E+00  0.00000000000E+00  0.15777489730E+03  0.15777489730E+03  0.00000000000E+00 0.  1.
         21   -1    0    0  501  502 -0.00000000000E+00 -0.00000000000E+00 -0.74649900917E+03  0.74649900917E+03  0.00000000000E+00 0.  1.
         25    1    1    2    0    0  0.83274991639E+02 -0.76214528582E+02 -0.17404160941E+03  0.24219591327E+03  0.12500000000E+03 0.  0.
         25    1    1    2    0    0  0.12935040507E+03 -0.37356446029E+02 -0.32991070164E+03  0.37761501878E+03  0.12500000000E+03 0.  0.
         25    1    1    2    0    0 -0.21262539671E+03  0.11357097461E+03 -0.84771800820E+02  0.28446297442E+03  0.12500000000E+03 0.  0.
</event>
<event>
 5    0  0.5605075E-005  0.3659434E+03  0.7546771E-02  0.1056255E+00
         21   -1    0    0  502  501  0.00000000000E+00  0.00000000000E+00  0.54980145086E+03  0.54980145086E+03  0.00000000000E+00 0.  1.
         21   -1    0    0  501  502 -0.00000000000E+00 -0.00000000000E+00 -0.24356901358E+03  0.24356901358E+03  0.00000000000E+00 0.  1.
         25    1    1    2    0    0  0.48072139492E+02 -0.21192086371E+03  0.17290543002E+03  0.30453681354E+03  0.12500000000E+03 0.  0.
         25    1    1    2    0    0 -0.12207187817E+03  0.89680684265E+02  0.20686183987E+03  0.28523847806E+03  0.12500000000E+03 0.  0.
         25    1    1    2    0    0  0.73999738679E+02  0.12224017945E+03 -0.73534832608E+02  0.20359517284E+03  0.12500000000E+03 0.  0.
</event>
<event>
 5    0  0.5605075E-005  0.3444970E+03  0.7546771E-02  0.1064897E+00
         21   -1    0    0  502  501  0.00000000000E+00  0.00000000000E+00  0.16882275320E+04  0.16882275320E+04  0.00000000000E+00 0. -1.
         21   -1    0    0  501  502 -0.00000000000E+00 -0.00000000000E+00 -0.70297511155E+02  0.70297511155E+02  0.00000000000E+00 0. -1.
         25    1    1    2    0    0 -0.27442390034E+02  0.14012818720E+03  0.13247087679E+03  0.23143579416E+03  0.12500000000E+03 0.  0.
         25    1    1    2    0    0 -0.37923675920E+02 -0.12924458739E+03  0.52422255678E+03  0.55549676651E+03  0.12500000000E+03 0.  0.
         25    1    1    2    0    0  0.65366065954E+02 -0.10883599806E+02  0.96123658729E+03  0.97159248251E+03  0.12500000000E+03 0.  0.
</event>
<event>
 5    0  0.5605075E-005  0.4700436E+03  0.7546771E-02  0.1021908E+00
         21   -1    0    0  502  501  0.00000000000E+00  0.00000000000E+00  0.15885944010E+03  0.15885944010E+03  0.00000000000E+00 0. -1.
         21   -1    0    0  501  502 -0.00000000000E+00 -0.00000000000E+00 -0.13907953361E+04  0.13907953361E+04  0.00000000000E+00 0. -1.
         25    1    1    2    0    0  0.26361437943E+03  0.20904043289E+03 -0.29182127685E+03  0.46257442779E+03  0.12500000000E+03 0.  0.
         25    1    1    2    0    0 -0.52209122005E+02 -0.26134563475E+03 -0.48770586993E+03  0.56965722043E+03  0.12500000000E+03 0.  0.
         25    1    1    2    0    0 -0.21140525742E+03  0.52305201859E+02 -0.45240874920E+03  0.51742312797E+03  0.12500000000E+03 0.  0.
</event>
<event>
 5    0  0.5605075E-005  0.2298231E+03  0.7546771E-02  0.1126764E+00
         21   -1    0    0  502  501  0.00000000000E+00  0.00000000000E+00  0.33933498899E+03  0.33933498899E+03  0.00000000000E+00 0.  1.
         21   -1    0    0  501  502 -0.00000000000E+00 -0.00000000000E+00 -0.15565340406E+03  0.15565340406E+03  0.00000000000E+00 0.  1.
         25    1    1    2    0    0 -0.52994738835E+02  0.18281229135E+02 -0.29448237944E+02  0.14012438903E+03  0.12500000000E+03 0.  0.
         25    1    1    2    0    0  0.53304501427E+02 -0.26719225592E+02  0.17647039603E+03  0.22432585131E+03  0.12500000000E+03 0.  0.
         25    1    1    2    0    0 -0.30976259282E+00  0.84379964564E+01  0.36659426845E+02  0.13053815271E+03  0.12500000000E+03 0.  0.
</event>
<event>
 5    0  0.5605075E-005  0.2671809E+03  0.7546771E-02  0.1102904E+00
         21   -1    0    0  502  501  0.00000000000E+00  0.00000000000E+00  0.79891329137E+03  0.79891329137E+03  0.00000000000E+00 0.  1.
         21   -1    0    0  501  502 -0.00000000000E+00 -0.00000000000E+00 -0.89353433876E+02  0.89353433876E+02  0.00000000000E+00 0.  1.
         25    1    1    2    0    0 -0.22226787433E+02 -0.74026728834E+01  0.32596828645E+02  0.13128740565E+03  0.12500000000E+03 0.  0.
         25    1    1    2    0    0  0.12587134027E+02  0.39455018984E+02  0.99103274857E+02  0.16480774725E+03  0.12500000000E+03 0.  0.
         25    1    1    2    0    0  0.96396534059E+01 -0.32052346101E+02  0.57785975399E+03  0.59217157234E+03  0.12500000000E+03 0.  0.
</event>
<event>
 5    0  0.5605075E-005  0.3552453E+03  0.7546771E-02  0.1060483E+00
         21   -1    0    0  502  501  0.00000000000E+00  0.00000000000E+00  0.39941734110E+03  0.39941734110E+03  0.00000000000E+00 0. -1.
         21   -1    0    0  501  502 -0.00000000000E+00 -0.00000000000E+00 -0.31595824954E+03  0.31595824954E+03  0.00000000000E+00 0. -1.
         25    1    1    2    0    0  0.37455357126E+02  0.13879437323E+03  0.21450024365E+02  0.19170781248E+03  0.12500000000E+03 0.  0.
         25    1    1    2    0    0  0.86856034910E+02 -0.17506060812E+03  0.19242617394E+03  0.30140175801E+03  0.12500000000E+03 0.  0.
         25    1    1    2    0    0 -0.12431139204E+03  0.36266234887E+02 -0.13041710675E+03  0.22226602015E+03  0.12500000000E+03 0.  0.
</event>
<event>
 5    0  0.5605075E-005  0.4168825E+03  0.7546771E-02  0.1038086E+00
         21   -1    0    0  502  501  0.00000000000E+00  0.00000000000E+00  0.29661126113E+03  0.29661126113E+03  0.00000000000E+00 0. -1.
         21   -1    0    0  501  502 -0.00000000000E+00 -0.00000000000E+00 -0.58592197510E+03  0.58592197510E+03  0.00000000000E+00 0. -1.
         25    1    1    2    0    0  0.46391152685E+02 -0.36904046796E+02 -0.21313013909E+03  0.25409349442E+03  0.12500000000E+03 0.  0.
         25    1    1    2    0    0  0.22194029848E+03  0.14501597630E+03 -0.10646684733E+03  0.31184502409E+03  0.12500000000E+03 0.  0.
         25    1    1    2    0    0 -0.26833145117E+03 -0.10811192950E+03  0.30286272444E+02  0.31659471771E+03  0.12500000000E+03 0.  0.
</event>
<event>
 5    0  0.5605075E-005  0.3224675E+03  0.7546771E-02  0.1074519E+00
         21   -1    0    0  502  501  0.00000000000E+00  0.00000000000E+00  0.14905596483E+03  0.14905596483E+03  0.00000000000E+00 0. -1.
         21   -1    0    0  501  502 -0.00000000000E+00 -0.00000000000E+00 -0.69762569666E+03  0.69762569666E+03  0.00000000000E+00 0. -1.
         25    1    1    2    0    0  0.28384086454E+01  0.82715669804E+01 -0.27546770340E+03  0.30262837111E+03  0.12500000000E+03 0.  0.
         25    1    1    2    0    0 -0.10330392576E+03 -0.10924203215E+03 -0.29433378216E+03  0.35335944587E+03  0.12500000000E+03 0.  0.
         25    1    1    2    0    0  0.10046551712E+03  0.10097046517E+03  0.21231753724E+02  0.19069384451E+03  0.12500000000E+03 0.  0.
</event>
<event>
 5    0  0.5605075E-005  0.3518664E+03  0.7546771E-02  0.1061852E+00
         21   -1    0    0  502  501  0.00000000000E+00  0.00000000000E+00  0.25445784598E+03  0.25445784598E+03  0.00000000000E+00 0. -1.
         21   -1    0    0  501  502 -0.00000000000E+00 -0.00000000000E+00 -0.48656361849E+03  0.48656361849E+03  0.00000000000E+00 0. -1.
         25    1    1    2    0    0  0.12509296437E+03  0.52406396716E+02 -0.34028588103E+02  0.18755699123E+03  0.12500000000E+03 0.  0.
         25    1    1    2    0    0  0.56244196733E+02 -0.62686287280E+02 -0.28021220746E+03  0.31817740568E+03  0.12500000000E+03 0.  0.
         25    1    1    2    0    0 -0.18133716110E+03  0.10279890564E+02  0.82135023049E+02  0.23528706755E+03  0.12500000000E+03 0.  0.
</event>
<event>
 5    0  0.5605075E-005  0.2892878E+03  0.7546771E-02  0.1090722E+00
         21   -1    0    0  502  501  0.00000000000E+00  0.00000000000E+00  0.26728504757E+04  0.26728504757E+04  0.00000000000E+00 0. -1.
         21   -1    0    0  501  502 -0.00000000000E+00 -0.00000000000E+00 -0.31310173366E+02  0.31310173366E+02  0.00000000000E+00 0. -1.
         25    1    1    2    0    0 -0.71302877630E+02  0.13904565770E+02  0.11279900817E+04  0.11372176844E+04  0.12500000000E+03 0.  0.
         25    1    1    2    0    0 -0.11000780491E+03 -0.60882317843E+02  0.76384897564E+03  0.78415472412E+03  0.12500000000E+03 0.  0.
         25    1    1    2    0    0  0.18131068254E+03  0.46977752073E+02  0.74970124502E+03  0.78278824057E+03  0.12500000000E+03 0.  0.
</event>
<event>
 5    0  0.5605075E-005  0.2459174E+03  0.7546771E-02  0.1115912E+00
         21   -1    0    0  502  501  0.00000000000E+00  0.00000000000E+00  0.19094041951E+04  0.19094041951E+04  0.00000000000E+00 0. -1.
         21   -1    0    0  501  502 -0.00000000000E+00 -0.00000000000E+00 -0.31672383040E+02  0.31672383040E+02  0.00000000000E+00 0. -1.
         25    1    1    2    0    0 -0.58100095944E+02 -0.59841085291E+02  0.27558462974E+03  0.31389244143E+03  0.12500000000E+03 0.  0.
         25    1    1    2    0    0 -0.90880111398E+01  0.63761808434E+02  0.70686375932E+03  0.72071459982E+03  0.12500000000E+03 0.  0.
         25    1    1    2    0    0  0.67188107084E+02 -0.39207231427E+01  0.89528342296E+03  0.90646953685E+03  0.12500000000E+03 0.  0.
</event>
<event>
 5    0  0.5605075E-005  0.3735143E+03  0.7546771E-02  0.1053357E+00
         21   -1    0    0  502  501  0.00000000000E+00  0.00000000000E+00  0.15724667046E+03  0.15724667046E+03  0.00000000000E+00 0.  1.
         21   -1    0    0  501  502 -0.00000000000E+00 -0.00000000000E+00 -0.88722340647E+03  0.88722340647E+03  0.00000000000E+00 0.  1.
         25    1    1    2    0    0 -0.42735042423E+02 -0.56984220099E+02  0.54430776043E+01  0.14397260950E+03  0.12500000000E+03 0.  0.
         25    1    1    2    0    0 -0.19751672487E+03  0.81522408512E+02 -0.36220892175E+03  0.43872435844E+03  0.12500000000E+03 0.  0.
         25    1    1    2    0    0  0.24025176730E+03 -0.24538188413E+02 -0.37321089186E+03  0.46177310899E+03  0.12500000000E+03 0.  0.
</event>
<event>
 5    0  0.5605075E-005  0.3494508E+03  0.7546771E-02  0.1062841E+00
         21   -1    0    0  502  501  0.00000000000E+00  0.00000000000E+00  0.10823694829E+03  0.10823694829E+03  0.00000000000E+00 0. -1.
         21   -1    0    0  501  502 -0.00000000000E+00 -0.00000000000E+00 -0.11282271626E+04  0.11282271626E+04  0.00000000000E+00 0. -1.
         25    1    1    2    0    0  0.13401051693E+03  0.22482119696E+02 -0.16602148238E+03  0.24829900718E+03  0.12500000000E+03 0.  0.
         25    1    1    2    0    0 -0.23793029020E+03  0.99165581413E+02 -0.58286335333E+03  0.64946079496E+03  0.12500000000E+03 0.  0.
         25    1    1    2    0    0  0.10391977327E+03 -0.12164770111E+03 -0.27110537855E+03  0.33870430871E+03  0.12500000000E+03 0.  0.
</event>
<event>
 5    0  0.5605075E-005  0.5366732E+03  0.7546771E-02  0.1004626E+00
         21   -1    0    0  502  501  0.00000000000E+00  0.00000000000E+00  0.25085643874E+03  0.25085643874E+03  0.00000000000E+00 0.  1.
         21   -1    0    0  501  502 -0.00000000000E+00 -0.00000000000E+00 -0.11481392756E+04  0.11481392756E+04  0.00000000000E+00 0.  1.
         25    1    1    2    0    0  0.27951751034E+03 -0.92354683836E+02  0.73103464890E+02  0.32806789357E+03  0.12500000000E+03 0.  0.
         25    1    1    2    0    0 -0.21430616220E+03 -0.61432325284E+01 -0.36347377697E+03  0.44011709466E+03  0.12500000000E+03 0.  0.
         25    1    1    2    0    0 -0.65211348139E+02  0.98497916364E+02 -0.60691252481E+03  0.63081072615E+03  0.12500000000E+03 0.  0.
</event>
<event>
 5    0  0.5605075E-005  0.2593525E+03  0.7546771E-02  0.1107533E+00
         21   -1    0    0  502  501  0.00000000000E+00  0.00000000000E+00  0.26051594894E+03  0.26051594894E+03  0.00000000000E+00 0. -1.
         21   -1    0    0  501  502 -0.00000000000E+00 -0.00000000000E+00 -0.25819418964E+03  0.25819418964E+03  0.00000000000E+00 0. -1.
         25    1    1    2    0    0  0.26457706000E+02 -0.38562740462E+02 -0.28197838429E+02  0.13640825947E+03  0.12500000000E+03 0.  0.
         25    1    1    2    0    0 -0.82438273382E+01  0.38669764060E+02  0.15632352288E+03  0.20402292800E+03  0.12500000000E+03 0.  0.
         25    1    1    2    0    0 -0.18213878661E+02 -0.10702359763E+00 -0.12580392515E+03  0.17827895112E+03  0.12500000000E+03 0.  0.
</event>
<event>
 5    0  0.5605075E-005  0.3367048E+03  0.7546771E-02  0.1068208E+00
         21   -1    0    0  502  501  0.00000000000E+00  0.00000000000E+00  0.75211919990E+03  0.75211919990E+03  0.00000000000E+00 0. -1.
         21   -1    0    0  501  502 -0.00000000000E+00 -0.00000000000E+00 -0.15073421108E+03  0.15073421108E+03  0.00000000000E+00 0. -1.
         25    1    1    2    0    0 -0.51637970656E+02  0.53731761634E+02  0.43144377922E+03  0.45532660459E+03  0.12500000000E+03 0.  0.
         25    1    1    2    0    0  0.47682214960E+02  0.21683872232E+02 -0.80484755770E+02  0.15762797927E+03  0.12500000000E+03 0.  0.
         25    1    1    2    0    0  0.39557556960E+01 -0.75415633865E+02  0.25042596537E+03  0.28989882712E+03  0.12500000000E+03 0.  0.
</event>
<event>
 5    0  0.5605075E-005  0.2535742E+03  0.7546771E-02  0.1111067E+00
         21   -1    0    0  502  501  0.00000000000E+00  0.00000000000E+00  0.25117934646E+03  0.25117934646E+03  0.00000000000E+00 0. -1.
         21   -1    0    0  501  502 -0.00000000000E+00 -0.00000000000E+00 -0.25599192578E+03  0.25599192578E+03  0.00000000000E+00 0. -1.
         25    1    1    2    0    0  0.96359482426E+01 -0.31984009081E+02 -0.11552439111E+03  0.17345521981E+03  0.12500000000E+03 0.  0.
         25    1    1    2    0    0 -0.53761532936E+02 -0.62825332608E+01  0.13707577712E+03  0.19324735786E+03  0.12500000000E+03 0.  0.
         25    1    1    2    0    0  0.44125584693E+02  0.38266542342E+02 -0.26363965324E+02  0.14046869457E+03  0.12500000000E+03 0.  0.
</event>
<event>
 5    0  0.5605075E-005  0.2709843E+03  0.7546771E-02  0.1100718E+00
         21   -1    0    0  502  501  0.00000000000E+00  0.00000000000E+00  0.13495643820E+04  0.13495643820E+04  0.00000000000E+00 0. -1.
         21   -1    0    0  501  502 -0.00000000000E+00 -0.00000000000E+00 -0.54412008251E+02  0.54412008251E+02  0.00000000000E+00 0. -1.
         25    1    1    2    0    0  0.75694615331E+02 -0.14673139728E+03  0.67928167406E+03  0.71014672460E+03  0.12500000000E+03 0.  0.
         25    1    1    2    0    0 -0.88322919349E+02  0.59549684747E+02  0.36100379917E+03  0.39660540345E+03  0.12500000000E+03 0.  0.
         25    1    1    2    0    0  0.12628304018E+02  0.87181712529E+02  0.25486690054E+03  0.29722426222E+03  0.12500000000E+03 0.  0.
</event>
<event>
 5    0  0.5605075E-005  0.3096528E+03  0.7546771E-02  0.1080512E+00
         21   -1    0    0  502  501  0.00000000000E+00  0.00000000000E+00  0.94020845071E+03  0.94020845071E+03  0.00000000000E+00 0. -1.
         21   -1    0    0  501  502 -0.00000000000E+00 -0.00000000000E+00 -0.10198253622E+03  0.10198253622E+03  0.00000000000E+00 0. -1.
         25    1    1    2    0    0  0.78798164292E+02  0.73764352075E+02  0.14431375487E+03  0.21932120321E+03  0.12500000000E+03 0.  0.
         25    1    1    2    0    0 -0.42541309142E+02  0.13369117474E+03  0.38713506308E+03  0.43032737567E+03  0.12500000000E+03 0.  0.
         25    1    1    2    0    0 -0.36256855150E+02 -0.20745552682E+03  0.30677709654E+03  0.39254240805E+03  0.12500000000E+03 0.  0.
</event>
<event>
 5    0  0.5605075E-005  0.3225371E+03  0.7546771E-02  0.1074488E+00
         21   -1    0    0  502  501  0.00000000000E+00  0.00000000000E+00  0.23935459909E+04  0.23935459909E+04  0.00000000000E+00 0. -1.
         21   -1    0    0  501  502 -0.00000000000E+00 -0.00000000000E+00 -0.43462800618E+02  0.43462800618E+02  0.00000000000E+00 0. -1.
         25    1    1    2    0    0  0.72280080328E+02  0.17572704097E+03  0.70848513952E+03  0.74409716829E+03  0.12500000000E+03 0.  0.
         25    1    1    2    0    0 -0.13393725291E+03 -0.17878003929E+03  0.12805021776E+04  0.13058377835E+04  0.12500000000E+03 0.  0.
         25    1    1    2    0    0  0.61657172580E+02  0.30529983135E+01  0.36109587319E+03  0.38707383968E+03  0.12500000000E+03 0.  0.
</event>
<event>
 5    0  0.5605075E-005  0.2706185E+03  0.7546771E-02  0.1100926E+00
         21   -1    0    0  502  501  0.00000000000E+00  0.00000000000E+00  0.67996609044E+03  0.67996609044E+03  0.00000000000E+00 0.  1.
         21   -1    0    0  501  502 -0.00000000000E+00 -0.00000000000E+00 -0.10770301391E+03  0.10770301391E+03  0.00000000000E+00 0.  1.
         25    1    1    2    0    0  0.18932932254E+02  0.50805303709E+02 -0.14391912560E+02  0.13701007976E+03  0.12500000000E+03 0.  0.
         25    1    1    2    0    0 -0.57754169615E+02 -0.43794397175E+02  0.37288921027E+03  0.39990605955E+03  0.12500000000E+03 0.  0.
         25    1    1    2    0    0  0.38821237361E+02 -0.70109065342E+01  0.21376577882E+03  0.25075296503E+03  0.12500000000E+03 0.  0.
</event>
<event>
 5    0  0.5605075E-005  0.2365993E+03  0.7546771E-02  0.1122079E+00
         21   -1    0    0  502  501  0.00000000000E+00  0.00000000000E+00  0.67327965186E+03  0.67327965186E+03  0.00000000000E+00 0.  1.
         21   -1    0    0  501  502 -0.00000000000E+00 -0.00000000000E+00 -0.83144062027E+02  0.83144062027E+02  0.00000000000E+00 0.  1.
         25    1    1    2    0    0 -0.39011131318E+01 -0.71985572002E+02  0.38343902916E+03  0.40969211653E+03  0.12500000000E+03 0.  0.
         25    1    1    2    0    0  0.40162709778E+02  0.50406861209E+02  0.71267857551E+02  0.15766420784E+03  0.12500000000E+03 0.  0.
         25    1    1    2    0    0 -0.36261596646E+02  0.21578710792E+02  0.13542870312E+03  0.18906738952E+03  0.12500000000E+03 0.  0.
</event>
<event>
 5    0  0.5605075E-005  0.3918926E+03  0.7546771E-02  0.1046624E+00
         21   -1    0    0  502  501  0.00000000000E+00  0.00000000000E+00  0.25807890673E+03  0.25807890673E+03  0.00000000000E+00 0.  1.
         21   -1    0    0  501  502 -0.00000000000E+00 -0.00000000000E+00 -0.59508868100E+03  0.59508868100E+03  0.00000000000E+00 0.  1.
         25    1    1    2    0    0  0.13879347973E+03  0.23966547968E+03 -0.37545771818E+02  0.30616638801E+03  0.12500000000E+03 0.  0.
         25    1    1    2    0    0  0.28347706803E+02 -0.15700423349E+03 -0.24125325648E+03  0.31509055140E+03  0.12500000000E+03 0.  0.
         25    1    1    2    0    0 -0.16714118653E+03 -0.82661246184E+02 -0.58210745969E+02  0.23191064832E+03  0.12500000000E+03 0.  0.
</event>
<event>
 5    0  0.5605075E-005  0.2913065E+03  0.7546771E-02  0.1089669E+00
         21   -1    0    0  502  501  0.00000000000E+00  0.00000000000E+00  0.11452750671E+04  0.11452750671E+04  0.00000000000E+00 0. -1.
         21   -1    0    0  501  502 -0.00000000000E+00 -0.00000000000E+00 -0.74095296355E+02  0.74095296355E+02  0.00000000000E+00 0. -1.
         25    1    1    2    0    0 -0.79583777900E+02 -0.12508023338E+03  0.51165468336E+03  0.54716922199E+03  0.12500000000E+03 0.  0.
         25    1    1    2    0    0  0.23311573970E+01  0.35740737627E+02  0.58686891653E+02  0.14266038649E+03  0.12500000000E+03 0.  0.
         25    1    1    2    0    0  0.77252620503E+02  0.89339495758E+02  0.50083819570E+03  0.52954075495E+03  0.12500000000E+03 0.  0.
</event>
<event>
 5    0  0.5605075E-005  0.3580834E+03  0.7546771E-02  0.1059345E+00
         21   -1    0    0  502  501  0.00000000000E+00  0.00000000000E+00  0.99374516368E+02  0.99374516368E+02  0.00000000000E+00 0.  1.
         21   -1    0    0  501  502 -0.00000000000E+00 -0.00000000000E+00 -0.12903075763E+04  0.12903075763E+04  0.00000000000E+00 0.  1.
         25    1    1    2    0    0 -0.36186213060E+02 -0.52351456156E+01 -0.35296965425E+01  0.13028548470E+03  0.12500000000E+03 0.  0.
         25    1    1    2    0    0 -0.14129567663E+03  0.54691582825E+02 -0.59139420481E+03  0.62315948436E+03  0.12500000000E+03 0.  0.
         25    1    1    2    0    0  0.17748188969E+03 -0.49456437209E+02 -0.59600915861E+03  0.63623712364E+03  0.12500000000E+03 0.  0.
</event>
<event>
 5    0  0.5605075E-005  0.3424850E+03  0.7546771E-02  0.1065742E+00
         21   -1    0    0  502  501  0.00000000000E+00  0.00000000000E+00  0.78057695233E+03  0.78057695233E+03  0.00000000000E+00 0. -1.
         21   -1    0    0  501  502 -0.00000000000E+00 -0.00000000000E+00 -0.15026828561E+03  0.15026828561E+03  0.00000000000E+00 0. -1.
         25    1    1    2    0    0  0.16134847997E+03 -0.15217186143E+03  0.25884880081E+03  0.36306653533E+03  0.12500000000E+03 0.  0.
         25    1    1    2    0    0 -0.19305628580E+03  0.17610374579E+03  0.20045011680E+03  0.35226198786E+03  0.12500000000E+03 0.  0.
         25    1    1    2    0    0  0.31707805836E+02 -0.23931884363E+02  0.17100974912E+03  0.21551671474E+03  0.12500000000E+03 0.  0.
</event>
<event>
 5    0  0.5605075E-005  0.2609729E+03  0.7546771E-02  0.1106560E+00
         21   -1    0    0  502  501  0.00000000000E+00  0.00000000000E+00  0.84427523622E+03  0.84427523622E+03  0.00000000000E+00 0. -1.
         21   -1    0    0  501  502 -0.00000000000E+00 -0.00000000000E+00 -0.80669035815E+02  0.80669035815E+02  0.00000000000E+00 0. -1.
         25    1    1    2    0    0 -0.95401944934E+02  0.32324662904E+02  0.16303965006E+03  0.22880852786E+03  0.12500000000E+03 0.  0.
         25    1    1    2    0    0 -0.32816762671E+02 -0.65297116377E+02  0.14226460625E+03  0.20298983105E+03  0.12500000000E+03 0.  0.
         25    1    1    2    0    0  0.12821870761E+03  0.32972453473E+02  0.45830194410E+03  0.49314591312E+03  0.12500000000E+03 0.  0.
</event>
<event>
 5    0  0.5605075E-005  0.4109432E+03  0.7546771E-02  0.1040055E+00
         21   -1    0    0  502  501  0.00000000000E+00  0.00000000000E+00  0.44470082639E+03  0.44470082639E+03  0.00000000000E+00 0. -1.
         21   -1    0    0  501  502 -0.00000000000E+00 -0.00000000000E+00 -0.37974813373E+03  0.37974813373E+03  0.00000000000E+00 0. -1.
         25    1    1    2    0    0 -0.36326120755E+02 -0.16798300113E+03  0.31417622462E+03  0.37930143136E+03  0.12500000000E+03 0.  0.
         25    1    1    2    0    0 -0.30924415502E+02  0.15814745560E+02 -0.18765802060E+03  0.22813802477E+03  0.12500000000E+03 0.  0.
         25    1    1    2    0    0  0.67250536257E+02  0.15216825557E+03 -0.61565511366E+02  0.21700950398E+03  0.12500000000E+03 0.  0.
</event>
<event>
 5    0  0.5605075E-005  0.3441964E+03  0.7546771E-02  0.1065023E+00
         21   -1    0    0  502  501  0.00000000000E+00  0.00000000000E+00  0.10099520213E+04  0.10099520213E+04  0.00000000000E+00 0. -1.
         21   -1    0    0  501  502 -0.00000000000E+00 -0.00000000000E+00 -0.11730372965E+03  0.11730372965E+03  0.00000000000E+00 0. -1.
         25    1    1    2    0    0 -0.49014482747E+02  0.96509778608E+02  0.10808834223E+03  0.19754656821E+03  0.12500000000E+03 0.  0.
         25    1    1    2    0    0 -0.15237236328E+03 -0.33252838504E+02  0.15156619623E+03  0.25083939124E+03  0.12500000000E+03 0.  0.
         25    1    1    2    0    0  0.20138684603E+03 -0.63256940104E+02  0.63299375323E+03  0.67886979153E+03  0.12500000000E+03 0.  0.
</event>
<event>
 5    0  0.5605075E-005  0.5595751E+03  0.7546771E-02  0.9993016E-01
         21   -1    0    0  502  501  0.00000000000E+00  0.00000000000E+00  0.89205500111E+03  0.89205500111E+03  0.00000000000E+00 0.  1.
         21   -1    0    0  501  502 -0.00000000000E+00 -0.00000000000E+00 -0.35101458530E+03  0.35101458530E+03  0.00000000000E+00 0.  1.
         25    1    1    2    0    0  0.10798911020E+03 -0.23089575200E+03  0.63420118979E+03  0.69484577090E+03  0.12500000000E+03 0.  0.
         25    1    1    2    0    0  0.19581601914E+02  0.15754554729E+03  0.13975648416E+03  0.24568458126E+03  0.12500000000E+03 0.  0.
         25    1    1    2    0    0 -0.12757071211E+03  0.73350204711E+02 -0.23291725813E+03  0.30253923424E+03  0.12500000000E+03 0.  0.
</event>
<event>
 5    0  0.5605075E-005  0.3107909E+03  0.7546771E-02  0.1079967E+00
         21   -1    0    0  502  501  0.00000000000E+00  0.00000000000E+00  0.22137682674E+03  0.22137682674E+03  0.00000000000E+00 0.  1.
         21   -1    0    0  501  502 -0.00000000000E+00 -0.00000000000E+00 -0.43631934643E+03  0.43631934643E+03  0.00000000000E+00 0.  1.
         25    1    1    2    0    0 -0.10859746982E+03 -0.94334523863E+02 -0.18744718324E+03  0.26730854709E+03  0.12500000000E+03 0.  0.
         25    1    1    2    0    0 -0.33725697519E+02 -0.57778678174E+02  0.18983458316E+02  0.14304254617E+03  0.12500000000E+03 0.  0.
         25    1    1    2    0    0  0.14232316734E+03  0.15211320204E+03 -0.46478794763E+02  0.24734507991E+03  0.12500000000E+03 0.  0.
</event>
<event>
 5    0  0.5605075E-005  0.2737991E+03  0.7546771E-02  0.1099125E+00
         21   -1    0    0  502  501  0.00000000000E+00  0.00000000000E+00  0.55973388037E+02  0.55973388037E+02  0.00000000000E+00 0. -1.
         21   -1    0    0  501  502 -0.00000000000E+00 -0.00000000000E+00 -0.13393136816E+04  0.13393136816E+04  0.00000000000E+00 0. -1.
         25    1    1    2    0    0 -0.18082929638E+02 -0.70757380776E+02 -0.33732734257E+03  0.36708082941E+03  0.12500000000E+03 0.  0.
         25    1    1    2    0    0  0.10698359030E+03  0.57856917501E+02 -0.19515195111E+03  0.26172924085E+03  0.12500000000E+03 0.  0.
         25    1    1    2    0    0 -0.88900660657E+02  0.12900463276E+02 -0.75086099987E+03  0.76647699936E+03  0.12500000000E+03 0.  0.
</event>
<event>
 5    0  0.5605075E-005  0.4271968E+03  0.7546771E-02  0.1034749E+00
         21   -1    0    0  502  501  0.00000000000E+00  0.00000000000E+00  0.11702223558E+03  0.11702223558E+03  0.00000000000E+00 0.  1.
         21   -1    0    0  501  502 -0.00000000000E+00 -0.00000000000E+00 -0.15595080067E+04  0.15595080067E+04  0.00000000000E+00 0.  1.
         25    1    1    2    0    0  0.90795214031E+02 -0.19208276412E+03 -0.28796261636E+03  0.37906071754E+03  0.12500000000E+03 0.  0.
         25    1    1    2    0    0 -0.23197240831E+03 -0.51861501184E+02 -0.39401442632E+03  0.47683664045E+03  0.12500000000E+03 0.  0.
         25    1    1    2    0    0  0.14117719428E+03  0.24394426530E+03 -0.76050872839E+03  0.82063288425E+03  0.12500000000E+03 0.  0.
</event>
<event>
 5    0  0.5605075E-005  0.2893222E+03  0.7546771E-02  0.1090704E+00
         21   -1    0    0  502  501  0.00000000000E+00  0.00000000000E+00  0.67621885025E+03  0.67621885025E+03  0.00000000000E+00 0.  1.
         21   -1    0    0  501  502 -0.00000000000E+00 -0.00000000000E+00 -0.12378734369E+03  0.12378734369E+03  0.00000000000E+00 0.  1.
         25    1    1    2    0    0 -0.66343972725E+02 -0.15069635033E+02  0.41258272089E+03  0.43643798894E+03  0.12500000000E+03 0.  0.
         25    1    1    2    0    0 -0.12287822578E+02  0.10044527197E+03  0.96542284431E+02  0.18757839942E+03  0.12500000000E+03 0.  0.
         25    1    1    2    0    0  0.78631795303E+02 -0.85375636942E+02  0.43306501248E+02  0.17598980557E+03  0.12500000000E+03 0.  0.
</event>
<event>
 5    0  0.5605075E-005  0.2469146E+03  0.7546771E-02  0.1115270E+00
         21   -1    0    0  502  501  0.00000000000E+00  0.00000000000E+00  0.12798616715E+03  0.12798616715E+03  0.00000000000E+00 0.  1.
         21   -1    0    0  501  502 -0.00000000000E+00 -0.00000000000E+00 -0.47635475028E+03  0.47635475028E+03  0.00000000000E+00 0.  1.
         25    1    1    2    0    0 -0.98213345670E+02 -0.10015797521E+03 -0.13488919966E+03  0.23129543327E+03  0.12500000000E+03 0.  0.
         25    1    1    2    0    0  0.63453556011E+02  0.69747161414E+02 -0.54929128512E+02  0.16593139985E+03  0.12500000000E+03 0.  0.
         25    1    1    2    0    0  0.34759789659E+02  0.30410813793E+02 -0.15855025496E+03  0.20711408431E+03  0.12500000000E+03 0.  0.
</event>
<event>
 5    0  0.5605075E-005  0.3480112E+03  0.7546771E-02  0.1063434E+00
         21   -1    0    0  502  501  0.00000000000E+00  0.00000000000E+00  0.41236427609E+03  0.41236427609E+03  0.00000000000E+00 0. -1.
         21   -1    0    0  501  502 -0.00000000000E+00 -0.00000000000E+00 -0.29370090796E+03  0.29370090796E+03  0.00000000000E+00 0. -1.
         25    1    1    2    0    0  0.29086617697E+02 -0.23280192522E+02  0.75440456332E+01  0.13065187070E+03  0.12500000000E+03 0.  0.
         25    1    1    2    0    0  0.19853093563E+03  0.15455092790E+02 -0.84886899068E+02  0.24996835385E+03  0.12500000000E+03 0.  0.
         25    1    1    2    0    0 -0.22761755333E+03  0.78250997315E+01  0.19600622156E+03  0.32544495949E+03  0.12500000000E+03 0.  0.
</event>
<event>
 5    0  0.5605075E-005  0.3497144E+03  0.7546771E-02  0.1062732E+00
         21   -1    0    0  502  501  0.00000000000E+00  0.00000000000E+00  0.10836346476E+03  0.10836346476E+03  0.00000000000E+00 0.  1.
         21   -1    0    0  501  502 -0.00000000000E+00 -0.00000000000E+00 -0.11286106190E+04  0.11286106190E+04  0.00000000000E+00 0.  1.
         25    1    1    2    0    0 -0.40429041833E+02  0.23030584498E+02 -0.66496165496E+02  0.14903575166E+03  0.12500000000E+03 0.  0.
         25    1    1    2    0    0  0.18359183469E+03 -0.12477205066E+03 -0.74699795425E+03  0.78924328951E+03  0.12500000000E+03 0.  0.
         25    1    1    2    0    0 -0.14316279286E+03  0.10174146616E+03 -0.20675303453E+03  0.29869504261E+03  0.12500000000E+03 0.  0.
</event>
<event>
 5    0  0.5605075E-005  0.3247877E+03  0.7546771E-02  0.1073467E+00
         21   -1    0    0  502  501  0.00000000000E+00  0.00000000000E+00  0.24203179951E+03  0.24203179951E+03  0.00000000000E+00 0.  1.
         21   -1    0    0  501  502 -0.00000000000E+00 -0.00000000000E+00 -0.43583957905E+03  0.43583957905E+03  0.00000000000E+00 0.  1.
         25    1    1    2    0    0  0.72160545511E+02 -0.12459364621E+03 -0.13320090985E+03  0.23259020484E+03  0.12500000000E+03 0.  0.
         25    1    1    2    0    0  0.36279441066E+01  0.22918276692E+03 -0.27639752284E+02  0.26253925143E+03  0.12500000000E+03 0.  0.
         25    1    1    2    0    0 -0.75788489618E+02 -0.10458912072E+03 -0.32967117411E+02  0.18274192229E+03  0.12500000000E+03 0.  0.
</event>
<event>
 5    0  0.5605075E-005  0.2370979E+03  0.7546771E-02  0.1121741E+00
         21   -1    0    0  502  501  0.00000000000E+00  0.00000000000E+00  0.82348107862E+02  0.82348107862E+02  0.00000000000E+00 0.  1.
         21   -1    0    0  501  502 -0.00000000000E+00 -0.00000000000E+00 -0.68265581712E+03  0.68265581712E+03  0.00000000000E+00 0.  1.
         25    1    1    2    0    0 -0.11445735025E+02  0.41985963492E+02 -0.10678983035E+03  0.17006732152E+03  0.12500000000E+03 0.  0.
         25    1    1    2    0    0  0.70644396771E+02  0.50812032392E+02 -0.15309425917E+03  0.21595218365E+03  0.12500000000E+03 0.  0.
         25    1    1    2    0    0 -0.59198661745E+02 -0.92797995884E+02 -0.34042361974E+03  0.37898441983E+03  0.12500000000E+03 0.  0.
</event>
<event>
 5    0  0.5605075E-005  0.2868765E+03  0.7546771E-02  0.1091991E+00
         21   -1    0    0  502  501  0.00000000000E+00  0.00000000000E+00  0.88671761361E+03  0.88671761361E+03  0.00000000000E+00 0.  1.
         21   -1    0    0  501  502 -0.00000000000E+00 -0.00000000000E+00 -0.92812089968E+02  0.92812089968E+02  0.00000000000E+00 0.  1.
         25    1    1    2    0    0  0.77974514976E+02  0.12375361911E+03  0.14120644358E+03  0.23866135619E+03  0.12500000000E+03 0.  0.
         25    1    1    2    0    0 -0.66847409815E+02 -0.12840297100E+03  0.53726888534E+03  0.57029707549E+03  0.12500000000E+03 0.  0.
         25    1    1    2    0    0 -0.11127105161E+02  0.46493518917E+01  0.11543019472E+03  0.17057127189E+03  0.12500000000E+03 0.  0.
</event>
<event>
 5    0  0.5605075E-005  0.2958390E+03  0.7546771E-02  0.1087339E+00
         21   -1    0    0  502  501  0.00000000000E+00  0.00000000000E+00  0.14381939589E+03  0.14381939589E+03  0.00000000000E+00 0.  1.
         21   -1    0    0  501  502 -0.00000000000E+00 -0.00000000000E+00 -0.60854597444E+03  0.60854597444E+03  0.00000000000E+00 0.  1.
         25    1    1    2    0    0  0.16864184019E+03 -0.24953566711E+02 -0.30693553982E+03  0.37268911490E+03  0.12500000000E+03 0.  0.
         25    1    1    2    0    0 -0.12054619876E+02  0.22387709139E+02 -0.49404215784E+01  0.12765551749E+03  0.12500000000E+03 0.  0.
         25    1    1    2    0    0 -0.15658722031E+03  0.25658575721E+01 -0.15285061715E+03  0.25202073794E+03  0.12500000000E+03 0.  0.
</event>
<event>
 5    0  0.5605075E-005  0.3450397E+03  0.7546771E-02  0.1064670E+00
         21   -1    0    0  502  501  0.00000000000E+00  0.00000000000E+00  0.12385236644E+03  0.12385236644E+03  0.00000000000E+00 0. -1.
         21   -1    0    0  501  502 -0.00000000000E+00 -0.00000000000E+00 -0.96124415430E+03  0.96124415430E+03  0.00000000000E+00 0. -1.
         25    1    1    2    0    0  0.48986614668E+02  0.78113529191E+02 -0.51731350653E+02  0.16371482676E+03  0.12500000000E+03 0.  0.
         25    1    1    2    0    0 -0.69763453962E+01 -0.14063436880E+03 -0.74706028931E+03  0.77042246265E+03  0.12500000000E+03 0.  0.
         25    1    1    2    0    0 -0.42010269272E+02  0.62520839608E+02 -0.38600147896E+02  0.15095923134E+03  0.12500000000E+03 0.  0.
</event>
<event>
 5    0  0.5605075E-005  0.2724328E+03  0.7546771E-02  0.1099895E+00
         21   -1    0    0  502  501  0.00000000000E+00  0.00000000000E+00  0.67787439935E+02  0.67787439935E+02  0.00000000000E+00 0. -1.
         21   -1    0    0  501  502 -0.00000000000E+00 -0.00000000000E+00 -0.10948876356E+04  0.10948876356E+04  0.00000000000E+00 0. -1.
         25    1    1    2    0    0  0.10899040482E+03 -0.11954010565E+02 -0.17796489879E+03  0.24355350934E+03  0.12500000000E+03 0.  0.
         25    1    1    2    0    0  0.59138387432E+02  0.13812572007E+02 -0.40176968459E+03  0.42512588191E+03  0.12500000000E+03 0.  0.
         25    1    1    2    0    0 -0.16812879225E+03 -0.18585614418E+01 -0.44736561229E+03  0.49399568429E+03  0.12500000000E+03 0.  0.
</event>
<event>
 5    0  0.5605075E-005  0.2159209E+03  0.7546771E-02  0.1136961E+00
         21   -1    0    0  502  501  0.00000000000E+00  0.00000000000E+00  0.24881433737E+03  0.24881433737E+03  0.00000000000E+00 0. -1.
         21   -1    0    0  501  502 -0.00000000000E+00 -0.00000000000E+00 -0.18737599532E+03  0.18737599532E+03  0.00000000000E+00 0. -1.
         25    1    1    2    0    0 -0.26631156499E+02 -0.16873006425E+02 -0.59207664115E+01  0.12905027050E+03  0.12500000000E+03 0.  0.
         25    1    1    2    0    0 -0.40401007855E+02  0.43620950908E+02  0.83891354020E+02  0.16185730775E+03  0.12500000000E+03 0.  0.
         25    1    1    2    0    0  0.67032164354E+02 -0.26747944483E+02 -0.16532245560E+02  0.14528275443E+03  0.12500000000E+03 0.  0.
</event>
<event>
 5    0  0.5605075E-005  0.2742723E+03  0.7546771E-02  0.1098859E+00
         21   -1    0    0  502  501  0.00000000000E+00  0.00000000000E+00  0.10576769028E+03  0.10576769028E+03  0.00000000000E+00 0.  1.
         21   -1    0    0  501  502 -0.00000000000E+00 -0.00000000000E+00 -0.71123146165E+03  0.71123146165E+03  0.00000000000E+00 0.  1.
         25    1    1    2    0    0  0.41968933458E+02 -0.11184549749E+03 -0.45787683780E+03  0.48943539439E+03  0.12500000000E+03 0.  0.
         25    1    1    2    0    0 -0.59198003468E+02  0.75008116512E+02 -0.54574170868E+02  0.16653516531E+03  0.12500000000E+03 0.  0.
         25    1    1    2    0    0  0.17229070010E+02  0.36837380983E+02 -0.93012762701E+02  0.16102859223E+03  0.12500000000E+03 0.  0.
</event>
<event>
 5    0  0.5605075E-005  0.2960609E+03  0.7546771E-02  0.1087226E+00
         21   -1    0    0  502  501  0.00000000000E+00  0.00000000000E+00  0.43332718424E+03  0.43332718424E+03  0.00000000000E+00 0. -1.
         21   -1    0    0  501  502 -0.00000000000E+00 -0.00000000000E+00 -0.20227679650E+03  0.20227679650E+03  0.00000000000E+00 0. -1.
         25    1    1    2    0    0  0.45708392378E+02  0.66693473910E+02  0.70036954369E+02  0.16452188782E+03  0.12500000000E+03 0.  0.
         25    1    1    2    0    0  0.80023534428E+02 -0.17047352639E+03  0.31465031408E+02  0.22821051129E+03  0.12500000000E+03 0.  0.
         25    1    1    2    0    0 -0.12573192681E+03  0.10378005248E+03  0.12954840196E+03  0.24287158163E+03  0.12500000000E+03 0.  0.
</event>
<event>
 5    0  0.5605075E-005  0.4045678E+03  0.7546771E-02  0.1042209E+00
         21   -1    0    0  502  501  0.00000000000E+00  0.00000000000E+00  0.56489220311E+03  0.56489220311E+03  0.00000000000E+00 0. -1.
         21   -1    0    0  501  502 -0.00000000000E+00 -0.00000000000E+00 -0.28974568060E+03  0.28974568060E+03  0.00000000000E+00 0. -1.
         25    1    1    2    0    0  0.11114377048E+03  0.23593568481E+03  0.12525675759E+03  0.31517112876E+03  0.12500000000E+03 0.  0.
         25    1    1    2    0    0 -0.23190749291E+03 -0.16487281146E+03  0.20565332763E+02  0.31146759404E+03  0.12500000000E+03 0.  0.
         25    1    1    2    0    0  0.12076372243E+03 -0.71062873351E+02  0.12932443215E+03  0.22799916091E+03  0.12500000000E+03 0.  0.
</event>
<event>
 5    0  0.5605075E-005  0.2414823E+03  0.7546771E-02  0.1118809E+00
         21   -1    0    0  502  501  0.00000000000E+00  0.00000000000E+00  0.10572401223E+04  0.10572401223E+04  0.00000000000E+00 0.  1.
         21   -1    0    0  501  502 -0.00000000000E+00 -0.00000000000E+00 -0.55156513876E+02  0.55156513876E+02  0.00000000000E+00 0.  1.
         25    1    1    2    0    0 -0.16460280798E+02 -0.37827663386E+02  0.22888526278E+03  0.26403661958E+03  0.12500000000E+03 0.  0.
         25    1    1    2    0    0  0.40705953180E+02  0.10948251085E+03  0.23497087896E+03  0.29065393299E+03  0.12500000000E+03 0.  0.
         25    1    1    2    0    0 -0.24245672382E+02 -0.71654847464E+02  0.53822746671E+03  0.55770608363E+03  0.12500000000E+03 0.  0.
</event>
<event>
 5    0  0.5605075E-005  0.2011064E+03  0.7546771E-02  0.1148809E+00
         21   -1    0    0  502  501  0.00000000000E+00  0.00000000000E+00  0.13384280832E+04  0.13384280832E+04  0.00000000000E+00 0. -1.
         21   -1    0    0  501  502 -0.00000000000E+00 -0.00000000000E+00 -0.30217373409E+02  0.30217373409E+02  0.00000000000E+00 0. -1.
         25    1    1    2    0    0 -0.87463833101E+01 -0.47430625635E+02  0.48150025256E+03  0.49979361409E+03  0.12500000000E+03 0.  0.
         25    1    1    2    0    0  0.66673784678E+01  0.34051040404E+02  0.54715882553E+03  0.56232704687E+03  0.12500000000E+03 0.  0.
         25    1    1    2    0    0  0.20790048423E+01  0.13379585231E+02  0.27955163173E+03  0.30652479567E+03  0.12500000000E+03 0.  0.
</event>
<event>
 5    0  0.5605075E-005  0.2447299E+03  0.7546771E-02  0.1116681E+00
         21   -1    0    0  502  501  0.00000000000E+00  0.00000000000E+00  0.16950807451E+03  0.16950807451E+03  0.00000000000E+00 0. -1.
         21   -1    0    0  501  502 -0.00000000000E+00 -0.00000000000E+00 -0.35333252010E+03  0.35333252010E+03  0.00000000000E+00 0. -1.
         25    1    1    2    0    0 -0.28795442253E+02 -0.24924222226E+02  0.11781785846E+02  0.13120291470E+03  0.12500000000E+03 0.  0.
         25    1    1    2    0    0 -0.30476025127E+02  0.10691855134E+03 -0.49744683557E+02  0.17452764329E+03  0.12500000000E+03 0.  0.
         25    1    1    2    0    0  0.59271467380E+02 -0.81994329119E+02 -0.14586154787E+03  0.21711003662E+03  0.12500000000E+03 0.  0.
</event>
<event>
 5    0  0.5605075E-005  0.3824161E+03  0.7546771E-02  0.1050044E+00
         21   -1    0    0  502  501  0.00000000000E+00  0.00000000000E+00  0.34758870268E+03  0.34758870268E+03  0.00000000000E+00 0.  1.
         21   -1    0    0  501  502 -0.00000000000E+00 -0.00000000000E+00 -0.42073316689E+03  0.42073316689E+03  0.00000000000E+00 0.  1.
         25    1    1    2    0    0 -0.44840043575E+02 -0.17975308773E+03 -0.12437216641E+03  0.25576402764E+03  0.12500000000E+03 0.  0.
         25    1    1    2    0    0 -0.37274788933E+02 -0.93758811633E+02  0.11085239708E+03  0.19517525096E+03  0.12500000000E+03 0.  0.
         25    1    1    2    0    0  0.82114832509E+02  0.27351189936E+03 -0.59624694881E+02  0.31738259097E+03  0.12500000000E+03 0.  0.
</event>
<event>
 5    0  0.5605075E-005  0.2578149E+03  0.7546771E-02  0.1108463E+00
         21   -1    0    0  502  501  0.00000000000E+00  0.00000000000E+00  0.13065120190E+04  0.13065120190E+04  0.00000000000E+00 0. -1.
         21   -1    0    0  501  502 -0.00000000000E+00 -0.00000000000E+00 -0.50874774439E+02  0.50874774439E+02  0.00000000000E+00 0. -1.
         25    1    1    2    0    0 -0.50040218538E+02 -0.60208789556E+02  0.47075610651E+03  0.49332082221E+03  0.12500000000E+03 0.  0.
         25    1    1    2    0    0  0.90389247802E+02 -0.54108580979E+02  0.22766447879E+03  0.28027498917E+03  0.12500000000E+03 0.  0.
         25    1    1    2    0    0 -0.40349029265E+02  0.11431737054E+03  0.55721665925E+03  0.58379098204E+03  0.12500000000E+03 0.  0.
</event>
<event>
 5    0  0.5605075E-005  0.4317071E+03  0.7546771E-02  0.1033322E+00
         21   -1    0    0  502  501  0.00000000000E+00  0.00000000000E+00  0.19123655556E+03  0.19123655556E+03  0.00000000000E+00 0.  1.
         21   -1    0    0  501  502 -0.00000000000E+00 -0.00000000000E+00 -0.97455755351E+03  0.97455755351E+03  0.00000000000E+00 0.  1.
         25    1    1    2    0    0 -0.81085468799E+02 -0.28806940115E+03 -0.36845400310E+03  0.49085862072E+03  0.12500000000E+03 0.  0.
         25    1    1    2    0    0  0.19026949556E+03  0.36822056807E+02 -0.16356010717E+03  0.28272823252E+03  0.12500000000E+03 0.  0.
         25    1    1    2    0    0 -0.10918402676E+03  0.25124734434E+03 -0.25130688767E+03  0.39220725584E+03  0.12500000000E+03 0.  0.
</event>
<event>
 5    0  0.5605075E-005  0.3154362E+03  0.7546771E-02  0.1077769E+00
         21   -1    0    0  502  501  0.00000000000E+00  0.00000000000E+00  0.74244972882E+02  0.74244972882E+02  0.00000000000E+00 0. -1.
         21   -1    0    0  501  502 -0.00000000000E+00 -0.00000000000E+00 -0.13401583124E+04  0.13401583124E+04  0.00000000000E+00 0. -1.
         25    1    1    2    0    0  0.15821311531E+02  0.50110531209E+02 -0.43421169595E+03  0.45489138938E+03  0.12500000000E+03 0.  0.
         25    1    1    2    0    0  0.11787019636E+03  0.11731367044E+03 -0.52720714327E+03  0.56677001718E+03  0.12500000000E+03 0.  0.
         25    1    1    2    0    0 -0.13369150789E+03 -0.16742420165E+03 -0.30449450025E+03  0.39274187867E+03  0.12500000000E+03 0.  0.
</event>
<event>
 5    0  0.5605075E-005  0.4221633E+03  0.7546771E-02  0.1036365E+00
         21   -1    0    0  502  501  0.00000000000E+00  0.00000000000E+00  0.11519175611E+04  0.11519175611E+04  0.00000000000E+00 0.  1.
         21   -1    0    0  501  502 -0.00000000000E+00 -0.00000000000E+00 -0.15471753772E+03  0.15471753772E+03  0.00000000000E+00 0.  1.
         25    1    1    2    0    0  0.27991235680E+03  0.11128538469E+03  0.15069271292E+03  0.35926126713E+03  0.12500000000E+03 0.  0.
         25    1    1    2    0    0 -0.20135662275E+03 -0.96544508470E+02  0.38242403024E+03  0.46015048685E+03  0.12500000000E+03 0.  0.
         25    1    1    2    0    0 -0.78555734052E+02 -0.14740876215E+02  0.46408328027E+03  0.48722334489E+03  0.12500000000E+03 0.  0.
</event>
<event>
 5    0  0.5605075E-005  0.2260985E+03  0.7546771E-02  0.1129416E+00
         21   -1    0    0  502  501  0.00000000000E+00  0.00000000000E+00  0.35073039122E+03  0.35073039122E+03  0.00000000000E+00 0.  1.
         21   -1    0    0  501  502 -0.00000000000E+00 -0.00000000000E+00 -0.14575444289E+03  0.14575444289E+03  0.00000000000E+00 0.  1.
         25    1    1    2    0    0  0.31861885802E+02  0.40588528455E+02 -0.29046040479E+02  0.13831587355E+03  0.12500000000E+03 0.  0.
         25    1    1    2    0    0 -0.41189448497E+02 -0.13025806164E+02  0.16809006245E+03  0.21388200342E+03  0.12500000000E+03 0.  0.
         25    1    1    2    0    0  0.93275626953E+01 -0.27562722291E+02  0.65931926368E+02  0.14428695714E+03  0.12500000000E+03 0.  0.
</event>
<event>
 5    0  0.5605075E-005  0.2642699E+03  0.7546771E-02  0.1104605E+00
         21   -1    0    0  502  501  0.00000000000E+00  0.00000000000E+00  0.30763851105E+03  0.30763851105E+03  0.00000000000E+00 0.  1.
         21   -1    0    0  501  502 -0.00000000000E+00 -0.00000000000E+00 -0.22701514000E+03  0.22701514000E+03  0.00000000000E+00 0.  1.
         25    1    1    2    0    0 -0.16392215026E+03  0.59086990781E+02  0.64217908186E+02  0.22385415689E+03  0.12500000000E+03 0.  0.
         25    1    1    2    0    0  0.83288368911E+02 -0.59152836823E+02  0.13841934928E+02  0.16202657085E+03  0.12500000000E+03 0.  0.
         25    1    1    2    0    0  0.80633781354E+02  0.65846041734E-01  0.25635279376E+01  0.14877292330E+03  0.12500000000E+03 0.  0.
</event>
<event>
 5    0  0.5605075E-005  0.4289173E+03  0.7546771E-02  0.1034203E+00
         21   -1    0    0  502  501  0.00000000000E+00  0.00000000000E+00  0.10803622053E+03  0.10803622053E+03  0.00000000000E+00 0. -1.
         21   -1    0    0  501  502 -0.00000000000E+00 -0.00000000000E+00 -0.17028549696E+04  0.17028549696E+04  0.00000000000E+00 0. -1.
         25    1    1    2    0    0 -0.13192203241E+03  0.41793851041E+02 -0.10738471104E+03  0.21518974136E+03  0.12500000000E+03 0.  0.
         25    1    1    2    0    0  0.96623040849E+02  0.21005214940E+03 -0.97862461698E+03  0.10133060043E+04  0.12500000000E+03 0.  0.
         25    1    1    2    0    0  0.35298991561E+02 -0.25184600044E+03 -0.50880942101E+03  0.58239544440E+03  0.12500000000E+03 0.  0.
</event>
<event>
 5    0  0.5980643E-005  0.2899600E+03  0.7546771E-02  0.1090370E+00
         21   -1    0    0  502  501  0.00000000000E+00  0.00000000000E+00  0.61379029349E+03  0.61379029349E+03  0.00000000000E+00 0. -1.
         21   -1    0    0  501  502 -0.00000000000E+00 -0.00000000000E+00 -0.13697970747E+03  0.13697970747E+03  0.00000000000E+00 0. -1.
         25    1    1    2    0    0 -0.10573384683E+03 -0.74999112653E+02  0.14631438347E+03  0.23202890353E+03  0.12500000000E+03 0.  0.
         25    1    1    2    0    0  0.11358828856E+03 -0.43095929719E+02  0.36556185687E+02  0.17810365849E+03  0.12500000000E+03 0.  0.
         25    1    1    2    0    0 -0.78544417341E+01  0.11809504237E+03  0.29394001686E+03  0.34063743893E+03  0.12500000000E+03 0.  0.
</event>
<event>
 5    0  0.5605075E-005  0.3305082E+03  0.7546771E-02  0.1070912E+00
         21   -1    0    0  502  501  0.00000000000E+00  0.00000000000E+00  0.10980180851E+03  0.10980180851E+03  0.00000000000E+00 0.  1.
         21   -1    0    0  501  502 -0.00000000000E+00 -0.00000000000E+00 -0.99484391221E+03  0.99484391221E+03  0.00000000000E+00 0.  1.
         25    1    1    2    0    0 -0.14555286115E+03  0.11909529383E+03 -0.17232622860E+03  0.28406100307E+03  0.12500000000E+03 0.  0.
         25    1    1    2    0    0  0.11526113696E+03 -0.31931973698E+02 -0.61066152371E+03  0.63469463302E+03  0.12500000000E+03 0.  0.
         25    1    1    2    0    0  0.30291724183E+02 -0.87163320133E+02 -0.10205435139E+03  0.18589008464E+03  0.12500000000E+03 0.  0.
</event>
<event>
 5    0  0.5605075E-005  0.4177407E+03  0.7546771E-02  0.1037804E+00
         21   -1    0    0  502  501  0.00000000000E+00  0.00000000000E+00  0.55943745537E+03  0.55943745537E+03  0.00000000000E+00 0. -1.
         21   -1    0    0  501  502 -0.00000000000E+00 -0.00000000000E+00 -0.31193347178E+03  0.31193347178E+03  0.00000000000E+00 0. -1.
         25    1    1    2    0    0  0.12690398236E+03 -0.78173736799E+02  0.30217285645E+03  0.35937332822E+03  0.12500000000E+03 0.  0.
         25    1    1    2    0    0 -0.41163022519E+02  0.19682507751E+03 -0.16642959180E+03  0.28941028764E+03  0.12500000000E+03 0.  0.
         25    1    1    2    0    0 -0.85740959837E+02 -0.11865134072E+03  0.11176071895E+03  0.22258731129E+03  0.12500000000E+03 0.  0.
</event>
<event>
 5    0  0.5605075E-005  0.3027846E+03  0.7546771E-02  0.1083857E+00
         21   -1    0    0  502  501  0.00000000000E+00  0.00000000000E+00  0.14149192944E+04  0.14149192944E+04  0.00000000000E+00 0. -1.
         21   -1    0    0  501  502 -0.00000000000E+00 -0.00000000000E+00 -0.64794173062E+02  0.64794173062E+02  0.00000000000E+00 0. -1.
         25    1    1    2    0    0  0.11826231459E+03 -0.17485329869E+03  0.53537344842E+03  0.58890523888E+03  0.12500000000E+03 0.  0.
         25    1    1    2    0    0 -0.47230965150E+02  0.88742508952E+02  0.21601857466E+03  0.26906322967E+03  0.12500000000E+03 0.  0.
         25    1    1    2    0    0 -0.71031349438E+02  0.86110789737E+02  0.59873309830E+03  0.62174499894E+03  0.12500000000E+03 0.  0.
</event>
<event>
 5    0  0.5762062E-005  0.3047196E+03  0.7546771E-02  0.1082905E+00
         21   -1    0    0  502  501  0.00000000000E+00  0.00000000000E+00  0.49117812612E+03  0.49117812612E+03  0.00000000000E+00 0. -1.
         21   -1    0    0  501  502 -0.00000000000E+00 -0.00000000000E+00 -0.18904346151E+03  0.18904346151E+03  0.00000000000E+00 0. -1.
         25    1    1    2    0    0  0.12302732516E+03  0.97187759535E+02  0.19104021210E+03  0.27695224494E+03  0.12500000000E+03 0.  0.
         25    1    1    2    0    0 -0.11071090098E+03 -0.17174493546E+03  0.48718325172E+02  0.24444161196E+03  0.12500000000E+03 0.  0.
         25    1    1    2    0    0 -0.12316424180E+02  0.74557175925E+02  0.62376127342E+02  0.15882773073E+03  0.12500000000E+03 0.  0.
</event>
<event>
 5    0  0.5605075E-005  0.3110420E+03  0.7546771E-02  0.1079848E+00
         21   -1    0    0  502  501  0.00000000000E+00  0.00000000000E+00  0.18979813770E+04  0.18979813770E+04  0.00000000000E+00 0.  1.
         21   -1    0    0  501  502 -0.00000000000E+00 -0.00000000000E+00 -0.50973687236E+02  0.50973687236E+02  0.00000000000E+00 0.  1.
         25    1    1    2    0    0 -0.10306101460E+03  0.89542096331E+02  0.13438197394E+04  0.13565086994E+04  0.12500000000E+03 0.  0.
         25    1    1    2    0    0  0.95826624945E+02 -0.67449616210E+02  0.37301175924E+03  0.41048138242E+03  0.12500000000E+03 0.  0.
         25    1    1    2    0    0  0.72343896581E+01 -0.22092480121E+02  0.13017619118E+03  0.18196498240E+03  0.12500000000E+03 0.  0.
</event>
<event>
 5    0  0.5605075E-005  0.3185078E+03  0.7546771E-02  0.1076338E+00
         21   -1    0    0  502  501  0.00000000000E+00  0.00000000000E+00  0.48139012869E+02  0.48139012869E+02  0.00000000000E+00 0. -1.
         21   -1    0    0  501  502 -0.00000000000E+00 -0.00000000000E+00 -0.21073802840E+04  0.21073802840E+04  0.00000000000E+00 0. -1.
         25    1    1    2    0    0 -0.59933906573E+02  0.12201585718E+03 -0.35517454664E+03  0.40031725062E+03  0.12500000000E+03 0.  0.
         25    1    1    2    0    0  0.16715064342E+03 -0.63012858417E+02 -0.12447639330E+04  0.12637136570E+04  0.12500000000E+03 0.  0.
         25    1    1    2    0    0 -0.10721673685E+03 -0.59002998760E+02 -0.45930279143E+03  0.49148838922E+03  0.12500000000E+03 0.  0.
</event>
<event>
 5    0  0.6040572E-005  0.2992893E+03  0.7546771E-02  0.1085596E+00
         21   -1    0    0  502  501  0.00000000000E+00  0.00000000000E+00  0.16903448700E+03  0.16903448700E+03  0.00000000000E+00 0. -1.
         21   -1    0    0  501  502 -0.00000000000E+00 -0.00000000000E+00 -0.52991621180E+03  0.52991621180E+03  0.00000000000E+00 0. -1.
         25    1    1    2    0    0 -0.11440299753E+03 -0.92744110466E+02 -0.13512318045E+03  0.23573881684E+03  0.12500000000E+03 0.  0.
         25    1    1    2    0    0  0.72260934368E+02  0.59479312408E+02  0.43013758000E+02  0.16197103018E+03  0.12500000000E+03 0.  0.
         25    1    1    2    0    0  0.42142063159E+02  0.33264798058E+02 -0.26877230235E+03  0.30124085179E+03  0.12500000000E+03 0.  0.
</event>
<event>
 5    0  0.5605075E-005  0.2831527E+03  0.7546771E-02  0.1093979E+00
         21   -1    0    0  502  501  0.00000000000E+00  0.00000000000E+00  0.12513017115E+03  0.12513017115E+03  0.00000000000E+00 0. -1.
         21   -1    0    0  501  502 -0.00000000000E+00 -0.00000000000E+00 -0.64073644934E+03  0.64073644934E+03  0.00000000000E+00 0. -1.
         25    1    1    2    0    0  0.72382584757E+02 -0.16744773963E+03 -0.11510322208E+03  0.24930249862E+03  0.12500000000E+03 0.  0.
         25    1    1    2    0    0 -0.80652002329E+02  0.99080573908E+02 -0.26588219278E+03  0.32037485239E+03  0.12500000000E+03 0.  0.
         25    1    1    2    0    0  0.82694175724E+01  0.68367165719E+02 -0.13462086333E+03  0.19618926948E+03  0.12500000000E+03 0.  0.
</event>
<event>
 5    0  0.5605075E-005  0.3197004E+03  0.7546771E-02  0.1075787E+00
         21   -1    0    0  502  501  0.00000000000E+00  0.00000000000E+00  0.45083151435E+02  0.45083151435E+02  0.00000000000E+00 0.  1.
         21   -1    0    0  501  502 -0.00000000000E+00 -0.00000000000E+00 -0.22671069330E+04  0.22671069330E+04  0.00000000000E+00 0.  1.
         25    1    1    2    0    0  0.14243687129E+03 -0.18444105986E+03 -0.84844993212E+03  0.88870639369E+03  0.12500000000E+03 0.  0.
         25    1    1    2    0    0 -0.60805370317E+02  0.17176423993E+03 -0.73061817888E+03  0.76330083878E+03  0.12500000000E+03 0.  0.
         25    1    1    2    0    0 -0.81631500975E+02  0.12676819935E+02 -0.64295567055E+03  0.66018285195E+03  0.12500000000E+03 0.  0.
</event>
<event>
 5    0  0.5605075E-005  0.2752305E+03  0.7546771E-02  0.1098323E+00
         21   -1    0    0  502  501  0.00000000000E+00  0.00000000000E+00  0.77307415901E+02  0.77307415901E+02  0.00000000000E+00 0. -1.
         21   -1    0    0  501  502 -0.00000000000E+00 -0.00000000000E+00 -0.97987823709E+03  0.97987823709E+03  0.00000000000E+00 0. -1.
         25    1    1    2    0    0 -0.15087530998E+03  0.89721624409E+02 -0.25661286515E+03  0.33509475020E+03  0.12500000000E+03 0.  0.
         25    1    1    2    0    0  0.11202520253E+03 -0.69422005422E+02 -0.45281533515E+03  0.48788911505E+03  0.12500000000E+03 0.  0.
         25    1    1    2    0    0  0.38850107445E+02 -0.20299618986E+02 -0.19314262088E+03  0.23420178774E+03  0.12500000000E+03 0.  0.
</event>
<event>
 5    0  0.5605075E-005  0.4002861E+03  0.7546771E-02  0.1043681E+00
         21   -1    0    0  502  501  0.00000000000E+00  0.00000000000E+00  0.18943203421E+03  0.18943203421E+03  0.00000000000E+00 0.  1.
         21   -1    0    0  501  502 -0.00000000000E+00 -0.00000000000E+00 -0.84583884301E+03  0.84583884301E+03  0.00000000000E+00 0.  1.
         25    1    1    2    0    0  0.12948212636E+03  0.77833756116E+02  0.35659495841E+02  0.19929955916E+03  0.12500000000E+03 0.  0.
         25    1    1    2    0    0  0.11377902411E+03 -0.30745041005E+02 -0.15476914676E+03  0.23123454038E+03  0.12500000000E+03 0.  0.
         25    1    1    2    0    0 -0.24326115046E+03 -0.47088715111E+02 -0.53729715788E+03  0.60473677768E+03  0.12500000000E+03 0.  0.
</event>
<event>
 5    0  0.5605075E-005  0.3616654E+03  0.7546771E-02  0.1057926E+00
         21   -1    0    0  502  501  0.00000000000E+00  0.00000000000E+00  0.93860455818E+02  0.93860455818E+02  0.00000000000E+00 0. -1.
         21   -1    0    0  501  502 -0.00000000000E+00 -0.00000000000E+00 -0.13935780218E+04  0.13935780218E+04  0.00000000000E+00 0. -1.
         25    1    1    2    0    0  0.16436469512E+03 -0.31413937857E+02 -0.47603206898E+03  0.51984047476E+03  0.12500000000E+03 0.  0.
         25    1    1    2    0    0 -0.60425545538E+02  0.21912428727E+03 -0.42014001868E+03  0.49377052881E+03  0.12500000000E+03 0.  0.
         25    1    1    2    0    0 -0.10393914958E+03 -0.18771034941E+03 -0.40354547832E+03  0.47382747405E+03  0.12500000000E+03 0.  0.
</event>
<event>
 5    0  0.5605075E-005  0.2395690E+03  0.7546771E-02  0.1120080E+00
         21   -1    0    0  502  501  0.00000000000E+00  0.00000000000E+00  0.48244536079E+03  0.48244536079E+03  0.00000000000E+00 0. -1.
         21   -1    0    0  501  502 -0.00000000000E+00 -0.00000000000E+00 -0.11896330195E+03  0.11896330195E+03  0.00000000000E+00 0. -1.
         25    1    1    2    0    0 -0.75835414021E+02 -0.56326283454E+02  0.24565478435E+03  0.29136735113E+03  0.12500000000E+03 0.  0.
         25    1    1    2    0    0  0.31679282114E+01  0.62909473979E+02  0.76523707925E+02  0.15952590874E+03  0.12500000000E+03 0.  0.
         25    1    1    2    0    0  0.72667485809E+02 -0.65831905246E+01  0.41303566554E+02  0.15051540287E+03  0.12500000000E+03 0.  0.
</event>
<event>
 5    0  0.5605075E-005  0.2879289E+03  0.7546771E-02  0.1091435E+00
         21   -1    0    0  502  501  0.00000000000E+00  0.00000000000E+00  0.15058874565E+03  0.15058874565E+03  0.00000000000E+00 0.  1.
         21   -1    0    0  501  502 -0.00000000000E+00 -0.00000000000E+00 -0.55052626016E+03  0.55052626016E+03  0.00000000000E+00 0.  1.
         25    1    1    2    0    0 -0.98922318088E+02  0.33650743192E+02 -0.68224951687E+02  0.17662854120E+03  0.12500000000E+03 0.  0.
         25    1    1    2    0    0  0.48619296221E+02  0.13425613347E+03 -0.17564346316E+03  0.25858107334E+03  0.12500000000E+03 0.  0.
         25    1    1    2    0    0  0.50303021867E+02 -0.16790687666E+03 -0.15606909966E+03  0.26590539127E+03  0.12500000000E+03 0.  0.
</event>
<event>
 5    0  0.6414722E-005  0.5136280E+03  0.7546771E-02  0.1010282E+00
         21   -1    0    0  502  501  0.00000000000E+00  0.00000000000E+00  0.32314860521E+03  0.32314860521E+03  0.00000000000E+00 0. -1.
         21   -1    0    0  501  502 -0.00000000000E+00 -0.00000000000E+00 -0.81638514629E+03  0.81638514629E+03  0.00000000000E+00 0. -1.
         25    1    1    2    0    0  0.21914927754E+03  0.29436601867E+03 -0.33633154042E+03  0.51324620200E+03  0.12500000000E+03 0.  0.
         25    1    1    2    0    0 -0.41296611135E+02 -0.98120279590E+02  0.13517174199E+03  0.21267204610E+03  0.12500000000E+03 0.  0.
         25    1    1    2    0    0 -0.17785266640E+03 -0.19624573908E+03 -0.29207674265E+03  0.41361550340E+03  0.12500000000E+03 0.  0.
</event>
<event>
 5    0  0.5605075E-005  0.3125148E+03  0.7546771E-02  0.1079147E+00
         21   -1    0    0  502  501  0.00000000000E+00  0.00000000000E+00  0.26356471488E+03  0.26356471488E+03  0.00000000000E+00 0.  1.
         21   -1    0    0  501  502 -0.00000000000E+00 -0.00000000000E+00 -0.37055614507E+03  0.37055614507E+03  0.00000000000E+00 0.  1.
         25    1    1    2    0    0  0.98818110643E+02  0.46932088065E+02 -0.13117367678E+03  0.21165815213E+03  0.12500000000E+03 0.  0.
         25    1    1    2    0    0 -0.13966323311E+03 -0.11824064446E+03  0.11272068616E+03  0.24863149795E+03  0.12500000000E+03 0.  0.
         25    1    1    2    0    0  0.40845122462E+02  0.71308556396E+02 -0.88538439566E+02  0.17383120987E+03  0.12500000000E+03 0.  0.
</event>
<event>
 5    0  0.5605075E-005  0.2899798E+03  0.7546771E-02  0.1090360E+00
         21   -1    0    0  502  501  0.00000000000E+00  0.00000000000E+00  0.38379062998E+03  0.38379062998E+03  0.00000000000E+00 0. -1.
         21   -1    0    0  501  502 -0.00000000000E+00 -0.00000000000E+00 -0.21909942854E+03  0.21909942854E+03  0.00000000000E+00 0. -1.
         25    1    1    2    0    0 -0.15659671792E+03  0.67738715206E+02  0.40003147478E+02  0.21525872203E+03  0.12500000000E+03 0.  0.
         25    1    1    2    0    0  0.13026595020E+03 -0.12987357779E+03  0.53521500417E+02  0.22874858469E+03  0.12500000000E+03 0.  0.
         25    1    1    2    0    0  0.26330767714E+02  0.62134862583E+02  0.71166553551E+02  0.15888275180E+03  0.12500000000E+03 0.  0.
</event>
<event>
 5    0  0.5605075E-005  0.2249341E+03  0.7546771E-02  0.1130257E+00
         21   -1    0    0  502  501  0.00000000000E+00  0.00000000000E+00  0.57244208154E+02  0.57244208154E+02  0.00000000000E+00 0.  1.
         21   -1    0    0  501  502 -0.00000000000E+00 -0.00000000000E+00 -0.88385124834E+03  0.88385124834E+03  0.00000000000E+00 0.  1.
         25    1    1    2    0    0  0.36972932315E+02 -0.19982226650E+02 -0.33412623473E+03  0.35920972682E+03  0.12500000000E+03 0.  0.
         25    1    1    2    0    0 -0.44532125455E+02  0.86525247957E+02 -0.18689577798E+03  0.24499951135E+03  0.12500000000E+03 0.  0.
         25    1    1    2    0    0  0.75591931401E+01 -0.66543021307E+02 -0.30558502747E+03  0.33688621833E+03  0.12500000000E+03 0.  0.
</event>
<event>
 5    0  0.5605075E-005  0.2823204E+03  0.7546771E-02  0.1094428E+00
         21   -1    0    0  502  501  0.00000000000E+00  0.00000000000E+00  0.89249045291E+03  0.89249045291E+03  0.00000000000E+00 0.  1.
         21   -1    0    0  501  502 -0.00000000000E+00 -0.00000000000E+00 -0.89306071471E+02  0.89306071471E+02  0.00000000000E+00 0.  1.
         25    1    1    2    0    0  0.15063229036E+02 -0.15995332575E+03  0.25352632787E+03  0.32513468934E+03  0.12500000000E+03 0.  0.
         25    1    1    2    0    0  0.57440583369E+02  0.46940022395E+02  0.11657245409E+03  0.18632477928E+03  0.12500000000E+03 0.  0.
         25    1    1    2    0    0 -0.72503812405E+02  0.11301330336E+03  0.43308559947E+03  0.47033705576E+03  0.12500000000E+03 0.  0.
</event>
<event>
 5    0  0.5605075E-005  0.5113090E+03  0.7546771E-02  0.1010869E+00
         21   -1    0    0  502  501  0.00000000000E+00  0.00000000000E+00  0.59018714567E+03  0.59018714567E+03  0.00000000000E+00 0.  1.
         21   -1    0    0  501  502 -0.00000000000E+00 -0.00000000000E+00 -0.44297279264E+03  0.44297279264E+03  0.00000000000E+00 0.  1.
         25    1    1    2    0    0 -0.15502261441E+03 -0.90532366462E+02 -0.76073447283E+02  0.23160373429E+03  0.12500000000E+03 0.  0.
         25    1    1    2    0    0 -0.22596768379E+03 -0.94267879176E+02 -0.54049258724E+02  0.28016807371E+03  0.12500000000E+03 0.  0.
         25    1    1    2    0    0  0.38099029820E+03  0.18480024564E+03  0.27733705904E+03  0.52138813031E+03  0.12500000000E+03 0.  0.
</event>
<event>
 5    0  0.5605075E-005  0.9072541E+03  0.7546771E-02  0.9416559E-01
         21   -1    0    0  502  501  0.00000000000E+00  0.00000000000E+00  0.78729444413E+03  0.78729444413E+03  0.00000000000E+00 0. -1.
         21   -1    0    0  501  502 -0.00000000000E+00 -0.00000000000E+00 -0.10454919508E+04  0.10454919508E+04  0.00000000000E+00 0. -1.
         25    1    1    2    0    0 -0.18443608961E+03  0.13592226174E+03 -0.25298974180E+03  0.36348361978E+03  0.12500000000E+03 0.  0.
         25    1    1    2    0    0  0.28047225615E+03  0.16067556913E+03  0.64796789658E+03  0.73482563917E+03  0.12500000000E+03 0.  0.
         25    1    1    2    0    0 -0.96036166540E+02 -0.29659783088E+03 -0.65317566146E+03  0.73447713598E+03  0.12500000000E+03 0.  0.
</event>
<event>
 5    0  0.5605075E-005  0.2499972E+03  0.7546771E-02  0.1113307E+00
         21   -1    0    0  502  501  0.00000000000E+00  0.00000000000E+00  0.13924665138E+03  0.13924665138E+03  0.00000000000E+00 0. -1.
         21   -1    0    0  501  502 -0.00000000000E+00 -0.00000000000E+00 -0.44883382740E+03  0.44883382740E+03  0.00000000000E+00 0. -1.
         25    1    1    2    0    0 -0.24439127291E+02 -0.73893651939E+01 -0.39051060103E+02  0.13342360719E+03  0.12500000000E+03 0.  0.
         25    1    1    2    0    0 -0.86078510349E+02  0.87769200954E+02 -0.94633484016E+02  0.19923212310E+03  0.12500000000E+03 0.  0.
         25    1    1    2    0    0  0.11051763764E+03 -0.80379835760E+02 -0.17590263190E+03  0.25542474848E+03  0.12500000000E+03 0.  0.
</event>
<event>
 5    0  0.5605075E-005  0.2738974E+03  0.7546771E-02  0.1099070E+00
         21   -1    0    0  502  501  0.00000000000E+00  0.00000000000E+00  0.92383685411E+02  0.92383685411E+02  0.00000000000E+00 0. -1.
         21   -1    0    0  501  502 -0.00000000000E+00 -0.00000000000E+00 -0.81204563763E+03  0.81204563763E+03  0.00000000000E+00 0. -1.
         25    1    1    2    0    0  0.37256879856E+02 -0.92145547053E+01 -0.16990256778E+03  0.21439418288E+03  0.12500000000E+03 0.  0.
         25    1    1    2    0    0  0.53715379841E+02 -0.14420918621E+03 -0.23861559125E+03  0.31023222238E+03  0.12500000000E+03 0.  0.
         25    1    1    2    0    0 -0.90972259697E+02  0.15342374091E+03 -0.31114379320E+03  0.37980291778E+03  0.12500000000E+03 0.  0.
</event>
<event>
 5    0  0.5605075E-005  0.2912584E+03  0.7546771E-02  0.1089694E+00
         21   -1    0    0  502  501  0.00000000000E+00  0.00000000000E+00  0.68925008774E+03  0.68925008774E+03  0.00000000000E+00 0.  1.
         21   -1    0    0  501  502 -0.00000000000E+00 -0.00000000000E+00 -0.12307789421E+03  0.12307789421E+03  0.00000000000E+00 0.  1.
         25    1    1    2    0    0  0.12826945090E+03 -0.10510243768E+03  0.88043344337E+02  0.22555754238E+03  0.12500000000E+03 0.  0.
         25    1    1    2    0    0 -0.14730265466E+03  0.72997448260E+02  0.33092081562E+03  0.39007728174E+03  0.12500000000E+03 0.  0.
         25    1    1    2    0    0  0.19033203758E+02  0.32104989418E+02  0.14720803357E+03  0.19669315784E+03  0.12500000000E+03 0.  0.
</event>
<event>
 5    0  0.5605075E-005  0.3418075E+03  0.7546771E-02  0.1066029E+00
         21   -1    0    0  502  501  0.00000000000E+00  0.00000000000E+00  0.90076807698E+03  0.90076807698E+03  0.00000000000E+00 0.  1.
         21   -1    0    0  501  502 -0.00000000000E+00 -0.00000000000E+00 -0.12970304888E+03  0.12970304888E+03  0.00000000000E+00 0.  1.
         25    1    1    2    0    0  0.13683299426E+03 -0.91751761748E+02  0.67702197917E+02  0.21760110686E+03  0.12500000000E+03 0.  0.
         25    1    1    2    0    0  0.53252713083E+02 -0.29586475589E+01  0.12688049936E+03  0.18592543173E+03  0.12500000000E+03 0.  0.
         25    1    1    2    0    0 -0.19008570734E+03  0.94710409307E+02  0.57648233082E+03  0.62694458727E+03  0.12500000000E+03 0.  0.
</event>
<event>
 5    0  0.5605075E-005  0.3573256E+03  0.7546771E-02  0.1059648E+00
         21   -1    0    0  502  501  0.00000000000E+00  0.00000000000E+00  0.74900895376E+02  0.74900895376E+02  0.00000000000E+00 0.  1.
         21   -1    0    0  501  502 -0.00000000000E+00 -0.00000000000E+00 -0.17046741062E+04  0.17046741062E+04  0.00000000000E+00 0.  1.
         25    1    1    2    0    0  0.34480304079E+02  0.26654368391E+03 -0.89884240785E+03  0.94645501792E+03  0.12500000000E+03 0.  0.
         25    1    1    2    0    0 -0.37757075370E+01 -0.15826059429E+03 -0.23635799744E+03  0.31072620524E+03  0.12500000000E+03 0.  0.
         25    1    1    2    0    0 -0.30704596542E+02 -0.10828308962E+03 -0.49457280554E+03  0.52239377842E+03  0.12500000000E+03 0.  0.
</event>
<event>
 5    0  0.5605075E-005  0.3487899E+03  0.7546771E-02  0.1063113E+00
         21   -1    0    0  502  501  0.00000000000E+00  0.00000000000E+00  0.12515696939E+03  0.12515696939E+03  0.00000000000E+00 0. -1.
         21   -1    0    0  501  502 -0.00000000000E+00 -0.00000000000E+00 -0.97201455879E+03  0.97201455879E+03  0.00000000000E+00 0. -1.
         25    1    1    2    0    0  0.11076539583E+03  0.15750381248E+03 -0.12368699704E+03  0.26076789890E+03  0.12500000000E+03 0.  0.
         25    1    1    2    0    0 -0.32222540838E+01  0.66618234182E+02 -0.22909159075E+03  0.26936282037E+03  0.12500000000E+03 0.  0.
         25    1    1    2    0    0 -0.10754314175E+03 -0.22412204666E+03 -0.49407900161E+03  0.56704080891E+03  0.12500000000E+03 0.  0.
</event>
<event>
 5    0  0.5605075E-005  0.2922279E+03  0.7546771E-02  0.1089192E+00
         21   -1    0    0  502  501  0.00000000000E+00  0.00000000000E+00  0.11140907311E+03  0.11140907311E+03  0.00000000000E+00 0. -1.
         21   -1    0    0  501  502 -0.00000000000E+00 -0.00000000000E+00 -0.76651852645E+03  0.76651852645E+03  0.00000000000E+00 0. -1.
         25    1    1    2    0    0 -0.53623777243E+01  0.33812682188E+02 -0.33255362129E+03  0.35691590551E+03  0.12500000000E+03 0.  0.
         25    1    1    2    0    0 -0.30883950567E+02  0.13830335125E+03 -0.18889414546E+03  0.26718464319E+03  0.12500000000E+03 0.  0.
         25    1    1    2    0    0  0.36246328291E+02 -0.17211603344E+03 -0.13366168658E+03  0.25382705085E+03  0.12500000000E+03 0.  0.
</event>
<event>
 5    0  0.5605075E-005  0.2209301E+03  0.7546771E-02  0.1133191E+00
         21   -1    0    0  502  501  0.00000000000E+00  0.00000000000E+00  0.11850190035E+03  0.11850190035E+03  0.00000000000E+00 0. -1.
         21   -1    0    0  501  502 -0.00000000000E+00 -0.00000000000E+00 -0.41189317412E+03  0.41189317412E+03  0.00000000000E+00 0. -1.
         25    1    1    2    0    0 -0.63688166805E+01  0.24418844838E+01 -0.53562981754E+02  0.13616356943E+03  0.12500000000E+03 0.  0.
         25    1    1    2    0    0 -0.76156640234E+02 -0.13343211050E+02 -0.57036986834E+02  0.15765815234E+03  0.12500000000E+03 0.  0.
         25    1    1    2    0    0  0.82525456914E+02  0.10901326566E+02 -0.18279130518E+03  0.23657335271E+03  0.12500000000E+03 0.  0.
</event>
<event>
 5    0  0.5605075E-005  0.3302264E+03  0.7546771E-02  0.1071037E+00
         21   -1    0    0  502  501  0.00000000000E+00  0.00000000000E+00  0.96465600189E+03  0.96465600189E+03  0.00000000000E+00 0.  1.
         21   -1    0    0  501  502 -0.00000000000E+00 -0.00000000000E+00 -0.11304490440E+03  0.11304490440E+03  0.00000000000E+00 0.  1.
         25    1    1    2    0    0  0.23759214861E+02 -0.16119083362E+03  0.14112704058E+03  0.24917629646E+03  0.12500000000E+03 0.  0.
         25    1    1    2    0    0 -0.16317388367E+03  0.64307254059E+02  0.35489952155E+03  0.41513830181E+03  0.12500000000E+03 0.  0.
         25    1    1    2    0    0  0.13941466881E+03  0.96883579564E+02  0.35558453535E+03  0.41338630801E+03  0.12500000000E+03 0.  0.
</event>
<event>
 5    0  0.5605075E-005  0.3665294E+03  0.7546771E-02  0.1056028E+00
         21   -1    0    0  502  501  0.00000000000E+00  0.00000000000E+00  0.19147589059E+03  0.19147589059E+03  0.00000000000E+00 0. -1.
         21   -1    0    0  501  502 -0.00000000000E+00 -0.00000000000E+00 -0.70162235507E+03  0.70162235507E+03  0.00000000000E+00 0. -1.
         25    1    1    2    0    0 -0.27405763378E+03  0.10820362517E+03 -0.17816217293E+03  0.36630911946E+03  0.12500000000E+03 0.  0.
         25    1    1    2    0    0  0.16439845579E+03 -0.24344600764E+02 -0.10430502706E+03  0.23264576188E+03  0.12500000000E+03 0.  0.
         25    1    1    2    0    0  0.10965917799E+03 -0.83859024410E+02 -0.22767926450E+03  0.29414336432E+03  0.12500000000E+03 0.  0.
</event>
<event>
 5    0  0.5605075E-005  0.2858307E+03  0.7546771E-02  0.1092546E+00
         21   -1    0    0  502  501  0.00000000000E+00  0.00000000000E+00  0.11750874504E+04  0.11750874504E+04  0.00000000000E+00 0.  1.
         21   -1    0    0  501  502 -0.00000000000E+00 -0.00000000000E+00 -0.69526058014E+02  0.69526058014E+02  0.00000000000E+00 0.  1.
         25    1    1    2    0    0  0.28161136184E+01 -0.57770147720E+01  0.44123952641E+03  0.45864869351E+03  0.12500000000E+03 0.  0.
         25    1    1    2    0    0  0.12942804556E+03 -0.60721273853E+02  0.48935446032E+03  0.52491092569E+03  0.12500000000E+03 0.  0.
         25    1    1    2    0    0 -0.13224415918E+03  0.66498288624E+02  0.17496740565E+03  0.26105388920E+03  0.12500000000E+03 0.  0.
</event>
<event>
 5    0  0.5605075E-005  0.2359623E+03  0.7546771E-02  0.1122512E+00
         21   -1    0    0  502  501  0.00000000000E+00  0.00000000000E+00  0.51809649637E+03  0.51809649637E+03  0.00000000000E+00 0. -1.
         21   -1    0    0  501  502 -0.00000000000E+00 -0.00000000000E+00 -0.10746690410E+03  0.10746690410E+03  0.00000000000E+00 0. -1.
         25    1    1    2    0    0  0.23861156429E+02  0.68673099683E+02  0.14509634082E+03  0.20484945088E+03  0.12500000000E+03 0.  0.
         25    1    1    2    0    0  0.24037155565E+02 -0.37273170165E+02  0.13121739976E+02  0.13328260998E+03  0.12500000000E+03 0.  0.
         25    1    1    2    0    0 -0.47898311994E+02 -0.31399929517E+02  0.25241151148E+03  0.28743133961E+03  0.12500000000E+03 0.  0.
</event>
<event>
 5    0  0.5605075E-005  0.3072967E+03  0.7546771E-02  0.1081649E+00
         21   -1    0    0  502  501  0.00000000000E+00  0.00000000000E+00  0.11423200860E+04  0.11423200860E+04  0.00000000000E+00 0.  1.
         21   -1    0    0  501  502 -0.00000000000E+00 -0.00000000000E+00 -0.82666197087E+02  0.82666197087E+02  0.00000000000E+00 0.  1.
         25    1    1    2    0    0  0.13285055491E+03  0.26863087215E+02  0.37850707887E+03  0.42102672618E+03  0.12500000000E+03 0.  0.
         25    1    1    2    0    0  0.21242719929E+02 -0.50653178629E+02  0.55869610095E+02  0.14752427254E+03  0.12500000000E+03 0.  0.
         25    1    1    2    0    0 -0.15409327484E+03  0.23790091414E+02  0.62527719989E+03  0.65643528433E+03  0.12500000000E+03 0.  0.
</event>
<event>
 5    0  0.5605075E-005  0.2421192E+03  0.7546771E-02  0.1118389E+00
         21   -1    0    0  502  501  0.00000000000E+00  0.00000000000E+00  0.96306096653E+03  0.96306096653E+03  0.00000000000E+00 0.  1.
         21   -1    0    0  501  502 -0.00000000000E+00 -0.00000000000E+00 -0.60870185887E+02  0.60870185887E+02  0.00000000000E+00 0.  1.
         25    1    1    2    0    0  0.62574817704E+02 -0.67615737714E+02  0.12524800459E+03  0.19949826679E+03  0.12500000000E+03 0.  0.
         25    1    1    2    0    0 -0.35798642348E+01  0.49797855991E+02  0.42885662443E+03  0.44948375522E+03  0.12500000000E+03 0.  0.
         25    1    1    2    0    0 -0.58994953469E+02  0.17817881722E+02  0.34808615162E+03  0.37494913041E+03  0.12500000000E+03 0.  0.
</event>
<event>
 5    0  0.5605075E-005  0.3852580E+03  0.7546771E-02  0.1049007E+00
         21   -1    0    0  502  501  0.00000000000E+00  0.00000000000E+00  0.65514478748E+03  0.65514478748E+03  0.00000000000E+00 0.  1.
         21   -1    0    0  501  502 -0.00000000000E+00 -0.00000000000E+00 -0.22655100042E+03  0.22655100042E+03  0.00000000000E+00 0. -1.
         25    1    1    2    0    0 -0.24670545255E+03  0.16343679585E+03  0.16218086452E+03  0.35986497380E+03  0.12500000000E+03 0.  0.
         25    1    1    2    0    0  0.67230623895E+02  0.34441457931E+02  0.44349922883E+02  0.15263710713E+03  0.12500000000E+03 0.  0.
         25    1    1    2    0    0  0.17947482865E+03 -0.19787825379E+03  0.22206299966E+03  0.36919370696E+03  0.12500000000E+03 0.  0.
</event>
<event>
 5    0  0.5605075E-005  0.3297351E+03  0.7546771E-02  0.1071254E+00
         21   -1    0    0  502  501  0.00000000000E+00  0.00000000000E+00  0.17116709397E+03  0.17116709397E+03  0.00000000000E+00 0. -1.
         21   -1    0    0  501  502 -0.00000000000E+00 -0.00000000000E+00 -0.63519928003E+03  0.63519928003E+03  0.00000000000E+00 0. -1.
         25    1    1    2    0    0 -0.44881757409E+02 -0.13717374507E+02 -0.16735469238E+03  0.21409140939E+03  0.12500000000E+03 0.  0.
         25    1    1    2    0    0  0.21801888435E+03 -0.11974593956E+01 -0.34287937576E+02  0.25364213078E+03  0.12500000000E+03 0.  0.
         25    1    1    2    0    0 -0.17313712694E+03  0.14914833903E+02 -0.26238955610E+03  0.33863283383E+03  0.12500000000E+03 0.  0.
</event>
<event>
 5    0  0.5605075E-005  0.2938106E+03  0.7546771E-02  0.1088376E+00
         21   -1    0    0  502  501  0.00000000000E+00  0.00000000000E+00  0.15561297709E+03  0.15561297709E+03  0.00000000000E+00 0.  1.
         21   -1    0    0  501  502 -0.00000000000E+00 -0.00000000000E+00 -0.55473937184E+03  0.55473937184E+03  0.00000000000E+00 0.  1.
         25    1    1    2    0    0  0.15349741476E+02  0.15982377800E+03 -0.12955425671E+03  0.24122305033E+03  0.12500000000E+03 0.  0.
         25    1    1    2    0    0 -0.34969260763E+02 -0.91638562371E+01  0.63147425497E+01  0.13027548285E+03  0.12500000000E+03 0.  0.
         25    1    1    2    0    0  0.19619519287E+02 -0.15065992177E+03 -0.27588688059E+03  0.33885381575E+03  0.12500000000E+03 0.  0.
</event>
<event>
 5    0  0.5605075E-005  0.2455692E+03  0.7546771E-02  0.1116137E+00
         21   -1    0    0  502  501  0.00000000000E+00  0.00000000000E+00  0.14505819812E+04  0.14505819812E+04  0.00000000000E+00 0. -1.
         21   -1    0    0  501  502 -0.00000000000E+00 -0.00000000000E+00 -0.41572423864E+02  0.41572423864E+02  0.00000000000E+00 0. -1.
         25    1    1    2    0    0  0.77705420390E+02 -0.72309377038E+02  0.46260065295E+03  0.49080662432E+03  0.12500000000E+03 0.  0.
         25    1    1    2    0    0 -0.69131869575E+02 -0.47177899696E+02  0.36731046737E+03  0.39692184249E+03  0.12500000000E+03 0.  0.
         25    1    1    2    0    0 -0.85735508149E+01  0.11948727673E+03  0.57909843705E+03  0.60442593828E+03  0.12500000000E+03 0.  0.
</event>
<event>
 5    0  0.5605075E-005  0.3140643E+03  0.7546771E-02  0.1078414E+00
         21   -1    0    0  502  501  0.00000000000E+00  0.00000000000E+00  0.11538087819E+03  0.11538087819E+03  0.00000000000E+00 0. -1.
         21   -1    0    0  501  502 -0.00000000000E+00 -0.00000000000E+00 -0.85487643386E+03  0.85487643386E+03  0.00000000000E+00 0. -1.
         25    1    1    2    0    0  0.40788919313E+02 -0.11087412784E+03 -0.44131604749E+03  0.47364719142E+03  0.12500000000E+03 0.  0.
         25    1    1    2    0    0 -0.92923991088E+02  0.12495039848E+03 -0.30006337200E+03  0.36043098843E+03  0.12500000000E+03 0.  0.
         25    1    1    2    0    0  0.52135071775E+02 -0.14076270646E+02  0.18838638272E+01  0.13617913220E+03  0.12500000000E+03 0.  0.
</event>
<event>
 5    0  0.5605075E-005  0.5233793E+03  0.7546771E-02  0.1007851E+00
         21   -1    0    0  502  501  0.00000000000E+00  0.00000000000E+00  0.87068367760E+03  0.87068367760E+03  0.00000000000E+00 0. -1.
         21   -1    0    0  501  502 -0.00000000000E+00 -0.00000000000E+00 -0.31461011474E+03  0.31461011474E+03  0.00000000000E+00 0. -1.
         25    1    1    2    0    0 -0.21084082135E+03 -0.25836718806E+02  0.28428383895E+03  0.37624950375E+03  0.12500000000E+03 0.  0.
         25    1    1    2    0    0  0.16592455749E+03 -0.10642982465E+02 -0.21736828617E+03  0.30086243316E+03  0.12500000000E+03 0.  0.
         25    1    1    2    0    0  0.44916263857E+02  0.36479701271E+02  0.48915801008E+03  0.50818185543E+03  0.12500000000E+03 0.  0.
</event>
<event>
 5    0  0.5605075E-005  0.2647869E+03  0.7546771E-02  0.1104301E+00
         21   -1    0    0  502  501  0.00000000000E+00  0.00000000000E+00  0.27390714647E+03  0.27390714647E+03  0.00000000000E+00 0. -1.
         21   -1    0    0  501  502 -0.00000000000E+00 -0.00000000000E+00 -0.25597040189E+03  0.25597040189E+03  0.00000000000E+00 0. -1.
         25    1    1    2    0    0 -0.68972338535E+02 -0.93293878921E+02 -0.40601650667E+02  0.17531236512E+03  0.12500000000E+03 0.  0.
         25    1    1    2    0    0 -0.28479521454E+02 -0.15608959122E+02  0.93059847080E+02  0.15918498009E+03  0.12500000000E+03 0.  0.
         25    1    1    2    0    0  0.97451859989E+02  0.10890283804E+03 -0.34521451830E+02  0.19538020316E+03  0.12500000000E+03 0.  0.
</event>
<event>
 5    0  0.5605075E-005  0.4782758E+03  0.7546771E-02  0.1019610E+00
         21   -1    0    0  502  501  0.00000000000E+00  0.00000000000E+00  0.16128318932E+03  0.16128318932E+03  0.00000000000E+00 0. -1.
         21   -1    0    0  501  502 -0.00000000000E+00 -0.00000000000E+00 -0.14182985476E+04  0.14182985476E+04  0.00000000000E+00 0. -1.
         25    1    1    2    0    0  0.54519864857E+02 -0.28919160415E+03 -0.16009341716E+03  0.35757391095E+03  0.12500000000E+03 0.  0.
         25    1    1    2    0    0 -0.18143915693E+03  0.14285679469E+03 -0.82357643228E+03  0.86442545732E+03  0.12500000000E+03 0.  0.
         25    1    1    2    0    0  0.12691929207E+03  0.14633480945E+03 -0.27334550880E+03  0.35758236860E+03  0.12500000000E+03 0.  0.
</event>
<event>
 5    0  0.5605075E-005  0.2856799E+03  0.7546771E-02  0.1092627E+00
         21   -1    0    0  502  501  0.00000000000E+00  0.00000000000E+00  0.11738211390E+03  0.11738211390E+03  0.00000000000E+00 0. -1.
         21   -1    0    0  501  502 -0.00000000000E+00 -0.00000000000E+00 -0.69527622319E+03  0.69527622319E+03  0.00000000000E+00 0.  1.
         25    1    1    2    0    0 -0.13507431445E+03  0.85203055977E+02 -0.18648985662E+03  0.27551424245E+03  0.12500000000E+03 0.  0.
         25    1    1    2    0    0  0.14459042894E+03 -0.10971235642E+03 -0.15832365598E+03  0.27135691135E+03  0.12500000000E+03 0.  0.
         25    1    1    2    0    0 -0.95161144881E+01  0.24509300446E+02 -0.23308059670E+03  0.26578718329E+03  0.12500000000E+03 0.  0.
</event>
<event>
 5    0  0.5605075E-005  0.2483550E+03  0.7546771E-02  0.1114349E+00
         21   -1    0    0  502  501  0.00000000000E+00  0.00000000000E+00  0.39694559592E+03  0.39694559592E+03  0.00000000000E+00 0. -1.
         21   -1    0    0  501  502 -0.00000000000E+00 -0.00000000000E+00 -0.15538708881E+03  0.15538708881E+03  0.00000000000E+00 0. -1.
         25    1    1    2    0    0  0.12026325742E+02 -0.10948631791E+03  0.34228345448E+02  0.17008370278E+03  0.12500000000E+03 0.  0.
         25    1    1    2    0    0  0.17521859173E+02  0.15874449128E+02  0.18086182473E+03  0.22112216833E+03  0.12500000000E+03 0.  0.
         25    1    1    2    0    0 -0.29548184914E+02  0.93611868779E+02  0.26468336932E+02  0.16112681362E+03  0.12500000000E+03 0.  0.
</event>
<event>
 5    0  0.5605075E-005  0.3400902E+03  0.7546771E-02  0.1066757E+00
         21   -1    0    0  502  501  0.00000000000E+00  0.00000000000E+00  0.15040114926E+03  0.15040114926E+03  0.00000000000E+00 0.  1.
         21   -1    0    0  501  502 -0.00000000000E+00 -0.00000000000E+00 -0.76901922887E+03  0.76901922887E+03  0.00000000000E+00 0. -1.
         25    1    1    2    0    0  0.64346090201E+02  0.63146462769E+02 -0.16460593805E+03  0.22549503304E+03  0.12500000000E+03 0.  0.
         25    1    1    2    0    0  0.23872679008E+02  0.18903656402E+03 -0.22770071475E+03  0.32214490969E+03  0.12500000000E+03 0.  0.
         25    1    1    2    0    0 -0.88218769208E+02 -0.25218302679E+03 -0.22631142682E+03  0.37178043540E+03  0.12500000000E+03 0.  0.
</event>
<event>
 5    0  0.5605075E-005  0.2898332E+03  0.7546771E-02  0.1090436E+00
         21   -1    0    0  502  501  0.00000000000E+00  0.00000000000E+00  0.29887737730E+03  0.29887737730E+03  0.00000000000E+00 0. -1.
         21   -1    0    0  501  502 -0.00000000000E+00 -0.00000000000E+00 -0.28106265028E+03  0.28106265028E+03  0.00000000000E+00 0. -1.
         25    1    1    2    0    0 -0.20415460624E+03  0.53911192890E+02  0.88176645171E+00  0.24537990439E+03  0.12500000000E+03 0.  0.
         25    1    1    2    0    0  0.13135088471E+03 -0.53156997268E+02  0.34936012846E+00  0.18895460652E+03  0.12500000000E+03 0.  0.
         25    1    1    2    0    0  0.72803721525E+02 -0.75419562207E+00  0.16583600441E+02  0.14560551666E+03  0.12500000000E+03 0.  0.
</event>
<event>
 5    0  0.5605075E-005  0.3342405E+03  0.7546771E-02  0.1069276E+00
         21   -1    0    0  502  501  0.00000000000E+00  0.00000000000E+00  0.12129789290E+03  0.12129789290E+03  0.00000000000E+00 0. -1.
         21   -1    0    0  501  502 -0.00000000000E+00 -0.00000000000E+00 -0.92101087813E+03  0.92101087813E+03  0.00000000000E+00 0. -1.
         25    1    1    2    0    0 -0.15969679295E+03  0.12414957088E+03 -0.57297116296E+03  0.62035242823E+03  0.12500000000E+03 0.  0.
         25    1    1    2    0    0  0.50090294312E+02 -0.10369732908E+03 -0.47162756185E+02  0.17638452090E+03  0.12500000000E+03 0.  0.
         25    1    1    2    0    0  0.10960649864E+03 -0.20452241804E+02 -0.17957906608E+03  0.24557182190E+03  0.12500000000E+03 0.  0.
</event>
<event>
 5    0  0.5605075E-005  0.3460961E+03  0.7546771E-02  0.1064229E+00
         21   -1    0    0  502  501  0.00000000000E+00  0.00000000000E+00  0.13005480184E+03  0.13005480184E+03  0.00000000000E+00 0. -1.
         21   -1    0    0  501  502 -0.00000000000E+00 -0.00000000000E+00 -0.92101551635E+03  0.92101551635E+03  0.00000000000E+00 0. -1.
         25    1    1    2    0    0 -0.86819286832E+02 -0.56333492652E+02 -0.43195083506E+03  0.46142992412E+03  0.12500000000E+03 0.  0.
         25    1    1    2    0    0  0.72506980046E+02 -0.15319720669E+03 -0.98708641819E+02  0.23258340926E+03  0.12500000000E+03 0.  0.
         25    1    1    2    0    0  0.14312306786E+02  0.20953069934E+03 -0.26030123763E+03  0.35705698481E+03  0.12500000000E+03 0.  0.
</event>
<event>
 5    0  0.5605075E-005  0.2528814E+03  0.7546771E-02  0.1111497E+00
         21   -1    0    0  502  501  0.00000000000E+00  0.00000000000E+00  0.24044252492E+03  0.24044252492E+03  0.00000000000E+00 0. -1.
         21   -1    0    0  501  502 -0.00000000000E+00 -0.00000000000E+00 -0.26596370250E+03  0.26596370250E+03  0.00000000000E+00 0. -1.
         25    1    1    2    0    0 -0.10577851657E+03  0.76360047491E+02 -0.10438374758E+03  0.20866460692E+03  0.12500000000E+03 0.  0.
         25    1    1    2    0    0  0.34561294302E+02 -0.57877508284E+02  0.36456240042E+02  0.14662314438E+03  0.12500000000E+03 0.  0.
         25    1    1    2    0    0  0.71217222267E+02 -0.18482539207E+02  0.42406329965E+02  0.15111847612E+03  0.12500000000E+03 0.  0.
</event>
<event>
 5    0  0.5605075E-005  0.3858807E+03  0.7546771E-02  0.1048781E+00
         21   -1    0    0  502  501  0.00000000000E+00  0.00000000000E+00  0.10732308426E+04  0.10732308426E+04  0.00000000000E+00 0.  1.
         21   -1    0    0  501  502 -0.00000000000E+00 -0.00000000000E+00 -0.13874363555E+03  0.13874363555E+03  0.00000000000E+00 0.  1.
         25    1    1    2    0    0  0.25861129538E+03 -0.46987472215E+02  0.49800527994E+03  0.57682049503E+03  0.12500000000E+03 0.  0.
         25    1    1    2    0    0 -0.10192504966E+03  0.17237605312E+02  0.94467196113E+01  0.16248104904E+03  0.12500000000E+03 0.  0.
         25    1    1    2    0    0 -0.15668624571E+03  0.29749866903E+02  0.42703520753E+03  0.47267293411E+03  0.12500000000E+03 0.  0.
</event>
<event>
 5    0  0.5605075E-005  0.2095561E+03  0.7546771E-02  0.1141918E+00
         21   -1    0    0  502  501  0.00000000000E+00  0.00000000000E+00  0.12956830460E+04  0.12956830460E+04  0.00000000000E+00 0.  1.
         21   -1    0    0  501  502 -0.00000000000E+00 -0.00000000000E+00 -0.33892371788E+02  0.33892371788E+02  0.00000000000E+00 0.  1.
         25    1    1    2    0    0  0.54036301701E+02  0.34226312635E+02  0.61299586048E+03  0.62887223452E+03  0.12500000000E+03 0.  0.
         25    1    1    2    0    0 -0.29986744634E+02 -0.46487932909E+02  0.32586048533E+03  0.35337004493E+03  0.12500000000E+03 0.  0.
         25    1    1    2    0    0 -0.24049557067E+02  0.12261620274E+02  0.32293432844E+03  0.34733313838E+03  0.12500000000E+03 0.  0.
</event>
<event>
 5    0  0.5605075E-005  0.3870127E+03  0.7546771E-02  0.1048372E+00
         21   -1    0    0  502  501  0.00000000000E+00  0.00000000000E+00  0.10250172676E+04  0.10250172676E+04  0.00000000000E+00 0. -1.
         21   -1    0    0  501  502 -0.00000000000E+00 -0.00000000000E+00 -0.14612321125E+03  0.14612321125E+03  0.00000000000E+00 0. -1.
         25    1    1    2    0    0 -0.11884576914E+03  0.11969208402E+03  0.42057290787E+03  0.47006072231E+03  0.12500000000E+03 0.  0.
         25    1    1    2    0    0 -0.14792953444E+03  0.10624786252E+02  0.25405879929E+03  0.31963558428E+03  0.12500000000E+03 0.  0.
         25    1    1    2    0    0  0.26677530357E+03 -0.13031687027E+03  0.20426234924E+03  0.38144417231E+03  0.12500000000E+03 0.  0.
</event>
<event>
 5    0  0.5605075E-005  0.4628530E+03  0.7546771E-02  0.1023957E+00
         21   -1    0    0  502  501  0.00000000000E+00  0.00000000000E+00  0.51104336866E+03  0.51104336866E+03  0.00000000000E+00 0.  1.
         21   -1    0    0  501  502 -0.00000000000E+00 -0.00000000000E+00 -0.41920686683E+03  0.41920686683E+03  0.00000000000E+00 0.  1.
         25    1    1    2    0    0  0.62946494720E+02  0.11722482364E+03  0.48502116499E+02  0.18889514493E+03  0.12500000000E+03 0.  0.
         25    1    1    2    0    0  0.23600156722E+03  0.14387014739E+03  0.10430589421E+03  0.32078042117E+03  0.12500000000E+03 0.  0.
         25    1    1    2    0    0 -0.29894806194E+03 -0.26109497102E+03 -0.60971508885E+02  0.42057466939E+03  0.12500000000E+03 0.  0.
</event>
<event>
 5    0  0.5605075E-005  0.2993780E+03  0.7546771E-02  0.1085552E+00
         21   -1    0    0  502  501  0.00000000000E+00  0.00000000000E+00  0.69840093533E+03  0.69840093533E+03  0.00000000000E+00 0. -1.
         21   -1    0    0  501  502 -0.00000000000E+00 -0.00000000000E+00 -0.12833203994E+03  0.12833203994E+03  0.00000000000E+00 0. -1.
         25    1    1    2    0    0 -0.45371882995E+02  0.11209490763E+03  0.44677888437E+03  0.47943742825E+03  0.12500000000E+03 0.  0.
         25    1    1    2    0    0  0.12598489079E+02 -0.10584821291E+03  0.14128117784E+03  0.21667472698E+03  0.12500000000E+03 0.  0.
         25    1    1    2    0    0  0.32773393916E+02 -0.62466947248E+01 -0.17991166828E+02  0.13062082004E+03  0.12500000000E+03 0.  0.
</event>
<event>
 5    0  0.5605075E-005  0.3097633E+03  0.7546771E-02  0.1080459E+00
         21   -1    0    0  502  501  0.00000000000E+00  0.00000000000E+00  0.49555530576E+03  0.49555530576E+03  0.00000000000E+00 0.  1.
         21   -1    0    0  501  502 -0.00000000000E+00 -0.00000000000E+00 -0.19362785268E+03  0.19362785268E+03  0.00000000000E+00 0.  1.
         25    1    1    2    0    0 -0.58685086861E+02  0.18042915923E+03  0.12562806906E+03  0.25962671792E+03  0.12500000000E+03 0.  0.
         25    1    1    2    0    0 -0.58991837888E+02 -0.15125563115E+03  0.40821621048E+02  0.20892512447E+03  0.12500000000E+03 0.  0.
         25    1    1    2    0    0  0.11767692475E+03 -0.29173528085E+02  0.13547776297E+03  0.22063131605E+03  0.12500000000E+03 0.  0.
</event>
<event>
 5    0  0.5605075E-005  0.3463226E+03  0.7546771E-02  0.1064135E+00
         21   -1    0    0  502  501  0.00000000000E+00  0.00000000000E+00  0.10340220830E+04  0.10340220830E+04  0.00000000000E+00 0. -1.
         21   -1    0    0  501  502 -0.00000000000E+00 -0.00000000000E+00 -0.11599304159E+03  0.11599304159E+03  0.00000000000E+00 0. -1.
         25    1    1    2    0    0 -0.13174752268E+03 -0.60156184915E+02  0.18885527062E+03  0.26882613258E+03  0.12500000000E+03 0.  0.
         25    1    1    2    0    0  0.94220908848E+02  0.14741203675E+03  0.10825824024E+03  0.24073374259E+03  0.12500000000E+03 0.  0.
         25    1    1    2    0    0  0.37526613828E+02 -0.87255851836E+02  0.62091553054E+03  0.64045524941E+03  0.12500000000E+03 0.  0.
</event>
<event>
 5    0  0.5605075E-005  0.3840003E+03  0.7546771E-02  0.1049465E+00
         21   -1    0    0  502  501  0.00000000000E+00  0.00000000000E+00  0.21728055398E+03  0.21728055398E+03  0.00000000000E+00 0.  1.
         21   -1    0    0  501  502 -0.00000000000E+00 -0.00000000000E+00 -0.67864444040E+03  0.67864444040E+03  0.00000000000E+00 0.  1.
         25    1    1    2    0    0 -0.67646145933E+02  0.24792157813E+03 -0.29428331059E+03  0.41020577379E+03  0.12500000000E+03 0.  0.
         25    1    1    2    0    0  0.12568828991E+03 -0.15700823065E+02 -0.11155391047E+03  0.21003175238E+03  0.12500000000E+03 0.  0.
         25    1    1    2    0    0 -0.58042143982E+02 -0.23222075506E+03 -0.55526665359E+02  0.27568746821E+03  0.12500000000E+03 0.  0.
</event>
<event>
 5    0  0.5605075E-005  0.5261560E+03  0.7546771E-02  0.1007169E+00
         21   -1    0    0  502  501  0.00000000000E+00  0.00000000000E+00  0.37353250704E+03  0.37353250704E+03  0.00000000000E+00 0. -1.
         21   -1    0    0  501  502 -0.00000000000E+00 -0.00000000000E+00 -0.74114064415E+03  0.74114064415E+03  0.00000000000E+00 0. -1.
         25    1    1    2    0    0 -0.83580225480E+02 -0.10451685470E+03 -0.75118019713E+02  0.19793216993E+03  0.12500000000E+03 0.  0.
         25    1    1    2    0    0  0.18876671981E+03  0.11665733847E+03  0.24587250218E+03  0.35400578590E+03  0.12500000000E+03 0.  0.
         25    1    1    2    0    0 -0.10518649432E+03 -0.12140483776E+02 -0.53836261957E+03  0.56273519535E+03  0.12500000000E+03 0.  0.
</event>
<event>
 5    0  0.5605075E-005  0.4092281E+03  0.7546771E-02  0.1040630E+00
         21   -1    0    0  502  501  0.00000000000E+00  0.00000000000E+00  0.24374863521E+03  0.24374863521E+03  0.00000000000E+00 0. -1.
         21   -1    0    0  501  502 -0.00000000000E+00 -0.00000000000E+00 -0.68705041172E+03  0.68705041172E+03  0.00000000000E+00 0. -1.
         25    1    1    2    0    0  0.75824518146E+01 -0.71765899972E+02  0.16535640995E+03  0.21948936258E+03  0.12500000000E+03 0.  0.
         25    1    1    2    0    0  0.69600928061E+02 -0.73487412994E+02 -0.24537043584E+03  0.29338769545E+03  0.12500000000E+03 0.  0.
         25    1    1    2    0    0 -0.77183379876E+02  0.14525331297E+03 -0.36328775062E+03  0.41792198890E+03  0.12500000000E+03 0.  0.
</event>
<event>
 5    0  0.5605075E-005  0.2100959E+03  0.7546771E-02  0.1141490E+00
         21   -1    0    0  502  501  0.00000000000E+00  0.00000000000E+00  0.35005550680E+03  0.35005550680E+03  0.00000000000E+00 0. -1.
         21   -1    0    0  501  502 -0.00000000000E+00 -0.00000000000E+00 -0.12609506907E+03  0.12609506907E+03  0.00000000000E+00 0. -1.
         25    1    1    2    0    0  0.53414106782E+02 -0.34499085121E+02  0.63427688891E+02  0.15391986680E+03  0.12500000000E+03 0.  0.
         25    1    1    2    0    0 -0.62571859674E+02  0.39285605358E+02  0.45825543934E+02  0.15226154107E+03  0.12500000000E+03 0.  0.
         25    1    1    2    0    0  0.91577528913E+01 -0.47865202369E+01  0.11470720491E+03  0.16996916800E+03  0.12500000000E+03 0.  0.
</event>
<event>
 5    0  0.5605075E-005  0.2075560E+03  0.7546771E-02  0.1143516E+00
         21   -1    0    0  502  501  0.00000000000E+00  0.00000000000E+00  0.17116112411E+03  0.17116112411E+03  0.00000000000E+00 0. -1.
         21   -1    0    0  501  502 -0.00000000000E+00 -0.00000000000E+00 -0.25168982506E+03  0.25168982506E+03  0.00000000000E+00 0. -1.
         25    1    1    2    0    0 -0.40548877346E+01 -0.41791141527E+02 -0.37612790164E+02  0.13712280484E+03  0.12500000000E+03 0.  0.
         25    1    1    2    0    0  0.14824049484E+02  0.42463459289E+02 -0.79779028686E+02  0.15495996656E+03  0.12500000000E+03 0.  0.
         25    1    1    2    0    0 -0.10769161749E+02 -0.67231776216E+00  0.36863117899E+02  0.13076817777E+03  0.12500000000E+03 0.  0.
</event>
<event>
 5    0  0.5605075E-005  0.2120826E+03  0.7546771E-02  0.1139927E+00
         21   -1    0    0  502  501  0.00000000000E+00  0.00000000000E+00  0.48876212862E+03  0.48876212862E+03  0.00000000000E+00 0.  1.
         21   -1    0    0  501  502 -0.00000000000E+00 -0.00000000000E+00 -0.92026408673E+02  0.92026408673E+02  0.00000000000E+00 0.  1.
         25    1    1    2    0    0 -0.24886461235E+01 -0.55387493976E+00  0.16872437201E+03  0.20999860439E+03  0.12500000000E+03 0.  0.
         25    1    1    2    0    0  0.49684058912E+02 -0.30760322800E+02  0.17689256516E+03  0.22434500837E+03  0.12500000000E+03 0.  0.
         25    1    1    2    0    0 -0.47195412789E+02  0.31314197740E+02  0.51118782770E+02  0.14644492453E+03  0.12500000000E+03 0.  0.
</event>
<event>
 5    0  0.5605075E-005  0.4100660E+03  0.7546771E-02  0.1040349E+00
         21   -1    0    0  502  501  0.00000000000E+00  0.00000000000E+00  0.15716594528E+03  0.15716594528E+03  0.00000000000E+00 0.  1.
         21   -1    0    0  501  502 -0.00000000000E+00 -0.00000000000E+00 -0.10699143171E+04  0.10699143171E+04  0.00000000000E+00 0.  1.
         25    1    1    2    0    0 -0.26017253495E+03  0.28693482268E+02 -0.39698410879E+03  0.49166497384E+03  0.12500000000E+03 0.  0.
         25    1    1    2    0    0  0.14365987886E+03 -0.15558412679E+03 -0.94505762258E+02  0.26344054434E+03  0.12500000000E+03 0.  0.
         25    1    1    2    0    0  0.11651265610E+03  0.12689064452E+03 -0.42125850079E+03  0.47197474422E+03  0.12500000000E+03 0.  0.
</event>
<event>
 5    0  0.5637203E-005  0.3201397E+03  0.7546771E-02  0.1075585E+00
         21   -1    0    0  502  501  0.00000000000E+00  0.00000000000E+00  0.24920382434E+03  0.24920382434E+03  0.00000000000E+00 0. -1.
         21   -1    0    0  501  502 -0.00000000000E+00 -0.00000000000E+00 -0.41126748473E+03  0.41126748473E+03  0.00000000000E+00 0. -1.
         25    1    1    2    0    0  0.99573763103E+02  0.30314844390E+02 -0.17428749273E+03  0.23840103651E+03  0.12500000000E+03 0.  0.
         25    1    1    2    0    0  0.29477884800E+02  0.20021682394E+02  0.14374098734E+03  0.19379443981E+03  0.12500000000E+03 0.  0.
         25    1    1    2    0    0 -0.12905164790E+03 -0.50336526785E+02 -0.13151715500E+03  0.22827583275E+03  0.12500000000E+03 0.  0.
</event>
<event>
 5    0  0.5605075E-005  0.2389485E+03  0.7546771E-02  0.1120495E+00
         21   -1    0    0  502  501  0.00000000000E+00  0.00000000000E+00  0.49218620195E+03  0.49218620195E+03  0.00000000000E+00 0. -1.
         21   -1    0    0  501  502 -0.00000000000E+00 -0.00000000000E+00 -0.11600561242E+03  0.11600561242E+03  0.00000000000E+00 0. -1.
         25    1    1    2    0    0  0.13586835890E+02 -0.20682537537E+02  0.12895865148E+03  0.18129452077E+03  0.12500000000E+03 0.  0.
         25    1    1    2    0    0  0.37891882142E+02 -0.10137310391E+03  0.12967202098E+03  0.21012409180E+03  0.12500000000E+03 0.  0.
         25    1    1    2    0    0 -0.51478718033E+02  0.12205564145E+03  0.11754991706E+03  0.21677320181E+03  0.12500000000E+03 0.  0.
</event>
<event>
 5    0  0.5605075E-005  0.3907918E+03  0.7546771E-02  0.1047016E+00
         21   -1    0    0  502  501  0.00000000000E+00  0.00000000000E+00  0.73457511651E+03  0.73457511651E+03  0.00000000000E+00 0.  1.
         21   -1    0    0  501  502 -0.00000000000E+00 -0.00000000000E+00 -0.20790012478E+03  0.20790012478E+03  0.00000000000E+00 0.  1.
         25    1    1    2    0    0  0.80784724631E+02 -0.79392195131E+02  0.47741424505E+03  0.50633847747E+03  0.12500000000E+03 0.  0.
         25    1    1    2    0    0  0.86209563071E+00  0.68465373135E+02 -0.13664715524E+03  0.19744795659E+03  0.12500000000E+03 0.  0.
         25    1    1    2    0    0 -0.81646820262E+02  0.10926821997E+02  0.18590790192E+03  0.23868880722E+03  0.12500000000E+03 0.  0.
</event>
<event>
 5    0  0.5605075E-005  0.2654936E+03  0.7546771E-02  0.1103887E+00
         21   -1    0    0  502  501  0.00000000000E+00  0.00000000000E+00  0.22471393227E+03  0.22471393227E+03  0.00000000000E+00 0.  1.
         21   -1    0    0  501  502 -0.00000000000E+00 -0.00000000000E+00 -0.31367367631E+03  0.31367367631E+03  0.00000000000E+00 0.  1.
         25    1    1    2    0    0  0.15680580398E+02 -0.56525447950E+02  0.12064293100E+03  0.18335954752E+03  0.12500000000E+03 0.  0.
         25    1    1    2    0    0  0.25249698868E+02  0.25124337333E+02 -0.35801920426E+02  0.13481675388E+03  0.12500000000E+03 0.  0.
         25    1    1    2    0    0 -0.40930279266E+02  0.31401110616E+02 -0.17380075461E+03  0.22021130719E+03  0.12500000000E+03 0.  0.
</event>
<event>
 5    0  0.5605075E-005  0.5554345E+03  0.7546771E-02  0.1000244E+00
         21   -1    0    0  502  501  0.00000000000E+00  0.00000000000E+00  0.99486881919E+03  0.99486881919E+03  0.00000000000E+00 0.  1.
         21   -1    0    0  501  502 -0.00000000000E+00 -0.00000000000E+00 -0.31009871033E+03  0.31009871033E+03  0.00000000000E+00 0.  1.
         25    1    1    2    0    0  0.46589496871E+03  0.27326185187E+02  0.16348771002E+03  0.51005693172E+03  0.12500000000E+03 0.  0.
         25    1    1    2    0    0 -0.37312311401E+03  0.13834328751E+02  0.49380175187E+03  0.63156742871E+03  0.12500000000E+03 0.  0.
         25    1    1    2    0    0 -0.92771854693E+02 -0.41160513938E+02  0.27480646963E+02  0.16334316909E+03  0.12500000000E+03 0.  0.
</event>
<event>
 5    0  0.5605075E-005  0.2832255E+03  0.7546771E-02  0.1093940E+00
         21   -1    0    0  502  501  0.00000000000E+00  0.00000000000E+00  0.54300873330E+03  0.54300873330E+03  0.00000000000E+00 0.  1.
         21   -1    0    0  501  502 -0.00000000000E+00 -0.00000000000E+00 -0.14772634934E+03  0.14772634934E+03  0.00000000000E+00 0.  1.
         25    1    1    2    0    0 -0.44108506042E+02  0.77439814474E+02  0.74622716147E+02  0.17069280868E+03  0.12500000000E+03 0.  0.
         25    1    1    2    0    0  0.55159963984E+02 -0.18356296638E+03  0.11297509674E+03  0.25519866132E+03  0.12500000000E+03 0.  0.
         25    1    1    2    0    0 -0.11051457942E+02  0.10612315191E+03  0.20768457108E+03  0.26484361265E+03  0.12500000000E+03 0.  0.
</event>
<event>
 5    0  0.5605075E-005  0.3724877E+03  0.7546771E-02  0.1053746E+00
         21   -1    0    0  502  501  0.00000000000E+00  0.00000000000E+00  0.15313260079E+03  0.15313260079E+03  0.00000000000E+00 0. -1.
         21   -1    0    0  501  502 -0.00000000000E+00 -0.00000000000E+00 -0.90605848285E+03  0.90605848285E+03  0.00000000000E+00 0. -1.
         25    1    1    2    0    0 -0.84315626778E+02  0.44588044759E+02 -0.14384182296E+03  0.21310253092E+03  0.12500000000E+03 0.  0.
         25    1    1    2    0    0 -0.12682344498E+03 -0.16633195594E+03 -0.91103736613E+02  0.26014495303E+03  0.12500000000E+03 0.  0.
         25    1    1    2    0    0  0.21113907176E+03  0.12174391119E+03 -0.51798032249E+03  0.58594359969E+03  0.12500000000E+03 0.  0.
</event>
<event>
 5    0  0.5605075E-005  0.3116279E+03  0.7546771E-02  0.1079568E+00
         21   -1    0    0  502  501  0.00000000000E+00  0.00000000000E+00  0.87155599056E+02  0.87155599056E+02  0.00000000000E+00 0. -1.
         21   -1    0    0  501  502 -0.00000000000E+00 -0.00000000000E+00 -0.11142365086E+04  0.11142365086E+04  0.00000000000E+00 0. -1.
         25    1    1    2    0    0  0.69711897931E+02 -0.41924067355E+02 -0.35393101884E+03  0.38406971012E+03  0.12500000000E+03 0.  0.
         25    1    1    2    0    0  0.86612476873E+02 -0.77990808608E+02 -0.98853718181E+02  0.19743693924E+03  0.12500000000E+03 0.  0.
         25    1    1    2    0    0 -0.15632437480E+03  0.11991487596E+03 -0.57429617257E+03  0.61988545834E+03  0.12500000000E+03 0.  0.
</event>
<event>
 5    0  0.5605075E-005  0.2284270E+03  0.7546771E-02  0.1127752E+00
         21   -1    0    0  502  501  0.00000000000E+00  0.00000000000E+00  0.95511678416E+03  0.95511678416E+03  0.00000000000E+00 0.  1.
         21   -1    0    0  501  502 -0.00000000000E+00 -0.00000000000E+00 -0.54630916054E+02  0.54630916054E+02  0.00000000000E+00 0.  1.
         25    1    1    2    0    0 -0.23106395436E+02  0.69555354766E+02  0.16366939878E+03  0.21859671769E+03  0.12500000000E+03 0.  0.
         25    1    1    2    0    0 -0.43099871477E+02 -0.70263351193E+01  0.37404317206E+03  0.39678742781E+03  0.12500000000E+03 0.  0.
         25    1    1    2    0    0  0.66206266913E+02 -0.62529019647E+02  0.36277329727E+03  0.39436355472E+03  0.12500000000E+03 0.  0.
</event>
<event>
 5    0  0.5605075E-005  0.2536919E+03  0.7546771E-02  0.1110994E+00
         21   -1    0    0  502  501  0.00000000000E+00  0.00000000000E+00  0.15429763046E+03  0.15429763046E+03  0.00000000000E+00 0. -1.
         21   -1    0    0  501  502 -0.00000000000E+00 -0.00000000000E+00 -0.41711336357E+03  0.41711336357E+03  0.00000000000E+00 0. -1.
         25    1    1    2    0    0 -0.51569855564E+02 -0.47401714520E+01 -0.16578915230E+03  0.21399290234E+03  0.12500000000E+03 0.  0.
         25    1    1    2    0    0  0.11545251023E+03 -0.37461681077E+02  0.12128979223E+02  0.17465615307E+03  0.12500000000E+03 0.  0.
         25    1    1    2    0    0 -0.63882654663E+02  0.42201852529E+02 -0.10915556003E+03  0.18276193862E+03  0.12500000000E+03 0.  0.
</event>
<event>
 5    0  0.5605075E-005  0.3253555E+03  0.7546771E-02  0.1073211E+00
         21   -1    0    0  502  501  0.00000000000E+00  0.00000000000E+00  0.10567445794E+04  0.10567445794E+04  0.00000000000E+00 0.  1.
         21   -1    0    0  501  502 -0.00000000000E+00 -0.00000000000E+00 -0.10017197693E+03  0.10017197693E+03  0.00000000000E+00 0.  1.
         25    1    1    2    0    0  0.12906240906E+02 -0.80630281454E+01  0.13404211839E+03  0.18391267759E+03  0.12500000000E+03 0.  0.
         25    1    1    2    0    0  0.12139218628E+03 -0.16877011178E+03  0.26077742913E+03  0.35615906708E+03  0.12500000000E+03 0.  0.
         25    1    1    2    0    0 -0.13429842719E+03  0.17683313993E+03  0.56175305490E+03  0.61684481161E+03  0.12500000000E+03 0.  0.
</event>
<event>
 5    0  0.5605075E-005  0.2356883E+03  0.7546771E-02  0.1122699E+00
         21   -1    0    0  502  501  0.00000000000E+00  0.00000000000E+00  0.10929297518E+04  0.10929297518E+04  0.00000000000E+00 0. -1.
         21   -1    0    0  501  502 -0.00000000000E+00 -0.00000000000E+00 -0.50825745465E+02  0.50825745465E+02  0.00000000000E+00 0. -1.
         25    1    1    2    0    0  0.61036871803E+01 -0.41068769611E+02  0.55731216335E+03  0.57266547500E+03  0.12500000000E+03 0.  0.
         25    1    1    2    0    0  0.44146026532E+02  0.11776248057E+01  0.35828614313E+03  0.38202646351E+03  0.12500000000E+03 0.  0.
         25    1    1    2    0    0 -0.50249713712E+02  0.39891144805E+02  0.12650569990E+03  0.18906355881E+03  0.12500000000E+03 0.  0.
</event>
<event>
 5    0  0.5605075E-005  0.4587542E+03  0.7546771E-02  0.1025143E+00
         21   -1    0    0  502  501  0.00000000000E+00  0.00000000000E+00  0.11794763530E+03  0.11794763530E+03  0.00000000000E+00 0. -1.
         21   -1    0    0  501  502 -0.00000000000E+00 -0.00000000000E+00 -0.17843122393E+04  0.17843122393E+04  0.00000000000E+00 0.  1.
         25    1    1    2    0    0 -0.26168282168E+03 -0.15392090451E+03 -0.76475538552E+03  0.83225317284E+03  0.12500000000E+03 0.  0.
         25    1    1    2    0    0 -0.73449197506E+02 -0.12847841677E+02 -0.43595345551E+03  0.45960881957E+03  0.12500000000E+03 0.  0.
         25    1    1    2    0    0  0.33513201919E+03  0.16676874619E+03 -0.46565576292E+03  0.61039788215E+03  0.12500000000E+03 0.  0.
</event>
<event>
 5    0  0.5605075E-005  0.3548526E+03  0.7546771E-02  0.1060641E+00
         21   -1    0    0  502  501  0.00000000000E+00  0.00000000000E+00  0.23496226081E+03  0.23496226081E+03  0.00000000000E+00 0.  1.
         21   -1    0    0  501  502 -0.00000000000E+00 -0.00000000000E+00 -0.53591755484E+03  0.53591755484E+03  0.00000000000E+00 0.  1.
         25    1    1    2    0    0 -0.18433801018E+03 -0.17881965606E+02 -0.99262719106E+02  0.24449612287E+03  0.12500000000E+03 0.  0.
         25    1    1    2    0    0 -0.88345968905E+02  0.84997667804E+02 -0.42266994733E+02  0.18011416546E+03  0.12500000000E+03 0.  0.
         25    1    1    2    0    0  0.27268397909E+03 -0.67115702198E+02 -0.15942558019E+03  0.34626952732E+03  0.12500000000E+03 0.  0.
</event>
<event>
 5    0  0.5605075E-005  0.3626904E+03  0.7546771E-02  0.1057524E+00
         21   -1    0    0  502  501  0.00000000000E+00  0.00000000000E+00  0.10648708969E+03  0.10648708969E+03  0.00000000000E+00 0. -1.
         21   -1    0    0  501  502 -0.00000000000E+00 -0.00000000000E+00 -0.12353075482E+04  0.12353075482E+04  0.00000000000E+00 0. -1.
         25    1    1    2    0    0 -0.11148809229E+03 -0.77898129349E+01 -0.98475210534E+00  0.16767899584E+03  0.12500000000E+03 0.  0.
         25    1    1    2    0    0  0.70278628009E+02 -0.33231134980E+02 -0.29219630118E+03  0.32718048889E+03  0.12500000000E+03 0.  0.
         25    1    1    2    0    0  0.41209464282E+02  0.41020947915E+02 -0.83563940525E+03  0.84693515319E+03  0.12500000000E+03 0.  0.
</event>
<event>
 5    0  0.5605075E-005  0.3750758E+03  0.7546771E-02  0.1052769E+00
         21   -1    0    0  502  501  0.00000000000E+00  0.00000000000E+00  0.97398651965E+02  0.97398651965E+02  0.00000000000E+00 0. -1.
         21   -1    0    0  501  502 -0.00000000000E+00 -0.00000000000E+00 -0.14443920008E+04  0.14443920008E+04  0.00000000000E+00 0. -1.
         25    1    1    2    0    0 -0.52490760697E+02 -0.20082277512E+03 -0.50864213438E+03  0.56340650318E+03  0.12500000000E+03 0.  0.
         25    1    1    2    0    0 -0.75625236654E+02  0.18355054409E+02 -0.63474213509E+03  0.65159700928E+03  0.12500000000E+03 0.  0.
         25    1    1    2    0    0  0.12811599735E+03  0.18246772071E+03 -0.20360907941E+03  0.32678714035E+03  0.12500000000E+03 0.  0.
</event>
<event>
 5    0  0.5605075E-005  0.2224856E+03  0.7546771E-02  0.1132043E+00
         21   -1    0    0  502  501  0.00000000000E+00  0.00000000000E+00  0.13528434216E+03  0.13528434216E+03  0.00000000000E+00 0. -1.
         21   -1    0    0  501  502 -0.00000000000E+00 -0.00000000000E+00 -0.36589472907E+03  0.36589472907E+03  0.00000000000E+00 0. -1.
         25    1    1    2    0    0  0.44706948453E+02 -0.77474840087E+01 -0.94164223167E+02  0.16294365797E+03  0.12500000000E+03 0.  0.
         25    1    1    2    0    0 -0.66367458071E+02  0.16817275901E+02 -0.15401555175E+03  0.20984101229E+03  0.12500000000E+03 0.  0.
         25    1    1    2    0    0  0.21660509618E+02 -0.90697918919E+01  0.17569388006E+02  0.12839440096E+03  0.12500000000E+03 0.  0.
</event>
<event>
 5    0  0.5605075E-005  0.3233248E+03  0.7546771E-02  0.1074129E+00
         21   -1    0    0  502  501  0.00000000000E+00  0.00000000000E+00  0.22624269415E+03  0.22624269415E+03  0.00000000000E+00 0. -1.
         21   -1    0    0  501  502 -0.00000000000E+00 -0.00000000000E+00 -0.46206535822E+03  0.46206535822E+03  0.00000000000E+00 0. -1.
         25    1    1    2    0    0 -0.11204589803E+03 -0.77422635535E+02 -0.38653241096E+02  0.18885873240E+03  0.12500000000E+03 0.  0.
         25    1    1    2    0    0  0.19840171429E+03 -0.65232206497E+02 -0.62421703721E+02  0.25127664057E+03  0.12500000000E+03 0.  0.
         25    1    1    2    0    0 -0.86355816265E+02  0.14265484203E+03 -0.13474771925E+03  0.24817267940E+03  0.12500000000E+03 0.  0.
</event>
<event>
 5    0  0.5605075E-005  0.2190392E+03  0.7546771E-02  0.1134601E+00
         21   -1    0    0  502  501  0.00000000000E+00  0.00000000000E+00  0.18326225534E+03  0.18326225534E+03  0.00000000000E+00 0.  1.
         21   -1    0    0  501  502 -0.00000000000E+00 -0.00000000000E+00 -0.26180067840E+03  0.26180067840E+03  0.00000000000E+00 0.  1.
         25    1    1    2    0    0 -0.11035986707E+02  0.45516612535E+02 -0.13219569686E+02  0.13413915179E+03  0.12500000000E+03 0.  0.
         25    1    1    2    0    0  0.79885305358E+02  0.95294716483E+01 -0.12795830227E+02  0.14920189715E+03  0.12500000000E+03 0.  0.
         25    1    1    2    0    0 -0.68849318652E+02 -0.55046084184E+02 -0.52523023146E+02  0.16172188480E+03  0.12500000000E+03 0.  0.
</event>
<event>
 5    0  0.5605075E-005  0.2500657E+03  0.7546771E-02  0.1113263E+00
         21   -1    0    0  502  501  0.00000000000E+00  0.00000000000E+00  0.22563145659E+03  0.22563145659E+03  0.00000000000E+00 0. -1.
         21   -1    0    0  501  502 -0.00000000000E+00 -0.00000000000E+00 -0.27714602651E+03  0.27714602651E+03  0.00000000000E+00 0. -1.
         25    1    1    2    0    0  0.77502785052E+02 -0.55149868112E+02 -0.15477985203E+01  0.15708464382E+03  0.12500000000E+03 0.  0.
         25    1    1    2    0    0  0.40563347378E+02 -0.23777503960E+02 -0.77651426423E+02  0.15448462341E+03  0.12500000000E+03 0.  0.
         25    1    1    2    0    0 -0.11806613243E+03  0.78927372072E+02  0.27684655025E+02  0.19120821586E+03  0.12500000000E+03 0.  0.
</event>
<event>
 5    0  0.5605075E-005  0.2390606E+03  0.7546771E-02  0.1120420E+00
         21   -1    0    0  502  501  0.00000000000E+00  0.00000000000E+00  0.12044283365E+04  0.12044283365E+04  0.00000000000E+00 0. -1.
         21   -1    0    0  501  502 -0.00000000000E+00 -0.00000000000E+00 -0.47449860903E+02  0.47449860903E+02  0.00000000000E+00 0. -1.
         25    1    1    2    0    0 -0.31978122142E+02  0.58980111430E+02  0.50495455592E+03  0.52450486879E+03  0.12500000000E+03 0.  0.
         25    1    1    2    0    0  0.25633110153E+02 -0.52832782686E+02  0.12707098784E+03  0.18767097595E+03  0.12500000000E+03 0.  0.
         25    1    1    2    0    0  0.63450119893E+01 -0.61473287439E+01  0.52495293179E+03  0.53970235262E+03  0.12500000000E+03 0.  0.
</event>
<event>
 5    0  0.5605075E-005  0.2551243E+03  0.7546771E-02  0.1110109E+00
         21   -1    0    0  502  501  0.00000000000E+00  0.00000000000E+00  0.11905563077E+04  0.11905563077E+04  0.00000000000E+00 0. -1.
         21   -1    0    0  501  502 -0.00000000000E+00 -0.00000000000E+00 -0.54670580134E+02  0.54670580134E+02  0.00000000000E+00 0. -1.
         25    1    1    2    0    0 -0.83695116391E+02 -0.12061531009E+03  0.48719094121E+03  0.52395890939E+03  0.12500000000E+03 0.  0.
         25    1    1    2    0    0  0.19772061203E+02  0.10738290173E+03  0.26729048967E+03  0.31462871429E+03  0.12500000000E+03 0.  0.
         25    1    1    2    0    0  0.63923055187E+02  0.13232408360E+02  0.38140429667E+03  0.40663926414E+03  0.12500000000E+03 0.  0.
</event>
<event>
 5    0  0.5605075E-005  0.4872921E+03  0.7546771E-02  0.1017150E+00
         21   -1    0    0  502  501  0.00000000000E+00  0.00000000000E+00  0.25928250225E+03  0.25928250225E+03  0.00000000000E+00 0. -1.
         21   -1    0    0  501  502 -0.00000000000E+00 -0.00000000000E+00 -0.91581050078E+03  0.91581050078E+03  0.00000000000E+00 0. -1.
         25    1    1    2    0    0  0.12528066681E+03  0.16199448646E+03 -0.15887099741E+03  0.28775415364E+03  0.12500000000E+03 0.  0.
         25    1    1    2    0    0 -0.37638731100E+03 -0.21056532850E+03 -0.28252768886E+03  0.53052055607E+03  0.12500000000E+03 0.  0.
         25    1    1    2    0    0  0.25110664419E+03  0.48570842044E+02 -0.21512931226E+03  0.35681829332E+03  0.12500000000E+03 0.  0.
</event>
<event>
 5    0  0.5605075E-005  0.2845252E+03  0.7546771E-02  0.1093243E+00
         21   -1    0    0  502  501  0.00000000000E+00  0.00000000000E+00  0.22774392089E+03  0.22774392089E+03  0.00000000000E+00 0.  1.
         21   -1    0    0  501  502 -0.00000000000E+00 -0.00000000000E+00 -0.35546316621E+03  0.35546316621E+03  0.00000000000E+00 0.  1.
         25    1    1    2    0    0 -0.94305392052E+02  0.10071713968E+03 -0.88493947352E+02  0.20613982612E+03  0.12500000000E+03 0.  0.
         25    1    1    2    0    0  0.43353732890E+02 -0.76034437664E+02 -0.13978388607E+03  0.20694278599E+03  0.12500000000E+03 0.  0.
         25    1    1    2    0    0  0.50951659162E+02 -0.24682702020E+02  0.10055858810E+03  0.17012447499E+03  0.12500000000E+03 0.  0.
</event>
<event>
 5    0  0.5605075E-005  0.2627935E+03  0.7546771E-02  0.1105476E+00
         21   -1    0    0  502  501  0.00000000000E+00  0.00000000000E+00  0.33095838203E+03  0.33095838203E+03  0.00000000000E+00 0. -1.
         21   -1    0    0  501  502 -0.00000000000E+00 -0.00000000000E+00 -0.20866802755E+03  0.20866802755E+03  0.00000000000E+00 0. -1.
         25    1    1    2    0    0  0.14619661472E+02 -0.10781927421E+03 -0.53162338084E+02  0.17404012349E+03  0.12500000000E+03 0.  0.
         25    1    1    2    0    0 -0.20160276586E+02  0.14186746727E+03  0.11772278895E+03  0.22364362289E+03  0.12500000000E+03 0.  0.
         25    1    1    2    0    0  0.55406151136E+01 -0.34048193059E+02  0.57729903613E+02  0.14194266320E+03  0.12500000000E+03 0.  0.
</event>
<event>
 5    0  0.5605075E-005  0.2472629E+03  0.7546771E-02  0.1115047E+00
         21   -1    0    0  502  501  0.00000000000E+00  0.00000000000E+00  0.33668096768E+03  0.33668096768E+03  0.00000000000E+00 0.  1.
         21   -1    0    0  501  502 -0.00000000000E+00 -0.00000000000E+00 -0.18159315631E+03  0.18159315631E+03  0.00000000000E+00 0.  1.
         25    1    1    2    0    0  0.26634267554E+02  0.11049895669E+02 -0.86114642725E+02  0.15450636263E+03  0.12500000000E+03 0.  0.
         25    1    1    2    0    0  0.35779286543E+02  0.53885941870E+01  0.96960728873E+02  0.16228239965E+03  0.12500000000E+03 0.  0.
         25    1    1    2    0    0 -0.62413554097E+02 -0.16438489856E+02  0.14424172522E+03  0.20148536170E+03  0.12500000000E+03 0.  0.
</event>
<event>
 5    0  0.5605075E-005  0.2488105E+03  0.7546771E-02  0.1114059E+00
         21   -1    0    0  502  501  0.00000000000E+00  0.00000000000E+00  0.44088227212E+03  0.44088227212E+03  0.00000000000E+00 0. -1.
         21   -1    0    0  501  502 -0.00000000000E+00 -0.00000000000E+00 -0.14041541337E+03  0.14041541337E+03  0.00000000000E+00 0. -1.
         25    1    1    2    0    0 -0.95758182687E+02  0.80450500770E+02  0.17619560366E+03  0.24962332298E+03  0.12500000000E+03 0.  0.
         25    1    1    2    0    0  0.56114859734E+02  0.18891937170E+02  0.85649828663E+02  0.16268581967E+03  0.12500000000E+03 0.  0.
         25    1    1    2    0    0  0.39643322953E+02 -0.99342437940E+02  0.38621426433E+02  0.16898854284E+03  0.12500000000E+03 0.  0.
</event>
<event>
 5    0  0.6425630E-005  0.5200843E+03  0.7546771E-02  0.1008666E+00
         21   -1    0    0  502  501  0.00000000000E+00  0.00000000000E+00  0.37992047513E+03  0.37992047513E+03  0.00000000000E+00 0. -1.
         21   -1    0    0  501  502 -0.00000000000E+00 -0.00000000000E+00 -0.71195879070E+03  0.71195879070E+03  0.00000000000E+00 0. -1.
         25    1    1    2    0    0 -0.15722483850E+03  0.10255935271E+03 -0.33895994157E+03  0.40713254925E+03  0.12500000000E+03 0.  0.
         25    1    1    2    0    0  0.20808165611E+02 -0.35201362110E+03  0.42904541148E+01  0.37415234489E+03  0.12500000000E+03 0.  0.
         25    1    1    2    0    0  0.13641667289E+03  0.24945426839E+03  0.26311718860E+01  0.31059437169E+03  0.12500000000E+03 0.  0.
</event>
<event>
 5    0  0.5605075E-005  0.3967852E+03  0.7546771E-02  0.1044899E+00
         21   -1    0    0  502  501  0.00000000000E+00  0.00000000000E+00  0.34504621519E+03  0.34504621519E+03  0.00000000000E+00 0.  1.
         21   -1    0    0  501  502 -0.00000000000E+00 -0.00000000000E+00 -0.45628238631E+03  0.45628238631E+03  0.00000000000E+00 0.  1.
         25    1    1    2    0    0 -0.38947894442E+02  0.11637994839E+03  0.74893264330E+02  0.19051307543E+03  0.12500000000E+03 0.  0.
         25    1    1    2    0    0  0.13951440648E+03  0.22043873268E+02 -0.31183410609E+03  0.36443889980E+03  0.12500000000E+03 0.  0.
         25    1    1    2    0    0 -0.10056651204E+03 -0.13842382166E+03  0.12570467064E+03  0.24637662626E+03  0.12500000000E+03 0.  0.
</event>
<event>
 5    0  0.5605075E-005  0.6654226E+03  0.7546771E-02  0.9778263E-01
         21   -1    0    0  502  501  0.00000000000E+00  0.00000000000E+00  0.93332549106E+03  0.93332549106E+03  0.00000000000E+00 0. -1.
         21   -1    0    0  501  502 -0.00000000000E+00 -0.00000000000E+00 -0.47441889308E+03  0.47441889308E+03  0.00000000000E+00 0. -1.
         25    1    1    2    0    0  0.43832390651E+02 -0.59109981463E+02  0.33176444195E+01  0.14509057565E+03  0.12500000000E+03 0.  0.
         25    1    1    2    0    0 -0.52234215854E+03  0.29579581253E+03  0.13611723613E+03  0.62808390782E+03  0.12500000000E+03 0.  0.
         25    1    1    2    0    0  0.47850976788E+03 -0.23668583106E+03  0.31947171743E+03  0.63456990066E+03  0.12500000000E+03 0.  0.
</event>
<event>
 5    0  0.5605075E-005  0.3337963E+03  0.7546771E-02  0.1069469E+00
         21   -1    0    0  502  501  0.00000000000E+00  0.00000000000E+00  0.41464723850E+03  0.41464723850E+03  0.00000000000E+00 0.  1.
         21   -1    0    0  501  502 -0.00000000000E+00 -0.00000000000E+00 -0.26871024066E+03  0.26871024066E+03  0.00000000000E+00 0.  1.
         25    1    1    2    0    0 -0.13494779240E+03 -0.95762632023E+01  0.19383255342E+03  0.26739235265E+03  0.12500000000E+03 0.  0.
         25    1    1    2    0    0  0.15510417372E+03  0.25391865824E+02 -0.15153898166E+03  0.25157725358E+03  0.12500000000E+03 0.  0.
         25    1    1    2    0    0 -0.20156381324E+02 -0.15815602621E+02  0.10364342608E+03  0.16438787292E+03  0.12500000000E+03 0.  0.
</event>
<event>
 5    0  0.5605075E-005  0.3069469E+03  0.7546771E-02  0.1081819E+00
         21   -1    0    0  502  501  0.00000000000E+00  0.00000000000E+00  0.39103328600E+03  0.39103328600E+03  0.00000000000E+00 0. -1.
         21   -1    0    0  501  502 -0.00000000000E+00 -0.00000000000E+00 -0.24094211127E+03  0.24094211127E+03  0.00000000000E+00 0. -1.
         25    1    1    2    0    0  0.50978460497E+02 -0.10982614321E+03  0.22052990418E+03  0.28092529933E+03  0.12500000000E+03 0.  0.
         25    1    1    2    0    0 -0.47408228872E+02  0.61131434045E+02  0.64690329480E+02  0.16060644794E+03  0.12500000000E+03 0.  0.
         25    1    1    2    0    0 -0.35702316248E+01  0.48694709166E+02 -0.13512905893E+03  0.19044364999E+03  0.12500000000E+03 0.  0.
</event>
<event>
 5    0  0.5605075E-005  0.3788567E+03  0.7546771E-02  0.1051357E+00
         21   -1    0    0  502  501  0.00000000000E+00  0.00000000000E+00  0.12012400701E+04  0.12012400701E+04  0.00000000000E+00 0.  1.
         21   -1    0    0  501  502 -0.00000000000E+00 -0.00000000000E+00 -0.11948687289E+03  0.11948687289E+03  0.00000000000E+00 0.  1.
         25    1    1    2    0    0  0.19669139105E+03  0.13620318928E+03  0.43669180539E+03  0.51338440274E+03  0.12500000000E+03 0.  0.
         25    1    1    2    0    0 -0.11392921862E+03  0.57891070360E+02  0.89198846077E+02  0.19978157329E+03  0.12500000000E+03 0.  0.
         25    1    1    2    0    0 -0.82762172430E+02 -0.19409425964E+03  0.55586254580E+03  0.60756096701E+03  0.12500000000E+03 0.  0.
</event>
<event>
 5    0  0.5605075E-005  0.3685483E+03  0.7546771E-02  0.1055249E+00
         21   -1    0    0  502  501  0.00000000000E+00  0.00000000000E+00  0.48436499772E+03  0.48436499772E+03  0.00000000000E+00 0.  1.
         21   -1    0    0  501  502 -0.00000000000E+00 -0.00000000000E+00 -0.28042450866E+03  0.28042450866E+03  0.00000000000E+00 0.  1.
         25    1    1    2    0    0 -0.95396191215E+02  0.78024907269E+02  0.26425399849E+02  0.17751512952E+03  0.12500000000E+03 0.  0.
         25    1    1    2    0    0  0.19308781673E+03  0.11276313449E+03  0.21736693966E+03  0.33596400987E+03  0.12500000000E+03 0.  0.
         25    1    1    2    0    0 -0.97691625518E+02 -0.19078804175E+03 -0.39851850442E+02  0.25131036699E+03  0.12500000000E+03 0.  0.
</event>
<event>
 5    0  0.5605075E-005  0.3169248E+03  0.7546771E-02  0.1077073E+00
         21   -1    0    0  502  501  0.00000000000E+00  0.00000000000E+00  0.57163029646E+03  0.57163029646E+03  0.00000000000E+00 0. -1.
         21   -1    0    0  501  502 -0.00000000000E+00 -0.00000000000E+00 -0.17571032601E+03  0.17571032601E+03  0.00000000000E+00 0. -1.
         25    1    1    2    0    0 -0.30419250348E+02  0.12859640575E+03  0.12741695885E+03  0.22208657718E+03  0.12500000000E+03 0.  0.
         25    1    1    2    0    0 -0.14994759648E+03 -0.34815199327E+01  0.15009088105E+03  0.24626951749E+03  0.12500000000E+03 0.  0.
         25    1    1    2    0    0  0.18036684682E+03 -0.12511488582E+03  0.11841213056E+03  0.27898452780E+03  0.12500000000E+03 0.  0.
</event>
<event>
 5    0  0.5605075E-005  0.2705370E+03  0.7546771E-02  0.1100973E+00
         21   -1    0    0  502  501  0.00000000000E+00  0.00000000000E+00  0.83941947839E+03  0.83941947839E+03  0.00000000000E+00 0. -1.
         21   -1    0    0  501  502 -0.00000000000E+00 -0.00000000000E+00 -0.87191549269E+02  0.87191549269E+02  0.00000000000E+00 0. -1.
         25    1    1    2    0    0 -0.13716728251E+03  0.64577003439E+02  0.24562458815E+03  0.31454966391E+03  0.12500000000E+03 0.  0.
         25    1    1    2    0    0  0.30360900103E+02 -0.35649887953E+02  0.37935175342E+03  0.40215103082E+03  0.12500000000E+03 0.  0.
         25    1    1    2    0    0  0.10680638241E+03 -0.28927115486E+02  0.12725158755E+03  0.20991033292E+03  0.12500000000E+03 0.  0.
</event>
<event>
 5    0  0.6668217E-005  0.3326278E+03  0.7546771E-02  0.1069980E+00
         21   -1    0    0  502  501  0.00000000000E+00  0.00000000000E+00  0.58709508213E+03  0.58709508213E+03  0.00000000000E+00 0. -1.
         21   -1    0    0  501  502 -0.00000000000E+00 -0.00000000000E+00 -0.18845545324E+03  0.18845545324E+03  0.00000000000E+00 0. -1.
         25    1    1    2    0    0  0.18327913922E+03 -0.28799705501E+02  0.27456741946E+03  0.35416512214E+03  0.12500000000E+03 0.  0.
         25    1    1    2    0    0  0.22126918392E+02 -0.34456952967E+01 -0.34453237096E+02  0.13158076942E+03  0.12500000000E+03 0.  0.
         25    1    1    2    0    0 -0.20540605762E+03  0.32245400798E+02  0.15852544654E+03  0.28980464382E+03  0.12500000000E+03 0.  0.
</event>
<event>
 5    0  0.5605075E-005  0.3122511E+03  0.7546771E-02  0.1079272E+00
         21   -1    0    0  502  501  0.00000000000E+00  0.00000000000E+00  0.77512663571E+02  0.77512663571E+02  0.00000000000E+00 0. -1.
         21   -1    0    0  501  502 -0.00000000000E+00 -0.00000000000E+00 -0.12578686178E+04  0.12578686178E+04  0.00000000000E+00 0. -1.
         25    1    1    2    0    0 -0.26988720935E+02 -0.17807269572E+03 -0.37763172029E+03  0.43665660671E+03  0.12500000000E+03 0.  0.
         25    1    1    2    0    0  0.41907552200E+02  0.23143326246E+03 -0.56074544258E+03  0.62078824834E+03  0.12500000000E+03 0.  0.
         25    1    1    2    0    0 -0.14918831265E+02 -0.53360566742E+02 -0.24197879141E+03  0.27793642636E+03  0.12500000000E+03 0.  0.
</event>
<event>
 5    0  0.5605075E-005  0.3261798E+03  0.7546771E-02  0.1072840E+00
         21   -1    0    0  502  501  0.00000000000E+00  0.00000000000E+00  0.43128147729E+03  0.43128147729E+03  0.00000000000E+00 0.  1.
         21   -1    0    0  501  502 -0.00000000000E+00 -0.00000000000E+00 -0.24669093956E+03  0.24669093956E+03  0.00000000000E+00 0.  1.
         25    1    1    2    0    0  0.19237544152E+03 -0.10654456095E+03 -0.17651285723E+02  0.25356778552E+03  0.12500000000E+03 0.  0.
         25    1    1    2    0    0 -0.51080524561E+02  0.92462648676E+02  0.16343580825E+03  0.23128948270E+03  0.12500000000E+03 0.  0.
         25    1    1    2    0    0 -0.14129491696E+03  0.14081912274E+02  0.38806015208E+02  0.19311514862E+03  0.12500000000E+03 0.  0.
</event>
<event>
 5    0  0.5605075E-005  0.2960444E+03  0.7546771E-02  0.1087235E+00
         21   -1    0    0  502  501  0.00000000000E+00  0.00000000000E+00  0.30104980455E+03  0.30104980455E+03  0.00000000000E+00 0.  1.
         21   -1    0    0  501  502 -0.00000000000E+00 -0.00000000000E+00 -0.29112215807E+03  0.29112215807E+03  0.00000000000E+00 0.  1.
         25    1    1    2    0    0 -0.10863993754E+03  0.12204333857E+03 -0.12377412538E+03  0.24008799768E+03  0.12500000000E+03 0.  0.
         25    1    1    2    0    0  0.62681406137E+02 -0.13000658402E+03  0.62803737599E+02  0.20099746272E+03  0.12500000000E+03 0.  0.
         25    1    1    2    0    0  0.45958531406E+02  0.79632454537E+01  0.70898034259E+02  0.15108650221E+03  0.12500000000E+03 0.  0.
</event>
<event>
 5    0  0.5697132E-005  0.2856866E+03  0.7546771E-02  0.1092623E+00
         21   -1    0    0  502  501  0.00000000000E+00  0.00000000000E+00  0.56374477404E+03  0.56374477404E+03  0.00000000000E+00 0.  1.
         21   -1    0    0  501  502 -0.00000000000E+00 -0.00000000000E+00 -0.14477622252E+03  0.14477622252E+03  0.00000000000E+00 0.  1.
         25    1    1    2    0    0  0.71454056340E+01 -0.15356152757E+02  0.29682678337E+03  0.32251822828E+03  0.12500000000E+03 0.  0.
         25    1    1    2    0    0 -0.20883784061E+02 -0.61290471129E+02  0.17935989474E+03  0.22800795190E+03  0.12500000000E+03 0.  0.
         25    1    1    2    0    0  0.13738378427E+02  0.76646623886E+02 -0.57218126582E+02  0.15799481638E+03  0.12500000000E+03 0.  0.
</event>
<event>
 5    0  0.5605075E-005  0.3855344E+03  0.7546771E-02  0.1048907E+00
         21   -1    0    0  502  501  0.00000000000E+00  0.00000000000E+00  0.17559893446E+03  0.17559893446E+03  0.00000000000E+00 0. -1.
         21   -1    0    0  501  502 -0.00000000000E+00 -0.00000000000E+00 -0.84645610358E+03  0.84645610358E+03  0.00000000000E+00 0. -1.
         25    1    1    2    0    0  0.92455685090E+02  0.17960737405E+03 -0.60139743912E+02  0.24504826324E+03  0.12500000000E+03 0.  0.
         25    1    1    2    0    0 -0.14336888763E+02  0.93175566445E+02 -0.29803919510E+03  0.33665946352E+03  0.12500000000E+03 0.  0.
         25    1    1    2    0    0 -0.78118796327E+02 -0.27278294050E+03 -0.31267823011E+03  0.44034731127E+03  0.12500000000E+03 0.  0.
</event>
<event>
 5    0  0.5605075E-005  0.2157639E+03  0.7546771E-02  0.1137081E+00
         21   -1    0    0  502  501  0.00000000000E+00  0.00000000000E+00  0.40515947605E+03  0.40515947605E+03  0.00000000000E+00 0. -1.
         21   -1    0    0  501  502 -0.00000000000E+00 -0.00000000000E+00 -0.11490301575E+03  0.11490301575E+03  0.00000000000E+00 0. -1.
         25    1    1    2    0    0  0.47664409299E+01 -0.51857160621E+01  0.16824443045E+03  0.20971599603E+03  0.12500000000E+03 0.  0.
         25    1    1    2    0    0  0.65260226192E+02  0.14614635144E+02  0.61183549376E+02  0.15440502387E+03  0.12500000000E+03 0.  0.
         25    1    1    2    0    0 -0.70026667122E+02 -0.94289190820E+01  0.60828480473E+02  0.15594147190E+03  0.12500000000E+03 0.  0.
</event>
<event>
 5    0  0.5605075E-005  0.4053985E+03  0.7546771E-02  0.1041926E+00
         21   -1    0    0  502  501  0.00000000000E+00  0.00000000000E+00  0.77170000488E+03  0.77170000488E+03  0.00000000000E+00 0.  1.
         21   -1    0    0  501  502 -0.00000000000E+00 -0.00000000000E+00 -0.21296865870E+03  0.21296865870E+03  0.00000000000E+00 0.  1.
         25    1    1    2    0    0  0.11930215261E+03  0.14519955469E+03  0.11663690423E+03  0.25405724105E+03  0.12500000000E+03 0.  0.
         25    1    1    2    0    0 -0.11222032660E+03  0.77888050246E+02  0.43714724748E+03  0.47474484310E+03  0.12500000000E+03 0.  0.
         25    1    1    2    0    0 -0.70818260099E+01 -0.22308760494E+03  0.49471944709E+01  0.25586657943E+03  0.12500000000E+03 0.  0.
</event>
<event>
 5    0  0.5605075E-005  0.5847348E+03  0.7546771E-02  0.9937592E-01
         21   -1    0    0  502  501  0.00000000000E+00  0.00000000000E+00  0.39300245335E+03  0.39300245335E+03  0.00000000000E+00 0. -1.
         21   -1    0    0  501  502 -0.00000000000E+00 -0.00000000000E+00 -0.87000688102E+03  0.87000688102E+03  0.00000000000E+00 0. -1.
         25    1    1    2    0    0  0.36768441895E+03 -0.27010744772E+03 -0.30996942938E+03  0.56555805396E+03  0.12500000000E+03 0.  0.
         25    1    1    2    0    0 -0.40957573520E+03  0.21265120724E+03 -0.24134312321E+03  0.53557849278E+03  0.12500000000E+03 0.  0.
         25    1    1    2    0    0  0.41891316252E+02  0.57456240479E+02  0.74308124917E+02  0.16187278763E+03  0.12500000000E+03 0.  0.
</event>
<event>
 5    0  0.5605075E-005  0.2593284E+03  0.7546771E-02  0.1107547E+00
         21   -1    0    0  502  501  0.00000000000E+00  0.00000000000E+00  0.15302912497E+03  0.15302912497E+03  0.00000000000E+00 0. -1.
         21   -1    0    0  501  502 -0.00000000000E+00 -0.00000000000E+00 -0.43946667746E+03  0.43946667746E+03  0.00000000000E+00 0. -1.
         25    1    1    2    0    0 -0.14772534339E+03 -0.55040281189E+02 -0.38936555145E+02  0.20492258284E+03  0.12500000000E+03 0.  0.
         25    1    1    2    0    0  0.73890108631E+02  0.46826625878E+02 -0.11839142912E+03  0.19311657498E+03  0.12500000000E+03 0.  0.
         25    1    1    2    0    0  0.73835234758E+02  0.82136553106E+01 -0.12910956822E+03  0.19445664461E+03  0.12500000000E+03 0.  0.
</event>
<event>
 5    0  0.5605075E-005  0.3049108E+03  0.7546771E-02  0.1082811E+00
         21   -1    0    0  502  501  0.00000000000E+00  0.00000000000E+00  0.52667038722E+02  0.52667038722E+02  0.00000000000E+00 0.  1.
         21   -1    0    0  501  502 -0.00000000000E+00 -0.00000000000E+00 -0.17652514513E+04  0.17652514513E+04  0.00000000000E+00 0.  1.
         25    1    1    2    0    0  0.37697993068E+02  0.64782755182E+01 -0.91361200887E+03  0.92291657775E+03  0.12500000000E+03 0.  0.
         25    1    1    2    0    0 -0.16096515416E+03 -0.29830881337E+01 -0.57721483016E+03  0.61214429657E+03  0.12500000000E+03 0.  0.
         25    1    1    2    0    0  0.12326716109E+03 -0.34951873845E+01 -0.22175757359E+03  0.28285761575E+03  0.12500000000E+03 0.  0.
</event>
<event>
 5    0  0.5605075E-005  0.3057717E+03  0.7546771E-02  0.1082390E+00
         21   -1    0    0  502  501  0.00000000000E+00  0.00000000000E+00  0.31302947770E+03  0.31302947770E+03  0.00000000000E+00 0. -1.
         21   -1    0    0  501  502 -0.00000000000E+00 -0.00000000000E+00 -0.29868210703E+03  0.29868210703E+03  0.00000000000E+00 0. -1.
         25    1    1    2    0    0  0.68234895441E+02 -0.94467572334E+02  0.64727746940E+01  0.17101760141E+03  0.12500000000E+03 0.  0.
         25    1    1    2    0    0 -0.12124688145E+03  0.19234469400E+03 -0.48734926843E+02  0.26400261489E+03  0.12500000000E+03 0.  0.
         25    1    1    2    0    0  0.53011986011E+02 -0.97877121669E+02  0.56609522822E+02  0.17669136844E+03  0.12500000000E+03 0.  0.
</event>
<event>
 5    0  0.5605075E-005  0.3111373E+03  0.7546771E-02  0.1079802E+00
         21   -1    0    0  502  501  0.00000000000E+00  0.00000000000E+00  0.15186919514E+04  0.15186919514E+04  0.00000000000E+00 0.  1.
         21   -1    0    0  501  502 -0.00000000000E+00 -0.00000000000E+00 -0.63743296572E+02  0.63743296572E+02  0.00000000000E+00 0.  1.
         25    1    1    2    0    0  0.15409382422E+03  0.88998580361E+02  0.87104449651E+03  0.89778013392E+03  0.12500000000E+03 0.  0.
         25    1    1    2    0    0 -0.51385859984E+02 -0.95964627598E+02  0.15795820890E+03  0.22896618116E+03  0.12500000000E+03 0.  0.
         25    1    1    2    0    0 -0.10270796423E+03  0.69660472364E+01  0.42594594941E+03  0.45568893288E+03  0.12500000000E+03 0.  0.
</event>
<event>
 5    0  0.5605075E-005  0.2490494E+03  0.7546771E-02  0.1113907E+00
         21   -1    0    0  502  501  0.00000000000E+00  0.00000000000E+00  0.83042748249E+03  0.83042748249E+03  0.00000000000E+00 0. -1.
         21   -1    0    0  501  502 -0.00000000000E+00 -0.00000000000E+00 -0.74691180194E+02  0.74691180194E+02  0.00000000000E+00 0. -1.
         25    1    1    2    0    0 -0.25861547536E+02 -0.61984776546E+01  0.20101034015E+03  0.23819613266E+03  0.12500000000E+03 0.  0.
         25    1    1    2    0    0 -0.86558018488E+02  0.22458824773E+02  0.10395854326E+03  0.18555071569E+03  0.12500000000E+03 0.  0.
         25    1    1    2    0    0  0.11241956602E+03 -0.16260347118E+02  0.45076741888E+03  0.48137181434E+03  0.12500000000E+03 0.  0.
</event>
<event>
 5    0  0.6938556E-005  0.2838041E+03  0.7546771E-02  0.1093629E+00
         21   -1    0    0  502  501  0.00000000000E+00  0.00000000000E+00  0.15448950706E+03  0.15448950706E+03  0.00000000000E+00 0.  1.
         21   -1    0    0  501  502 -0.00000000000E+00 -0.00000000000E+00 -0.52136084496E+03  0.52136084496E+03  0.00000000000E+00 0.  1.
         25    1    1    2    0    0 -0.21839401157E+02 -0.11288932364E+03 -0.54174478118E+02  0.17827179506E+03  0.12500000000E+03 0.  0.
         25    1    1    2    0    0 -0.92562051453E+02 -0.36911551771E+02 -0.14738459721E+03  0.21743370373E+03  0.12500000000E+03 0.  0.
         25    1    1    2    0    0  0.11440145261E+03  0.14980087541E+03 -0.16531226257E+03  0.28014485323E+03  0.12500000000E+03 0.  0.
</event>
<event>
 5    0  0.5605075E-005  0.2985027E+03  0.7546771E-02  0.1085991E+00
         21   -1    0    0  502  501  0.00000000000E+00  0.00000000000E+00  0.11370371760E+04  0.11370371760E+04  0.00000000000E+00 0.  1.
         21   -1    0    0  501  502 -0.00000000000E+00 -0.00000000000E+00 -0.78364970365E+02  0.78364970365E+02  0.00000000000E+00 0.  1.
         25    1    1    2    0    0  0.13178036847E+03 -0.10244165540E+02  0.79373097473E+03  0.81431251292E+03  0.12500000000E+03 0.  0.
         25    1    1    2    0    0 -0.10702082006E+03 -0.16584991455E+02  0.10970199528E+03  0.19846421752E+03  0.12500000000E+03 0.  0.
         25    1    1    2    0    0 -0.24759548413E+02  0.26829156995E+02  0.15523923561E+03  0.20262541592E+03  0.12500000000E+03 0.  0.
</event>
<event>
 5    0  0.5605075E-005  0.5780748E+03  0.7546771E-02  0.9951968E-01
         21   -1    0    0  502  501  0.00000000000E+00  0.00000000000E+00  0.14250645660E+04  0.14250645660E+04  0.00000000000E+00 0. -1.
         21   -1    0    0  501  502 -0.00000000000E+00 -0.00000000000E+00 -0.23449498908E+03  0.23449498908E+03  0.00000000000E+00 0. -1.
         25    1    1    2    0    0  0.98514562261E+02 -0.26355995304E+03  0.40480569188E+03  0.50858786459E+03  0.12500000000E+03 0.  0.
         25    1    1    2    0    0 -0.29696163340E+03  0.22814286965E+03  0.75233298090E+02  0.40189604355E+03  0.12500000000E+03 0.  0.
         25    1    1    2    0    0  0.19844707114E+03  0.35417083394E+02  0.71053058699E+03  0.74907564697E+03  0.12500000000E+03 0.  0.
</event>
<event>
 5    0  0.5605075E-005  0.3391693E+03  0.7546771E-02  0.1067150E+00
         21   -1    0    0  502  501  0.00000000000E+00  0.00000000000E+00  0.61668231901E+03  0.61668231901E+03  0.00000000000E+00 0. -1.
         21   -1    0    0  501  502 -0.00000000000E+00 -0.00000000000E+00 -0.18653983301E+03  0.18653983301E+03  0.00000000000E+00 0. -1.
         25    1    1    2    0    0 -0.15930678236E+03  0.27766256749E+02  0.66087928187E+02  0.21480742578E+03  0.12500000000E+03 0.  0.
         25    1    1    2    0    0  0.25497950717E+03 -0.44806552124E+02  0.15636664395E+03  0.32725785480E+03  0.12500000000E+03 0.  0.
         25    1    1    2    0    0 -0.95672724807E+02  0.17040295374E+02  0.20768791386E+03  0.26115687144E+03  0.12500000000E+03 0.  0.
</event>
<event>
 5    0  0.5605075E-005  0.2928333E+03  0.7546771E-02  0.1088879E+00
         21   -1    0    0  502  501  0.00000000000E+00  0.00000000000E+00  0.46005076039E+02  0.46005076039E+02  0.00000000000E+00 0. -1.
         21   -1    0    0  501  502 -0.00000000000E+00 -0.00000000000E+00 -0.18639541217E+04  0.18639541217E+04  0.00000000000E+00 0. -1.
         25    1    1    2    0    0  0.13977546944E+02 -0.93491553121E+02 -0.15951986670E+03  0.22362385873E+03  0.12500000000E+03 0.  0.
         25    1    1    2    0    0  0.28642609584E+02 -0.16727348263E+02 -0.85244408543E+03  0.86219842383E+03  0.12500000000E+03 0.  0.
         25    1    1    2    0    0 -0.42620156528E+02  0.11021890138E+03 -0.80598509352E+03  0.82413691516E+03  0.12500000000E+03 0.  0.
</event>
<event>
 5    0  0.5605075E-005  0.3557351E+03  0.7546771E-02  0.1060285E+00
         21   -1    0    0  502  501  0.00000000000E+00  0.00000000000E+00  0.24647835403E+03  0.24647835403E+03  0.00000000000E+00 0.  1.
         21   -1    0    0  501  502 -0.00000000000E+00 -0.00000000000E+00 -0.51342227683E+03  0.51342227683E+03  0.00000000000E+00 0.  1.
         25    1    1    2    0    0  0.15438548432E+02  0.34769923058E+02  0.30469998571E+02  0.13416675125E+03  0.12500000000E+03 0.  0.
         25    1    1    2    0    0  0.34516443631E+02 -0.38131778153E+02 -0.42148856916E+03  0.44263193662E+03  0.12500000000E+03 0.  0.
         25    1    1    2    0    0 -0.49954992063E+02  0.33618550957E+01  0.12407464779E+03  0.18310194299E+03  0.12500000000E+03 0.  0.
</event>
<event>
 5    0  0.5605075E-005  0.2847675E+03  0.7546771E-02  0.1093113E+00
         21   -1    0    0  502  501  0.00000000000E+00  0.00000000000E+00  0.60732773449E+03  0.60732773449E+03  0.00000000000E+00 0.  1.
         21   -1    0    0  501  502 -0.00000000000E+00 -0.00000000000E+00 -0.13352346658E+03  0.13352346658E+03  0.00000000000E+00 0.  1.
         25    1    1    2    0    0 -0.38797997379E+02 -0.17539373117E+02  0.89967764636E+02  0.15978771193E+03  0.12500000000E+03 0.  0.
         25    1    1    2    0    0  0.12566922168E+03 -0.65935999543E+02  0.36288631369E+02  0.19256732350E+03  0.12500000000E+03 0.  0.
         25    1    1    2    0    0 -0.86871224300E+02  0.83475372660E+02  0.34754787190E+03  0.38849616564E+03  0.12500000000E+03 0.  0.
</event>
<event>
 5    0  0.5605075E-005  0.2499392E+03  0.7546771E-02  0.1113343E+00
         21   -1    0    0  502  501  0.00000000000E+00  0.00000000000E+00  0.22624273171E+03  0.22624273171E+03  0.00000000000E+00 0.  1.
         21   -1    0    0  501  502 -0.00000000000E+00 -0.00000000000E+00 -0.27611767780E+03  0.27611767780E+03  0.00000000000E+00 0.  1.
         25    1    1    2    0    0 -0.51019999192E+02  0.19068061014E+02 -0.62374358082E+02  0.14994062763E+03  0.12500000000E+03 0.  0.
         25    1    1    2    0    0  0.73722060296E+02 -0.17381124432E+02  0.11754701118E+03  0.18756157788E+03  0.12500000000E+03 0.  0.
         25    1    1    2    0    0 -0.22702061104E+02 -0.16869365825E+01 -0.10504759918E+03  0.16485820400E+03  0.12500000000E+03 0.  0.
</event>
<event>
 5    0  0.5605075E-005  0.3188081E+03  0.7546771E-02  0.1076199E+00
         21   -1    0    0  502  501  0.00000000000E+00  0.00000000000E+00  0.39512494823E+03  0.39512494823E+03  0.00000000000E+00 0.  1.
         21   -1    0    0  501  502 -0.00000000000E+00 -0.00000000000E+00 -0.25723162068E+03  0.25723162068E+03  0.00000000000E+00 0.  1.
         25    1    1    2    0    0 -0.39791841510E+02  0.18967836653E+03 -0.21706279781E+02  0.23164074763E+03  0.12500000000E+03 0.  0.
         25    1    1    2    0    0 -0.36732660703E+02  0.36144021966E+01  0.11553228525E+03  0.17416963340E+03  0.12500000000E+03 0.  0.
         25    1    1    2    0    0  0.76524502213E+02 -0.19329276873E+03  0.44067322078E+02  0.24654618787E+03  0.12500000000E+03 0.  0.
</event>
<event>
 5    0  0.5605075E-005  0.8071382E+03  0.7546771E-02  0.9549742E-01
         21   -1    0    0  502  501  0.00000000000E+00  0.00000000000E+00  0.22253360607E+04  0.22253360607E+04  0.00000000000E+00 0. -1.
         21   -1    0    0  501  502 -0.00000000000E+00 -0.00000000000E+00 -0.29275220049E+03  0.29275220049E+03  0.00000000000E+00 0. -1.
         25    1    1    2    0    0  0.23744350328E+03  0.35759641680E+03  0.79859004960E+03  0.91521892565E+03  0.12500000000E+03 0.  0.
         25    1    1    2    0    0  0.10865066497E+03 -0.40579713861E+02  0.11030835274E+04  0.11161854455E+04  0.12500000000E+03 0.  0.
         25    1    1    2    0    0 -0.34609416825E+03 -0.31701670294E+03  0.30910283172E+02  0.48668389006E+03  0.12500000000E+03 0.  0.
</event>
<event>
 5    0  0.5605075E-005  0.2505276E+03  0.7546771E-02  0.1112972E+00
         21   -1    0    0  502  501  0.00000000000E+00  0.00000000000E+00  0.56966302386E+03  0.56966302386E+03  0.00000000000E+00 0.  1.
         21   -1    0    0  501  502 -0.00000000000E+00 -0.00000000000E+00 -0.11017752168E+03  0.11017752168E+03  0.00000000000E+00 0.  1.
         25    1    1    2    0    0  0.80502380444E+02 -0.11416552808E+02  0.17275110375E+03  0.22820805153E+03  0.12500000000E+03 0.  0.
         25    1    1    2    0    0 -0.13623792566E+03 -0.64571956850E+01  0.24584054210E+03  0.30767684330E+03  0.12500000000E+03 0.  0.
         25    1    1    2    0    0  0.55735545218E+02  0.17873748493E+02  0.40893856326E+02  0.14395565071E+03  0.12500000000E+03 0.  0.
</event>
<event>
 5    0  0.5605075E-005  0.2457262E+03  0.7546771E-02  0.1116036E+00
         21   -1    0    0  502  501  0.00000000000E+00  0.00000000000E+00  0.79399241334E+03  0.79399241334E+03  0.00000000000E+00 0.  1.
         21   -1    0    0  501  502 -0.00000000000E+00 -0.00000000000E+00 -0.76047802050E+02  0.76047802050E+02  0.00000000000E+00 0.  1.
         25    1    1    2    0    0 -0.41256506362E+02  0.36452494519E+02  0.28511540808E+03  0.31614344782E+03  0.12500000000E+03 0.  0.
         25    1    1    2    0    0  0.57448408832E+02  0.32538821510E+02  0.37182748561E+03  0.39779363197E+03  0.12500000000E+03 0.  0.
         25    1    1    2    0    0 -0.16191902471E+02 -0.68991316029E+02  0.61001717597E+02  0.15610313560E+03  0.12500000000E+03 0.  0.
</event>
<event>
 5    0  0.5605075E-005  0.3008976E+03  0.7546771E-02  0.1084793E+00
         21   -1    0    0  502  501  0.00000000000E+00  0.00000000000E+00  0.15128006884E+03  0.15128006884E+03  0.00000000000E+00 0.  1.
         21   -1    0    0  501  502 -0.00000000000E+00 -0.00000000000E+00 -0.59848846198E+03  0.59848846198E+03  0.00000000000E+00 0.  1.
         25    1    1    2    0    0  0.56801864611E+02 -0.15975934000E+03 -0.20339735861E+03  0.29282244454E+03  0.12500000000E+03 0.  0.
         25    1    1    2    0    0 -0.12181358523E+03  0.35009635857E+02 -0.19185296223E+03  0.26171890124E+03  0.12500000000E+03 0.  0.
         25    1    1    2    0    0  0.65011720619E+02  0.12474970414E+03 -0.51958072293E+02  0.19522718504E+03  0.12500000000E+03 0.  0.
</event>
<event>
 5    0  0.5605075E-005  0.3321430E+03  0.7546771E-02  0.1070193E+00
         21   -1    0    0  502  501  0.00000000000E+00  0.00000000000E+00  0.85535456610E+02  0.85535456610E+02  0.00000000000E+00 0. -1.
         21   -1    0    0  501  502 -0.00000000000E+00 -0.00000000000E+00 -0.12897454820E+04  0.12897454820E+04  0.00000000000E+00 0. -1.
         25    1    1    2    0    0  0.76634685793E+02  0.71411382161E+02 -0.60186459329E+03  0.62356912145E+03  0.12500000000E+03 0.  0.
         25    1    1    2    0    0 -0.21642828141E+03 -0.31251303408E+01 -0.34591206400E+03  0.42676823155E+03  0.12500000000E+03 0.  0.
         25    1    1    2    0    0  0.13979359562E+03 -0.68286251821E+02 -0.25643336812E+03  0.32494358564E+03  0.12500000000E+03 0.  0.
</event>
<event>
 5    0  0.5605075E-005  0.2299481E+03  0.7546771E-02  0.1126676E+00
         21   -1    0    0  502  501  0.00000000000E+00  0.00000000000E+00  0.48660295528E+03  0.48660295528E+03  0.00000000000E+00 0. -1.
         21   -1    0    0  501  502 -0.00000000000E+00 -0.00000000000E+00 -0.10866379067E+03  0.10866379067E+03  0.00000000000E+00 0. -1.
         25    1    1    2    0    0 -0.53515177748E+02 -0.65198425682E+02  0.74519267218E+02  0.16820472689E+03  0.12500000000E+03 0.  0.
         25    1    1    2    0    0  0.18617723495E+02  0.75931823762E+02  0.24130971927E+03  0.28278550547E+03  0.12500000000E+03 0.  0.
         25    1    1    2    0    0  0.34897454253E+02 -0.10733398080E+02  0.62110178118E+02  0.14427651359E+03  0.12500000000E+03 0.  0.
</event>
<event>
 5    0  0.5605075E-005  0.4837399E+03  0.7546771E-02  0.1018112E+00
         21   -1    0    0  502  501  0.00000000000E+00  0.00000000000E+00  0.14894203687E+03  0.14894203687E+03  0.00000000000E+00 0.  1.
         21   -1    0    0  501  502 -0.00000000000E+00 -0.00000000000E+00 -0.15711099474E+04  0.15711099474E+04  0.00000000000E+00 0.  1.
         25    1    1    2    0    0 -0.19000960677E+03 -0.24122161951E+03 -0.24184665722E+03  0.41037339825E+03  0.12500000000E+03 0.  0.
         25    1    1    2    0    0 -0.30418821915E+02  0.12210156786E+03 -0.12283273160E+03  0.21574748562E+03  0.12500000000E+03 0.  0.
         25    1    1    2    0    0  0.22042842868E+03  0.11912005166E+03 -0.10574885217E+04  0.10939311004E+04  0.12500000000E+03 0.  0.
</event>
<event>
 5    0  0.5605075E-005  0.2820131E+03  0.7546771E-02  0.1094594E+00
         21   -1    0    0  502  501  0.00000000000E+00  0.00000000000E+00  0.10066940560E+03  0.10066940560E+03  0.00000000000E+00 0.  1.
         21   -1    0    0  501  502 -0.00000000000E+00 -0.00000000000E+00 -0.79002546253E+03  0.79002546253E+03  0.00000000000E+00 0.  1.
         25    1    1    2    0    0  0.12331467835E+02  0.52264016844E+02 -0.97033253470E+02  0.16710489171E+03  0.12500000000E+03 0.  0.
         25    1    1    2    0    0  0.34147893854E+02  0.11215373840E+03 -0.13000794775E+03  0.21510835914E+03  0.12500000000E+03 0.  0.
         25    1    1    2    0    0 -0.46479361689E+02 -0.16441775525E+03 -0.46231485570E+03  0.50848161728E+03  0.12500000000E+03 0.  0.
</event>
<event>
 5    0  0.5605075E-005  0.4363043E+03  0.7546771E-02  0.1031887E+00
         21   -1    0    0  502  501  0.00000000000E+00  0.00000000000E+00  0.18626500233E+04  0.18626500233E+04  0.00000000000E+00 0.  1.
         21   -1    0    0  501  502 -0.00000000000E+00 -0.00000000000E+00 -0.10219924886E+03  0.10219924886E+03  0.00000000000E+00 0.  1.
         25    1    1    2    0    0  0.17972186195E+03 -0.23221075750E+03  0.96564682267E+03  0.10170155209E+04  0.12500000000E+03 0.  0.
         25    1    1    2    0    0 -0.75927526880E+02  0.24865628238E+03  0.70438161936E+03  0.76116581755E+03  0.12500000000E+03 0.  0.
         25    1    1    2    0    0 -0.10379433507E+03 -0.16445524871E+02  0.90422332374E+02  0.18666793370E+03  0.12500000000E+03 0.  0.
</event>
<event>
 5    0  0.5605075E-005  0.3039200E+03  0.7546771E-02  0.1083297E+00
         21   -1    0    0  502  501  0.00000000000E+00  0.00000000000E+00  0.15458737848E+03  0.15458737848E+03  0.00000000000E+00 0. -1.
         21   -1    0    0  501  502 -0.00000000000E+00 -0.00000000000E+00 -0.59750915480E+03  0.59750915480E+03  0.00000000000E+00 0. -1.
         25    1    1    2    0    0 -0.16074544596E+03  0.82459010947E+01 -0.78911479793E+02  0.21853858910E+03  0.12500000000E+03 0.  0.
         25    1    1    2    0    0  0.86785789027E+02  0.11904203624E+03 -0.21906240512E+03  0.29208922764E+03  0.12500000000E+03 0.  0.
         25    1    1    2    0    0  0.73959656933E+02 -0.12728793734E+03 -0.14494789141E+03  0.24146871654E+03  0.12500000000E+03 0.  0.
</event>
<event>
 5    0  0.5605075E-005  0.3238437E+03  0.7546771E-02  0.1073894E+00
         21   -1    0    0  502  501  0.00000000000E+00  0.00000000000E+00  0.22403101633E+03  0.22403101633E+03  0.00000000000E+00 0. -1.
         21   -1    0    0  501  502 -0.00000000000E+00 -0.00000000000E+00 -0.46812605840E+03  0.46812605840E+03  0.00000000000E+00 0.  1.
         25    1    1    2    0    0 -0.11521142731E+03 -0.15253512766E+03 -0.15553071093E+03  0.27632488161E+03  0.12500000000E+03 0.  0.
         25    1    1    2    0    0 -0.99156712661E+01  0.72032717876E+02 -0.15355261489E+03  0.21092756700E+03  0.12500000000E+03 0.  0.
         25    1    1    2    0    0  0.12512709858E+03  0.80502409785E+02  0.64988283751E+02  0.20490462612E+03  0.12500000000E+03 0.  0.
</event>
<event>
 5    0  0.6615154E-005  0.2806470E+03  0.7546771E-02  0.1095336E+00
         21   -1    0    0  502  501  0.00000000000E+00  0.00000000000E+00  0.51117450033E+03  0.51117450033E+03  0.00000000000E+00 0. -1.
         21   -1    0    0  501  502 -0.00000000000E+00 -0.00000000000E+00 -0.15408194799E+03  0.15408194799E+03  0.00000000000E+00 0. -1.
         25    1    1    2    0    0 -0.51778501741E+02 -0.89448664209E+02  0.19279021515E+03  0.25194273919E+03  0.12500000000E+03 0.  0.
         25    1    1    2    0    0  0.48504538939E+02  0.30464771001E+02  0.22390811982E+03  0.26275585377E+03  0.12500000000E+03 0.  0.
         25    1    1    2    0    0  0.32739628015E+01  0.58983893208E+02 -0.59605782625E+02  0.15055785537E+03  0.12500000000E+03 0.  0.
</event>
<event>
 5    0  0.5605075E-005  0.2816452E+03  0.7546771E-02  0.1094794E+00
         21   -1    0    0  502  501  0.00000000000E+00  0.00000000000E+00  0.41340282624E+03  0.41340282624E+03  0.00000000000E+00 0.  1.
         21   -1    0    0  501  502 -0.00000000000E+00 -0.00000000000E+00 -0.19188074705E+03  0.19188074705E+03  0.00000000000E+00 0.  1.
         25    1    1    2    0    0  0.54887822141E+02 -0.46740491714E+02  0.19628254452E+03  0.24361687928E+03  0.12500000000E+03 0.  0.
         25    1    1    2    0    0 -0.46618463380E+02  0.12946061933E+03  0.79304666763E+02  0.20210780107E+03  0.12500000000E+03 0.  0.
         25    1    1    2    0    0 -0.82693587611E+01 -0.82720127612E+02 -0.54065132103E+02  0.15955889294E+03  0.12500000000E+03 0.  0.
</event>
<event>
 5    0  0.5605075E-005  0.4392091E+03  0.7546771E-02  0.1030990E+00
         21   -1    0    0  502  501  0.00000000000E+00  0.00000000000E+00  0.25846158339E+04  0.25846158339E+04  0.00000000000E+00 0.  1.
         21   -1    0    0  501  502 -0.00000000000E+00 -0.00000000000E+00 -0.74635697898E+02  0.74635697898E+02  0.00000000000E+00 0.  1.
         25    1    1    2    0    0  0.18728463058E+03  0.46829126506E+01  0.37825268123E+03  0.44022443524E+03  0.12500000000E+03 0.  0.
         25    1    1    2    0    0 -0.19765742721E+03  0.24159495524E+03  0.12891087809E+04  0.13322398545E+04  0.12500000000E+03 0.  0.
         25    1    1    2    0    0  0.10372796636E+02 -0.24627786789E+03  0.84261867394E+03  0.88678724213E+03  0.12500000000E+03 0.  0.
</event>
<event>
 5    0  0.5605075E-005  0.2302763E+03  0.7546771E-02  0.1126445E+00
         21   -1    0    0  502  501  0.00000000000E+00  0.00000000000E+00  0.14407230471E+03  0.14407230471E+03  0.00000000000E+00 0.  1.
         21   -1    0    0  501  502 -0.00000000000E+00 -0.00000000000E+00 -0.36805958287E+03  0.36805958287E+03  0.00000000000E+00 0.  1.
         25    1    1    2    0    0 -0.40467684833E+02  0.32342431711E+02 -0.53202011035E+02  0.14539298602E+03  0.12500000000E+03 0.  0.
         25    1    1    2    0    0  0.13910015557E+02 -0.49372168937E+02  0.19889463704E+02  0.13657119156E+03  0.12500000000E+03 0.  0.
         25    1    1    2    0    0  0.26557669276E+02  0.17029737226E+02 -0.19067473084E+03  0.23016771000E+03  0.12500000000E+03 0.  0.
</event>
<event>
 5    0  0.5605075E-005  0.2908236E+03  0.7546771E-02  0.1089920E+00
         21   -1    0    0  502  501  0.00000000000E+00  0.00000000000E+00  0.19095100885E+03  0.19095100885E+03  0.00000000000E+00 0.  1.
         21   -1    0    0  501  502 -0.00000000000E+00 -0.00000000000E+00 -0.44293236688E+03  0.44293236688E+03  0.00000000000E+00 0.  1.
         25    1    1    2    0    0  0.12103178345E+03 -0.15890533118E+02  0.93172998356E+01  0.17496575015E+03  0.12500000000E+03 0.  0.
         25    1    1    2    0    0 -0.13742796701E+03  0.10690070658E+03 -0.10583144982E+03  0.23903870598E+03  0.12500000000E+03 0.  0.
         25    1    1    2    0    0  0.16396183557E+02 -0.91010173466E+02 -0.15546720804E+03  0.21987891960E+03  0.12500000000E+03 0.  0.
</event>
<event>
 5    0  0.5605075E-005  0.4422509E+03  0.7546771E-02  0.1030058E+00
         21   -1    0    0  502  501  0.00000000000E+00  0.00000000000E+00  0.17910226752E+04  0.17910226752E+04  0.00000000000E+00 0.  1.
         21   -1    0    0  501  502 -0.00000000000E+00 -0.00000000000E+00 -0.10920344896E+03  0.10920344896E+03  0.00000000000E+00 0.  1.
         25    1    1    2    0    0  0.61887636523E+02  0.59244740735E+01  0.42675458264E+03  0.44900963548E+03  0.12500000000E+03 0.  0.
         25    1    1    2    0    0 -0.13289257863E+03  0.26285659692E+03  0.26551543717E+03  0.41578537176E+03  0.12500000000E+03 0.  0.
         25    1    1    2    0    0  0.71004942103E+02 -0.26878107099E+03  0.98954920638E+03  0.10354311169E+04  0.12500000000E+03 0.  0.
</event>
<event>
 5    0  0.5605075E-005  0.4001500E+03  0.7546771E-02  0.1043728E+00
         21   -1    0    0  502  501  0.00000000000E+00  0.00000000000E+00  0.29519000919E+03  0.29519000919E+03  0.00000000000E+00 0. -1.
         21   -1    0    0  501  502 -0.00000000000E+00 -0.00000000000E+00 -0.54243049210E+03  0.54243049210E+03  0.00000000000E+00 0. -1.
         25    1    1    2    0    0  0.21319609220E+03  0.20128094615E+03  0.26061829732E+02  0.31979808001E+03  0.12500000000E+03 0.  0.
         25    1    1    2    0    0 -0.13266268189E+03 -0.21404746907E+01 -0.16802285036E+03  0.24791257943E+03  0.12500000000E+03 0.  0.
         25    1    1    2    0    0 -0.80533410310E+02 -0.19914047146E+03 -0.10527946229E+03  0.26990984185E+03  0.12500000000E+03 0.  0.
</event>
<event>
 5    0  0.5605075E-005  0.3267086E+03  0.7546771E-02  0.1072603E+00
         21   -1    0    0  502  501  0.00000000000E+00  0.00000000000E+00  0.68404454841E+02  0.68404454841E+02  0.00000000000E+00 0. -1.
         21   -1    0    0  501  502 -0.00000000000E+00 -0.00000000000E+00 -0.15604027097E+04  0.15604027097E+04  0.00000000000E+00 0. -1.
         25    1    1    2    0    0  0.31534440640E+02 -0.37024592539E+02 -0.73229595104E+03  0.74447807309E+03  0.12500000000E+03 0.  0.
         25    1    1    2    0    0 -0.59466039898E+02 -0.14326741516E+03 -0.19897026140E+03  0.28155981082E+03  0.12500000000E+03 0.  0.
         25    1    1    2    0    0  0.27931599257E+02  0.18029200769E+03 -0.56073204237E+03  0.60276928059E+03  0.12500000000E+03 0.  0.
</event>
<event>
 5    0  0.5605075E-005  0.2341837E+03  0.7546771E-02  0.1123729E+00
         21   -1    0    0  502  501  0.00000000000E+00  0.00000000000E+00  0.41304505603E+03  0.41304505603E+03  0.00000000000E+00 0. -1.
         21   -1    0    0  501  502 -0.00000000000E+00 -0.00000000000E+00 -0.13277488562E+03  0.13277488562E+03  0.00000000000E+00 0. -1.
         25    1    1    2    0    0 -0.62365842415E+02 -0.85271249704E+02  0.59090104188E+02  0.17400380668E+03  0.12500000000E+03 0.  0.
         25    1    1    2    0    0 -0.85074320464E+01 -0.55915988507E+01  0.12212749396E+03  0.17505361224E+03  0.12500000000E+03 0.  0.
         25    1    1    2    0    0  0.70873274462E+02  0.90862848555E+02  0.99052572257E+02  0.19676252273E+03  0.12500000000E+03 0.  0.
</event>
<event>
 5    0  0.5605075E-005  0.2336503E+03  0.7546771E-02  0.1124097E+00
         21   -1    0    0  502  501  0.00000000000E+00  0.00000000000E+00  0.14897974251E+03  0.14897974251E+03  0.00000000000E+00 0. -1.
         21   -1    0    0  501  502 -0.00000000000E+00 -0.00000000000E+00 -0.36644216163E+03  0.36644216163E+03  0.00000000000E+00 0. -1.
         25    1    1    2    0    0 -0.55100512858E+02 -0.10737258679E+03 -0.28182853802E+02  0.17602332845E+03  0.12500000000E+03 0.  0.
         25    1    1    2    0    0  0.72163387050E+01  0.46875464217E+02 -0.75067059170E+02  0.15332791025E+03  0.12500000000E+03 0.  0.
         25    1    1    2    0    0  0.47884174153E+02  0.60497122574E+02 -0.11421250615E+03  0.18607066543E+03  0.12500000000E+03 0.  0.
</event>
<event>
 5    0  0.5605075E-005  0.2277451E+03  0.7546771E-02  0.1128237E+00
         21   -1    0    0  502  501  0.00000000000E+00  0.00000000000E+00  0.58861320885E+02  0.58861320885E+02  0.00000000000E+00 0. -1.
         21   -1    0    0  501  502 -0.00000000000E+00 -0.00000000000E+00 -0.88118702380E+03  0.88118702380E+03  0.00000000000E+00 0. -1.
         25    1    1    2    0    0 -0.12138703236E+02  0.55993256158E+02 -0.29843951674E+03  0.32859357572E+03  0.12500000000E+03 0.  0.
         25    1    1    2    0    0 -0.31123178829E+02 -0.86181390117E+02 -0.39500612187E+03  0.42432383927E+03  0.12500000000E+03 0.  0.
         25    1    1    2    0    0  0.43261882065E+02  0.30188133959E+02 -0.12888006430E+03  0.18713092969E+03  0.12500000000E+03 0.  0.
</event>
<event>
 5    0  0.5605075E-005  0.2642185E+03  0.7546771E-02  0.1104635E+00
         21   -1    0    0  502  501  0.00000000000E+00  0.00000000000E+00  0.22667373476E+03  0.22667373476E+03  0.00000000000E+00 0.  1.
         21   -1    0    0  501  502 -0.00000000000E+00 -0.00000000000E+00 -0.30798183314E+03  0.30798183314E+03  0.00000000000E+00 0.  1.
         25    1    1    2    0    0 -0.78309882038E+01  0.68623822777E+02 -0.38793822170E+02  0.14798822273E+03  0.12500000000E+03 0.  0.
         25    1    1    2    0    0 -0.79200191660E+02 -0.64532582410E+02 -0.13325135454E+03  0.20932760935E+03  0.12500000000E+03 0.  0.
         25    1    1    2    0    0  0.87031179864E+02 -0.40912403674E+01  0.90737078325E+02  0.17733973582E+03  0.12500000000E+03 0.  0.
</event>
<event>
 5    0  0.5605075E-005  0.3561226E+03  0.7546771E-02  0.1060130E+00
         21   -1    0    0  502  501  0.00000000000E+00  0.00000000000E+00  0.22366285984E+03  0.22366285984E+03  0.00000000000E+00 0. -1.
         21   -1    0    0  501  502 -0.00000000000E+00 -0.00000000000E+00 -0.56702903525E+03  0.56702903525E+03  0.00000000000E+00 0. -1.
         25    1    1    2    0    0  0.13544128609E+03 -0.33401799072E+02  0.86588478774E+02  0.20635548652E+03  0.12500000000E+03 0.  0.
         25    1    1    2    0    0 -0.12025221752E+03  0.14377463422E+03 -0.21079675114E+03  0.30853202678E+03  0.12500000000E+03 0.  0.
         25    1    1    2    0    0 -0.15189068580E+02 -0.11037283514E+03 -0.21915790305E+03  0.27580438178E+03  0.12500000000E+03 0.  0.
</event>
<event>
 5    0  0.5605075E-005  0.4954890E+03  0.7546771E-02  0.1014963E+00
         21   -1    0    0  502  501  0.00000000000E+00  0.00000000000E+00  0.14731255272E+04  0.14731255272E+04  0.00000000000E+00 0. -1.
         21   -1    0    0  501  502 -0.00000000000E+00 -0.00000000000E+00 -0.16665882602E+03  0.16665882602E+03  0.00000000000E+00 0. -1.
         25    1    1    2    0    0  0.29404986186E+03 -0.93178672273E+02  0.11076648865E+04  0.11565872587E+04  0.12500000000E+03 0.  0.
         25    1    1    2    0    0 -0.26692228979E+03  0.55099071671E+02  0.96343219370E+02  0.31494512602E+03  0.12500000000E+03 0.  0.
         25    1    1    2    0    0 -0.27127572075E+02  0.38079600602E+02  0.10245859529E+03  0.16825196848E+03  0.12500000000E+03 0.  0.
</event>
<event>
 5    0  0.5605075E-005  0.2616422E+03  0.7546771E-02  0.1106161E+00
         21   -1    0    0  502  501  0.00000000000E+00  0.00000000000E+00  0.49817591830E+03  0.49817591830E+03  0.00000000000E+00 0. -1.
         21   -1    0    0  501  502 -0.00000000000E+00 -0.00000000000E+00 -0.13741458017E+03  0.13741458017E+03  0.00000000000E+00 0. -1.
         25    1    1    2    0    0  0.82001476593E+02  0.13020670567E+03  0.98512263339E+02  0.22137681539E+03  0.12500000000E+03 0.  0.
         25    1    1    2    0    0 -0.46430030561E+01 -0.29380128319E+02  0.52115443067E+02  0.13865701866E+03  0.12500000000E+03 0.  0.
         25    1    1    2    0    0 -0.77358473537E+02 -0.10082657735E+03  0.21013363173E+03  0.27555666443E+03  0.12500000000E+03 0.  0.
</event>
<event>
 5    0  0.5605075E-005  0.4333789E+03  0.7546771E-02  0.1032798E+00
         21   -1    0    0  502  501  0.00000000000E+00  0.00000000000E+00  0.99104926160E+02  0.99104926160E+02  0.00000000000E+00 0.  1.
         21   -1    0    0  501  502 -0.00000000000E+00 -0.00000000000E+00 -0.18951354783E+04  0.18951354783E+04  0.00000000000E+00 0.  1.
         25    1    1    2    0    0 -0.48952854817E+02 -0.70615116324E+02 -0.13761304068E+03  0.20480533590E+03  0.12500000000E+03 0.  0.
         25    1    1    2    0    0  0.32904139989E+03 -0.13671971749E+02 -0.93608262902E+03  0.10001654133E+04  0.12500000000E+03 0.  0.
         25    1    1    2    0    0 -0.28008854507E+03  0.84287088073E+02 -0.72233488248E+03  0.78926965528E+03  0.12500000000E+03 0.  0.
</event>
<event>
 5    0  0.5605075E-005  0.3427690E+03  0.7546771E-02  0.1065623E+00
         21   -1    0    0  502  501  0.00000000000E+00  0.00000000000E+00  0.19286524943E+03  0.19286524943E+03  0.00000000000E+00 0.  1.
         21   -1    0    0  501  502 -0.00000000000E+00 -0.00000000000E+00 -0.60918475755E+03  0.60918475755E+03  0.00000000000E+00 0.  1.
         25    1    1    2    0    0 -0.27763314791E+01 -0.80359362093E+02  0.11571979623E+03  0.18836508788E+03  0.12500000000E+03 0.  0.
         25    1    1    2    0    0  0.10730641057E+02  0.10641572452E+03 -0.38563020909E+03  0.41925542482E+03  0.12500000000E+03 0.  0.
         25    1    1    2    0    0 -0.79543095783E+01 -0.26056362430E+02 -0.14640909527E+03  0.19442949427E+03  0.12500000000E+03 0.  0.
</event>
<event>
 5    0  0.5605075E-005  0.2054522E+03  0.7546771E-02  0.1145219E+00
         21   -1    0    0  502  501  0.00000000000E+00  0.00000000000E+00  0.40422295470E+02  0.40422295470E+02  0.00000000000E+00 0.  1.
         21   -1    0    0  501  502 -0.00000000000E+00 -0.00000000000E+00 -0.10442404629E+04  0.10442404629E+04  0.00000000000E+00 0.  1.
         25    1    1    2    0    0 -0.36644306973E+02 -0.45679328224E+02 -0.46311091397E+03  0.48324540856E+03  0.12500000000E+03 0.  0.
         25    1    1    2    0    0  0.25053380653E+02  0.27246332319E+02 -0.33805976689E+03  0.36232504812E+03  0.12500000000E+03 0.  0.
         25    1    1    2    0    0  0.11590926320E+02  0.18432995905E+02 -0.20264748657E+03  0.23909230168E+03  0.12500000000E+03 0.  0.
</event>
<event>
 5    0  0.5605075E-005  0.4313892E+03  0.7546771E-02  0.1033422E+00
         21   -1    0    0  502  501  0.00000000000E+00  0.00000000000E+00  0.44530972121E+03  0.44530972121E+03  0.00000000000E+00 0.  1.
         21   -1    0    0  501  502 -0.00000000000E+00 -0.00000000000E+00 -0.41790378568E+03  0.41790378568E+03  0.00000000000E+00 0.  1.
         25    1    1    2    0    0 -0.15059200611E+03  0.33708039876E+02  0.30164803997E+02  0.20087085317E+03  0.12500000000E+03 0.  0.
         25    1    1    2    0    0  0.12402249240E+03 -0.21047445002E+03 -0.22207911895E+03  0.35302295649E+03  0.12500000000E+03 0.  0.
         25    1    1    2    0    0  0.26569513702E+02  0.17676641015E+03  0.21932025049E+03  0.30931969723E+03  0.12500000000E+03 0.  0.
</event>
<event>
 5    0  0.5605075E-005  0.4779176E+03  0.7546771E-02  0.1019709E+00
         21   -1    0    0  502  501  0.00000000000E+00  0.00000000000E+00  0.72940912092E+03  0.72940912092E+03  0.00000000000E+00 0. -1.
         21   -1    0    0  501  502 -0.00000000000E+00 -0.00000000000E+00 -0.31313733307E+03  0.31313733307E+03  0.00000000000E+00 0. -1.
         25    1    1    2    0    0 -0.33714793186E+03 -0.74628944093E+02 -0.40913258316E+02  0.36950927182E+03  0.12500000000E+03 0.  0.
         25    1    1    2    0    0  0.15400740064E+03  0.84208142495E+02  0.38222092359E+03  0.43877913025E+03  0.12500000000E+03 0.  0.
         25    1    1    2    0    0  0.18314053122E+03 -0.95791984027E+01  0.74964122578E+02  0.23425805193E+03  0.12500000000E+03 0.  0.
</event>
<event>
 5    0  0.5605075E-005  0.2874271E+03  0.7546771E-02  0.1091700E+00
         21   -1    0    0  502  501  0.00000000000E+00  0.00000000000E+00  0.54848716916E+02  0.54848716916E+02  0.00000000000E+00 0.  1.
         21   -1    0    0  501  502 -0.00000000000E+00 -0.00000000000E+00 -0.15062214364E+04  0.15062214364E+04  0.00000000000E+00 0.  1.
         25    1    1    2    0    0  0.72793503928E+02 -0.75617239336E+02 -0.38515353732E+03  0.41831221403E+03  0.12500000000E+03 0.  0.
         25    1    1    2    0    0  0.15123032134E+02 -0.10283071161E+03 -0.29854292046E+03  0.33993490069E+03  0.12500000000E+03 0.  0.
         25    1    1    2    0    0 -0.87916536062E+02  0.17844795094E+03 -0.76767626166E+03  0.80282303855E+03  0.12500000000E+03 0.  0.
</event>
<event>
 5    0  0.5605075E-005  0.4008970E+03  0.7546771E-02  0.1043470E+00
         21   -1    0    0  502  501  0.00000000000E+00  0.00000000000E+00  0.25271748668E+03  0.25271748668E+03  0.00000000000E+00 0.  1.
         21   -1    0    0  501  502 -0.00000000000E+00 -0.00000000000E+00 -0.63596064870E+03  0.63596064870E+03  0.00000000000E+00 0.  1.
         25    1    1    2    0    0 -0.16643401513E+03  0.32445376394E+02 -0.41117547205E+03  0.46199919119E+03  0.12500000000E+03 0.  0.
         25    1    1    2    0    0  0.17036429359E+03  0.98118876049E+02  0.65531739013E+02  0.24201387395E+03  0.12500000000E+03 0.  0.
         25    1    1    2    0    0 -0.39302784635E+01 -0.13056425244E+03 -0.37599428979E+02  0.18466507023E+03  0.12500000000E+03 0.  0.
</event>
<event>
 5    0  0.5605075E-005  0.2344359E+03  0.7546771E-02  0.1123556E+00
         21   -1    0    0  502  501  0.00000000000E+00  0.00000000000E+00  0.80541438775E+03  0.80541438775E+03  0.00000000000E+00 0.  1.
         21   -1    0    0  501  502 -0.00000000000E+00 -0.00000000000E+00 -0.68238392299E+02  0.68238392299E+02  0.00000000000E+00 0.  1.
         25    1    1    2    0    0  0.11460819726E+00 -0.15324838771E+02  0.47230253254E+03  0.48880420013E+03  0.12500000000E+03 0.  0.
         25    1    1    2    0    0  0.67345065034E+01  0.66449878960E+02  0.15985098511E+03  0.21363117149E+03  0.12500000000E+03 0.  0.
         25    1    1    2    0    0 -0.68491147007E+01 -0.51125040189E+02  0.10502247780E+03  0.17121740843E+03  0.12500000000E+03 0.  0.
</event>
<event>
 5    0  0.5605075E-005  0.2547784E+03  0.7546771E-02  0.1110322E+00
         21   -1    0    0  502  501  0.00000000000E+00  0.00000000000E+00  0.91488524952E+02  0.91488524952E+02  0.00000000000E+00 0.  1.
         21   -1    0    0  501  502 -0.00000000000E+00 -0.00000000000E+00 -0.70950998932E+03  0.70950998932E+03  0.00000000000E+00 0.  1.
         25    1    1    2    0    0 -0.33369123732E+02 -0.44339421434E+02 -0.11019704591E+03  0.17563562179E+03  0.12500000000E+03 0.  0.
         25    1    1    2    0    0  0.34647431650E+02  0.14959989892E+03 -0.32093742197E+03  0.37710264265E+03  0.12500000000E+03 0.  0.
         25    1    1    2    0    0 -0.12783079178E+01 -0.10526047749E+03 -0.18688699649E+03  0.24826024984E+03  0.12500000000E+03 0.  0.
</event>
<event>
 5    0  0.7026449E-005  0.2765487E+03  0.7546771E-02  0.1097589E+00
         21   -1    0    0  502  501  0.00000000000E+00  0.00000000000E+00  0.45109297989E+03  0.45109297989E+03  0.00000000000E+00 0. -1.
         21   -1    0    0  501  502 -0.00000000000E+00 -0.00000000000E+00 -0.16954196224E+03  0.16954196224E+03  0.00000000000E+00 0. -1.
         25    1    1    2    0    0 -0.29271935998E+02  0.17281718701E+02 -0.41135351637E+02  0.13591402132E+03  0.12500000000E+03 0.  0.
         25    1    1    2    0    0 -0.26110784713E+02  0.54680054826E+02  0.14110891673E+02  0.13962735670E+03  0.12500000000E+03 0.  0.
         25    1    1    2    0    0  0.55382720710E+02 -0.71961773527E+02  0.30857547762E+03  0.34509356411E+03  0.12500000000E+03 0.  0.
</event>
<event>
 5    0  0.5605075E-005  0.3002641E+03  0.7546771E-02  0.1085109E+00
         21   -1    0    0  502  501  0.00000000000E+00  0.00000000000E+00  0.46377501422E+02  0.46377501422E+02  0.00000000000E+00 0. -1.
         21   -1    0    0  501  502 -0.00000000000E+00 -0.00000000000E+00 -0.19440141011E+04  0.19440141011E+04  0.00000000000E+00 0. -1.
         25    1    1    2    0    0 -0.13810774562E+03 -0.15687840638E+02 -0.10678665876E+04  0.10841051179E+04  0.12500000000E+03 0.  0.
         25    1    1    2    0    0  0.12302963643E+03  0.42249139375E+02 -0.70252587596E+03  0.72531985194E+03  0.12500000000E+03 0.  0.
         25    1    1    2    0    0  0.15078109183E+02 -0.26561298736E+02 -0.12724413609E+03  0.18096663266E+03  0.12500000000E+03 0.  0.
</event>
<event>
 5    0  0.5605075E-005  0.4008152E+03  0.7546771E-02  0.1043498E+00
         21   -1    0    0  502  501  0.00000000000E+00  0.00000000000E+00  0.21907271752E+03  0.21907271752E+03  0.00000000000E+00 0. -1.
         21   -1    0    0  501  502 -0.00000000000E+00 -0.00000000000E+00 -0.73333109874E+03  0.73333109874E+03  0.00000000000E+00 0. -1.
         25    1    1    2    0    0 -0.24850961270E+03 -0.41777143029E+02 -0.15417911150E+03  0.32077804742E+03  0.12500000000E+03 0.  0.
         25    1    1    2    0    0  0.16564812025E+03 -0.15302766288E+03 -0.26005668745E+03  0.36621202334E+03  0.12500000000E+03 0.  0.
         25    1    1    2    0    0  0.82861492457E+02  0.19480480591E+03 -0.10002258226E+03  0.26541374550E+03  0.12500000000E+03 0.  0.
</event>
<event>
 5    0  0.5605075E-005  0.2344920E+03  0.7546771E-02  0.1123517E+00
         21   -1    0    0  502  501  0.00000000000E+00  0.00000000000E+00  0.29506986016E+03  0.29506986016E+03  0.00000000000E+00 0.  1.
         21   -1    0    0  501  502 -0.00000000000E+00 -0.00000000000E+00 -0.18635078627E+03  0.18635078627E+03  0.00000000000E+00 0.  1.
         25    1    1    2    0    0 -0.39391870043E+02 -0.97276722260E+02  0.68275872696E+01  0.16335879550E+03  0.12500000000E+03 0.  0.
         25    1    1    2    0    0 -0.62867351256E+01  0.88806941235E+02  0.10278478894E+03  0.18470492329E+03  0.12500000000E+03 0.  0.
         25    1    1    2    0    0  0.45678605168E+02  0.84697810256E+01 -0.89330231070E+00  0.13335692764E+03  0.12500000000E+03 0.  0.
</event>
<event>
 5    0  0.5605075E-005  0.2731154E+03  0.7546771E-02  0.1099510E+00
         21   -1    0    0  502  501  0.00000000000E+00  0.00000000000E+00  0.19528914046E+04  0.19528914046E+04  0.00000000000E+00 0. -1.
         21   -1    0    0  501  502 -0.00000000000E+00 -0.00000000000E+00 -0.38195683342E+02  0.38195683342E+02  0.00000000000E+00 0. -1.
         25    1    1    2    0    0  0.35256975340E+02 -0.39981778878E+02  0.27075442433E+03  0.30294315514E+03  0.12500000000E+03 0.  0.
         25    1    1    2    0    0  0.87636162815E+02  0.65035455474E+02  0.42221796146E+03  0.45365484069E+03  0.12500000000E+03 0.  0.
         25    1    1    2    0    0 -0.12289313815E+03 -0.25053676596E+02  0.12217233355E+04  0.12344890922E+04  0.12500000000E+03 0.  0.
</event>
<event>
 5    0  0.5605075E-005  0.2655982E+03  0.7546771E-02  0.1103826E+00
         21   -1    0    0  502  501  0.00000000000E+00  0.00000000000E+00  0.12989932624E+04  0.12989932624E+04  0.00000000000E+00 0. -1.
         21   -1    0    0  501  502 -0.00000000000E+00 -0.00000000000E+00 -0.54305457161E+02  0.54305457161E+02  0.00000000000E+00 0. -1.
         25    1    1    2    0    0 -0.80136177264E+02  0.11520047135E+03  0.48254829592E+03  0.51785211537E+03  0.12500000000E+03 0.  0.
         25    1    1    2    0    0  0.10412352019E+03 -0.11903683377E+03  0.57309355166E+03  0.60751353418E+03  0.12500000000E+03 0.  0.
         25    1    1    2    0    0 -0.23987342928E+02  0.38363624187E+01  0.18904595767E+03  0.22793307002E+03  0.12500000000E+03 0.  0.
</event>
<event>
 5    0  0.5605075E-005  0.3643402E+03  0.7546771E-02  0.1056878E+00
         21   -1    0    0  502  501  0.00000000000E+00  0.00000000000E+00  0.77379580752E+03  0.77379580752E+03  0.00000000000E+00 0. -1.
         21   -1    0    0  501  502 -0.00000000000E+00 -0.00000000000E+00 -0.17154889574E+03  0.17154889574E+03  0.00000000000E+00 0. -1.
         25    1    1    2    0    0 -0.42100906980E+02  0.27885055879E+03  0.17958388327E+03  0.35693905872E+03  0.12500000000E+03 0.  0.
         25    1    1    2    0    0  0.44039570650E+02 -0.38333471321E+02  0.15386790530E+03  0.20666221495E+03  0.12500000000E+03 0.  0.
         25    1    1    2    0    0 -0.19386636702E+01 -0.24051708747E+03  0.26879512319E+03  0.38174342959E+03  0.12500000000E+03 0.  0.
</event>
<event>
 5    0  0.5605075E-005  0.2458622E+03  0.7546771E-02  0.1115948E+00
         21   -1    0    0  502  501  0.00000000000E+00  0.00000000000E+00  0.17307183821E+03  0.17307183821E+03  0.00000000000E+00 0. -1.
         21   -1    0    0  501  502 -0.00000000000E+00 -0.00000000000E+00 -0.34926669409E+03  0.34926669409E+03  0.00000000000E+00 0. -1.
         25    1    1    2    0    0 -0.24904063445E+02  0.57227227052E+01 -0.92189111470E+02  0.15740646176E+03  0.12500000000E+03 0.  0.
         25    1    1    2    0    0  0.46133409221E+02 -0.10283980070E+03 -0.11284218508E+03  0.20263927257E+03  0.12500000000E+03 0.  0.
         25    1    1    2    0    0 -0.21229345777E+02  0.97117077998E+02  0.28836440673E+02  0.16229279797E+03  0.12500000000E+03 0.  0.
</event>
<event>
 5    0  0.6712839E-005  0.4939404E+03  0.7546771E-02  0.1015373E+00
         21   -1    0    0  502  501  0.00000000000E+00  0.00000000000E+00  0.23969905064E+03  0.23969905064E+03  0.00000000000E+00 0.  1.
         21   -1    0    0  501  502 -0.00000000000E+00 -0.00000000000E+00 -0.10178477049E+04  0.10178477049E+04  0.00000000000E+00 0.  1.
         25    1    1    2    0    0 -0.10237544944E+03  0.15616636529E+03 -0.68621645912E+03  0.72207111496E+03  0.12500000000E+03 0.  0.
         25    1    1    2    0    0  0.26481876408E+03 -0.10415633780E+03 -0.91539520681E+02  0.32400926585E+03  0.12500000000E+03 0.  0.
         25    1    1    2    0    0 -0.16244331464E+03 -0.52010027484E+02 -0.39267442918E+00  0.21146637469E+03  0.12500000000E+03 0.  0.
</event>
<event>
 5    0  0.5605075E-005  0.2911770E+03  0.7546771E-02  0.1089736E+00
         21   -1    0    0  502  501  0.00000000000E+00  0.00000000000E+00  0.79285562972E+03  0.79285562972E+03  0.00000000000E+00 0. -1.
         21   -1    0    0  501  502 -0.00000000000E+00 -0.00000000000E+00 -0.10693507074E+03  0.10693507074E+03  0.00000000000E+00 0. -1.
         25    1    1    2    0    0 -0.15177641822E+03 -0.13858704004E+03  0.20823824248E+03  0.31816758858E+03  0.12500000000E+03 0.  0.
         25    1    1    2    0    0  0.97530627541E+02  0.10186156823E+03  0.30611083309E+03  0.35946744571E+03  0.12500000000E+03 0.  0.
         25    1    1    2    0    0  0.54245790678E+02  0.36725471814E+02  0.17157148341E+03  0.22215566616E+03  0.12500000000E+03 0.  0.
</event>
<event>
 5    0  0.5605075E-005  0.5102220E+03  0.7546771E-02  0.1011145E+00
         21   -1    0    0  502  501  0.00000000000E+00  0.00000000000E+00  0.28530003987E+03  0.28530003987E+03  0.00000000000E+00 0.  1.
         21   -1    0    0  501  502 -0.00000000000E+00 -0.00000000000E+00 -0.91246565096E+03  0.91246565096E+03  0.00000000000E+00 0.  1.
         25    1    1    2    0    0  0.86400504790E+02 -0.40807468959E+02 -0.11563830298E+03  0.19526267914E+03  0.12500000000E+03 0.  0.
         25    1    1    2    0    0 -0.14310881691E+03 -0.36987111173E+03 -0.33857551706E+03  0.53623050409E+03  0.12500000000E+03 0.  0.
         25    1    1    2    0    0  0.56708312125E+02  0.41067858069E+03 -0.17295179106E+03  0.46627250759E+03  0.12500000000E+03 0.  0.
</event>
<event>
 5    0  0.5605075E-005  0.4736360E+03  0.7546771E-02  0.1020899E+00
         21   -1    0    0  502  501  0.00000000000E+00  0.00000000000E+00  0.23832367615E+03  0.23832367615E+03  0.00000000000E+00 0.  1.
         21   -1    0    0  501  502 -0.00000000000E+00 -0.00000000000E+00 -0.94128751894E+03  0.94128751894E+03  0.00000000000E+00 0.  1.
         25    1    1    2    0    0 -0.22210479934E+03  0.43474810984E+02 -0.68828422327E+03  0.73524198267E+03  0.12500000000E+03 0.  0.
         25    1    1    2    0    0  0.18055630057E+03  0.10151868290E+03  0.28999187697E+02  0.24366487958E+03  0.12500000000E+03 0.  0.
         25    1    1    2    0    0  0.41548498772E+02 -0.14499349388E+03 -0.43678807212E+02  0.20070433283E+03  0.12500000000E+03 0.  0.
</event>
<event>
 5    0  0.5605075E-005  0.3108837E+03  0.7546771E-02  0.1079923E+00
         21   -1    0    0  502  501  0.00000000000E+00  0.00000000000E+00  0.21722854072E+03  0.21722854072E+03  0.00000000000E+00 0. -1.
         21   -1    0    0  501  502 -0.00000000000E+00 -0.00000000000E+00 -0.44491692480E+03  0.44491692480E+03  0.00000000000E+00 0. -1.
         25    1    1    2    0    0 -0.10016537657E+03  0.45869987745E+02  0.21847495228E+02  0.16804603978E+03  0.12500000000E+03 0.  0.
         25    1    1    2    0    0 -0.11466177372E+03 -0.67466147528E+01 -0.13846257667E+03  0.21906557078E+03  0.12500000000E+03 0.  0.
         25    1    1    2    0    0  0.21482715029E+03 -0.39123372992E+02 -0.11107330263E+03  0.27503385496E+03  0.12500000000E+03 0.  0.
</event>
<event>
 5    0  0.5605075E-005  0.3242278E+03  0.7546771E-02  0.1073720E+00
         21   -1    0    0  502  501  0.00000000000E+00  0.00000000000E+00  0.88902625850E+02  0.88902625850E+02  0.00000000000E+00 0.  1.
         21   -1    0    0  501  502 -0.00000000000E+00 -0.00000000000E+00 -0.11824583045E+04  0.11824583045E+04  0.00000000000E+00 0.  1.
         25    1    1    2    0    0  0.42794460734E+02  0.64045676844E+02 -0.70335467271E+03  0.71851653441E+03  0.12500000000E+03 0.  0.
         25    1    1    2    0    0 -0.56437609044E+02 -0.78734158846E+02 -0.17355885696E+02  0.15909273476E+03  0.12500000000E+03 0.  0.
         25    1    1    2    0    0  0.13643148309E+02  0.14688482002E+02 -0.37284512027E+03  0.39375166122E+03  0.12500000000E+03 0.  0.
</event>
<event>
 5    0  0.5605075E-005  0.2159637E+03  0.7546771E-02  0.1136929E+00
         21   -1    0    0  502  501  0.00000000000E+00  0.00000000000E+00  0.24584949707E+03  0.24584949707E+03  0.00000000000E+00 0.  1.
         21   -1    0    0  501  502 -0.00000000000E+00 -0.00000000000E+00 -0.18971090739E+03  0.18971090739E+03  0.00000000000E+00 0.  1.
         25    1    1    2    0    0  0.15356197730E+02 -0.41548974540E+02 -0.28346777239E+02  0.13561220400E+03  0.12500000000E+03 0.  0.
         25    1    1    2    0    0  0.25117466280E+02 -0.36781442765E+02  0.57497064321E+02  0.14461906531E+03  0.12500000000E+03 0.  0.
         25    1    1    2    0    0 -0.40473664010E+02  0.78330417305E+02  0.26988302597E+02  0.15532913516E+03  0.12500000000E+03 0.  0.
</event>
<event>
 5    0  0.5605075E-005  0.2199629E+03  0.7546771E-02  0.1133911E+00
         21   -1    0    0  502  501  0.00000000000E+00  0.00000000000E+00  0.58942154452E+02  0.58942154452E+02  0.00000000000E+00 0.  1.
         21   -1    0    0  501  502 -0.00000000000E+00 -0.00000000000E+00 -0.82086740150E+03  0.82086740150E+03  0.00000000000E+00 0.  1.
         25    1    1    2    0    0 -0.26583992478E+02 -0.90651259327E+02 -0.25951763900E+03  0.30314808992E+03  0.12500000000E+03 0.  0.
         25    1    1    2    0    0  0.54117154493E+02  0.23133576039E+02 -0.25592178479E+03  0.29083464147E+03  0.12500000000E+03 0.  0.
         25    1    1    2    0    0 -0.27533162015E+02  0.67517683288E+02 -0.24648582326E+03  0.28582682456E+03  0.12500000000E+03 0.  0.
</event>
<event>
 5    0  0.5605075E-005  0.3701788E+03  0.7546771E-02  0.1054625E+00
         21   -1    0    0  502  501  0.00000000000E+00  0.00000000000E+00  0.20303946454E+04  0.20303946454E+04  0.00000000000E+00 0.  1.
         21   -1    0    0  501  502 -0.00000000000E+00 -0.00000000000E+00 -0.67490492039E+02  0.67490492039E+02  0.00000000000E+00 0.  1.
         25    1    1    2    0    0  0.12223513761E+03 -0.10692928064E+03  0.15714514370E+03  0.25825355005E+03  0.12500000000E+03 0.  0.
         25    1    1    2    0    0  0.28378540259E+02  0.38887422021E+01  0.75896983118E+03  0.76972765866E+03  0.12500000000E+03 0.  0.
         25    1    1    2    0    0 -0.15061367787E+03  0.10304053844E+03  0.10467891784E+04  0.10699039287E+04  0.12500000000E+03 0.  0.
</event>
<event>
 5    0  0.6741806E-005  0.3758287E+03  0.7546771E-02  0.1052486E+00
         21   -1    0    0  502  501  0.00000000000E+00  0.00000000000E+00  0.59641212889E+03  0.59641212889E+03  0.00000000000E+00 0.  1.
         21   -1    0    0  501  502 -0.00000000000E+00 -0.00000000000E+00 -0.23682819474E+03  0.23682819474E+03  0.00000000000E+00 0.  1.
         25    1    1    2    0    0 -0.17085583093E+03  0.58064414173E+02 -0.27028880483E+01  0.21953472791E+03  0.12500000000E+03 0.  0.
         25    1    1    2    0    0 -0.14500566815E+02 -0.13014717997E+03  0.33027224624E+03  0.37663418795E+03  0.12500000000E+03 0.  0.
         25    1    1    2    0    0  0.18535639775E+03  0.72082765797E+02  0.32014575962E+02  0.23707140778E+03  0.12500000000E+03 0.  0.
</event>
<event>
 5    0  0.5605075E-005  0.2192117E+03  0.7546771E-02  0.1134472E+00
         21   -1    0    0  502  501  0.00000000000E+00  0.00000000000E+00  0.75798374218E+03  0.75798374218E+03  0.00000000000E+00 0. -1.
         21   -1    0    0  501  502 -0.00000000000E+00 -0.00000000000E+00 -0.63396855460E+02  0.63396855460E+02  0.00000000000E+00 0. -1.
         25    1    1    2    0    0 -0.25170541564E+01 -0.59602704812E+02  0.28350980919E+03  0.31553388073E+03  0.12500000000E+03 0.  0.
         25    1    1    2    0    0  0.15021050343E+02 -0.33928121265E+02  0.24520272035E+03  0.27771590418E+03  0.12500000000E+03 0.  0.
         25    1    1    2    0    0 -0.12503996187E+02  0.93530826077E+02  0.16587435718E+03  0.22813081273E+03  0.12500000000E+03 0.  0.
</event>
<event>
 5    0  0.5605075E-005  0.3555619E+03  0.7546771E-02  0.1060355E+00
         21   -1    0    0  502  501  0.00000000000E+00  0.00000000000E+00  0.38414955598E+03  0.38414955598E+03  0.00000000000E+00 0. -1.
         21   -1    0    0  501  502 -0.00000000000E+00 -0.00000000000E+00 -0.32910163067E+03  0.32910163067E+03  0.00000000000E+00 0. -1.
         25    1    1    2    0    0 -0.62104990296E+02 -0.69421651436E+02 -0.10374090365E+03  0.18725269183E+03  0.12500000000E+03 0.  0.
         25    1    1    2    0    0 -0.25061168217E+02 -0.17077548177E+03  0.35844897013E+02  0.21610688089E+03  0.12500000000E+03 0.  0.
         25    1    1    2    0    0  0.87166158513E+02  0.24019713320E+03  0.12294393195E+03  0.30989161394E+03  0.12500000000E+03 0.  0.
</event>
<event>
 5    0  0.6290480E-005  0.4796619E+03  0.7546771E-02  0.1019228E+00
         21   -1    0    0  502  501  0.00000000000E+00  0.00000000000E+00  0.88491873630E+03  0.88491873630E+03  0.00000000000E+00 0. -1.
         21   -1    0    0  501  502 -0.00000000000E+00 -0.00000000000E+00 -0.25999624886E+03  0.25999624886E+03  0.00000000000E+00 0. -1.
         25    1    1    2    0    0  0.88666141098E+02 -0.12604042281E+03 -0.12777533533E+03  0.23600722251E+03  0.12500000000E+03 0.  0.
         25    1    1    2    0    0  0.14115263045E+03  0.15371821254E+03  0.31154689974E+03  0.39527183645E+03  0.12500000000E+03 0.  0.
         25    1    1    2    0    0 -0.22981877155E+03 -0.27677789729E+02  0.44115092302E+03  0.51363592620E+03  0.12500000000E+03 0.  0.
</event>
<event>
 5    0  0.5605075E-005  0.3640861E+03  0.7546771E-02  0.1056978E+00
         21   -1    0    0  502  501  0.00000000000E+00  0.00000000000E+00  0.13279257333E+04  0.13279257333E+04  0.00000000000E+00 0.  1.
         21   -1    0    0  501  502 -0.00000000000E+00 -0.00000000000E+00 -0.99823882668E+02  0.99823882668E+02  0.00000000000E+00 0.  1.
         25    1    1    2    0    0 -0.92445253154E+02 -0.11936463869E+03  0.79622684532E+02  0.21156278901E+03  0.12500000000E+03 0.  0.
         25    1    1    2    0    0  0.50986037015E+02  0.12183201459E+03  0.25584029442E+03  0.31388193958E+03  0.12500000000E+03 0.  0.
         25    1    1    2    0    0  0.41459216140E+02 -0.24673758951E+01  0.89263887172E+03  0.90230488742E+03  0.12500000000E+03 0.  0.
</event>
<event>
 5    0  0.5605075E-005  0.4191573E+03  0.7546771E-02  0.1037341E+00
         21   -1    0    0  502  501  0.00000000000E+00  0.00000000000E+00  0.92461331266E+03  0.92461331266E+03  0.00000000000E+00 0.  1.
         21   -1    0    0  501  502 -0.00000000000E+00 -0.00000000000E+00 -0.19001764666E+03  0.19001764666E+03  0.00000000000E+00 0.  1.
         25    1    1    2    0    0  0.15989655103E+03  0.21016932816E+03  0.25193677092E+03  0.38579164075E+03  0.12500000000E+03 0.  0.
         25    1    1    2    0    0 -0.26431132919E+03 -0.17082509676E+03  0.18148268598E+03  0.38419091313E+03  0.12500000000E+03 0.  0.
         25    1    1    2    0    0  0.10441477816E+03 -0.39344231401E+02  0.30117620910E+03  0.34464840544E+03  0.12500000000E+03 0.  0.
</event>
<event>
 5    0  0.5605075E-005  0.4365556E+03  0.7546771E-02  0.1031809E+00
         21   -1    0    0  502  501  0.00000000000E+00  0.00000000000E+00  0.95043618621E+02  0.95043618621E+02  0.00000000000E+00 0. -1.
         21   -1    0    0  501  502 -0.00000000000E+00 -0.00000000000E+00 -0.20051933201E+04  0.20051933201E+04  0.00000000000E+00 0. -1.
         25    1    1    2    0    0 -0.92486674788E+02 -0.28092448225E+03 -0.10930987998E+04  0.11392814998E+04  0.12500000000E+03 0.  0.
         25    1    1    2    0    0 -0.16813248078E+02  0.27906674574E+03 -0.67951887634E+03  0.74534008157E+03  0.12500000000E+03 0.  0.
         25    1    1    2    0    0  0.10929992287E+03  0.18577365144E+01 -0.13753202537E+03  0.21561535735E+03  0.12500000000E+03 0.  0.
</event>
<event>
 5    0  0.6407755E-005  0.3019547E+03  0.7546771E-02  0.1084268E+00
         21   -1    0    0  502  501  0.00000000000E+00  0.00000000000E+00  0.23630119324E+03  0.23630119324E+03  0.00000000000E+00 0.  1.
         21   -1    0    0  501  502 -0.00000000000E+00 -0.00000000000E+00 -0.38584934727E+03  0.38584934727E+03  0.00000000000E+00 0.  1.
         25    1    1    2    0    0  0.68164154937E+02 -0.56729804033E+02 -0.13099527300E+03  0.20161692447E+03  0.12500000000E+03 0.  0.
         25    1    1    2    0    0 -0.12766532696E+03  0.14748880560E+03  0.56968514061E+02  0.23858288932E+03  0.12500000000E+03 0.  0.
         25    1    1    2    0    0  0.59501172019E+02 -0.90759001563E+02 -0.75521395094E+02  0.18195072672E+03  0.12500000000E+03 0.  0.
</event>
<event>
 5    0  0.5605075E-005  0.4610666E+03  0.7546771E-02  0.1024472E+00
         21   -1    0    0  502  501  0.00000000000E+00  0.00000000000E+00  0.38752993459E+03  0.38752993459E+03  0.00000000000E+00 0.  1.
         21   -1    0    0  501  502 -0.00000000000E+00 -0.00000000000E+00 -0.54855737213E+03  0.54855737213E+03  0.00000000000E+00 0.  1.
         25    1    1    2    0    0  0.15298804958E+03  0.22461793947E+03 -0.82927203605E+02  0.31041984979E+03  0.12500000000E+03 0.  0.
         25    1    1    2    0    0 -0.30328290785E+03 -0.23623327811E+03  0.23745809073E+02  0.40493894271E+03  0.12500000000E+03 0.  0.
         25    1    1    2    0    0  0.15029485827E+03  0.11615338632E+02 -0.10184604301E+03  0.22072851422E+03  0.12500000000E+03 0.  0.
</event>
<event>
 5    0  0.5605075E-005  0.2656303E+03  0.7546771E-02  0.1103807E+00
         21   -1    0    0  502  501  0.00000000000E+00  0.00000000000E+00  0.14884530440E+03  0.14884530440E+03  0.00000000000E+00 0.  1.
         21   -1    0    0  501  502 -0.00000000000E+00 -0.00000000000E+00 -0.47404562968E+03  0.47404562968E+03  0.00000000000E+00 0.  1.
         25    1    1    2    0    0 -0.36041341429E+02  0.12862608413E+02 -0.56177777071E+02  0.14228621727E+03  0.12500000000E+03 0.  0.
         25    1    1    2    0    0 -0.77148933733E+02  0.68602789686E+02 -0.11967517779E+02  0.16256236407E+03  0.12500000000E+03 0.  0.
         25    1    1    2    0    0  0.11319027516E+03 -0.81465398099E+02 -0.25705503043E+03  0.31804235276E+03  0.12500000000E+03 0.  0.
</event>
<event>
 5    0  0.5605075E-005  0.3715109E+03  0.7546771E-02  0.1054117E+00
         21   -1    0    0  502  501  0.00000000000E+00  0.00000000000E+00  0.31307771936E+03  0.31307771936E+03  0.00000000000E+00 0. -1.
         21   -1    0    0  501  502 -0.00000000000E+00 -0.00000000000E+00 -0.44085005308E+03  0.44085005308E+03  0.00000000000E+00 0. -1.
         25    1    1    2    0    0 -0.27383857298E+02  0.89074001341E+01  0.13103816226E+03  0.18337180096E+03  0.12500000000E+03 0.  0.
         25    1    1    2    0    0 -0.28772899205E+02  0.21114734127E+03 -0.15275826522E+03  0.29046715313E+03  0.12500000000E+03 0.  0.
         25    1    1    2    0    0  0.56156756503E+02 -0.22005474141E+03 -0.10605223075E+03  0.28008881835E+03  0.12500000000E+03 0.  0.
</event>
<event>
 5    0  0.5605075E-005  0.3759772E+03  0.7546771E-02  0.1052431E+00
         21   -1    0    0  502  501  0.00000000000E+00  0.00000000000E+00  0.34479467031E+03  0.34479467031E+03  0.00000000000E+00 0.  1.
         21   -1    0    0  501  502 -0.00000000000E+00 -0.00000000000E+00 -0.40997977614E+03  0.40997977614E+03  0.00000000000E+00 0.  1.
         25    1    1    2    0    0  0.20030501607E+03  0.13119741321E+03 -0.16184092766E+03  0.31488465596E+03  0.12500000000E+03 0.  0.
         25    1    1    2    0    0  0.25279369891E+02 -0.11520232252E+02 -0.25292376840E+02  0.13052381629E+03  0.12500000000E+03 0.  0.
         25    1    1    2    0    0 -0.22558438596E+03 -0.11967718095E+03  0.12194819867E+03  0.30936597420E+03  0.12500000000E+03 0.  0.
</event>
<event>
 5    0  0.5605075E-005  0.3665793E+03  0.7546771E-02  0.1056009E+00
         21   -1    0    0  502  501  0.00000000000E+00  0.00000000000E+00  0.74819758536E+02  0.74819758536E+02  0.00000000000E+00 0.  1.
         21   -1    0    0  501  502 -0.00000000000E+00 -0.00000000000E+00 -0.17960549312E+04  0.17960549312E+04  0.00000000000E+00 0.  1.
         25    1    1    2    0    0  0.14074601638E+03  0.15406194722E+03 -0.30484479022E+03  0.38999983440E+03  0.12500000000E+03 0.  0.
         25    1    1    2    0    0 -0.84412087205E+02 -0.54208751434E+02 -0.11748312714E+04  0.11857139222E+04  0.12500000000E+03 0.  0.
         25    1    1    2    0    0 -0.56333929173E+02 -0.99853195786E+02 -0.24155911106E+03  0.29516093308E+03  0.12500000000E+03 0.  0.
</event>
<event>
 5    0  0.5605075E-005  0.3650177E+03  0.7546771E-02  0.1056615E+00
         21   -1    0    0  502  501  0.00000000000E+00  0.00000000000E+00  0.17059833140E+03  0.17059833140E+03  0.00000000000E+00 0. -1.
         21   -1    0    0  501  502 -0.00000000000E+00 -0.00000000000E+00 -0.78100356542E+03  0.78100356542E+03  0.00000000000E+00 0. -1.
         25    1    1    2    0    0  0.59256453939E+01  0.89188225517E+02 -0.13383685560E+02  0.15425231241E+03  0.12500000000E+03 0.  0.
         25    1    1    2    0    0  0.10509746892E+03  0.49358979234E+02 -0.93671967288E+01  0.17086407223E+03  0.12500000000E+03 0.  0.
         25    1    1    2    0    0 -0.11102311431E+03 -0.13854720475E+03 -0.58765435174E+03  0.62648551218E+03  0.12500000000E+03 0.  0.
</event>
<event>
 5    0  0.5605075E-005  0.2332534E+03  0.7546771E-02  0.1124371E+00
         21   -1    0    0  502  501  0.00000000000E+00  0.00000000000E+00  0.88921079504E+02  0.88921079504E+02  0.00000000000E+00 0. -1.
         21   -1    0    0  501  502 -0.00000000000E+00 -0.00000000000E+00 -0.61185888712E+03  0.61185888712E+03  0.00000000000E+00 0. -1.
         25    1    1    2    0    0  0.14846226031E+02 -0.20971074430E+02 -0.21191689068E+03  0.24737413961E+03  0.12500000000E+03 0.  0.
         25    1    1    2    0    0  0.22271165859E+02  0.58495881112E+01 -0.13012672474E+02  0.12776757083E+03  0.12500000000E+03 0.  0.
         25    1    1    2    0    0 -0.37117391891E+02  0.15121486319E+02 -0.29800824446E+03  0.32563825619E+03  0.12500000000E+03 0.  0.
</event>
<event>
 5    0  0.5605075E-005  0.4730830E+03  0.7546771E-02  0.1021054E+00
         21   -1    0    0  502  501  0.00000000000E+00  0.00000000000E+00  0.16820647655E+04  0.16820647655E+04  0.00000000000E+00 0.  1.
         21   -1    0    0  501  502 -0.00000000000E+00 -0.00000000000E+00 -0.13305522331E+03  0.13305522331E+03  0.00000000000E+00 0.  1.
         25    1    1    2    0    0  0.31526142313E+03  0.17393175410E+02  0.50408192661E+03  0.60779591657E+03  0.12500000000E+03 0.  0.
         25    1    1    2    0    0 -0.25191679544E+03 -0.81316034958E+02  0.10070128757E+04  0.10487012450E+04  0.12500000000E+03 0.  0.
         25    1    1    2    0    0 -0.63344627691E+02  0.63922859548E+02  0.37914739874E+02  0.15862282727E+03  0.12500000000E+03 0.  0.
</event>
<event>
 5    0  0.5605075E-005  0.2567040E+03  0.7546771E-02  0.1109140E+00
         21   -1    0    0  502  501  0.00000000000E+00  0.00000000000E+00  0.14650318463E+03  0.14650318463E+03  0.00000000000E+00 0. -1.
         21   -1    0    0  501  502 -0.00000000000E+00 -0.00000000000E+00 -0.44979863686E+03  0.44979863686E+03  0.00000000000E+00 0. -1.
         25    1    1    2    0    0  0.51933350608E+02  0.74558333672E+02 -0.58181440341E+02  0.16512449251E+03  0.12500000000E+03 0.  0.
         25    1    1    2    0    0 -0.55591646090E+01 -0.50058736221E+02 -0.26194479668E+03  0.29457911992E+03  0.12500000000E+03 0.  0.
         25    1    1    2    0    0 -0.46374185999E+02 -0.24499597451E+02  0.16830784796E+02  0.13659820906E+03  0.12500000000E+03 0.  0.
</event>
<event>
 5    0  0.5605075E-005  0.2814796E+03  0.7546771E-02  0.1094884E+00
         21   -1    0    0  502  501  0.00000000000E+00  0.00000000000E+00  0.14800973602E+03  0.14800973602E+03  0.00000000000E+00 0.  1.
         21   -1    0    0  501  502 -0.00000000000E+00 -0.00000000000E+00 -0.53530771984E+03  0.53530771984E+03  0.00000000000E+00 0.  1.
         25    1    1    2    0    0 -0.14223401128E+02  0.34944608507E+02 -0.16309328456E+03  0.20892067938E+03  0.12500000000E+03 0.  0.
         25    1    1    2    0    0 -0.84089935031E+02 -0.14790914001E+03 -0.60181062975E+02  0.21953357650E+03  0.12500000000E+03 0.  0.
         25    1    1    2    0    0  0.98313336159E+02  0.11296453150E+03 -0.16402363628E+03  0.25486319997E+03  0.12500000000E+03 0.  0.
</event>
<event>
 5    0  0.5605075E-005  0.3785343E+03  0.7546771E-02  0.1051477E+00
         21   -1    0    0  502  501  0.00000000000E+00  0.00000000000E+00  0.48447271639E+03  0.48447271639E+03  0.00000000000E+00 0. -1.
         21   -1    0    0  501  502 -0.00000000000E+00 -0.00000000000E+00 -0.29576116663E+03  0.29576116663E+03  0.00000000000E+00 0. -1.
         25    1    1    2    0    0 -0.11296957535E+03  0.15675767012E+03 -0.11154495003E+03  0.25573886676E+03  0.12500000000E+03 0.  0.
         25    1    1    2    0    0 -0.13173294368E+02  0.25559978090E+02  0.22516588446E+03  0.25913611036E+03  0.12500000000E+03 0.  0.
         25    1    1    2    0    0  0.12614286971E+03 -0.18231764821E+03  0.75090615334E+02  0.26535890590E+03  0.12500000000E+03 0.  0.
</event>
<event>
 5    0  0.5605075E-005  0.2927498E+03  0.7546771E-02  0.1088922E+00
         21   -1    0    0  502  501  0.00000000000E+00  0.00000000000E+00  0.59665652797E+02  0.59665652797E+02  0.00000000000E+00 0.  1.
         21   -1    0    0  501  502 -0.00000000000E+00 -0.00000000000E+00 -0.14363778711E+04  0.14363778711E+04  0.00000000000E+00 0.  1.
         25    1    1    2    0    0 -0.47341688068E+01 -0.49706236089E+01 -0.97876478531E+03  0.98673837689E+03  0.12500000000E+03 0.  0.
         25    1    1    2    0    0 -0.91452965852E+02 -0.77248141798E+01 -0.23991755631E+03  0.28567245500E+03  0.12500000000E+03 0.  0.
         25    1    1    2    0    0  0.96187134659E+02  0.12695437789E+02 -0.15802987668E+03  0.22363269202E+03  0.12500000000E+03 0.  0.
</event>
<event>
 5    0  0.5605075E-005  0.2613822E+03  0.7546771E-02  0.1106316E+00
         21   -1    0    0  502  501  0.00000000000E+00  0.00000000000E+00  0.89124780230E+02  0.89124780230E+02  0.00000000000E+00 0.  1.
         21   -1    0    0  501  502 -0.00000000000E+00 -0.00000000000E+00 -0.76657287246E+03  0.76657287246E+03  0.00000000000E+00 0.  1.
         25    1    1    2    0    0  0.13724259151E+02 -0.13281783367E+03 -0.15047576670E+03  0.23684781737E+03  0.12500000000E+03 0.  0.
         25    1    1    2    0    0  0.56956560555E+02  0.84424896371E+02 -0.35336086800E+03  0.38840766722E+03  0.12500000000E+03 0.  0.
         25    1    1    2    0    0 -0.70680819706E+02  0.48392937298E+02 -0.17361145753E+03  0.23044216810E+03  0.12500000000E+03 0.  0.
</event>
<event>
 5    0  0.5605075E-005  0.5406146E+03  0.7546771E-02  0.1003690E+00
         21   -1    0    0  502  501  0.00000000000E+00  0.00000000000E+00  0.20644498907E+03  0.20644498907E+03  0.00000000000E+00 0.  1.
         21   -1    0    0  501  502 -0.00000000000E+00 -0.00000000000E+00 -0.14156996318E+04  0.14156996318E+04  0.00000000000E+00 0.  1.
         25    1    1    2    0    0  0.97560185256E+02  0.96231004931E+02 -0.19267401494E+03  0.26744470848E+03  0.12500000000E+03 0.  0.
         25    1    1    2    0    0  0.11309245560E+03 -0.77263031174E+02  0.10050532121E+03  0.21091656903E+03  0.12500000000E+03 0.  0.
         25    1    1    2    0    0 -0.21065264086E+03 -0.18967973757E+02 -0.11170859490E+04  0.11437833434E+04  0.12500000000E+03 0.  0.
</event>
<event>
 5    0  0.5605075E-005  0.4329037E+03  0.7546771E-02  0.1032947E+00
         21   -1    0    0  502  501  0.00000000000E+00  0.00000000000E+00  0.14760675153E+04  0.14760675153E+04  0.00000000000E+00 0.  1.
         21   -1    0    0  501  502 -0.00000000000E+00 -0.00000000000E+00 -0.12696277434E+03  0.12696277434E+03  0.00000000000E+00 0.  1.
         25    1    1    2    0    0  0.12369936484E+03 -0.87631226177E+02  0.32241844353E+02  0.19911127841E+03  0.12500000000E+03 0.  0.
         25    1    1    2    0    0 -0.10872266868E+03  0.30773429785E+02  0.14027004727E+03  0.21924486043E+03  0.12500000000E+03 0.  0.
         25    1    1    2    0    0 -0.14976696159E+02  0.56857796392E+02  0.11765928494E+04  0.11846741508E+04  0.12500000000E+03 0.  0.
</event>
<event>
 5    0  0.5605075E-005  0.3688153E+03  0.7546771E-02  0.1055147E+00
         21   -1    0    0  502  501  0.00000000000E+00  0.00000000000E+00  0.16362513390E+03  0.16362513390E+03  0.00000000000E+00 0. -1.
         21   -1    0    0  501  502 -0.00000000000E+00 -0.00000000000E+00 -0.83131910658E+03  0.83131910658E+03  0.00000000000E+00 0. -1.
         25    1    1    2    0    0 -0.18736596934E+03  0.20380227293E+03 -0.44100715776E+03  0.53549387122E+03  0.12500000000E+03 0.  0.
         25    1    1    2    0    0  0.41825621970E+02 -0.30078506747E+02 -0.11527067262E+03  0.17766943234E+03  0.12500000000E+03 0.  0.
         25    1    1    2    0    0  0.14554034737E+03 -0.17372376618E+03 -0.11141614230E+03  0.28178093693E+03  0.12500000000E+03 0.  0.
</event>
<event>
 5    0  0.5605075E-005  0.3869890E+03  0.7546771E-02  0.1048380E+00
         21   -1    0    0  502  501  0.00000000000E+00  0.00000000000E+00  0.26500488751E+03  0.26500488751E+03  0.00000000000E+00 0.  1.
         21   -1    0    0  501  502 -0.00000000000E+00 -0.00000000000E+00 -0.56512349683E+03  0.56512349683E+03  0.00000000000E+00 0.  1.
         25    1    1    2    0    0  0.13074252406E+03 -0.28035357708E+03 -0.19767042547E+03  0.38780192480E+03  0.12500000000E+03 0.  0.
         25    1    1    2    0    0 -0.11906200472E+03  0.73279547150E+02 -0.33138691599E+02  0.19044376041E+03  0.12500000000E+03 0.  0.
         25    1    1    2    0    0 -0.11680519332E+02  0.20707402993E+03 -0.69309492247E+02  0.25188269912E+03  0.12500000000E+03 0.  0.
</event>
<event>
 5    0  0.5785367E-005  0.2644476E+03  0.7546771E-02  0.1104500E+00
         21   -1    0    0  502  501  0.00000000000E+00  0.00000000000E+00  0.27047145439E+03  0.27047145439E+03  0.00000000000E+00 0.  1.
         21   -1    0    0  501  502 -0.00000000000E+00 -0.00000000000E+00 -0.25855793335E+03  0.25855793335E+03  0.00000000000E+00 0.  1.
         25    1    1    2    0    0 -0.57675282273E+02  0.68401003681E+02 -0.13356691444E+03  0.20364247131E+03  0.12500000000E+03 0.  0.
         25    1    1    2    0    0  0.28228743634E+02 -0.69103170082E+02  0.22028355362E+02  0.14724930737E+03  0.12500000000E+03 0.  0.
         25    1    1    2    0    0  0.29446538639E+02  0.70216640071E+00  0.12345208011E+03  0.17813760905E+03  0.12500000000E+03 0.  0.
</event>
<event>
 5    0  0.5605075E-005  0.3517229E+03  0.7546771E-02  0.1061910E+00
         21   -1    0    0  502  501  0.00000000000E+00  0.00000000000E+00  0.65796662903E+03  0.65796662903E+03  0.00000000000E+00 0.  1.
         21   -1    0    0  501  502 -0.00000000000E+00 -0.00000000000E+00 -0.18801709543E+03  0.18801709543E+03  0.00000000000E+00 0.  1.
         25    1    1    2    0    0  0.15732185211E+02  0.41782552522E+02  0.58810134905E+02  0.14517890795E+03  0.12500000000E+03 0.  0.
         25    1    1    2    0    0  0.93550509148E+02  0.21258754761E+03  0.19280629548E+03  0.32671766212E+03  0.12500000000E+03 0.  0.
         25    1    1    2    0    0 -0.10928269436E+03 -0.25437010013E+03  0.21833310320E+03  0.37408715439E+03  0.12500000000E+03 0.  0.
</event>
<event>
 5    0  0.5605075E-005  0.3341042E+03  0.7546771E-02  0.1069335E+00
         21   -1    0    0  502  501  0.00000000000E+00  0.00000000000E+00  0.76177869528E+03  0.76177869528E+03  0.00000000000E+00 0.  1.
         21   -1    0    0  501  502 -0.00000000000E+00 -0.00000000000E+00 -0.14653285160E+03  0.14653285160E+03  0.00000000000E+00 0.  1.
         25    1    1    2    0    0 -0.15977857600E+03  0.31161658230E+02  0.82646302756E+02  0.22125924535E+03  0.12500000000E+03 0.  0.
         25    1    1    2    0    0 -0.71986995009E+02 -0.81516988728E+02  0.21465239187E+03  0.27116009337E+03  0.12500000000E+03 0.  0.
         25    1    1    2    0    0  0.23176557101E+03  0.50355330498E+02  0.31794714906E+03  0.41589220816E+03  0.12500000000E+03 0.  0.
</event>
<event>
 5    0  0.5605075E-005  0.3416040E+03  0.7546771E-02  0.1066115E+00
         21   -1    0    0  502  501  0.00000000000E+00  0.00000000000E+00  0.61129542120E+02  0.61129542120E+02  0.00000000000E+00 0.  1.
         21   -1    0    0  501  502 -0.00000000000E+00 -0.00000000000E+00 -0.19089506955E+04  0.19089506955E+04  0.00000000000E+00 0.  1.
         25    1    1    2    0    0 -0.16058355867E+03  0.27509606501E+02 -0.42427630336E+03  0.47135892837E+03  0.12500000000E+03 0.  0.
         25    1    1    2    0    0  0.53327383600E+02 -0.90764382370E+01 -0.12548964865E+04  0.12622663679E+04  0.12500000000E+03 0.  0.
         25    1    1    2    0    0  0.10725617507E+03 -0.18433168264E+02 -0.16864836344E+03  0.23645494132E+03  0.12500000000E+03 0.  0.
</event>
<event>
 5    0  0.5605075E-005  0.4646500E+03  0.7546771E-02  0.1023441E+00
         21   -1    0    0  502  501  0.00000000000E+00  0.00000000000E+00  0.79929649461E+03  0.79929649461E+03  0.00000000000E+00 0.  1.
         21   -1    0    0  501  502 -0.00000000000E+00 -0.00000000000E+00 -0.27011207078E+03  0.27011207078E+03  0.00000000000E+00 0.  1.
         25    1    1    2    0    0 -0.26220250238E+03 -0.32797401202E+02  0.53818677120E+03  0.61245066942E+03  0.12500000000E+03 0.  0.
         25    1    1    2    0    0 -0.58028073096E+00 -0.73459175011E+02  0.17476314935E+02  0.14603769617E+03  0.12500000000E+03 0.  0.
         25    1    1    2    0    0  0.26278278311E+03  0.10625657621E+03 -0.26478662307E+02  0.31092019980E+03  0.12500000000E+03 0.  0.
</event>
<event>
 5    0  0.5605075E-005  0.3578524E+03  0.7546771E-02  0.1059437E+00
         21   -1    0    0  502  501  0.00000000000E+00  0.00000000000E+00  0.13883354642E+04  0.13883354642E+04  0.00000000000E+00 0.  1.
         21   -1    0    0  501  502 -0.00000000000E+00 -0.00000000000E+00 -0.92238761776E+02  0.92238761776E+02  0.00000000000E+00 0.  1.
         25    1    1    2    0    0  0.65037090662E+02 -0.81398376587E+02  0.50067436360E+03  0.52645544658E+03  0.12500000000E+03 0.  0.
         25    1    1    2    0    0 -0.14810495973E+03  0.40684788629E+01  0.75638513199E+03  0.78082975066E+03  0.12500000000E+03 0.  0.
         25    1    1    2    0    0  0.83067869068E+02  0.77329897724E+02  0.39037206803E+02  0.17328902870E+03  0.12500000000E+03 0.  0.
</event>
<event>
 5    0  0.6439777E-005  0.2746913E+03  0.7546771E-02  0.1098624E+00
         21   -1    0    0  502  501  0.00000000000E+00  0.00000000000E+00  0.80911628536E+02  0.80911628536E+02  0.00000000000E+00 0. -1.
         21   -1    0    0  501  502 -0.00000000000E+00 -0.00000000000E+00 -0.93256420582E+03  0.93256420582E+03  0.00000000000E+00 0. -1.
         25    1    1    2    0    0  0.83192704863E+02 -0.62073023221E+02 -0.22879764647E+03  0.28061975943E+03  0.12500000000E+03 0.  0.
         25    1    1    2    0    0 -0.72374727023E+02  0.11314008244E+03 -0.54840507617E+03  0.57828358695E+03  0.12500000000E+03 0.  0.
         25    1    1    2    0    0 -0.10817977841E+02 -0.51067059221E+02 -0.74449854645E+02  0.15457248797E+03  0.12500000000E+03 0.  0.
</event>
<event>
 5    0  0.5605075E-005  0.2600315E+03  0.7546771E-02  0.1107124E+00
         21   -1    0    0  502  501  0.00000000000E+00  0.00000000000E+00  0.12929555844E+04  0.12929555844E+04  0.00000000000E+00 0. -1.
         21   -1    0    0  501  502 -0.00000000000E+00 -0.00000000000E+00 -0.52295968794E+02  0.52295968794E+02  0.00000000000E+00 0. -1.
         25    1    1    2    0    0  0.49061133947E+02  0.19177739243E+02  0.12310484525E+03  0.18317910217E+03  0.12500000000E+03 0.  0.
         25    1    1    2    0    0 -0.15679428861E+02 -0.10424075781E+03  0.55280745905E+03  0.57648336217E+03  0.12500000000E+03 0.  0.
         25    1    1    2    0    0 -0.33381705086E+02  0.85063018568E+02  0.56474731133E+03  0.58558908888E+03  0.12500000000E+03 0.  0.
</event>
<event>
 5    0  0.6056961E-005  0.2895738E+03  0.7546771E-02  0.1090572E+00
         21   -1    0    0  502  501  0.00000000000E+00  0.00000000000E+00  0.10033755376E+04  0.10033755376E+04  0.00000000000E+00 0.  1.
         21   -1    0    0  501  502 -0.00000000000E+00 -0.00000000000E+00 -0.83570861122E+02  0.83570861122E+02  0.00000000000E+00 0.  1.
         25    1    1    2    0    0 -0.11148655294E+03 -0.67707742596E+02  0.34758168722E+03  0.39172901243E+03  0.12500000000E+03 0.  0.
         25    1    1    2    0    0  0.11999570560E+03  0.83711459084E+02  0.12255649839E+03  0.22814835753E+03  0.12500000000E+03 0.  0.
         25    1    1    2    0    0 -0.85091526593E+01 -0.16003716488E+02  0.44966649086E+03  0.46706902875E+03  0.12500000000E+03 0.  0.
</event>
<event>
 5    0  0.5605075E-005  0.3042757E+03  0.7546771E-02  0.1083123E+00
         21   -1    0    0  502  501  0.00000000000E+00  0.00000000000E+00  0.11485502476E+04  0.11485502476E+04  0.00000000000E+00 0.  1.
         21   -1    0    0  501  502 -0.00000000000E+00 -0.00000000000E+00 -0.80609184961E+02  0.80609184961E+02  0.00000000000E+00 0.  1.
         25    1    1    2    0    0 -0.79652638965E+02  0.20482281582E+03  0.57417654557E+03  0.62737599114E+03  0.12500000000E+03 0.  0.
         25    1    1    2    0    0  0.47036977442E+02 -0.62948773205E+02  0.16755476454E+03  0.22332627346E+03  0.12500000000E+03 0.  0.
         25    1    1    2    0    0  0.32615661522E+02 -0.14187404261E+03  0.32620975253E+03  0.37845716797E+03  0.12500000000E+03 0.  0.
</event>
<event>
 5    0  0.5605075E-005  0.2421589E+03  0.7546771E-02  0.1118363E+00
         21   -1    0    0  502  501  0.00000000000E+00  0.00000000000E+00  0.12761242853E+03  0.12761242853E+03  0.00000000000E+00 0.  1.
         21   -1    0    0  501  502 -0.00000000000E+00 -0.00000000000E+00 -0.45952381803E+03  0.45952381803E+03  0.00000000000E+00 0.  1.
         25    1    1    2    0    0  0.18702969726E+02  0.10492466997E+03 -0.82320056844E+02  0.18374052140E+03  0.12500000000E+03 0.  0.
         25    1    1    2    0    0 -0.18517002820E+02 -0.15817921145E+02 -0.22554217565E+02  0.12933204844E+03  0.12500000000E+03 0.  0.
         25    1    1    2    0    0 -0.18596690679E+00 -0.89106748820E+02 -0.22703711509E+03  0.27406367672E+03  0.12500000000E+03 0.  0.
</event>
<event>
 5    0  0.5605075E-005  0.3212738E+03  0.7546771E-02  0.1075065E+00
         21   -1    0    0  502  501  0.00000000000E+00  0.00000000000E+00  0.95704261117E+02  0.95704261117E+02  0.00000000000E+00 0. -1.
         21   -1    0    0  501  502 -0.00000000000E+00 -0.00000000000E+00 -0.10784976855E+04  0.10784976855E+04  0.00000000000E+00 0. -1.
         25    1    1    2    0    0  0.10886119738E+03  0.64135282455E+02 -0.45522739727E+03  0.48869323504E+03  0.12500000000E+03 0.  0.
         25    1    1    2    0    0 -0.21114138878E+03 -0.11127423563E+03 -0.31994103978E+03  0.41827014059E+03  0.12500000000E+03 0.  0.
         25    1    1    2    0    0  0.10228019140E+03  0.47138953172E+02 -0.20762498735E+03  0.26723857100E+03  0.12500000000E+03 0.  0.
</event>
<event>
 5    0  0.5605075E-005  0.3701979E+03  0.7546771E-02  0.1054617E+00
         21   -1    0    0  502  501  0.00000000000E+00  0.00000000000E+00  0.10533083927E+03  0.10533083927E+03  0.00000000000E+00 0. -1.
         21   -1    0    0  501  502 -0.00000000000E+00 -0.00000000000E+00 -0.13011051709E+04  0.13011051709E+04  0.00000000000E+00 0. -1.
         25    1    1    2    0    0 -0.15501778343E+03  0.51545714475E+02 -0.50183674080E+03  0.54235835780E+03  0.12500000000E+03 0.  0.
         25    1    1    2    0    0 -0.67510112575E+02 -0.14320834347E+03 -0.13471902433E+03  0.24257052677E+03  0.12500000000E+03 0.  0.
         25    1    1    2    0    0  0.22252789601E+03  0.91662628998E+02 -0.55921856654E+03  0.62150712564E+03  0.12500000000E+03 0.  0.
</event>
<event>
 5    0  0.5605075E-005  0.2716169E+03  0.7546771E-02  0.1100358E+00
         21   -1    0    0  502  501  0.00000000000E+00  0.00000000000E+00  0.46796800592E+03  0.46796800592E+03  0.00000000000E+00 0. -1.
         21   -1    0    0  501  502 -0.00000000000E+00 -0.00000000000E+00 -0.15765130167E+03  0.15765130167E+03  0.00000000000E+00 0. -1.
         25    1    1    2    0    0 -0.72424607533E+02  0.36839018360E+02  0.14520523604E+03  0.20811534692E+03  0.12500000000E+03 0.  0.
         25    1    1    2    0    0 -0.60581299602E+02 -0.32890497294E+02 -0.34639722339E+02  0.14689039804E+03  0.12500000000E+03 0.  0.
         25    1    1    2    0    0  0.13300590713E+03 -0.39485210661E+01  0.19975119055E+03  0.27061356262E+03  0.12500000000E+03 0.  0.
</event>
<event>
 5    0  0.5605075E-005  0.3778007E+03  0.7546771E-02  0.1051750E+00
         21   -1    0    0  502  501  0.00000000000E+00  0.00000000000E+00  0.96633838562E+03  0.96633838562E+03  0.00000000000E+00 0. -1.
         21   -1    0    0  501  502 -0.00000000000E+00 -0.00000000000E+00 -0.14770540900E+03  0.14770540900E+03  0.00000000000E+00 0. -1.
         25    1    1    2    0    0 -0.19453970417E+02 -0.38443239352E+02 -0.13384830022E+02  0.13289278871E+03  0.12500000000E+03 0.  0.
         25    1    1    2    0    0 -0.96755242834E+02  0.37365393853E+02  0.35120751999E+02  0.16618127721E+03  0.12500000000E+03 0.  0.
         25    1    1    2    0    0  0.11620921325E+03  0.10778454995E+01  0.79689705464E+03  0.81496972870E+03  0.12500000000E+03 0.  0.
</event>
<event>
 5    0  0.5605075E-005  0.2514077E+03  0.7546771E-02  0.1112418E+00
         21   -1    0    0  502  501  0.00000000000E+00  0.00000000000E+00  0.94152708919E+02  0.94152708919E+02  0.00000000000E+00 0. -1.
         21   -1    0    0  501  502 -0.00000000000E+00 -0.00000000000E+00 -0.67131167422E+03  0.67131167422E+03  0.00000000000E+00 0. -1.
         25    1    1    2    0    0  0.48432145024E+01 -0.37135260932E+02 -0.24133163851E+03  0.27435095057E+03  0.12500000000E+03 0.  0.
         25    1    1    2    0    0 -0.69314184002E+02 -0.47034184837E+02 -0.28015708777E+03  0.31800890629E+03  0.12500000000E+03 0.  0.
         25    1    1    2    0    0  0.64470969499E+02  0.84169445769E+02 -0.55670239021E+02  0.17310452629E+03  0.12500000000E+03 0.  0.
</event>
<event>
 5    0  0.5605075E-005  0.3104941E+03  0.7546771E-02  0.1080109E+00
         21   -1    0    0  502  501  0.00000000000E+00  0.00000000000E+00  0.26132164567E+03  0.26132164567E+03  0.00000000000E+00 0. -1.
         21   -1    0    0  501  502 -0.00000000000E+00 -0.00000000000E+00 -0.36891917129E+03  0.36891917129E+03  0.00000000000E+00 0. -1.
         25    1    1    2    0    0  0.11183300439E+03  0.16051079896E+03 -0.15009620461E+03  0.27644928665E+03  0.12500000000E+03 0.  0.
         25    1    1    2    0    0 -0.13325890188E+02 -0.14035269781E+03  0.23954912008E+01  0.18843353606E+03  0.12500000000E+03 0.  0.
         25    1    1    2    0    0 -0.98507114203E+02 -0.20158101145E+02  0.40103187787E+02  0.16535799425E+03  0.12500000000E+03 0.  0.
</event>
<event>
 5    0  0.5605075E-005  0.2153382E+03  0.7546771E-02  0.1137407E+00
         21   -1    0    0  502  501  0.00000000000E+00  0.00000000000E+00  0.16869025380E+04  0.16869025380E+04  0.00000000000E+00 0. -1.
         21   -1    0    0  501  502 -0.00000000000E+00 -0.00000000000E+00 -0.27488562141E+02  0.27488562141E+02  0.00000000000E+00 0. -1.
         25    1    1    2    0    0  0.14130928242E+02 -0.23187272220E+02  0.38358128000E+03  0.40434753751E+03  0.12500000000E+03 0.  0.
         25    1    1    2    0    0 -0.80079587543E+02  0.42571220456E+02  0.63173738820E+03  0.65034004705E+03  0.12500000000E+03 0.  0.
         25    1    1    2    0    0  0.65948659301E+02 -0.19383948235E+02  0.64409530766E+03  0.65970351557E+03  0.12500000000E+03 0.  0.
</event>
<event>
 5    0  0.5605075E-005  0.2705637E+03  0.7546771E-02  0.1100957E+00
         21   -1    0    0  502  501  0.00000000000E+00  0.00000000000E+00  0.13482109453E+03  0.13482109453E+03  0.00000000000E+00 0.  1.
         21   -1    0    0  501  502 -0.00000000000E+00 -0.00000000000E+00 -0.54297667079E+03  0.54297667079E+03  0.00000000000E+00 0.  1.
         25    1    1    2    0    0  0.14431266327E+03 -0.93316932459E+02 -0.13673228863E+03  0.25269529758E+03  0.12500000000E+03 0.  0.
         25    1    1    2    0    0 -0.60441521911E+02  0.58064446740E+02 -0.57384827902E+02  0.16106730276E+03  0.12500000000E+03 0.  0.
         25    1    1    2    0    0 -0.83871141364E+02  0.35252485719E+02 -0.21403845972E+03  0.26403516498E+03  0.12500000000E+03 0.  0.
</event>
<event>
 5    0  0.5605075E-005  0.3133014E+03  0.7546771E-02  0.1078774E+00
         21   -1    0    0  502  501  0.00000000000E+00  0.00000000000E+00  0.25284005877E+03  0.25284005877E+03  0.00000000000E+00 0. -1.
         21   -1    0    0  501  502 -0.00000000000E+00 -0.00000000000E+00 -0.38822082990E+03  0.38822082990E+03  0.00000000000E+00 0. -1.
         25    1    1    2    0    0 -0.18340199541E+03 -0.11526988774E+03 -0.44162410053E+02  0.25396605561E+03  0.12500000000E+03 0.  0.
         25    1    1    2    0    0  0.12043186831E+03  0.54013572357E+02  0.39493839265E+02  0.18602705245E+03  0.12500000000E+03 0.  0.
         25    1    1    2    0    0  0.62970127105E+02  0.61256315387E+02 -0.13071220033E+03  0.20106778061E+03  0.12500000000E+03 0.  0.
</event>
<event>
 5    0  0.5605075E-005  0.3884913E+03  0.7546771E-02  0.1047839E+00
         21   -1    0    0  502  501  0.00000000000E+00  0.00000000000E+00  0.10976792828E+04  0.10976792828E+04  0.00000000000E+00 0. -1.
         21   -1    0    0  501  502 -0.00000000000E+00 -0.00000000000E+00 -0.13749504079E+03  0.13749504079E+03  0.00000000000E+00 0. -1.
         25    1    1    2    0    0  0.11957812457E+02  0.15792770163E+03  0.14958701970E+02  0.20231883498E+03  0.12500000000E+03 0.  0.
         25    1    1    2    0    0 -0.86437195500E+02 -0.80562201029E+02  0.17569345670E+03  0.24587567535E+03  0.12500000000E+03 0.  0.
         25    1    1    2    0    0  0.74479383043E+02 -0.77365500605E+02  0.76953208337E+03  0.78697981329E+03  0.12500000000E+03 0.  0.
</event>
<event>
 5    0  0.5605075E-005  0.2467760E+03  0.7546771E-02  0.1115359E+00
         21   -1    0    0  502  501  0.00000000000E+00  0.00000000000E+00  0.78694235123E+02  0.78694235123E+02  0.00000000000E+00 0.  1.
         21   -1    0    0  501  502 -0.00000000000E+00 -0.00000000000E+00 -0.77386072725E+03  0.77386072725E+03  0.00000000000E+00 0.  1.
         25    1    1    2    0    0 -0.11031065498E+02 -0.72316711999E+02 -0.17597713545E+03  0.22791301727E+03  0.12500000000E+03 0.  0.
         25    1    1    2    0    0  0.10442679514E+03  0.85202994736E+01 -0.34830313421E+03  0.38460060367E+03  0.12500000000E+03 0.  0.
         25    1    1    2    0    0 -0.93395729640E+02  0.63796412525E+02 -0.17088622247E+03  0.24004134143E+03  0.12500000000E+03 0.  0.
</event>
<event>
 5    0  0.5605075E-005  0.2528945E+03  0.7546771E-02  0.1111489E+00
         21   -1    0    0  502  501  0.00000000000E+00  0.00000000000E+00  0.63957812779E+03  0.63957812779E+03  0.00000000000E+00 0. -1.
         21   -1    0    0  501  502 -0.00000000000E+00 -0.00000000000E+00 -0.99996592344E+02  0.99996592344E+02  0.00000000000E+00 0. -1.
         25    1    1    2    0    0 -0.86309487132E+02 -0.84353366705E+02  0.71271403814E+02  0.18780157360E+03  0.12500000000E+03 0.  0.
         25    1    1    2    0    0  0.41158306238E+02  0.73634447500E+02  0.18516123285E+03  0.23880058665E+03  0.12500000000E+03 0.  0.
         25    1    1    2    0    0  0.45151180894E+02  0.10718919205E+02  0.28314889878E+03  0.31297255989E+03  0.12500000000E+03 0.  0.
</event>
<event>
 5    0  0.5605075E-005  0.3030060E+03  0.7546771E-02  0.1083748E+00
         21   -1    0    0  502  501  0.00000000000E+00  0.00000000000E+00  0.28477090954E+03  0.28477090954E+03  0.00000000000E+00 0. -1.
         21   -1    0    0  501  502 -0.00000000000E+00 -0.00000000000E+00 -0.32240875410E+03  0.32240875410E+03  0.00000000000E+00 0. -1.
         25    1    1    2    0    0 -0.34034219163E+02  0.62130347164E+02  0.13422854863E+03  0.19662352703E+03  0.12500000000E+03 0.  0.
         25    1    1    2    0    0  0.10554541887E+03  0.43441116347E+02 -0.15784427113E+03  0.23144498258E+03  0.12500000000E+03 0.  0.
         25    1    1    2    0    0 -0.71511199708E+02 -0.10557146351E+03 -0.14022122055E+02  0.17911115403E+03  0.12500000000E+03 0.  0.
</event>
<event>
 5    0  0.5605075E-005  0.2242076E+03  0.7546771E-02  0.1130784E+00
         21   -1    0    0  502  501  0.00000000000E+00  0.00000000000E+00  0.11056712763E+03  0.11056712763E+03  0.00000000000E+00 0.  1.
         21   -1    0    0  501  502 -0.00000000000E+00 -0.00000000000E+00 -0.45464718953E+03  0.45464718953E+03  0.00000000000E+00 0.  1.
         25    1    1    2    0    0 -0.50899143205E+02  0.34404000939E+01 -0.11153547718E+03  0.17512201975E+03  0.12500000000E+03 0.  0.
         25    1    1    2    0    0  0.32396433323E+02 -0.80094374310E+02 -0.17429741503E+03  0.23123413800E+03  0.12500000000E+03 0.  0.
         25    1    1    2    0    0  0.18502709882E+02  0.76653974216E+02 -0.58247169685E+02  0.15885815941E+03  0.12500000000E+03 0.  0.
</event>
<event>
 5    0  0.5605075E-005  0.2658064E+03  0.7546771E-02  0.1103704E+00
         21   -1    0    0  502  501  0.00000000000E+00  0.00000000000E+00  0.20873443202E+03  0.20873443202E+03  0.00000000000E+00 0. -1.
         21   -1    0    0  501  502 -0.00000000000E+00 -0.00000000000E+00 -0.33848301072E+03  0.33848301072E+03  0.00000000000E+00 0. -1.
         25    1    1    2    0    0 -0.84584460367E+02  0.94848459026E+01  0.79329122723E+02  0.17077061501E+03  0.12500000000E+03 0.  0.
         25    1    1    2    0    0  0.65139183608E+02 -0.84443460065E+02 -0.12977897377E+03  0.20938336424E+03  0.12500000000E+03 0.  0.
         25    1    1    2    0    0  0.19445276759E+02  0.74958614163E+02 -0.79298727659E+02  0.16706346349E+03  0.12500000000E+03 0.  0.
</event>
<event>
 5    0  0.5605075E-005  0.2645044E+03  0.7546771E-02  0.1104467E+00
         21   -1    0    0  502  501  0.00000000000E+00  0.00000000000E+00  0.35601825825E+03  0.35601825825E+03  0.00000000000E+00 0.  1.
         21   -1    0    0  501  502 -0.00000000000E+00 -0.00000000000E+00 -0.19651406831E+03  0.19651406831E+03  0.00000000000E+00 0.  1.
         25    1    1    2    0    0  0.40417848673E+02 -0.13627966102E+02  0.17926274006E+03  0.22266444243E+03  0.12500000000E+03 0.  0.
         25    1    1    2    0    0  0.72434485013E+02  0.54496016786E+02 -0.25398010871E+02  0.15648204185E+03  0.12500000000E+03 0.  0.
         25    1    1    2    0    0 -0.11285233369E+03 -0.40868050685E+02  0.56394607613E+01  0.17338584228E+03  0.12500000000E+03 0.  0.
</event>
<event>
 5    0  0.5605075E-005  0.3364879E+03  0.7546771E-02  0.1068302E+00
         21   -1    0    0  502  501  0.00000000000E+00  0.00000000000E+00  0.10826006712E+03  0.10826006712E+03  0.00000000000E+00 0.  1.
         21   -1    0    0  501  502 -0.00000000000E+00 -0.00000000000E+00 -0.10458531485E+04  0.10458531485E+04  0.00000000000E+00 0.  1.
         25    1    1    2    0    0 -0.13697755480E+03  0.72246782894E+02 -0.74700324836E+02  0.21257372060E+03  0.12500000000E+03 0.  0.
         25    1    1    2    0    0  0.24040718423E+02  0.27860393052E+02 -0.59805123597E+03  0.61208205209E+03  0.12500000000E+03 0.  0.
         25    1    1    2    0    0  0.11293683638E+03 -0.10010717595E+03 -0.26484152061E+03  0.32945744296E+03  0.12500000000E+03 0.  0.
</event>
<event>
 5    0  0.5605075E-005  0.3190228E+03  0.7546771E-02  0.1076100E+00
         21   -1    0    0  502  501  0.00000000000E+00  0.00000000000E+00  0.46420463238E+03  0.46420463238E+03  0.00000000000E+00 0. -1.
         21   -1    0    0  501  502 -0.00000000000E+00 -0.00000000000E+00 -0.21924710823E+03  0.21924710823E+03  0.00000000000E+00 0. -1.
         25    1    1    2    0    0  0.70936361258E+01  0.91896377711E+02  0.16874615854E+02  0.15622105034E+03  0.12500000000E+03 0.  0.
         25    1    1    2    0    0 -0.34197027123E+02 -0.24112294818E+03  0.17021794687E+03  0.32234897586E+03  0.12500000000E+03 0.  0.
         25    1    1    2    0    0  0.27103390998E+02  0.14922657047E+03  0.57864961429E+02  0.20488171441E+03  0.12500000000E+03 0.  0.
</event>
<event>
 5    0  0.5605075E-005  0.3029891E+03  0.7546771E-02  0.1083756E+00
         21   -1    0    0  502  501  0.00000000000E+00  0.00000000000E+00  0.14199256388E+03  0.14199256388E+03  0.00000000000E+00 0.  1.
         21   -1    0    0  501  502 -0.00000000000E+00 -0.00000000000E+00 -0.64652954032E+03  0.64652954032E+03  0.00000000000E+00 0.  1.
         25    1    1    2    0    0  0.11424053876E+03 -0.50024638492E+02 -0.28019813583E+03  0.33119384124E+03  0.12500000000E+03 0.  0.
         25    1    1    2    0    0 -0.27378786066E+02 -0.10484325174E+03 -0.16168708217E+03  0.23132102780E+03  0.12500000000E+03 0.  0.
         25    1    1    2    0    0 -0.86861752692E+02  0.15486789024E+03 -0.62651758440E+02  0.22600723516E+03  0.12500000000E+03 0.  0.
</event>
<event>
 5    0  0.5605075E-005  0.3169860E+03  0.7546771E-02  0.1077045E+00
         21   -1    0    0  502  501  0.00000000000E+00  0.00000000000E+00  0.12538058795E+03  0.12538058795E+03  0.00000000000E+00 0.  1.
         21   -1    0    0  501  502 -0.00000000000E+00 -0.00000000000E+00 -0.80140079404E+03  0.80140079404E+03  0.00000000000E+00 0.  1.
         25    1    1    2    0    0  0.80914732852E+02  0.64649166434E+02 -0.16600420104E+01  0.16234058166E+03  0.12500000000E+03 0.  0.
         25    1    1    2    0    0 -0.13090263585E+03 -0.55683043300E+02 -0.54719010266E+03  0.57903204560E+03  0.12500000000E+03 0.  0.
         25    1    1    2    0    0  0.49987903000E+02 -0.89661231344E+01 -0.12717006142E+03  0.18540875474E+03  0.12500000000E+03 0.  0.
</event>
<event>
 5    0  0.5605075E-005  0.3784122E+03  0.7546771E-02  0.1051522E+00
         21   -1    0    0  502  501  0.00000000000E+00  0.00000000000E+00  0.16065080207E+03  0.16065080207E+03  0.00000000000E+00 0.  1.
         21   -1    0    0  501  502 -0.00000000000E+00 -0.00000000000E+00 -0.89134831926E+03  0.89134831926E+03  0.00000000000E+00 0.  1.
         25    1    1    2    0    0 -0.14734936923E+03  0.19470501529E+03 -0.44693535542E+03  0.52440260442E+03  0.12500000000E+03 0.  0.
         25    1    1    2    0    0  0.47533020621E+02 -0.13567373413E+03  0.68830231309E+01  0.19062824079E+03  0.12500000000E+03 0.  0.
         25    1    1    2    0    0  0.99816348607E+02 -0.59031281170E+02 -0.29064518490E+03  0.33696827612E+03  0.12500000000E+03 0.  0.
</event>
<event>
 5    0  0.5605075E-005  0.4061951E+03  0.7546771E-02  0.1041655E+00
         21   -1    0    0  502  501  0.00000000000E+00  0.00000000000E+00  0.14415389869E+03  0.14415389869E+03  0.00000000000E+00 0. -1.
         21   -1    0    0  501  502 -0.00000000000E+00 -0.00000000000E+00 -0.11445714301E+04  0.11445714301E+04  0.00000000000E+00 0. -1.
         25    1    1    2    0    0 -0.25106513693E+03  0.14875178392E+03 -0.20450096505E+03  0.37763267987E+03  0.12500000000E+03 0.  0.
         25    1    1    2    0    0  0.18313215139E+03 -0.13360179384E+03 -0.67784221996E+03  0.72559072441E+03  0.12500000000E+03 0.  0.
         25    1    1    2    0    0  0.67932985544E+02 -0.15149990077E+02 -0.11807434644E+03  0.18550192455E+03  0.12500000000E+03 0.  0.
</event>
<event>
 5    0  0.5605075E-005  0.2281017E+03  0.7546771E-02  0.1127983E+00
         21   -1    0    0  502  501  0.00000000000E+00  0.00000000000E+00  0.19870896768E+03  0.19870896768E+03  0.00000000000E+00 0.  1.
         21   -1    0    0  501  502 -0.00000000000E+00 -0.00000000000E+00 -0.26184207686E+03  0.26184207686E+03  0.00000000000E+00 0.  1.
         25    1    1    2    0    0  0.73646745105E+02  0.47877237752E+02 -0.70121149098E+02  0.16810130431E+03  0.12500000000E+03 0.  0.
         25    1    1    2    0    0 -0.66647767571E+01  0.20506866281E+02  0.37086586514E+02  0.13215659542E+03  0.12500000000E+03 0.  0.
         25    1    1    2    0    0 -0.66981968348E+02 -0.68384104033E+02 -0.30098546596E+02  0.16029314482E+03  0.12500000000E+03 0.  0.
</event>
<event>
 5    0  0.5605075E-005  0.2609033E+03  0.7546771E-02  0.1106602E+00
         21   -1    0    0  502  501  0.00000000000E+00  0.00000000000E+00  0.12682859804E+03  0.12682859804E+03  0.00000000000E+00 0. -1.
         21   -1    0    0  501  502 -0.00000000000E+00 -0.00000000000E+00 -0.53671282661E+03  0.53671282661E+03  0.00000000000E+00 0. -1.
         25    1    1    2    0    0  0.83444592258E+02 -0.96606915135E+02 -0.15487537542E+03  0.23644719905E+03  0.12500000000E+03 0.  0.
         25    1    1    2    0    0  0.12097580338E+02 -0.38903101617E+02 -0.12909240427E+03  0.18425431231E+03  0.12500000000E+03 0.  0.
         25    1    1    2    0    0 -0.95542172596E+02  0.13551001675E+03 -0.12591644888E+03  0.24283991328E+03  0.12500000000E+03 0.  0.
</event>
<event>
 5    0  0.5605075E-005  0.3889773E+03  0.7546771E-02  0.1047665E+00
         21   -1    0    0  502  501  0.00000000000E+00  0.00000000000E+00  0.10335273810E+04  0.10335273810E+04  0.00000000000E+00 0. -1.
         21   -1    0    0  501  502 -0.00000000000E+00 -0.00000000000E+00 -0.14639507855E+03  0.14639507855E+03  0.00000000000E+00 0. -1.
         25    1    1    2    0    0 -0.36443963630E+02  0.11214217715E+03  0.70226868941E+03  0.72298709705E+03  0.12500000000E+03 0.  0.
         25    1    1    2    0    0  0.42738807464E+02  0.66721241206E+02 -0.29579328995E+02  0.15092470439E+03  0.12500000000E+03 0.  0.
         25    1    1    2    0    0 -0.62948438344E+01 -0.17886341836E+03  0.21444294204E+03  0.30601065811E+03  0.12500000000E+03 0.  0.
</event>
<event>
 5    0  0.5612625E-005  0.2566180E+03  0.7546771E-02  0.1109192E+00
         21   -1    0    0  502  501  0.00000000000E+00  0.00000000000E+00  0.41003753997E+03  0.41003753997E+03  0.00000000000E+00 0.  1.
         21   -1    0    0  501  502 -0.00000000000E+00 -0.00000000000E+00 -0.16060186653E+03  0.16060186653E+03  0.00000000000E+00 0.  1.
         25    1    1    2    0    0  0.92544483830E+02 -0.53514280454E+02  0.67353520922E+02  0.17773507386E+03  0.12500000000E+03 0.  0.
         25    1    1    2    0    0 -0.97567344517E+02  0.77720671135E+02  0.19705713631E+03  0.26460613071E+03  0.12500000000E+03 0.  0.
         25    1    1    2    0    0  0.50228606874E+01 -0.24206390681E+02 -0.14974983795E+02  0.12829820193E+03  0.12500000000E+03 0.  0.
</event>
<event>
 5    0  0.5605075E-005  0.2862556E+03  0.7546771E-02  0.1092321E+00
         21   -1    0    0  502  501  0.00000000000E+00  0.00000000000E+00  0.50939634953E+02  0.50939634953E+02  0.00000000000E+00 0. -1.
         21   -1    0    0  501  502 -0.00000000000E+00 -0.00000000000E+00 -0.16086148020E+04  0.16086148020E+04  0.00000000000E+00 0. -1.
         25    1    1    2    0    0 -0.12579816642E+02 -0.97913583064E+02 -0.21905165693E+03  0.27083934341E+03  0.12500000000E+03 0.  0.
         25    1    1    2    0    0 -0.40421139511E+02  0.16940992745E+03 -0.84645280038E+03  0.87317863883E+03  0.12500000000E+03 0.  0.
         25    1    1    2    0    0  0.53000956153E+02 -0.71496344389E+02 -0.49217070972E+03  0.51553645470E+03  0.12500000000E+03 0.  0.
</event>
<event>
 5    0  0.5605075E-005  0.3553436E+03  0.7546771E-02  0.1060443E+00
         21   -1    0    0  502  501  0.00000000000E+00  0.00000000000E+00  0.12448998507E+04  0.12448998507E+04  0.00000000000E+00 0.  1.
         21   -1    0    0  501  502 -0.00000000000E+00 -0.00000000000E+00 -0.10142909927E+03  0.10142909927E+03  0.00000000000E+00 0.  1.
         25    1    1    2    0    0 -0.10521049940E+03 -0.93556221004E+02  0.28978130127E+02  0.19049080738E+03  0.12500000000E+03 0.  0.
         25    1    1    2    0    0  0.53576768466E+02 -0.79106311902E+01  0.44961384476E+03  0.46979852873E+03  0.12500000000E+03 0.  0.
         25    1    1    2    0    0  0.51633730929E+02  0.10146685219E+03  0.66487877658E+03  0.68603961388E+03  0.12500000000E+03 0.  0.
</event>
<event>
 5    0  0.5605075E-005  0.3387144E+03  0.7546771E-02  0.1067345E+00
         21   -1    0    0  502  501  0.00000000000E+00  0.00000000000E+00  0.20213667178E+03  0.20213667178E+03  0.00000000000E+00 0. -1.
         21   -1    0    0  501  502 -0.00000000000E+00 -0.00000000000E+00 -0.56757361832E+03  0.56757361832E+03  0.00000000000E+00 0. -1.
         25    1    1    2    0    0 -0.78111350290E+02 -0.23717727665E+03 -0.13753998675E+03  0.31128233416E+03  0.12500000000E+03 0.  0.
         25    1    1    2    0    0  0.50819073699E+02  0.10118948105E+02 -0.99050480376E+02  0.16769307984E+03  0.12500000000E+03 0.  0.
         25    1    1    2    0    0  0.27292276591E+02  0.22705832854E+03 -0.12884647941E+03  0.29073487610E+03  0.12500000000E+03 0.  0.
</event>
<event>
 5    0  0.5605075E-005  0.2950108E+03  0.7546771E-02  0.1087762E+00
         21   -1    0    0  502  501  0.00000000000E+00  0.00000000000E+00  0.72344791049E+03  0.72344791049E+03  0.00000000000E+00 0.  1.
         21   -1    0    0  501  502 -0.00000000000E+00 -0.00000000000E+00 -0.12030077365E+03  0.12030077365E+03  0.00000000000E+00 0.  1.
         25    1    1    2    0    0  0.20023975966E+02  0.22070022463E+02  0.47243091293E+03  0.48959576489E+03  0.12500000000E+03 0.  0.
         25    1    1    2    0    0 -0.72971035678E+02  0.71264362716E+02  0.88824018034E+02  0.18416863908E+03  0.12500000000E+03 0.  0.
         25    1    1    2    0    0  0.52947059712E+02 -0.93334385179E+02  0.41892205877E+02  0.16998428016E+03  0.12500000000E+03 0.  0.
</event>
<event>
 5    0  0.5605075E-005  0.3435446E+03  0.7546771E-02  0.1065296E+00
         21   -1    0    0  502  501  0.00000000000E+00  0.00000000000E+00  0.25784191251E+04  0.25784191251E+04  0.00000000000E+00 0.  1.
         21   -1    0    0  501  502 -0.00000000000E+00 -0.00000000000E+00 -0.45773366147E+02  0.45773366147E+02  0.00000000000E+00 0.  1.
         25    1    1    2    0    0 -0.76183259075E+02  0.96509516482E+02  0.35759040568E+03  0.39826357349E+03  0.12500000000E+03 0.  0.
         25    1    1    2    0    0  0.19096431819E+03  0.66172162437E+02  0.11420451187E+04  0.11665068277E+04  0.12500000000E+03 0.  0.
         25    1    1    2    0    0 -0.11478105911E+03 -0.16268167892E+03  0.10330102345E+04  0.10594220900E+04  0.12500000000E+03 0.  0.
</event>
<event>
 5    0  0.5605075E-005  0.2316858E+03  0.7546771E-02  0.1125459E+00
         21   -1    0    0  502  501  0.00000000000E+00  0.00000000000E+00  0.40059600323E+03  0.40059600323E+03  0.00000000000E+00 0. -1.
         21   -1    0    0  501  502 -0.00000000000E+00 -0.00000000000E+00 -0.13399612150E+03  0.13399612150E+03  0.00000000000E+00 0. -1.
         25    1    1    2    0    0  0.87917554830E+02  0.16014688132E+01  0.15038410675E+03  0.21441184835E+03  0.12500000000E+03 0.  0.
         25    1    1    2    0    0 -0.17042965365E+01  0.47105285225E+02  0.83041364579E+02  0.15729806341E+03  0.12500000000E+03 0.  0.
         25    1    1    2    0    0 -0.86213258294E+02 -0.48706754038E+02  0.33174410404E+02  0.16288221296E+03  0.12500000000E+03 0.  0.
</event>
<event>
 5    0  0.5605075E-005  0.4104583E+03  0.7546771E-02  0.1040217E+00
         21   -1    0    0  502  501  0.00000000000E+00  0.00000000000E+00  0.73202659882E+03  0.73202659882E+03  0.00000000000E+00 0.  1.
         21   -1    0    0  501  502 -0.00000000000E+00 -0.00000000000E+00 -0.23015014184E+03  0.23015014184E+03  0.00000000000E+00 0.  1.
         25    1    1    2    0    0  0.71485121766E+02 -0.14987250967E+02  0.53285288912E+03  0.55217021087E+03  0.12500000000E+03 0.  0.
         25    1    1    2    0    0  0.68005678288E+02  0.11505137772E+03  0.37668736520E+02  0.18683020501E+03  0.12500000000E+03 0.  0.
         25    1    1    2    0    0 -0.13949080005E+03 -0.10006412675E+03 -0.68645168657E+02  0.22317632478E+03  0.12500000000E+03 0.  0.
</event>
<event>
 5    0  0.5605075E-005  0.4297456E+03  0.7546771E-02  0.1033940E+00
         21   -1    0    0  502  501  0.00000000000E+00  0.00000000000E+00  0.18437330400E+04  0.18437330400E+04  0.00000000000E+00 0. -1.
         21   -1    0    0  501  502 -0.00000000000E+00 -0.00000000000E+00 -0.10016704911E+03  0.10016704911E+03  0.00000000000E+00 0. -1.
         25    1    1    2    0    0 -0.29565559511E+02  0.77533848140E+02  0.10724963714E+03  0.18442642051E+03  0.12500000000E+03 0.  0.
         25    1    1    2    0    0  0.26771598313E+03 -0.86200066320E+02  0.12586959515E+04  0.12957788381E+04  0.12500000000E+03 0.  0.
         25    1    1    2    0    0 -0.23815042362E+03  0.86662181802E+01  0.37762040228E+03  0.46369483049E+03  0.12500000000E+03 0.  0.
</event>
<event>
 5    0  0.5605075E-005  0.2585589E+03  0.7546771E-02  0.1108012E+00
         21   -1    0    0  502  501  0.00000000000E+00  0.00000000000E+00  0.64522380735E+03  0.64522380735E+03  0.00000000000E+00 0. -1.
         21   -1    0    0  501  502 -0.00000000000E+00 -0.00000000000E+00 -0.10361169073E+03  0.10361169073E+03  0.00000000000E+00 0. -1.
         25    1    1    2    0    0  0.11436663270E+03  0.18582375521E+02  0.24632572769E+03  0.29954364536E+03  0.12500000000E+03 0.  0.
         25    1    1    2    0    0 -0.15441839872E+03 -0.13685098077E+01  0.22221840511E+03  0.29808209314E+03  0.12500000000E+03 0.  0.
         25    1    1    2    0    0  0.40051766021E+02 -0.17213865714E+02  0.73067983816E+02  0.15120975958E+03  0.12500000000E+03 0.  0.
</event>
<event>
 5    0  0.5605075E-005  0.1973304E+03  0.7546771E-02  0.1152011E+00
         21   -1    0    0  502  501  0.00000000000E+00  0.00000000000E+00  0.10134490432E+04  0.10134490432E+04  0.00000000000E+00 0.  1.
         21   -1    0    0  501  502 -0.00000000000E+00 -0.00000000000E+00 -0.38422552895E+02  0.38422552895E+02  0.00000000000E+00 0.  1.
         25    1    1    2    0    0 -0.16462270745E+01 -0.17833943897E+02  0.45496635407E+03  0.47216537670E+03  0.12500000000E+03 0.  0.
         25    1    1    2    0    0 -0.11532233700E+02 -0.60651468699E+00  0.21044379646E+03  0.24504071446E+03  0.12500000000E+03 0.  0.
         25    1    1    2    0    0  0.13178460774E+02  0.18440458584E+02  0.30961633981E+03  0.33466550498E+03  0.12500000000E+03 0.  0.
</event>
<event>
 5    0  0.5605075E-005  0.2586634E+03  0.7546771E-02  0.1107949E+00
         21   -1    0    0  502  501  0.00000000000E+00  0.00000000000E+00  0.50281646246E+02  0.50281646246E+02  0.00000000000E+00 0.  1.
         21   -1    0    0  501  502 -0.00000000000E+00 -0.00000000000E+00 -0.13306392101E+04  0.13306392101E+04  0.00000000000E+00 0.  1.
         25    1    1    2    0    0  0.34636144269E+02 -0.95756707253E+02 -0.55712834570E+03  0.57998793354E+03  0.12500000000E+03 0.  0.
         25    1    1    2    0    0  0.81020793293E+02  0.30366533416E+02 -0.23655591024E+03  0.28119422819E+03  0.12500000000E+03 0.  0.
         25    1    1    2    0    0 -0.11565693756E+03  0.65390173837E+02 -0.48667330790E+03  0.51973869460E+03  0.12500000000E+03 0.  0.
</event>
<event>
 5    0  0.5605075E-005  0.3256887E+03  0.7546771E-02  0.1073061E+00
         21   -1    0    0  502  501  0.00000000000E+00  0.00000000000E+00  0.94055218795E+02  0.94055218795E+02  0.00000000000E+00 0. -1.
         21   -1    0    0  501  502 -0.00000000000E+00 -0.00000000000E+00 -0.11277747187E+04  0.11277747187E+04  0.00000000000E+00 0. -1.
         25    1    1    2    0    0  0.42069294731E+02 -0.87949399645E+02 -0.16698027289E+03  0.23024407483E+03  0.12500000000E+03 0.  0.
         25    1    1    2    0    0 -0.18378779154E+03  0.13531443931E+03 -0.32787158888E+03  0.41858419535E+03  0.12500000000E+03 0.  0.
         25    1    1    2    0    0  0.14171849681E+03 -0.47365039666E+02 -0.53886763817E+03  0.57300166735E+03  0.12500000000E+03 0.  0.
</event>
<event>
 5    0  0.5605075E-005  0.2475049E+03  0.7546771E-02  0.1114892E+00
         21   -1    0    0  502  501  0.00000000000E+00  0.00000000000E+00  0.13231192009E+03  0.13231192009E+03  0.00000000000E+00 0.  1.
         21   -1    0    0  501  502 -0.00000000000E+00 -0.00000000000E+00 -0.46298670791E+03  0.46298670791E+03  0.00000000000E+00 0.  1.
         25    1    1    2    0    0 -0.80494971379E+02 -0.45396960306E+02 -0.24879123337E+02  0.15743028680E+03  0.12500000000E+03 0.  0.
         25    1    1    2    0    0  0.43366199692E+02 -0.41929160191E+02 -0.72199534609E+02  0.15644952716E+03  0.12500000000E+03 0.  0.
         25    1    1    2    0    0  0.37128771688E+02  0.87326120497E+02 -0.23359612988E+03  0.28141881405E+03  0.12500000000E+03 0.  0.
</event>
<event>
 5    0  0.5605075E-005  0.3050842E+03  0.7546771E-02  0.1082726E+00
         21   -1    0    0  502  501  0.00000000000E+00  0.00000000000E+00  0.76292351871E+03  0.76292351871E+03  0.00000000000E+00 0. -1.
         21   -1    0    0  501  502 -0.00000000000E+00 -0.00000000000E+00 -0.12199963992E+03  0.12199963992E+03  0.00000000000E+00 0. -1.
         25    1    1    2    0    0  0.48522214741E+02 -0.71389499748E+02  0.45732406345E+03  0.48189331289E+03  0.12500000000E+03 0.  0.
         25    1    1    2    0    0 -0.96795802812E+02  0.69879182438E+02 -0.35050864409E+01  0.17288670629E+03  0.12500000000E+03 0.  0.
         25    1    1    2    0    0  0.48273588071E+02  0.15103173104E+01  0.18710490178E+03  0.23014313945E+03  0.12500000000E+03 0.  0.
</event>
<event>
 5    0  0.5605075E-005  0.3147508E+03  0.7546771E-02  0.1078091E+00
         21   -1    0    0  502  501  0.00000000000E+00  0.00000000000E+00  0.12350294875E+04  0.12350294875E+04  0.00000000000E+00 0. -1.
         21   -1    0    0  501  502 -0.00000000000E+00 -0.00000000000E+00 -0.80215120133E+02  0.80215120133E+02  0.00000000000E+00 0. -1.
         25    1    1    2    0    0  0.58422446668E+02 -0.20001959989E+03  0.27606158986E+03  0.36777170094E+03  0.12500000000E+03 0.  0.
         25    1    1    2    0    0 -0.23950269212E+02  0.16649716848E+03  0.64352921208E+03  0.67679374207E+03  0.12500000000E+03 0.  0.
         25    1    1    2    0    0 -0.34472177456E+02  0.33522431415E+02  0.23522356540E+03  0.27067916459E+03  0.12500000000E+03 0.  0.
</event>
<event>
 5    0  0.5605075E-005  0.2371093E+03  0.7546771E-02  0.1121734E+00
         21   -1    0    0  502  501  0.00000000000E+00  0.00000000000E+00  0.42824755028E+02  0.42824755028E+02  0.00000000000E+00 0. -1.
         21   -1    0    0  501  502 -0.00000000000E+00 -0.00000000000E+00 -0.13128111905E+04  0.13128111905E+04  0.00000000000E+00 0.  1.
         25    1    1    2    0    0 -0.12071953889E+03  0.21163494007E+02 -0.41180306106E+03  0.44746828005E+03  0.12500000000E+03 0.  0.
         25    1    1    2    0    0  0.92735615759E+02  0.30818804060E+02 -0.47641642466E+03  0.50214271159E+03  0.12500000000E+03 0.  0.
         25    1    1    2    0    0  0.27983923127E+02 -0.51982298067E+02 -0.38176694979E+03  0.40602495393E+03  0.12500000000E+03 0.  0.
</event>
<event>
 5    0  0.5605075E-005  0.5292377E+03  0.7546771E-02  0.1006417E+00
         21   -1    0    0  502  501  0.00000000000E+00  0.00000000000E+00  0.39389383178E+03  0.39389383178E+03  0.00000000000E+00 0.  1.
         21   -1    0    0  501  502 -0.00000000000E+00 -0.00000000000E+00 -0.71108646249E+03  0.71108646249E+03  0.00000000000E+00 0.  1.
         25    1    1    2    0    0  0.17235652960E+02 -0.67391017571E+02 -0.53856173275E+03  0.55723635646E+03  0.12500000000E+03 0.  0.
         25    1    1    2    0    0  0.82652619145E+02  0.17323648810E+03  0.26573608900E+03  0.35083187605E+03  0.12500000000E+03 0.  0.
         25    1    1    2    0    0 -0.99888272105E+02 -0.10584547053E+03 -0.44366986956E+02  0.19691206176E+03  0.12500000000E+03 0.  0.
</event>
<event>
 5    0  0.5605075E-005  0.2848868E+03  0.7546771E-02  0.1093049E+00
         21   -1    0    0  502  501  0.00000000000E+00  0.00000000000E+00  0.75775641607E+02  0.75775641607E+02  0.00000000000E+00 0.  1.
         21   -1    0    0  501  502 -0.00000000000E+00 -0.00000000000E+00 -0.10710630703E+04  0.10710630703E+04  0.00000000000E+00 0.  1.
         25    1    1    2    0    0  0.18509875243E+03  0.30929571389E+02 -0.36049967916E+03  0.42520960151E+03  0.12500000000E+03 0.  0.
         25    1    1    2    0    0 -0.11267918646E+03  0.51960777751E+02 -0.34619924065E+03  0.38842687306E+03  0.12500000000E+03 0.  0.
         25    1    1    2    0    0 -0.72419565973E+02 -0.82890349141E+02 -0.28858850890E+03  0.33320223736E+03  0.12500000000E+03 0.  0.
</event>
<event>
 5    0  0.5605075E-005  0.2995574E+03  0.7546771E-02  0.1085462E+00
         21   -1    0    0  502  501  0.00000000000E+00  0.00000000000E+00  0.78390379624E+02  0.78390379624E+02  0.00000000000E+00 0.  1.
         21   -1    0    0  501  502 -0.00000000000E+00 -0.00000000000E+00 -0.11447152856E+04  0.11447152856E+04  0.00000000000E+00 0.  1.
         25    1    1    2    0    0  0.31084531454E+02  0.10958791617E+03 -0.55194214495E+03  0.57727020609E+03  0.12500000000E+03 0.  0.
         25    1    1    2    0    0  0.11418629997E+02  0.23580065630E+01 -0.26709392035E+02  0.12835239355E+03  0.12500000000E+03 0.  0.
         25    1    1    2    0    0 -0.42503161452E+02 -0.11194592273E+03 -0.48767336899E+03  0.51748306559E+03  0.12500000000E+03 0.  0.
</event>
<event>
 5    0  0.5605075E-005  0.3900565E+03  0.7546771E-02  0.1047278E+00
         21   -1    0    0  502  501  0.00000000000E+00  0.00000000000E+00  0.43420897516E+03  0.43420897516E+03  0.00000000000E+00 0. -1.
         21   -1    0    0  501  502 -0.00000000000E+00 -0.00000000000E+00 -0.35039369520E+03  0.35039369520E+03  0.00000000000E+00 0. -1.
         25    1    1    2    0    0  0.12871570213E+03  0.13979987646E+03 -0.32745260243E+02  0.22980206592E+03  0.12500000000E+03 0.  0.
         25    1    1    2    0    0  0.71518941676E+02 -0.24435351898E+03  0.74216560782E+02  0.29318372934E+03  0.12500000000E+03 0.  0.
         25    1    1    2    0    0 -0.20023464381E+03  0.10455364252E+03  0.42343979417E+02  0.26161687510E+03  0.12500000000E+03 0.  0.
</event>
<event>
 5    0  0.5605075E-005  0.4159597E+03  0.7546771E-02  0.1038389E+00
         21   -1    0    0  502  501  0.00000000000E+00  0.00000000000E+00  0.62152387281E+03  0.62152387281E+03  0.00000000000E+00 0. -1.
         21   -1    0    0  501  502 -0.00000000000E+00 -0.00000000000E+00 -0.27838431083E+03  0.27838431083E+03  0.00000000000E+00 0. -1.
         25    1    1    2    0    0 -0.15183593421E+03 -0.18518356123E+03 -0.59323101866E+02  0.27657066490E+03  0.12500000000E+03 0.  0.
         25    1    1    2    0    0  0.95879346093E+02  0.17936741440E+03  0.48287830754E+02  0.24356155886E+03  0.12500000000E+03 0.  0.
         25    1    1    2    0    0  0.55956588117E+02  0.58161468307E+01  0.35417483309E+03  0.37977595989E+03  0.12500000000E+03 0.  0.
</event>
<event>
 5    0  0.5605075E-005  0.3279190E+03  0.7546771E-02  0.1072061E+00
         21   -1    0    0  502  501  0.00000000000E+00  0.00000000000E+00  0.13715580703E+03  0.13715580703E+03  0.00000000000E+00 0.  1.
         21   -1    0    0  501  502 -0.00000000000E+00 -0.00000000000E+00 -0.78400506754E+03  0.78400506754E+03  0.00000000000E+00 0.  1.
         25    1    1    2    0    0  0.14746951607E+02  0.14239833600E+02 -0.17474929863E+03  0.21582993957E+03  0.12500000000E+03 0.  0.
         25    1    1    2    0    0  0.13868218391E+03 -0.17688415462E+03 -0.16564649644E+03  0.30591586110E+03  0.12500000000E+03 0.  0.
         25    1    1    2    0    0 -0.15342913551E+03  0.16264432102E+03 -0.30645346544E+03  0.39941507390E+03  0.12500000000E+03 0.  0.
</event>
<event>
 5    0  0.5605075E-005  0.2282235E+03  0.7546771E-02  0.1127896E+00
         21   -1    0    0  502  501  0.00000000000E+00  0.00000000000E+00  0.31172816474E+02  0.31172816474E+02  0.00000000000E+00 0.  1.
         21   -1    0    0  501  502 -0.00000000000E+00 -0.00000000000E+00 -0.16708776879E+04  0.16708776879E+04  0.00000000000E+00 0.  1.
         25    1    1    2    0    0 -0.26319979684E+02  0.70510350244E+01 -0.44435031537E+03  0.46240097447E+03  0.12500000000E+03 0.  0.
         25    1    1    2    0    0  0.89438709247E+01 -0.46755347895E+02 -0.96320393124E+03  0.97244684612E+03  0.12500000000E+03 0.  0.
         25    1    1    2    0    0  0.17376108759E+02  0.39704312871E+02 -0.23215062486E+03  0.26720268382E+03  0.12500000000E+03 0.  0.
</event>
<event>
 5    0  0.5605075E-005  0.3595254E+03  0.7546771E-02  0.1058772E+00
         21   -1    0    0  502  501  0.00000000000E+00  0.00000000000E+00  0.62637231402E+03  0.62637231402E+03  0.00000000000E+00 0. -1.
         21   -1    0    0  501  502 -0.00000000000E+00 -0.00000000000E+00 -0.20636052332E+03  0.20636052332E+03  0.00000000000E+00 0. -1.
         25    1    1    2    0    0  0.25411812779E+03 -0.10663195446E+03  0.69881420532E+02  0.31057174617E+03  0.12500000000E+03 0.  0.
         25    1    1    2    0    0 -0.11240647890E+03 -0.27404684614E+01  0.17019766490E+03  0.23923831592E+03  0.12500000000E+03 0.  0.
         25    1    1    2    0    0 -0.14171164889E+03  0.10937242292E+03  0.17993270528E+03  0.28292277525E+03  0.12500000000E+03 0.  0.
</event>
<event>
 5    0  0.5605075E-005  0.3806273E+03  0.7546771E-02  0.1050702E+00
         21   -1    0    0  502  501  0.00000000000E+00  0.00000000000E+00  0.98532528885E+02  0.98532528885E+02  0.00000000000E+00 0.  1.
         21   -1    0    0  501  502 -0.00000000000E+00 -0.00000000000E+00 -0.14703486640E+04  0.14703486640E+04  0.00000000000E+00 0.  1.
         25    1    1    2    0    0  0.25358779685E+02 -0.26131026597E+03 -0.53588532005E+03  0.60969188863E+03  0.12500000000E+03 0.  0.
         25    1    1    2    0    0  0.10761806990E+03  0.85127419298E+02 -0.19180381846E+03  0.26691202907E+03  0.12500000000E+03 0.  0.
         25    1    1    2    0    0 -0.13297684958E+03  0.17618284668E+03 -0.64412699656E+03  0.69227727515E+03  0.12500000000E+03 0.  0.
</event>
<event>
 5    0  0.5605075E-005  0.3154554E+03  0.7546771E-02  0.1077760E+00
         21   -1    0    0  502  501  0.00000000000E+00  0.00000000000E+00  0.33959626777E+03  0.33959626777E+03  0.00000000000E+00 0. -1.
         21   -1    0    0  501  502 -0.00000000000E+00 -0.00000000000E+00 -0.29303069642E+03  0.29303069642E+03  0.00000000000E+00 0. -1.
         25    1    1    2    0    0 -0.45939666733E+02  0.59308316005E+02 -0.10365879957E+03  0.17888006053E+03  0.12500000000E+03 0.  0.
         25    1    1    2    0    0  0.16137611750E+03 -0.47888764881E+02 -0.22685380055E+02  0.21089146870E+03  0.12500000000E+03 0.  0.
         25    1    1    2    0    0 -0.11543645076E+03 -0.11419551124E+02  0.17290975097E+03  0.24285543497E+03  0.12500000000E+03 0.  0.
</event>
<event>
 5    0  0.5605075E-005  0.2393383E+03  0.7546771E-02  0.1120234E+00
         21   -1    0    0  502  501  0.00000000000E+00  0.00000000000E+00  0.21578039499E+03  0.21578039499E+03  0.00000000000E+00 0. -1.
         21   -1    0    0  501  502 -0.00000000000E+00 -0.00000000000E+00 -0.26546808721E+03  0.26546808721E+03  0.00000000000E+00 0. -1.
         25    1    1    2    0    0 -0.17292884546E+02  0.25853590692E+02  0.50011976757E+02  0.13817977358E+03  0.12500000000E+03 0.  0.
         25    1    1    2    0    0 -0.38663072778E+01  0.27194330944E+02  0.52207317078E+02  0.13822114138E+03  0.12500000000E+03 0.  0.
         25    1    1    2    0    0  0.21159191824E+02 -0.53047921636E+02 -0.15190698606E+03  0.20484756723E+03  0.12500000000E+03 0.  0.
</event>
<event>
 5    0  0.5605075E-005  0.3638874E+03  0.7546771E-02  0.1057055E+00
         21   -1    0    0  502  501  0.00000000000E+00  0.00000000000E+00  0.11389687627E+03  0.11389687627E+03  0.00000000000E+00 0. -1.
         21   -1    0    0  501  502 -0.00000000000E+00 -0.00000000000E+00 -0.11625780121E+04  0.11625780121E+04  0.00000000000E+00 0. -1.
         25    1    1    2    0    0 -0.93424937900E+02  0.34623046101E+02 -0.15413489137E+03  0.22205751301E+03  0.12500000000E+03 0.  0.
         25    1    1    2    0    0  0.16324715839E+03  0.17721114492E+02 -0.73083619527E+02  0.21892895666E+03  0.12500000000E+03 0.  0.
         25    1    1    2    0    0 -0.69822220488E+02 -0.52344160594E+02 -0.82146262488E+03  0.83548841865E+03  0.12500000000E+03 0.  0.
</event>
<event>
 5    0  0.5605075E-005  0.3419051E+03  0.7546771E-02  0.1065987E+00
         21   -1    0    0  502  501  0.00000000000E+00  0.00000000000E+00  0.62549053004E+03  0.62549053004E+03  0.00000000000E+00 0. -1.
         21   -1    0    0  501  502 -0.00000000000E+00 -0.00000000000E+00 -0.18689181975E+03  0.18689181975E+03  0.00000000000E+00 0. -1.
         25    1    1    2    0    0 -0.38180912336E+02  0.15120551225E+03  0.30211021899E+03  0.36223814462E+03  0.12500000000E+03 0.  0.
         25    1    1    2    0    0 -0.79604800405E+02 -0.12703910876E+03 -0.43718200866E+02  0.20003034892E+03  0.12500000000E+03 0.  0.
         25    1    1    2    0    0  0.11778571274E+03 -0.24166403489E+02  0.18020669217E+03  0.25011385625E+03  0.12500000000E+03 0.  0.
</event>
<event>
 5    0  0.5605075E-005  0.2909337E+03  0.7546771E-02  0.1089863E+00
         21   -1    0    0  502  501  0.00000000000E+00  0.00000000000E+00  0.24904932914E+03  0.24904932914E+03  0.00000000000E+00 0.  1.
         21   -1    0    0  501  502 -0.00000000000E+00 -0.00000000000E+00 -0.33986212910E+03  0.33986212910E+03  0.00000000000E+00 0.  1.
         25    1    1    2    0    0 -0.16440997735E+03 -0.65841620537E+02  0.81046257226E+02  0.23142872651E+03  0.12500000000E+03 0.  0.
         25    1    1    2    0    0  0.50557766556E+02  0.10194029334E+02 -0.81138037685E+02  0.15769713743E+03  0.12500000000E+03 0.  0.
         25    1    1    2    0    0  0.11385221079E+03  0.55647591203E+02 -0.90721019502E+02  0.19978559430E+03  0.12500000000E+03 0.  0.
</event>
<event>
 5    0  0.5605075E-005  0.3410586E+03  0.7546771E-02  0.1066346E+00
         21   -1    0    0  502  501  0.00000000000E+00  0.00000000000E+00  0.14391948290E+03  0.14391948290E+03  0.00000000000E+00 0. -1.
         21   -1    0    0  501  502 -0.00000000000E+00 -0.00000000000E+00 -0.80823651831E+03  0.80823651831E+03  0.00000000000E+00 0.  1.
         25    1    1    2    0    0 -0.72185279509E+02  0.16323063377E+03 -0.19453342431E+03  0.29210136520E+03  0.12500000000E+03 0.  0.
         25    1    1    2    0    0  0.14023778131E+03 -0.18283929850E+03 -0.44174818595E+03  0.51367626398E+03  0.12500000000E+03 0.  0.
         25    1    1    2    0    0 -0.68052501797E+02  0.19608664729E+02 -0.28035425151E+02  0.14637837202E+03  0.12500000000E+03 0.  0.
</event>
<event>
 5    0  0.5605075E-005  0.2180296E+03  0.7546771E-02  0.1135361E+00
         21   -1    0    0  502  501  0.00000000000E+00  0.00000000000E+00  0.10622044745E+03  0.10622044745E+03  0.00000000000E+00 0.  1.
         21   -1    0    0  501  502 -0.00000000000E+00 -0.00000000000E+00 -0.44753085301E+03  0.44753085301E+03  0.00000000000E+00 0.  1.
         25    1    1    2    0    0 -0.18361241666E+02 -0.18254928800E+02 -0.10205820748E+03  0.16343578352E+03  0.12500000000E+03 0.  0.
         25    1    1    2    0    0 -0.23143176956E+02 -0.71550826975E+02 -0.14200158542E+03  0.20357941385E+03  0.12500000000E+03 0.  0.
         25    1    1    2    0    0  0.41504418622E+02  0.89805755775E+02 -0.97250612669E+02  0.18673610310E+03  0.12500000000E+03 0.  0.
</event>
<event>
 5    0  0.5605075E-005  0.3225996E+03  0.7546771E-02  0.1074459E+00
         21   -1    0    0  502  501  0.00000000000E+00  0.00000000000E+00  0.60530300797E+03  0.60530300797E+03  0.00000000000E+00 0. -1.
         21   -1    0    0  501  502 -0.00000000000E+00 -0.00000000000E+00 -0.17193123671E+03  0.17193123671E+03  0.00000000000E+00 0. -1.
         25    1    1    2    0    0 -0.50907353956E+02  0.14345165977E+03 -0.33972855225E+01  0.19699360123E+03  0.12500000000E+03 0.  0.
         25    1    1    2    0    0 -0.24367522733E+02 -0.67910834260E+02  0.37985952410E+03  0.40635442119E+03  0.12500000000E+03 0.  0.
         25    1    1    2    0    0  0.75274876690E+02 -0.75540825509E+02  0.56909532687E+02  0.17388622225E+03  0.12500000000E+03 0.  0.
</event>
<event>
 5    0  0.5605075E-005  0.2456617E+03  0.7546771E-02  0.1116078E+00
         21   -1    0    0  502  501  0.00000000000E+00  0.00000000000E+00  0.48553670262E+03  0.48553670262E+03  0.00000000000E+00 0. -1.
         21   -1    0    0  501  502 -0.00000000000E+00 -0.00000000000E+00 -0.12429479233E+03  0.12429479233E+03  0.00000000000E+00 0. -1.
         25    1    1    2    0    0 -0.71121906385E+02  0.34107866502E+02  0.20194163456E+03  0.25025406269E+03  0.12500000000E+03 0.  0.
         25    1    1    2    0    0  0.12931007697E+03 -0.19266521023E+02  0.11346842604E+03  0.21352371893E+03  0.12500000000E+03 0.  0.
         25    1    1    2    0    0 -0.58188170583E+02 -0.14841345480E+02  0.45831849686E+02  0.14605371333E+03  0.12500000000E+03 0.  0.
</event>
<event>
 5    0  0.5605075E-005  0.4564953E+03  0.7546771E-02  0.1025803E+00
         21   -1    0    0  502  501  0.00000000000E+00  0.00000000000E+00  0.59717583934E+03  0.59717583934E+03  0.00000000000E+00 0.  1.
         21   -1    0    0  501  502 -0.00000000000E+00 -0.00000000000E+00 -0.34895579906E+03  0.34895579906E+03  0.00000000000E+00 0.  1.
         25    1    1    2    0    0  0.23134417290E+03  0.28606105856E+02 -0.12776207618E+03  0.29374578080E+03  0.12500000000E+03 0.  0.
         25    1    1    2    0    0 -0.70721070382E+02 -0.15890884608E+03  0.10780579382E+02  0.21446377794E+03  0.12500000000E+03 0.  0.
         25    1    1    2    0    0 -0.16062310251E+03  0.13030274022E+03  0.36520153707E+03  0.43792207966E+03  0.12500000000E+03 0.  0.
</event>
<event>
 5    0  0.5605075E-005  0.2665023E+03  0.7546771E-02  0.1103298E+00
         21   -1    0    0  502  501  0.00000000000E+00  0.00000000000E+00  0.46093217448E+03  0.46093217448E+03  0.00000000000E+00 0.  1.
         21   -1    0    0  501  502 -0.00000000000E+00 -0.00000000000E+00 -0.15408659602E+03  0.15408659602E+03  0.00000000000E+00 0.  1.
         25    1    1    2    0    0  0.77113604799E+02 -0.15190196996E+02  0.20110547408E+03  0.24949080511E+03  0.12500000000E+03 0.  0.
         25    1    1    2    0    0 -0.89132103425E+02  0.11007017160E+03  0.83643410758E+02  0.20659427557E+03  0.12500000000E+03 0.  0.
         25    1    1    2    0    0  0.12018498626E+02 -0.94879974599E+02  0.22096693629E+02  0.15893368982E+03  0.12500000000E+03 0.  0.
</event>
<event>
 5    0  0.5605075E-005  0.3143217E+03  0.7546771E-02  0.1078293E+00
         21   -1    0    0  502  501  0.00000000000E+00  0.00000000000E+00  0.75475409982E+02  0.75475409982E+02  0.00000000000E+00 0.  1.
         21   -1    0    0  501  502 -0.00000000000E+00 -0.00000000000E+00 -0.13090108913E+04  0.13090108913E+04  0.00000000000E+00 0.  1.
         25    1    1    2    0    0  0.79749254859E+02 -0.16674118704E+03 -0.60166381690E+03  0.64170625341E+03  0.12500000000E+03 0.  0.
         25    1    1    2    0    0 -0.13782204681E+03  0.27757087117E+02 -0.37785440816E+03  0.42209516254E+03  0.12500000000E+03 0.  0.
         25    1    1    2    0    0  0.58072791952E+02  0.13898409992E+03 -0.25401725623E+03  0.32068488530E+03  0.12500000000E+03 0.  0.
</event>
<event>
 5    0  0.5605075E-005  0.3622796E+03  0.7546771E-02  0.1057685E+00
         21   -1    0    0  502  501  0.00000000000E+00  0.00000000000E+00  0.11260010107E+04  0.11260010107E+04  0.00000000000E+00 0. -1.
         21   -1    0    0  501  502 -0.00000000000E+00 -0.00000000000E+00 -0.11655982085E+03  0.11655982085E+03  0.00000000000E+00 0. -1.
         25    1    1    2    0    0  0.25822184962E+03  0.29198008040E+01  0.52642197440E+03  0.59952659990E+03  0.12500000000E+03 0.  0.
         25    1    1    2    0    0 -0.76582358896E+02 -0.92245868626E+02  0.12671123946E+03  0.21460404511E+03  0.12500000000E+03 0.  0.
         25    1    1    2    0    0 -0.18163949072E+03  0.89326067822E+02  0.35630797599E+03  0.42843018654E+03  0.12500000000E+03 0.  0.
</event>
<event>
 5    0  0.5605075E-005  0.3548064E+03  0.7546771E-02  0.1060659E+00
         21   -1    0    0  502  501  0.00000000000E+00  0.00000000000E+00  0.65791566040E+03  0.65791566040E+03  0.00000000000E+00 0.  1.
         21   -1    0    0  501  502 -0.00000000000E+00 -0.00000000000E+00 -0.19134302710E+03  0.19134302710E+03  0.00000000000E+00 0.  1.
         25    1    1    2    0    0  0.66307555967E+02 -0.14841560172E+03  0.17024221912E+03  0.26651697128E+03  0.12500000000E+03 0.  0.
         25    1    1    2    0    0  0.11996706343E+03  0.10367103635E+03 -0.79612448713E+01  0.20205979685E+03  0.12500000000E+03 0.  0.
         25    1    1    2    0    0 -0.18627461940E+03  0.44744565377E+02  0.30429165906E+03  0.38068191937E+03  0.12500000000E+03 0.  0.
</event>
<event>
 5    0  0.5605075E-005  0.3538919E+03  0.7546771E-02  0.1061029E+00
         21   -1    0    0  502  501  0.00000000000E+00  0.00000000000E+00  0.84662158376E+03  0.84662158376E+03  0.00000000000E+00 0.  1.
         21   -1    0    0  501  502 -0.00000000000E+00 -0.00000000000E+00 -0.14792855828E+03  0.14792855828E+03  0.00000000000E+00 0.  1.
         25    1    1    2    0    0  0.22647477125E+03  0.44020828753E+02  0.20608569823E+03  0.33365396804E+03  0.12500000000E+03 0.  0.
         25    1    1    2    0    0  0.17091064423E+02 -0.10019345291E+03  0.18250940994E+03  0.24344510101E+03  0.12500000000E+03 0.  0.
         25    1    1    2    0    0 -0.24356583567E+03  0.56172624160E+02  0.31009791731E+03  0.41745107297E+03  0.12500000000E+03 0.  0.
</event>
<event>
 5    0  0.5605075E-005  0.2535803E+03  0.7546771E-02  0.1111063E+00
         21   -1    0    0  502  501  0.00000000000E+00  0.00000000000E+00  0.71271940250E+03  0.71271940250E+03  0.00000000000E+00 0. -1.
         21   -1    0    0  501  502 -0.00000000000E+00 -0.00000000000E+00 -0.90222025854E+02  0.90222025854E+02  0.00000000000E+00 0.  1.
         25    1    1    2    0    0  0.41725978132E+02  0.27432171164E+02  0.14564490853E+03  0.19832049981E+03  0.12500000000E+03 0.  0.
         25    1    1    2    0    0  0.90013977906E+02 -0.47261616000E+02  0.11089262282E+03  0.19559741911E+03  0.12500000000E+03 0.  0.
         25    1    1    2    0    0 -0.13173995604E+03  0.19829444837E+02  0.36595984530E+03  0.40902350944E+03  0.12500000000E+03 0.  0.
</event>
<event>
 5    0  0.5605075E-005  0.2532916E+03  0.7546771E-02  0.1111242E+00
         21   -1    0    0  502  501  0.00000000000E+00  0.00000000000E+00  0.43882048372E+03  0.43882048372E+03  0.00000000000E+00 0. -1.
         21   -1    0    0  501  502 -0.00000000000E+00 -0.00000000000E+00 -0.14620246508E+03  0.14620246508E+03  0.00000000000E+00 0. -1.
         25    1    1    2    0    0 -0.58924948255E+02  0.67326841451E+02  0.19682545543E+03  0.24974049134E+03  0.12500000000E+03 0.  0.
         25    1    1    2    0    0 -0.27259768347E+02 -0.99289256358E+02  0.75911308757E+02  0.17885462867E+03  0.12500000000E+03 0.  0.
         25    1    1    2    0    0  0.86184716603E+02  0.31962414907E+02  0.19881254455E+02  0.15642782879E+03  0.12500000000E+03 0.  0.
</event>
<event>
 5    0  0.5695232E-005  0.3715325E+03  0.7546771E-02  0.1054109E+00
         21   -1    0    0  502  501  0.00000000000E+00  0.00000000000E+00  0.60874619707E+03  0.60874619707E+03  0.00000000000E+00 0. -1.
         21   -1    0    0  501  502 -0.00000000000E+00 -0.00000000000E+00 -0.22675528238E+03  0.22675528238E+03  0.00000000000E+00 0. -1.
         25    1    1    2    0    0  0.60206005928E+02  0.81430426106E+02  0.30845360314E+03  0.34788547359E+03  0.12500000000E+03 0.  0.
         25    1    1    2    0    0  0.80539550854E+02  0.29745037342E+02 -0.12175243222E+03  0.19447375465E+03  0.12500000000E+03 0.  0.
         25    1    1    2    0    0 -0.14074555678E+03 -0.11117546345E+03  0.19528974377E+03  0.29314225122E+03  0.12500000000E+03 0.  0.
</event>
<event>
 5    0  0.5605075E-005  0.2925331E+03  0.7546771E-02  0.1089034E+00
         21   -1    0    0  502  501  0.00000000000E+00  0.00000000000E+00  0.64856822977E+02  0.64856822977E+02  0.00000000000E+00 0.  1.
         21   -1    0    0  501  502 -0.00000000000E+00 -0.00000000000E+00 -0.13194545035E+04  0.13194545035E+04  0.00000000000E+00 0.  1.
         25    1    1    2    0    0  0.67100704361E+02 -0.76565671110E+02 -0.30450733515E+03  0.34454974050E+03  0.12500000000E+03 0.  0.
         25    1    1    2    0    0 -0.15579461621E+03  0.14948873784E+03 -0.50141222231E+03  0.56005183855E+03  0.12500000000E+03 0.  0.
         25    1    1    2    0    0  0.88693911848E+02 -0.72923066731E+02 -0.44867812303E+03  0.47970974740E+03  0.12500000000E+03 0.  0.
</event>
<event>
 5    0  0.5605075E-005  0.3091926E+03  0.7546771E-02  0.1080734E+00
         21   -1    0    0  502  501  0.00000000000E+00  0.00000000000E+00  0.85071756027E+02  0.85071756027E+02  0.00000000000E+00 0. -1.
         21   -1    0    0  501  502 -0.00000000000E+00 -0.00000000000E+00 -0.11237579744E+04  0.11237579744E+04  0.00000000000E+00 0. -1.
         25    1    1    2    0    0  0.52304585425E+02  0.12858454890E+03 -0.51877036710E+03  0.55137777399E+03  0.12500000000E+03 0.  0.
         25    1    1    2    0    0 -0.71696122547E+02 -0.53014769039E+02 -0.48119705814E+03  0.50510049345E+03  0.12500000000E+03 0.  0.
         25    1    1    2    0    0  0.19391537122E+02 -0.75569779860E+02 -0.38718793176E+02  0.15235146302E+03  0.12500000000E+03 0.  0.
</event>
<event>
 5    0  0.5605075E-005  0.2838283E+03  0.7546771E-02  0.1093616E+00
         21   -1    0    0  502  501  0.00000000000E+00  0.00000000000E+00  0.80566766005E+03  0.80566766005E+03  0.00000000000E+00 0.  1.
         21   -1    0    0  501  502 -0.00000000000E+00 -0.00000000000E+00 -0.99989747751E+02  0.99989747751E+02  0.00000000000E+00 0.  1.
         25    1    1    2    0    0  0.89434364127E+02 -0.65308529049E+02  0.11997095417E+03  0.20562523993E+03  0.12500000000E+03 0.  0.
         25    1    1    2    0    0 -0.14531586083E+02  0.16360800714E+03  0.28847427267E+03  0.35471277534E+03  0.12500000000E+03 0.  0.
         25    1    1    2    0    0 -0.74902778044E+02 -0.98299478092E+02  0.29723268547E+03  0.34531939254E+03  0.12500000000E+03 0.  0.
</event>
<event>
 5    0  0.5605075E-005  0.2782354E+03  0.7546771E-02  0.1096657E+00
         21   -1    0    0  502  501  0.00000000000E+00  0.00000000000E+00  0.30896567504E+03  0.30896567504E+03  0.00000000000E+00 0.  1.
         21   -1    0    0  501  502 -0.00000000000E+00 -0.00000000000E+00 -0.25056162286E+03  0.25056162286E+03  0.00000000000E+00 0.  1.
         25    1    1    2    0    0  0.45038885865E+02  0.10572478998E+02  0.28927160767E+02  0.13638936609E+03  0.12500000000E+03 0.  0.
         25    1    1    2    0    0 -0.18903395909E+03 -0.32763740110E+02  0.41256674348E+00  0.22898137603E+03  0.12500000000E+03 0.  0.
         25    1    1    2    0    0  0.14399507323E+03  0.22191261113E+02  0.29064324668E+02  0.19415655578E+03  0.12500000000E+03 0.  0.
</event>
<event>
 5    0  0.5605075E-005  0.3924483E+03  0.7546771E-02  0.1046426E+00
         21   -1    0    0  502  501  0.00000000000E+00  0.00000000000E+00  0.60514394082E+03  0.60514394082E+03  0.00000000000E+00 0.  1.
         21   -1    0    0  501  502 -0.00000000000E+00 -0.00000000000E+00 -0.25451073626E+03  0.25451073626E+03  0.00000000000E+00 0.  1.
         25    1    1    2    0    0  0.11997661044E+01 -0.57506963025E+02 -0.31348787660E+01  0.13763472563E+03  0.12500000000E+03 0.  0.
         25    1    1    2    0    0 -0.28419765293E+03  0.49176217981E+02  0.22621261350E+03  0.38727735907E+03  0.12500000000E+03 0.  0.
         25    1    1    2    0    0  0.28299788683E+03  0.83307450436E+01  0.12755546983E+03  0.33474259237E+03  0.12500000000E+03 0.  0.
</event>
<event>
 5    0  0.5605075E-005  0.4030862E+03  0.7546771E-02  0.1042716E+00
         21   -1    0    0  502  501  0.00000000000E+00  0.00000000000E+00  0.10041110866E+04  0.10041110866E+04  0.00000000000E+00 0. -1.
         21   -1    0    0  501  502 -0.00000000000E+00 -0.00000000000E+00 -0.16181326107E+03  0.16181326107E+03  0.00000000000E+00 0. -1.
         25    1    1    2    0    0  0.32385538688E+02 -0.21698124532E+03  0.45306083233E+03  0.51867022444E+03  0.12500000000E+03 0.  0.
         25    1    1    2    0    0 -0.59624775965E+01  0.93301070780E+02  0.43624070305E+03  0.46332665793E+03  0.12500000000E+03 0.  0.
         25    1    1    2    0    0 -0.26423061092E+02  0.12368017454E+03 -0.47003709890E+02  0.18392746525E+03  0.12500000000E+03 0.  0.
</event>
<event>
 5    0  0.5605075E-005  0.2261861E+03  0.7546771E-02  0.1129353E+00
         21   -1    0    0  502  501  0.00000000000E+00  0.00000000000E+00  0.23056934433E+03  0.23056934433E+03  0.00000000000E+00 0.  1.
         21   -1    0    0  501  502 -0.00000000000E+00 -0.00000000000E+00 -0.22188620611E+03  0.22188620611E+03  0.00000000000E+00 0.  1.
         25    1    1    2    0    0 -0.15358851812E+01 -0.24574716794E+02 -0.83422075989E+01  0.12767485295E+03  0.12500000000E+03 0.  0.
         25    1    1    2    0    0 -0.27938597916E+02 -0.22066220436E+02 -0.84088383828E+02  0.15480096780E+03  0.12500000000E+03 0.  0.
         25    1    1    2    0    0  0.29474483098E+02  0.46640937231E+02  0.10111372965E+03  0.16997972969E+03  0.12500000000E+03 0.  0.
</event>
<event>
 5    0  0.5605075E-005  0.4962926E+03  0.7546771E-02  0.1014751E+00
         21   -1    0    0  502  501  0.00000000000E+00  0.00000000000E+00  0.56115773228E+03  0.56115773228E+03  0.00000000000E+00 0.  1.
         21   -1    0    0  501  502 -0.00000000000E+00 -0.00000000000E+00 -0.43892532957E+03  0.43892532957E+03  0.00000000000E+00 0.  1.
         25    1    1    2    0    0  0.93642527716E+02  0.70395867993E+02 -0.12224170448E+03  0.21045791870E+03  0.12500000000E+03 0.  0.
         25    1    1    2    0    0 -0.17234352684E+03  0.10087493732E+03  0.43447552082E+03  0.49423883135E+03  0.12500000000E+03 0.  0.
         25    1    1    2    0    0  0.78700999127E+02 -0.17127080531E+03 -0.19000141363E+03  0.29538631180E+03  0.12500000000E+03 0.  0.
</event>
<event>
 5    0  0.5605075E-005  0.3869371E+03  0.7546771E-02  0.1048399E+00
         21   -1    0    0  502  501  0.00000000000E+00  0.00000000000E+00  0.79062132730E+03  0.79062132730E+03  0.00000000000E+00 0.  1.
         21   -1    0    0  501  502 -0.00000000000E+00 -0.00000000000E+00 -0.18937043336E+03  0.18937043336E+03  0.00000000000E+00 0.  1.
         25    1    1    2    0    0 -0.68209504020E+02 -0.74409865036E+02  0.44981278473E+01  0.16073144561E+03  0.12500000000E+03 0.  0.
         25    1    1    2    0    0  0.23592161337E+03 -0.10368883408E+03  0.31482440371E+03  0.42561694884E+03  0.12500000000E+03 0.  0.
         25    1    1    2    0    0 -0.16771210935E+03  0.17809869912E+03  0.28192836239E+03  0.39364336622E+03  0.12500000000E+03 0.  0.
</event>
<event>
 5    0  0.5605075E-005  0.3430375E+03  0.7546771E-02  0.1065510E+00
         21   -1    0    0  502  501  0.00000000000E+00  0.00000000000E+00  0.15856889402E+03  0.15856889402E+03  0.00000000000E+00 0.  1.
         21   -1    0    0  501  502 -0.00000000000E+00 -0.00000000000E+00 -0.74210492079E+03  0.74210492079E+03  0.00000000000E+00 0.  1.
         25    1    1    2    0    0  0.75420610984E+02 -0.12907363116E+03 -0.12504127262E+03  0.23153529035E+03  0.12500000000E+03 0.  0.
         25    1    1    2    0    0 -0.14617797843E+03 -0.74606310523E+02 -0.91892570436E+02  0.22583920707E+03  0.12500000000E+03 0.  0.
         25    1    1    2    0    0  0.70757367445E+02  0.20367994168E+03 -0.36660218372E+03  0.44329931739E+03  0.12500000000E+03 0.  0.
</event>
<event>
 5    0  0.5605075E-005  0.3128439E+03  0.7546771E-02  0.1078991E+00
         21   -1    0    0  502  501  0.00000000000E+00  0.00000000000E+00  0.80422323200E+02  0.80422323200E+02  0.00000000000E+00 0. -1.
         21   -1    0    0  501  502 -0.00000000000E+00 -0.00000000000E+00 -0.12169672110E+04  0.12169672110E+04  0.00000000000E+00 0. -1.
         25    1    1    2    0    0 -0.14287532091E+03 -0.47554394933E+02 -0.39568042635E+03  0.44143264220E+03  0.12500000000E+03 0.  0.
         25    1    1    2    0    0  0.33939998857E+02 -0.12118488940E+03 -0.21080619762E+03  0.27550309235E+03  0.12500000000E+03 0.  0.
         25    1    1    2    0    0  0.10893532206E+03  0.16873928434E+03 -0.53005826386E+03  0.58045379967E+03  0.12500000000E+03 0.  0.
</event>
<event>
 5    0  0.5605075E-005  0.2907848E+03  0.7546771E-02  0.1089940E+00
         21   -1    0    0  502  501  0.00000000000E+00  0.00000000000E+00  0.82571450067E+02  0.82571450067E+02  0.00000000000E+00 0.  1.
         21   -1    0    0  501  502 -0.00000000000E+00 -0.00000000000E+00 -0.10240317895E+04  0.10240317895E+04  0.00000000000E+00 0.  1.
         25    1    1    2    0    0 -0.14855285535E+03  0.61540276012E+02 -0.21387684067E+03  0.29533618027E+03  0.12500000000E+03 0.  0.
         25    1    1    2    0    0  0.90953605941E+01 -0.90006805257E+02 -0.21372500793E+03  0.26360449464E+03  0.12500000000E+03 0.  0.
         25    1    1    2    0    0  0.13945749475E+03  0.28466529246E+02 -0.51385849088E+03  0.54766256471E+03  0.12500000000E+03 0.  0.
</event>
<event>
 5    0  0.5605075E-005  0.2704211E+03  0.7546771E-02  0.1101039E+00
         21   -1    0    0  502  501  0.00000000000E+00  0.00000000000E+00  0.11003983024E+03  0.11003983024E+03  0.00000000000E+00 0.  1.
         21   -1    0    0  501  502 -0.00000000000E+00 -0.00000000000E+00 -0.66455537590E+03  0.66455537590E+03  0.00000000000E+00 0.  1.
         25    1    1    2    0    0  0.27541049006E+02 -0.58501234122E+02 -0.20396955392E+03  0.24780936766E+03  0.12500000000E+03 0.  0.
         25    1    1    2    0    0  0.24070944440E+02  0.97754812855E+02 -0.12978529324E+02  0.16102439575E+03  0.12500000000E+03 0.  0.
         25    1    1    2    0    0 -0.51611993446E+02 -0.39253578734E+02 -0.33756746242E+03  0.36576144274E+03  0.12500000000E+03 0.  0.
</event>
<event>
 5    0  0.5605075E-005  0.3039871E+03  0.7546771E-02  0.1083264E+00
         21   -1    0    0  502  501  0.00000000000E+00  0.00000000000E+00  0.19870573287E+03  0.19870573287E+03  0.00000000000E+00 0. -1.
         21   -1    0    0  501  502 -0.00000000000E+00 -0.00000000000E+00 -0.46505028215E+03  0.46505028215E+03  0.00000000000E+00 0. -1.
         25    1    1    2    0    0  0.65972816426E+02 -0.46650578531E+02  0.77374257883E+02  0.16775119900E+03  0.12500000000E+03 0.  0.
         25    1    1    2    0    0 -0.10127387090E+03 -0.62935763694E+02 -0.10229071677E+03  0.20076279042E+03  0.12500000000E+03 0.  0.
         25    1    1    2    0    0  0.35301054471E+02  0.10958634223E+03 -0.24142809039E+03  0.29524202560E+03  0.12500000000E+03 0.  0.
</event>
<event>
 5    0  0.5605075E-005  0.2794395E+03  0.7546771E-02  0.1095995E+00
         21   -1    0    0  502  501  0.00000000000E+00  0.00000000000E+00  0.18410562034E+03  0.18410562034E+03  0.00000000000E+00 0.  1.
         21   -1    0    0  501  502 -0.00000000000E+00 -0.00000000000E+00 -0.42413923285E+03  0.42413923285E+03  0.00000000000E+00 0.  1.
         25    1    1    2    0    0  0.15167386534E+03 -0.65392679138E+02 -0.22570069193E+03  0.30634452215E+03  0.12500000000E+03 0.  0.
         25    1    1    2    0    0 -0.89505657749E+02  0.28095918557E+02 -0.18221221909E+02  0.15734565878E+03  0.12500000000E+03 0.  0.
         25    1    1    2    0    0 -0.62168207595E+02  0.37296760581E+02  0.38883013397E+01  0.14455467226E+03  0.12500000000E+03 0.  0.
</event>
<event>
 5    0  0.5605075E-005  0.2659420E+03  0.7546771E-02  0.1103625E+00
         21   -1    0    0  502  501  0.00000000000E+00  0.00000000000E+00  0.24716012543E+03  0.24716012543E+03  0.00000000000E+00 0.  1.
         21   -1    0    0  501  502 -0.00000000000E+00 -0.00000000000E+00 -0.28615122137E+03  0.28615122137E+03  0.00000000000E+00 0.  1.
         25    1    1    2    0    0  0.14500463404E+03 -0.24239952461E+01 -0.95868318532E+02  0.21412135378E+03  0.12500000000E+03 0.  0.
         25    1    1    2    0    0 -0.35088888581E+02  0.19155577366E+02 -0.23935903051E+02  0.13340200036E+03  0.12500000000E+03 0.  0.
         25    1    1    2    0    0 -0.10991574546E+03 -0.16731582120E+02  0.80813125643E+02  0.18578799266E+03  0.12500000000E+03 0.  0.
</event>
<event>
 5    0  0.5605075E-005  0.2385380E+03  0.7546771E-02  0.1120771E+00
         21   -1    0    0  502  501  0.00000000000E+00  0.00000000000E+00  0.37717957629E+02  0.37717957629E+02  0.00000000000E+00 0. -1.
         21   -1    0    0  501  502 -0.00000000000E+00 -0.00000000000E+00 -0.15085751629E+04  0.15085751629E+04  0.00000000000E+00 0. -1.
         25    1    1    2    0    0  0.15712164327E+02 -0.10431798775E+02 -0.40719177798E+03  0.42636350523E+03  0.12500000000E+03 0.  0.
         25    1    1    2    0    0 -0.12711965716E+03 -0.36390204447E+01 -0.63324350741E+03  0.65787155994E+03  0.12500000000E+03 0.  0.
         25    1    1    2    0    0  0.11140749283E+03  0.14070819220E+02 -0.43042191992E+03  0.46205805540E+03  0.12500000000E+03 0.  0.
</event>
<event>
 5    0  0.5605075E-005  0.2488530E+03  0.7546771E-02  0.1114032E+00
         21   -1    0    0  502  501  0.00000000000E+00  0.00000000000E+00  0.22352422888E+03  0.22352422888E+03  0.00000000000E+00 0.  1.
         21   -1    0    0  501  502 -0.00000000000E+00 -0.00000000000E+00 -0.27705185067E+03  0.27705185067E+03  0.00000000000E+00 0.  1.
         25    1    1    2    0    0  0.13391353770E+03  0.80224599867E+02 -0.39147698211E+02  0.20378018618E+03  0.12500000000E+03 0.  0.
         25    1    1    2    0    0 -0.66067507711E+02 -0.44323003287E+02  0.81243695810E+01  0.14839288924E+03  0.12500000000E+03 0.  0.
         25    1    1    2    0    0 -0.67846029994E+02 -0.35901596580E+02 -0.22504293161E+02  0.14840300413E+03  0.12500000000E+03 0.  0.
</event>
<event>
 5    0  0.5605075E-005  0.3073807E+03  0.7546771E-02  0.1081608E+00
         21   -1    0    0  502  501  0.00000000000E+00  0.00000000000E+00  0.32951068610E+03  0.32951068610E+03  0.00000000000E+00 0.  1.
         21   -1    0    0  501  502 -0.00000000000E+00 -0.00000000000E+00 -0.28673689630E+03  0.28673689630E+03  0.00000000000E+00 0.  1.
         25    1    1    2    0    0 -0.33229695660E+02 -0.92266453089E+02  0.65134656875E+02  0.17171148641E+03  0.12500000000E+03 0.  0.
         25    1    1    2    0    0  0.46797813071E+02  0.10851900050E+03 -0.17548680828E+03  0.24573772332E+03  0.12500000000E+03 0.  0.
         25    1    1    2    0    0 -0.13568117412E+02 -0.16252547415E+02  0.15312594121E+03  0.19879837268E+03  0.12500000000E+03 0.  0.
</event>
<event>
 5    0  0.5605075E-005  0.2702356E+03  0.7546771E-02  0.1101145E+00
         21   -1    0    0  502  501  0.00000000000E+00  0.00000000000E+00  0.27153895764E+03  0.27153895764E+03  0.00000000000E+00 0. -1.
         21   -1    0    0  501  502 -0.00000000000E+00 -0.00000000000E+00 -0.26893853621E+03  0.26893853621E+03  0.00000000000E+00 0. -1.
         25    1    1    2    0    0 -0.60624307087E+02  0.13697394668E+03 -0.92639694539E+02  0.21597287256E+03  0.12500000000E+03 0.  0.
         25    1    1    2    0    0  0.23836647257E+01 -0.15990293644E+02  0.27953333106E+02  0.12910367996E+03  0.12500000000E+03 0.  0.
         25    1    1    2    0    0  0.58240642362E+02 -0.12098365303E+03  0.67286782863E+02  0.19540094133E+03  0.12500000000E+03 0.  0.
</event>
<event>
 5    0  0.5605075E-005  0.3681166E+03  0.7546771E-02  0.1055415E+00
         21   -1    0    0  502  501  0.00000000000E+00  0.00000000000E+00  0.14143935399E+03  0.14143935399E+03  0.00000000000E+00 0.  1.
         21   -1    0    0  501  502 -0.00000000000E+00 -0.00000000000E+00 -0.95807715386E+03  0.95807715386E+03  0.00000000000E+00 0.  1.
         25    1    1    2    0    0 -0.12961083315E+03 -0.15790038597E+03 -0.20058984419E+03  0.31239844038E+03  0.12500000000E+03 0.  0.
         25    1    1    2    0    0  0.72943624416E+02  0.19929277730E+03 -0.59275197935E+03  0.64188651057E+03  0.12500000000E+03 0.  0.
         25    1    1    2    0    0  0.56667208734E+02 -0.41392391332E+02 -0.23295976328E+02  0.14523155690E+03  0.12500000000E+03 0.  0.
</event>
<event>
 5    0  0.5605075E-005  0.3138669E+03  0.7546771E-02  0.1078507E+00
         21   -1    0    0  502  501  0.00000000000E+00  0.00000000000E+00  0.16939816345E+04  0.16939816345E+04  0.00000000000E+00 0. -1.
         21   -1    0    0  501  502 -0.00000000000E+00 -0.00000000000E+00 -0.58154358681E+02  0.58154358681E+02  0.00000000000E+00 0. -1.
         25    1    1    2    0    0 -0.32335690792E+02 -0.60817568605E+02  0.98373565461E+03  0.99403481412E+03  0.12500000000E+03 0.  0.
         25    1    1    2    0    0 -0.61616530879E+02  0.14602873400E+03  0.41590814398E+03  0.46230463145E+03  0.12500000000E+03 0.  0.
         25    1    1    2    0    0  0.93952221671E+02 -0.85211165390E+02  0.23618347728E+03  0.29579654765E+03  0.12500000000E+03 0.  0.
</event>
<event>
 5    0  0.5605075E-005  0.2801534E+03  0.7546771E-02  0.1095605E+00
         21   -1    0    0  502  501  0.00000000000E+00  0.00000000000E+00  0.85557243626E+03  0.85557243626E+03  0.00000000000E+00 0.  1.
         21   -1    0    0  501  502 -0.00000000000E+00 -0.00000000000E+00 -0.91734988391E+02  0.91734988391E+02  0.00000000000E+00 0.  1.
         25    1    1    2    0    0  0.62087051230E+02 -0.50437411436E+02  0.40653486978E+02  0.15387150615E+03  0.12500000000E+03 0.  0.
         25    1    1    2    0    0  0.19607796654E+02 -0.57688686068E+02  0.36491292783E+03  0.39051106910E+03  0.12500000000E+03 0.  0.
         25    1    1    2    0    0 -0.81694847885E+02  0.10812609750E+03  0.35827103306E+03  0.40292484940E+03  0.12500000000E+03 0.  0.
</event>
<event>
 5    0  0.5605075E-005  0.2455336E+03  0.7546771E-02  0.1116160E+00
         21   -1    0    0  502  501  0.00000000000E+00  0.00000000000E+00  0.22207948802E+03  0.22207948802E+03  0.00000000000E+00 0.  1.
         21   -1    0    0  501  502 -0.00000000000E+00 -0.00000000000E+00 -0.27146468119E+03  0.27146468119E+03  0.00000000000E+00 0.  1.
         25    1    1    2    0    0  0.23677555905E+02  0.75888068616E+02  0.47326593948E+02  0.15551344671E+03  0.12500000000E+03 0.  0.
         25    1    1    2    0    0  0.75644330779E+02 -0.38199117590E+02 -0.72793540960E+01  0.15119267958E+03  0.12500000000E+03 0.  0.
         25    1    1    2    0    0 -0.99321886684E+02 -0.37688951026E+02 -0.89432433024E+02  0.18683804292E+03  0.12500000000E+03 0.  0.
</event>
<event>
 5    0  0.5605075E-005  0.2653343E+03  0.7546771E-02  0.1103980E+00
         21   -1    0    0  502  501  0.00000000000E+00  0.00000000000E+00  0.19884212455E+03  0.19884212455E+03  0.00000000000E+00 0.  1.
         21   -1    0    0  501  502 -0.00000000000E+00 -0.00000000000E+00 -0.35406118608E+03  0.35406118608E+03  0.00000000000E+00 0.  1.
         25    1    1    2    0    0  0.66194752853E+02  0.11087226606E+03 -0.12858591912E+03  0.22098358148E+03  0.12500000000E+03 0.  0.
         25    1    1    2    0    0 -0.66955119775E+01  0.25756132471E+02  0.25998243723E+02  0.13041900520E+03  0.12500000000E+03 0.  0.
         25    1    1    2    0    0 -0.59499240875E+02 -0.13662839853E+03 -0.52631386136E+02  0.20150072396E+03  0.12500000000E+03 0.  0.
</event>
<event>
 5    0  0.5605075E-005  0.2697675E+03  0.7546771E-02  0.1101413E+00
         21   -1    0    0  502  501  0.00000000000E+00  0.00000000000E+00  0.23038850385E+03  0.23038850385E+03  0.00000000000E+00 0.  1.
         21   -1    0    0  501  502 -0.00000000000E+00 -0.00000000000E+00 -0.31587743004E+03  0.31587743004E+03  0.00000000000E+00 0.  1.
         25    1    1    2    0    0  0.62607052539E+01  0.54271433543E+02 -0.12509331170E+03  0.18508895581E+03  0.12500000000E+03 0.  0.
         25    1    1    2    0    0 -0.62160717905E+02 -0.73411109750E+02 -0.81354316999E+02  0.17747301423E+03  0.12500000000E+03 0.  0.
         25    1    1    2    0    0  0.55900012651E+02  0.19139676207E+02  0.12095870251E+03  0.18370396385E+03  0.12500000000E+03 0.  0.
</event>
<event>
 5    0  0.5605075E-005  0.2559751E+03  0.7546771E-02  0.1109586E+00
         21   -1    0    0  502  501  0.00000000000E+00  0.00000000000E+00  0.28720208743E+03  0.28720208743E+03  0.00000000000E+00 0.  1.
         21   -1    0    0  501  502 -0.00000000000E+00 -0.00000000000E+00 -0.22814334941E+03  0.22814334941E+03  0.00000000000E+00 0.  1.
         25    1    1    2    0    0  0.92574264113E+02  0.52035714282E+02  0.77631152392E+02  0.18146433743E+03  0.12500000000E+03 0.  0.
         25    1    1    2    0    0 -0.25720256264E+02 -0.10840051044E+03 -0.56443893531E+02  0.17670063770E+03  0.12500000000E+03 0.  0.
         25    1    1    2    0    0 -0.66854007850E+02  0.56364796155E+02  0.37871479160E+02  0.15718046171E+03  0.12500000000E+03 0.  0.
</event>
<event>
 5    0  0.5605075E-005  0.3329837E+03  0.7546771E-02  0.1069824E+00
         21   -1    0    0  502  501  0.00000000000E+00  0.00000000000E+00  0.17147342247E+03  0.17147342247E+03  0.00000000000E+00 0.  1.
         21   -1    0    0  501  502 -0.00000000000E+00 -0.00000000000E+00 -0.64661993902E+03  0.64661993902E+03  0.00000000000E+00 0. -1.
         25    1    1    2    0    0 -0.13325373338E+02  0.14508111712E+03 -0.38348735586E+03  0.42885154567E+03  0.12500000000E+03 0.  0.
         25    1    1    2    0    0 -0.75466033328E+02  0.26259662416E+02 -0.37457390676E+02  0.15301224844E+03  0.12500000000E+03 0.  0.
         25    1    1    2    0    0  0.88791406667E+02 -0.17134077954E+03 -0.54201770011E+02  0.23622956738E+03  0.12500000000E+03 0.  0.
</event>
<event>
 5    0  0.5605075E-005  0.2645237E+03  0.7546771E-02  0.1104455E+00
         21   -1    0    0  502  501  0.00000000000E+00  0.00000000000E+00  0.15035625457E+03  0.15035625457E+03  0.00000000000E+00 0.  1.
         21   -1    0    0  501  502 -0.00000000000E+00 -0.00000000000E+00 -0.46537999610E+03  0.46537999610E+03  0.00000000000E+00 0.  1.
         25    1    1    2    0    0 -0.61384718497E+02 -0.74748985022E+02 -0.24093600554E+02  0.15987806608E+03  0.12500000000E+03 0.  0.
         25    1    1    2    0    0 -0.49498647660E+02 -0.47426640292E+02 -0.98930687810E+02  0.17352718323E+03  0.12500000000E+03 0.  0.
         25    1    1    2    0    0  0.11088336616E+03  0.12217562531E+03 -0.19199945317E+03  0.28233100136E+03  0.12500000000E+03 0.  0.
</event>
<event>
 5    0  0.5605075E-005  0.2489885E+03  0.7546771E-02  0.1113946E+00
         21   -1    0    0  502  501  0.00000000000E+00  0.00000000000E+00  0.19766104981E+03  0.19766104981E+03  0.00000000000E+00 0.  1.
         21   -1    0    0  501  502 -0.00000000000E+00 -0.00000000000E+00 -0.31364443943E+03  0.31364443943E+03  0.00000000000E+00 0.  1.
         25    1    1    2    0    0 -0.55953861358E+01 -0.12117890870E+03 -0.12050070365E+03  0.21180428664E+03  0.12500000000E+03 0.  0.
         25    1    1    2    0    0 -0.10771095083E+02  0.11779608750E+03  0.16159318479E+02  0.17285270693E+03  0.12500000000E+03 0.  0.
         25    1    1    2    0    0  0.16366481218E+02  0.33828212036E+01 -0.11642004454E+02  0.12664849567E+03  0.12500000000E+03 0.  0.
</event>
<event>
 5    0  0.5605075E-005  0.4482614E+03  0.7546771E-02  0.1028242E+00
         21   -1    0    0  502  501  0.00000000000E+00  0.00000000000E+00  0.48773820035E+03  0.48773820035E+03  0.00000000000E+00 0. -1.
         21   -1    0    0  501  502 -0.00000000000E+00 -0.00000000000E+00 -0.41197970900E+03  0.41197970900E+03  0.00000000000E+00 0. -1.
         25    1    1    2    0    0  0.22956369059E+03 -0.35328642394E+02  0.98267180374E+02  0.28147653499E+03  0.12500000000E+03 0.  0.
         25    1    1    2    0    0  0.33577119231E+02  0.13023607153E+02  0.20851586062E+03  0.24576594843E+03  0.12500000000E+03 0.  0.
         25    1    1    2    0    0 -0.26314080982E+03  0.22305035240E+02 -0.23102454964E+03  0.37247542594E+03  0.12500000000E+03 0.  0.
</event>
<event>
 5    0  0.5605075E-005  0.3089381E+03  0.7546771E-02  0.1080856E+00
         21   -1    0    0  502  501  0.00000000000E+00  0.00000000000E+00  0.45404462640E+03  0.45404462640E+03  0.00000000000E+00 0. -1.
         21   -1    0    0  501  502 -0.00000000000E+00 -0.00000000000E+00 -0.21020566059E+03  0.21020566059E+03  0.00000000000E+00 0. -1.
         25    1    1    2    0    0 -0.23297794098E+02 -0.37837096289E+02  0.15018665047E+03  0.20038828071E+03  0.12500000000E+03 0.  0.
         25    1    1    2    0    0  0.16992525732E+03 -0.76262384970E+02  0.84655794214E+02  0.23975434914E+03  0.12500000000E+03 0.  0.
         25    1    1    2    0    0 -0.14662746323E+03  0.11409948126E+03  0.89965211285E+01  0.22410765714E+03  0.12500000000E+03 0.  0.
</event>
<event>
 5    0  0.5605075E-005  0.2098574E+03  0.7546771E-02  0.1141679E+00
         21   -1    0    0  502  501  0.00000000000E+00  0.00000000000E+00  0.60120935477E+03  0.60120935477E+03  0.00000000000E+00 0.  1.
         21   -1    0    0  501  502 -0.00000000000E+00 -0.00000000000E+00 -0.73252558735E+02  0.73252558735E+02  0.00000000000E+00 0.  1.
         25    1    1    2    0    0 -0.50478275834E+02  0.37850180442E+02  0.17449236229E+03  0.22372589700E+03  0.12500000000E+03 0.  0.
         25    1    1    2    0    0  0.53390658083E+02 -0.12556430161E+01  0.11102536960E+03  0.17551003306E+03  0.12500000000E+03 0.  0.
         25    1    1    2    0    0 -0.29123822488E+01 -0.36594537426E+02  0.24243906415E+03  0.27522598345E+03  0.12500000000E+03 0.  0.
</event>
<event>
 5    0  0.5605075E-005  0.2222808E+03  0.7546771E-02  0.1132194E+00
         21   -1    0    0  502  501  0.00000000000E+00  0.00000000000E+00  0.29586728488E+03  0.29586728488E+03  0.00000000000E+00 0.  1.
         21   -1    0    0  501  502 -0.00000000000E+00 -0.00000000000E+00 -0.16699627400E+03  0.16699627400E+03  0.00000000000E+00 0.  1.
         25    1    1    2    0    0  0.65681634810E+01  0.37750379890E+02  0.10327417600E+03  0.16660968574E+03  0.12500000000E+03 0.  0.
         25    1    1    2    0    0 -0.25014270769E+02  0.45602868789E+02 -0.22882448976E+02  0.13730965682E+03  0.12500000000E+03 0.  0.
         25    1    1    2    0    0  0.18446107288E+02 -0.83353248679E+02  0.48479283853E+02  0.15894421632E+03  0.12500000000E+03 0.  0.
</event>
<event>
 5    0  0.5605075E-005  0.3686658E+03  0.7546771E-02  0.1055204E+00
         21   -1    0    0  502  501  0.00000000000E+00  0.00000000000E+00  0.19034158919E+03  0.19034158919E+03  0.00000000000E+00 0.  1.
         21   -1    0    0  501  502 -0.00000000000E+00 -0.00000000000E+00 -0.71405548577E+03  0.71405548577E+03  0.00000000000E+00 0.  1.
         25    1    1    2    0    0 -0.35677977826E+02  0.88534991114E+02 -0.10029705627E+03  0.18653649040E+03  0.12500000000E+03 0.  0.
         25    1    1    2    0    0 -0.22650994331E+03  0.34822357482E+02 -0.15513544538E+03  0.30366323027E+03  0.12500000000E+03 0.  0.
         25    1    1    2    0    0  0.26218792114E+03 -0.12335734860E+03 -0.26828139493E+03  0.41419735430E+03  0.12500000000E+03 0.  0.
</event>
<event>
 5    0  0.5605075E-005  0.2867158E+03  0.7546771E-02  0.1092076E+00
         21   -1    0    0  502  501  0.00000000000E+00  0.00000000000E+00  0.32074520271E+03  0.32074520271E+03  0.00000000000E+00 0. -1.
         21   -1    0    0  501  502 -0.00000000000E+00 -0.00000000000E+00 -0.25629680280E+03  0.25629680280E+03  0.00000000000E+00 0. -1.
         25    1    1    2    0    0  0.91257648470E+02 -0.13097018038E+03  0.11896177825E+03  0.23507031126E+03  0.12500000000E+03 0.  0.
         25    1    1    2    0    0 -0.43198679556E+01  0.83906491443E+02  0.41103817253E+02  0.15612009595E+03  0.12500000000E+03 0.  0.
         25    1    1    2    0    0 -0.86937780514E+02  0.47063688933E+02 -0.95617195596E+02  0.18585159830E+03  0.12500000000E+03 0.  0.
</event>
<event>
 5    0  0.5605075E-005  0.2590894E+03  0.7546771E-02  0.1107692E+00
         21   -1    0    0  502  501  0.00000000000E+00  0.00000000000E+00  0.15952812937E+03  0.15952812937E+03  0.00000000000E+00 0. -1.
         21   -1    0    0  501  502 -0.00000000000E+00 -0.00000000000E+00 -0.42078660340E+03  0.42078660340E+03  0.00000000000E+00 0. -1.
         25    1    1    2    0    0  0.44186054299E+02  0.60027024285E+02 -0.17028246601E+03  0.22400171711E+03  0.12500000000E+03 0.  0.
         25    1    1    2    0    0 -0.60892325684E+02 -0.10635016510E+03  0.27484055319E+02  0.17719651870E+03  0.12500000000E+03 0.  0.
         25    1    1    2    0    0  0.16706271386E+02  0.46323140810E+02 -0.11846006334E+03  0.17911649696E+03  0.12500000000E+03 0.  0.
</event>
<event>
 5    0  0.5605075E-005  0.2269296E+03  0.7546771E-02  0.1128820E+00
         21   -1    0    0  502  501  0.00000000000E+00  0.00000000000E+00  0.88474209563E+03  0.88474209563E+03  0.00000000000E+00 0.  1.
         21   -1    0    0  501  502 -0.00000000000E+00 -0.00000000000E+00 -0.58205723941E+02  0.58205723941E+02  0.00000000000E+00 0.  1.
         25    1    1    2    0    0 -0.11398286582E+02 -0.46353766015E+02  0.31827138148E+03  0.34525391356E+03  0.12500000000E+03 0.  0.
         25    1    1    2    0    0 -0.70499957398E+02  0.53446728859E+02  0.33777652587E+03  0.37087029842E+03  0.12500000000E+03 0.  0.
         25    1    1    2    0    0  0.81898243980E+02 -0.70929628444E+01  0.17048846434E+03  0.22682360760E+03  0.12500000000E+03 0.  0.
</event>
<event>
 5    0  0.5605075E-005  0.3358130E+03  0.7546771E-02  0.1068593E+00
         21   -1    0    0  502  501  0.00000000000E+00  0.00000000000E+00  0.68091957812E+03  0.68091957812E+03  0.00000000000E+00 0. -1.
         21   -1    0    0  501  502 -0.00000000000E+00 -0.00000000000E+00 -0.16561479396E+03  0.16561479396E+03  0.00000000000E+00 0. -1.
         25    1    1    2    0    0  0.12844221327E+03  0.85942755430E+02  0.23287134932E+03  0.30616600839E+03  0.12500000000E+03 0.  0.
         25    1    1    2    0    0 -0.21551467214E+03 -0.13373895219E+03  0.10489042649E+03  0.30159523009E+03  0.12500000000E+03 0.  0.
         25    1    1    2    0    0  0.87072458872E+02  0.47796196762E+02  0.17754300834E+03  0.23877313360E+03  0.12500000000E+03 0.  0.
</event>
<event>
 5    0  0.5605075E-005  0.3383465E+03  0.7546771E-02  0.1067502E+00
         21   -1    0    0  502  501  0.00000000000E+00  0.00000000000E+00  0.16408276947E+03  0.16408276947E+03  0.00000000000E+00 0. -1.
         21   -1    0    0  501  502 -0.00000000000E+00 -0.00000000000E+00 -0.69768680994E+03  0.69768680994E+03  0.00000000000E+00 0. -1.
         25    1    1    2    0    0 -0.65605094275E+02  0.55316747181E+01  0.89289830938E+02  0.16712959561E+03  0.12500000000E+03 0.  0.
         25    1    1    2    0    0  0.76016426101E+02 -0.40830789106E+01 -0.16820266193E+03  0.22296256199E+03  0.12500000000E+03 0.  0.
         25    1    1    2    0    0 -0.10411331826E+02 -0.14485958075E+01 -0.45469120949E+03  0.47167742181E+03  0.12500000000E+03 0.  0.
</event>
<event>
 5    0  0.5605075E-005  0.2686690E+03  0.7546771E-02  0.1102044E+00
         21   -1    0    0  502  501  0.00000000000E+00  0.00000000000E+00  0.10135389721E+03  0.10135389721E+03  0.00000000000E+00 0.  1.
         21   -1    0    0  501  502 -0.00000000000E+00 -0.00000000000E+00 -0.71218778895E+03  0.71218778895E+03  0.00000000000E+00 0.  1.
         25    1    1    2    0    0  0.11114761602E+02  0.29655284774E+02 -0.21366063761E+03  0.24955729182E+03  0.12500000000E+03 0.  0.
         25    1    1    2    0    0  0.10204059873E+03  0.81236484753E+02 -0.10519608464E+03  0.20905230558E+03  0.12500000000E+03 0.  0.
         25    1    1    2    0    0 -0.11315536033E+03 -0.11089176953E+03 -0.29197716950E+03  0.35493208876E+03  0.12500000000E+03 0.  0.
</event>
<event>
 5    0  0.5605075E-005  0.3468512E+03  0.7546771E-02  0.1063915E+00
         21   -1    0    0  502  501  0.00000000000E+00  0.00000000000E+00  0.88987808893E+02  0.88987808893E+02  0.00000000000E+00 0. -1.
         21   -1    0    0  501  502 -0.00000000000E+00 -0.00000000000E+00 -0.13519350199E+04  0.13519350199E+04  0.00000000000E+00 0. -1.
         25    1    1    2    0    0 -0.62341546884E+01  0.19356443174E+03 -0.51759739243E+03  0.56660225429E+03  0.12500000000E+03 0.  0.
         25    1    1    2    0    0  0.63738599069E+01  0.65848784367E+02 -0.40228676366E+03  0.42642271130E+03  0.12500000000E+03 0.  0.
         25    1    1    2    0    0 -0.13970521846E+00 -0.25941321610E+03 -0.34306305488E+03  0.44789786317E+03  0.12500000000E+03 0.  0.
</event>
<event>
 5    0  0.5605075E-005  0.3814106E+03  0.7546771E-02  0.1050414E+00
         21   -1    0    0  502  501  0.00000000000E+00  0.00000000000E+00  0.29637785444E+03  0.29637785444E+03  0.00000000000E+00 0. -1.
         21   -1    0    0  501  502 -0.00000000000E+00 -0.00000000000E+00 -0.49083967377E+03  0.49083967377E+03  0.00000000000E+00 0. -1.
         25    1    1    2    0    0 -0.10661574334E+02 -0.97723762250E+02 -0.21695001848E+03  0.26899054518E+03  0.12500000000E+03 0.  0.
         25    1    1    2    0    0  0.57877642992E+02 -0.15986691246E+03  0.73762709169E+02  0.22354683742E+03  0.12500000000E+03 0.  0.
         25    1    1    2    0    0 -0.47216068659E+02  0.25759067471E+03 -0.51274510018E+02  0.29468014561E+03  0.12500000000E+03 0.  0.
</event>
<event>
 5    0  0.5605075E-005  0.5652759E+03  0.7546771E-02  0.9980187E-01
         21   -1    0    0  502  501  0.00000000000E+00  0.00000000000E+00  0.46672013584E+03  0.46672013584E+03  0.00000000000E+00 0. -1.
         21   -1    0    0  501  502 -0.00000000000E+00 -0.00000000000E+00 -0.68464344657E+03  0.68464344657E+03  0.00000000000E+00 0. -1.
         25    1    1    2    0    0  0.38219626511E+03 -0.13614716195E+03 -0.27145255465E+03  0.50390626529E+03  0.12500000000E+03 0.  0.
         25    1    1    2    0    0 -0.44282005898E+03  0.96451644000E+02  0.12471755140E+03  0.48638666911E+03  0.12500000000E+03 0.  0.
         25    1    1    2    0    0  0.60623793865E+02  0.39695517952E+02 -0.71188307484E+02  0.16107064801E+03  0.12500000000E+03 0.  0.
</event>
<event>
 5    0  0.5605075E-005  0.3721332E+03  0.7546771E-02  0.1053880E+00
         21   -1    0    0  502  501  0.00000000000E+00  0.00000000000E+00  0.10020285499E+03  0.10020285499E+03  0.00000000000E+00 0.  1.
         21   -1    0    0  501  502 -0.00000000000E+00 -0.00000000000E+00 -0.13820274888E+04  0.13820274888E+04  0.00000000000E+00 0.  1.
         25    1    1    2    0    0 -0.15174413981E+03 -0.34054767227E+02 -0.95703277536E+02  0.22129195301E+03  0.12500000000E+03 0.  0.
         25    1    1    2    0    0 -0.21420147008E+02 -0.69727071676E+02 -0.75505748350E+03  0.76880263437E+03  0.12500000000E+03 0.  0.
         25    1    1    2    0    0  0.17316428681E+03  0.10378183890E+03 -0.43106387275E+03  0.49213575637E+03  0.12500000000E+03 0.  0.
</event>
<event>
 5    0  0.5605075E-005  0.3292087E+03  0.7546771E-02  0.1071488E+00
         21   -1    0    0  502  501  0.00000000000E+00  0.00000000000E+00  0.23771080577E+03  0.23771080577E+03  0.00000000000E+00 0. -1.
         21   -1    0    0  501  502 -0.00000000000E+00 -0.00000000000E+00 -0.45592516370E+03  0.45592516370E+03  0.00000000000E+00 0. -1.
         25    1    1    2    0    0  0.18022524995E+01 -0.69059520619E+02 -0.83655019961E+02  0.16551624653E+03  0.12500000000E+03 0.  0.
         25    1    1    2    0    0  0.88938738626E+02 -0.38460303458E+02  0.12911551156E+03  0.20416931576E+03  0.12500000000E+03 0.  0.
         25    1    1    2    0    0 -0.90740991125E+02  0.10751982408E+03 -0.26367484953E+03  0.32395040718E+03  0.12500000000E+03 0.  0.
</event>
<event>
 5    0  0.5605075E-005  0.4764592E+03  0.7546771E-02  0.1020113E+00
         21   -1    0    0  502  501  0.00000000000E+00  0.00000000000E+00  0.14408175699E+04  0.14408175699E+04  0.00000000000E+00 0. -1.
         21   -1    0    0  501  502 -0.00000000000E+00 -0.00000000000E+00 -0.15755872105E+03  0.15755872105E+03  0.00000000000E+00 0. -1.
         25    1    1    2    0    0 -0.10659476797E+03 -0.19498606016E+03  0.31511507672E+03  0.40534493927E+03  0.12500000000E+03 0.  0.
         25    1    1    2    0    0 -0.13274941825E+02  0.32074394379E+03  0.90733135018E+03  0.97052979376E+03  0.12500000000E+03 0.  0.
         25    1    1    2    0    0  0.11986970980E+03 -0.12575788363E+03  0.60812421989E+02  0.22250155795E+03  0.12500000000E+03 0.  0.
</event>
<event>
 5    0  0.5605075E-005  0.2356812E+03  0.7546771E-02  0.1122704E+00
         21   -1    0    0  502  501  0.00000000000E+00  0.00000000000E+00  0.23686181539E+03  0.23686181539E+03  0.00000000000E+00 0.  1.
         21   -1    0    0  501  502 -0.00000000000E+00 -0.00000000000E+00 -0.23450641790E+03  0.23450641790E+03  0.00000000000E+00 0.  1.
         25    1    1    2    0    0  0.68517119672E+02  0.10199315880E+03  0.19167608733E+02  0.17632242442E+03  0.12500000000E+03 0.  0.
         25    1    1    2    0    0 -0.76550309023E+02 -0.37644477624E+02  0.10124779902E+02  0.15167256731E+03  0.12500000000E+03 0.  0.
         25    1    1    2    0    0  0.80331893511E+01 -0.64348681172E+02 -0.26936991144E+02  0.14337324155E+03  0.12500000000E+03 0.  0.
</event>
<event>
 5    0  0.5605075E-005  0.3878785E+03  0.7546771E-02  0.1048060E+00
         21   -1    0    0  502  501  0.00000000000E+00  0.00000000000E+00  0.16429907804E+04  0.16429907804E+04  0.00000000000E+00 0.  1.
         21   -1    0    0  501  502 -0.00000000000E+00 -0.00000000000E+00 -0.91570629885E+02  0.91570629885E+02  0.00000000000E+00 0.  1.
         25    1    1    2    0    0  0.22057985086E+02  0.21678885397E+03  0.59127553104E+03  0.64242954129E+03  0.12500000000E+03 0.  0.
         25    1    1    2    0    0  0.35501859487E+02 -0.31404583309E+03  0.52404500215E+03  0.62460654142E+03  0.12500000000E+03 0.  0.
         25    1    1    2    0    0 -0.57559844574E+02  0.97256979113E+02  0.43609961729E+03  0.46752532755E+03  0.12500000000E+03 0.  0.
</event>
<event>
 5    0  0.5605075E-005  0.4178599E+03  0.7546771E-02  0.1037765E+00
         21   -1    0    0  502  501  0.00000000000E+00  0.00000000000E+00  0.20186553802E+03  0.20186553802E+03  0.00000000000E+00 0. -1.
         21   -1    0    0  501  502 -0.00000000000E+00 -0.00000000000E+00 -0.86496638825E+03  0.86496638825E+03  0.00000000000E+00 0. -1.
         25    1    1    2    0    0  0.15153248549E+02  0.17132497526E+03 -0.32228596814E+03  0.38610246484E+03  0.12500000000E+03 0.  0.
         25    1    1    2    0    0 -0.15719860029E+03 -0.45420482668E+02  0.64726677860E+02  0.21584476599E+03  0.12500000000E+03 0.  0.
         25    1    1    2    0    0  0.14204535174E+03 -0.12590449259E+03 -0.40554155995E+03  0.46488469543E+03  0.12500000000E+03 0.  0.
</event>
<event>
 5    0  0.5605075E-005  0.4105452E+03  0.7546771E-02  0.1040188E+00
         21   -1    0    0  502  501  0.00000000000E+00  0.00000000000E+00  0.40047216450E+03  0.40047216450E+03  0.00000000000E+00 0.  1.
         21   -1    0    0  501  502 -0.00000000000E+00 -0.00000000000E+00 -0.42087161695E+03  0.42087161695E+03  0.00000000000E+00 0.  1.
         25    1    1    2    0    0 -0.24873921076E+02  0.11751780100E+03  0.18631209067E+03  0.25449231940E+03  0.12500000000E+03 0.  0.
         25    1    1    2    0    0 -0.17056865051E+03  0.37869887703E+02  0.74356266396E+01  0.21496065099E+03  0.12500000000E+03 0.  0.
         25    1    1    2    0    0  0.19544257159E+03 -0.15538768870E+03 -0.21414716976E+03  0.35189081106E+03  0.12500000000E+03 0.  0.
</event>
<event>
 5    0  0.5605075E-005  0.6050097E+03  0.7546771E-02  0.9895067E-01
         21   -1    0    0  502  501  0.00000000000E+00  0.00000000000E+00  0.53033620817E+03  0.53033620817E+03  0.00000000000E+00 0.  1.
         21   -1    0    0  501  502 -0.00000000000E+00 -0.00000000000E+00 -0.69019741886E+03  0.69019741886E+03  0.00000000000E+00 0.  1.
         25    1    1    2    0    0  0.16431358742E+03  0.16664182599E+03  0.13057661293E+02  0.26563876919E+03  0.12500000000E+03 0.  0.
         25    1    1    2    0    0  0.82240972166E+02  0.31176913801E+03  0.67468546961E+02  0.35233588768E+03  0.12500000000E+03 0.  0.
         25    1    1    2    0    0 -0.24655455958E+03 -0.47841096400E+03 -0.24038741895E+03  0.60255897016E+03  0.12500000000E+03 0.  0.
</event>
<event>
 5    0  0.5605075E-005  0.2965286E+03  0.7546771E-02  0.1086989E+00
         21   -1    0    0  502  501  0.00000000000E+00  0.00000000000E+00  0.27251802277E+03  0.27251802277E+03  0.00000000000E+00 0.  1.
         21   -1    0    0  501  502 -0.00000000000E+00 -0.00000000000E+00 -0.32265476693E+03  0.32265476693E+03  0.00000000000E+00 0.  1.
         25    1    1    2    0    0  0.18298895457E+02  0.14602340974E+03 -0.55801432747E+02  0.20098876999E+03  0.12500000000E+03 0.  0.
         25    1    1    2    0    0 -0.69128979380E+02  0.21287411612E+02  0.82013093557E+02  0.16608165822E+03  0.12500000000E+03 0.  0.
         25    1    1    2    0    0  0.50830083924E+02 -0.16731082135E+03 -0.76348404963E+02  0.22810236148E+03  0.12500000000E+03 0.  0.
</event>
<event>
 5    0  0.5605075E-005  0.2582079E+03  0.7546771E-02  0.1108225E+00
         21   -1    0    0  502  501  0.00000000000E+00  0.00000000000E+00  0.18463348056E+03  0.18463348056E+03  0.00000000000E+00 0. -1.
         21   -1    0    0  501  502 -0.00000000000E+00 -0.00000000000E+00 -0.36110090286E+03  0.36110090286E+03  0.00000000000E+00 0. -1.
         25    1    1    2    0    0  0.28690474519E+02 -0.51251520166E+02 -0.23571016190E+03  0.27319250003E+03  0.12500000000E+03 0.  0.
         25    1    1    2    0    0 -0.11237747749E+02  0.60400599418E+02  0.36306565121E+02  0.14393639587E+03  0.12500000000E+03 0.  0.
         25    1    1    2    0    0 -0.17452726770E+02 -0.91490792515E+01  0.22936174482E+02  0.12860548753E+03  0.12500000000E+03 0.  0.
</event>
<event>
 5    0  0.5605075E-005  0.3686129E+03  0.7546771E-02  0.1055225E+00
         21   -1    0    0  502  501  0.00000000000E+00  0.00000000000E+00  0.22657143183E+03  0.22657143183E+03  0.00000000000E+00 0. -1.
         21   -1    0    0  501  502 -0.00000000000E+00 -0.00000000000E+00 -0.59970241262E+03  0.59970241262E+03  0.00000000000E+00 0. -1.
         25    1    1    2    0    0 -0.37777927089E+02 -0.27222229253E+03 -0.29330603196E+03  0.42093417147E+03  0.12500000000E+03 0.  0.
         25    1    1    2    0    0  0.24938881883E+02  0.19141415348E+03 -0.10674323481E+03  0.25353588338E+03  0.12500000000E+03 0.  0.
         25    1    1    2    0    0  0.12839045206E+02  0.80808139053E+02  0.26918285983E+02  0.15180378961E+03  0.12500000000E+03 0.  0.
</event>
<event>
 5    0  0.5605075E-005  0.3790610E+03  0.7546771E-02  0.1051281E+00
         21   -1    0    0  502  501  0.00000000000E+00  0.00000000000E+00  0.20477175785E+04  0.20477175785E+04  0.00000000000E+00 0.  1.
         21   -1    0    0  501  502 -0.00000000000E+00 -0.00000000000E+00 -0.70169448460E+02  0.70169448460E+02  0.00000000000E+00 0.  1.
         25    1    1    2    0    0 -0.40044949403E+02  0.26157556901E+03  0.94492273586E+03  0.98920642589E+03  0.12500000000E+03 0.  0.
         25    1    1    2    0    0 -0.16211202689E+02 -0.29791365543E+02  0.11791081102E+03  0.17515218500E+03  0.12500000000E+03 0.  0.
         25    1    1    2    0    0  0.56256152093E+02 -0.23178420346E+03  0.91471458319E+03  0.95352841610E+03  0.12500000000E+03 0.  0.
</event>
<event>
 5    0  0.5605075E-005  0.4768432E+03  0.7546771E-02  0.1020006E+00
         21   -1    0    0  502  501  0.00000000000E+00  0.00000000000E+00  0.15234763719E+04  0.15234763719E+04  0.00000000000E+00 0.  1.
         21   -1    0    0  501  502 -0.00000000000E+00 -0.00000000000E+00 -0.14925036629E+03  0.14925036629E+03  0.00000000000E+00 0.  1.
         25    1    1    2    0    0  0.47479417016E+02  0.10106797812E+03  0.56980664120E+03  0.59394750576E+03  0.12500000000E+03 0.  0.
         25    1    1    2    0    0 -0.34343984924E+02  0.19823550389E+03  0.69810225483E+03  0.73718965166E+03  0.12500000000E+03 0.  0.
         25    1    1    2    0    0 -0.13135432092E+02 -0.29930348201E+03  0.10631710959E+03  0.34158958080E+03  0.12500000000E+03 0.  0.
</event>
<event>
 5    0  0.5605075E-005  0.4785739E+03  0.7546771E-02  0.1019528E+00
         21   -1    0    0  502  501  0.00000000000E+00  0.00000000000E+00  0.18507505312E+03  0.18507505312E+03  0.00000000000E+00 0. -1.
         21   -1    0    0  501  502 -0.00000000000E+00 -0.00000000000E+00 -0.12375139859E+04  0.12375139859E+04  0.00000000000E+00 0. -1.
         25    1    1    2    0    0  0.17692846379E+02 -0.16622382626E+02 -0.34581515199E+02  0.13194779881E+03  0.12500000000E+03 0.  0.
         25    1    1    2    0    0 -0.14043461940E+03  0.33930171553E+03 -0.72001494889E+03  0.81785943970E+03  0.12500000000E+03 0.  0.
         25    1    1    2    0    0  0.12274177303E+03 -0.32267933290E+03 -0.29784246867E+03  0.47278180049E+03  0.12500000000E+03 0.  0.
</event>
<event>
 5    0  0.5605075E-005  0.2895150E+03  0.7546771E-02  0.1090603E+00
         21   -1    0    0  502  501  0.00000000000E+00  0.00000000000E+00  0.22494270673E+03  0.22494270673E+03  0.00000000000E+00 0. -1.
         21   -1    0    0  501  502 -0.00000000000E+00 -0.00000000000E+00 -0.37262340725E+03  0.37262340725E+03  0.00000000000E+00 0. -1.
         25    1    1    2    0    0  0.16040123101E+03 -0.12011994340E+03 -0.38244022201E+02  0.23925919198E+03  0.12500000000E+03 0.  0.
         25    1    1    2    0    0 -0.94832752158E+02  0.26586659860E+02 -0.47106058633E+01  0.15920832633E+03  0.12500000000E+03 0.  0.
         25    1    1    2    0    0 -0.65568478849E+02  0.93533283544E+02 -0.10472607245E+03  0.19909859568E+03  0.12500000000E+03 0.  0.
</event>
<event>
 5    0  0.5605075E-005  0.4683108E+03  0.7546771E-02  0.1022398E+00
         21   -1    0    0  502  501  0.00000000000E+00  0.00000000000E+00  0.45880696481E+03  0.45880696481E+03  0.00000000000E+00 0.  1.
         21   -1    0    0  501  502 -0.00000000000E+00 -0.00000000000E+00 -0.47801151019E+03  0.47801151019E+03  0.00000000000E+00 0.  1.
         25    1    1    2    0    0 -0.97715612165E+02 -0.22609247834E+03 -0.26053312351E+03  0.37969548071E+03  0.12500000000E+03 0.  0.
         25    1    1    2    0    0  0.63785616558E+02  0.30832911042E+03  0.21561163472E+03  0.40155799362E+03  0.12500000000E+03 0.  0.
         25    1    1    2    0    0  0.33929995607E+02 -0.82236632074E+02  0.25716943404E+02  0.15556500067E+03  0.12500000000E+03 0.  0.
</event>
<event>
 5    0  0.5605075E-005  0.2706732E+03  0.7546771E-02  0.1100895E+00
         21   -1    0    0  502  501  0.00000000000E+00  0.00000000000E+00  0.54397070668E+02  0.54397070668E+02  0.00000000000E+00 0.  1.
         21   -1    0    0  501  502 -0.00000000000E+00 -0.00000000000E+00 -0.13468370834E+04  0.13468370834E+04  0.00000000000E+00 0.  1.
         25    1    1    2    0    0  0.38016047316E+02  0.16303661583E+03 -0.41883566621E+03  0.46805392130E+03  0.12500000000E+03 0.  0.
         25    1    1    2    0    0  0.28883448462E+02 -0.26114344904E+02 -0.33979511802E+03  0.36414548581E+03  0.12500000000E+03 0.  0.
         25    1    1    2    0    0 -0.66899495777E+02 -0.13692227093E+03 -0.53380922850E+03  0.56903474696E+03  0.12500000000E+03 0.  0.
</event>
<event>
 5    0  0.5605075E-005  0.1923223E+03  0.7546771E-02  0.1156383E+00
         21   -1    0    0  502  501  0.00000000000E+00  0.00000000000E+00  0.12876867165E+03  0.12876867165E+03  0.00000000000E+00 0. -1.
         21   -1    0    0  501  502 -0.00000000000E+00 -0.00000000000E+00 -0.28724286278E+03  0.28724286278E+03  0.00000000000E+00 0. -1.
         25    1    1    2    0    0  0.10014053472E+02 -0.66316128701E+01 -0.42084340545E+02  0.13243999122E+03  0.12500000000E+03 0.  0.
         25    1    1    2    0    0 -0.63325537481E+01 -0.14182222803E+02 -0.88002565210E+02  0.15365769803E+03  0.12500000000E+03 0.  0.
         25    1    1    2    0    0 -0.36814997242E+01  0.20813835673E+02 -0.28387285373E+02  0.12991384517E+03  0.12500000000E+03 0.  0.
</event>
<event>
 5    0  0.5605075E-005  0.2802559E+03  0.7546771E-02  0.1095549E+00
         21   -1    0    0  502  501  0.00000000000E+00  0.00000000000E+00  0.33975952742E+03  0.33975952742E+03  0.00000000000E+00 0.  1.
         21   -1    0    0  501  502 -0.00000000000E+00 -0.00000000000E+00 -0.23117336368E+03  0.23117336368E+03  0.00000000000E+00 0.  1.
         25    1    1    2    0    0  0.57126275962E+02 -0.16614158548E+02  0.19522174042E+03  0.23932398460E+03  0.12500000000E+03 0.  0.
         25    1    1    2    0    0 -0.14537485332E+02 -0.32275204885E+02 -0.13047784154E+03  0.18412630030E+03  0.12500000000E+03 0.  0.
         25    1    1    2    0    0 -0.42588790630E+02  0.48889363433E+02  0.43842264850E+02  0.14748260620E+03  0.12500000000E+03 0.  0.
</event>
<event>
 5    0  0.5605075E-005  0.2621917E+03  0.7546771E-02  0.1105834E+00
         21   -1    0    0  502  501  0.00000000000E+00  0.00000000000E+00  0.61844774755E+03  0.61844774755E+03  0.00000000000E+00 0. -1.
         21   -1    0    0  501  502 -0.00000000000E+00 -0.00000000000E+00 -0.11115649538E+03  0.11115649538E+03  0.00000000000E+00 0. -1.
         25    1    1    2    0    0 -0.31295264047E+01 -0.71381435045E+02  0.43815118069E+02  0.15049873015E+03  0.12500000000E+03 0.  0.
         25    1    1    2    0    0 -0.44386154958E+02 -0.57255514325E+02  0.29499412321E+03  0.32847352618E+03  0.12500000000E+03 0.  0.
         25    1    1    2    0    0  0.47515681362E+02  0.12863694937E+03  0.16848201089E+03  0.25063198661E+03  0.12500000000E+03 0.  0.
</event>
<event>
 5    0  0.5605075E-005  0.2830430E+03  0.7546771E-02  0.1094038E+00
         21   -1    0    0  502  501  0.00000000000E+00  0.00000000000E+00  0.50777801297E+02  0.50777801297E+02  0.00000000000E+00 0. -1.
         21   -1    0    0  501  502 -0.00000000000E+00 -0.00000000000E+00 -0.15777236493E+04  0.15777236493E+04  0.00000000000E+00 0. -1.
         25    1    1    2    0    0  0.13902050816E+02  0.34278507630E+01 -0.28123048295E+03  0.30809187220E+03  0.12500000000E+03 0.  0.
         25    1    1    2    0    0 -0.80471516442E+02 -0.64971990502E+02 -0.17507386310E+03  0.23868992867E+03  0.12500000000E+03 0.  0.
         25    1    1    2    0    0  0.66569465626E+02  0.61544139739E+02 -0.10706415020E+04  0.10817196497E+04  0.12500000000E+03 0.  0.
</event>
<event>
 5    0  0.5605075E-005  0.5098791E+03  0.7546771E-02  0.1011232E+00
         21   -1    0    0  502  501  0.00000000000E+00  0.00000000000E+00  0.56956545895E+03  0.56956545895E+03  0.00000000000E+00 0.  1.
         21   -1    0    0  501  502 -0.00000000000E+00 -0.00000000000E+00 -0.45644735521E+03  0.45644735521E+03  0.00000000000E+00 0.  1.
         25    1    1    2    0    0 -0.87774056476E+02  0.24439909879E+03  0.26870324432E+03  0.39403253417E+03  0.12500000000E+03 0.  0.
         25    1    1    2    0    0  0.39218801242E+02 -0.85075753588E+02 -0.32691165025E+03  0.36231509117E+03  0.12500000000E+03 0.  0.
         25    1    1    2    0    0  0.48555255234E+02 -0.15932334520E+03  0.17132650968E+03  0.26966518881E+03  0.12500000000E+03 0.  0.
</event>
