<event>
 6    0  0.8641190E+002  0.8319386E+02  0.7546771E-02  0.1320225E+00
         21   -1    0    0  503  501  0.00000000000E+00  0.00000000000E+00  0.15456537647E+04  0.15456537647E+04  0.00000000000E+00 0. -1.
         21   -1    0    0  506  502 -0.00000000000E+00 -0.00000000000E+00 -0.32843093449E+02  0.32843093449E+02  0.00000000000E+00 0. -1.
         21    1    1    2  503  505 -0.40256255059E+02  0.11828504872E+03  0.44584871058E+03  0.46302590807E+03  0.00000000000E+00 0. -1.
         21    1    1    2  504  501  0.63360842731E+02 -0.45820483289E+02  0.85777355398E+03  0.86133012428E+03  0.00000000000E+00 0. -1.
         21    1    1    2  505  502 -0.49513165980E+02 -0.72444826530E+01  0.16166340421E+03  0.16923088487E+03  0.00000000000E+00 0. -1.
         21    1    1    2  506  504  0.26408578307E+02 -0.65220082773E+02  0.47525002453E+02  0.84909940898E+02  0.00000000000E+00 0. -1.
<scales pt_clust_3="83.19386" pt_clust_4="14000.00000" pt_clust_5="50.04035" pt_clust_6="70.09160"></scales>
<clustering>
<clus scale="   50.040">  2  5  1 -1</clus>
<clus scale="   70.092">  2  6  1 -1</clus>
<clus scale="   83.194">  2  3  1 -1</clus>
<clus scale="   83.194">  1  3  2 -1</clus>
</clustering>
</event>
<event>
 6    0  0.8641190E+002  0.1340541E+03  0.7546771E-02  0.1221561E+00
         21   -1    0    0  505  501  0.00000000000E+00  0.00000000000E+00  0.21962292007E+03  0.21962292007E+03  0.00000000000E+00 0.  1.
         21   -1    0    0  504  502 -0.00000000000E+00 -0.00000000000E+00 -0.73348293362E+03  0.73348293362E+03  0.00000000000E+00 0. -1.
         21    1    1    2  503  501 -0.10617409404E+03  0.76492515081E+02 -0.50589279609E+02  0.14029724987E+03  0.00000000000E+00 0.  1.
         21    1    1    2  504  503 -0.99601462904E+01 -0.31915278957E+02 -0.57982912885E+03  0.58079222465E+03  0.00000000000E+00 0. -1.
         21    1    1    2  505  506 -0.21187032639E+02  0.24775315778E+02  0.59670384641E+02  0.67994569100E+02  0.00000000000E+00 0.  1.
         21    1    1    2  506  502  0.13732127297E+03 -0.69352551902E+02  0.56888010279E+02  0.16402181007E+03  0.00000000000E+00 0.  1.
<scales pt_clust_3="134.05415" pt_clust_4="33.37988" pt_clust_5="32.59918" pt_clust_6="14000.00000"></scales>
<clustering>
<clus scale="   32.599">  1  5  2 -1</clus>
<clus scale="   33.380">  2  4  1 -1</clus>
<clus scale="  134.054">  2  3  1 -1</clus>
<clus scale="   32.599">  1  3  2 -1</clus>
</clustering>
</event>
<event>
 6    0  0.8641190E+002  0.8961233E+02  0.7546771E-02  0.1303793E+00
         21   -1    0    0  506  501  0.00000000000E+00  0.00000000000E+00  0.90228816443E+03  0.90228816443E+03  0.00000000000E+00 0.  1.
         21   -1    0    0  503  502 -0.00000000000E+00 -0.00000000000E+00 -0.13130165320E+03  0.13130165320E+03  0.00000000000E+00 0. -1.
         21    1    1    2  503  505  0.84985902232E+01  0.50761930570E+02  0.40867828390E+02  0.65720461261E+02  0.00000000000E+00 0.  1.
         21    1    1    2  504  502 -0.97615488226E+02 -0.64197912722E+02 -0.70392618818E+02  0.13640115954E+03  0.00000000000E+00 0. -1.
         21    1    1    2  505  501  0.34005697831E+02  0.13681836980E+02  0.76506269128E+03  0.76594027296E+03  0.00000000000E+00 0.  1.
         21    1    1    2  506  504  0.55111200171E+02 -0.24585482765E+00  0.35448610378E+02  0.65527923869E+02  0.00000000000E+00 0. -1.
<scales pt_clust_3="60.16096" pt_clust_4="89.61233" pt_clust_5="36.65488" pt_clust_6="14000.00000"></scales>
<clustering>
<clus scale="   36.655">  1  5  2 -1</clus>
<clus scale="   60.161">  1  3  2 -1</clus>
<clus scale="   89.612">  2  4  1 -1</clus>
<clus scale="   36.655">  1  3  2 -1</clus>
</clustering>
</event>
<event>
 6    0  0.8641190E+002  0.1644741E+03  0.7546771E-02  0.1183736E+00
         21   -1    0    0  506  501  0.00000000000E+00  0.00000000000E+00  0.18814576547E+03  0.18814576547E+03  0.00000000000E+00 0.  1.
         21   -1    0    0  505  502 -0.00000000000E+00 -0.00000000000E+00 -0.19240881648E+03  0.19240881648E+03  0.00000000000E+00 0.  1.
         21    1    1    2  503  502 -0.74254516006E+02  0.17552781029E+02 -0.46863911169E+02  0.89543617523E+02  0.00000000000E+00 0.  1.
         21    1    1    2  504  501  0.13538385407E+02  0.28324706397E+02  0.39907030093E+02  0.50775465756E+02  0.00000000000E+00 0.  1.
         21    1    1    2  505  504  0.13578832506E+03 -0.80142249586E+02  0.33715460278E+01  0.15771054725E+03  0.00000000000E+00 0.  1.
         21    1    1    2  506  503 -0.75072194466E+02  0.34264762160E+02 -0.67771596042E+00  0.82524951419E+02  0.00000000000E+00 0.  1.
<scales pt_clust_3="46.39523" pt_clust_4="31.39390" pt_clust_5="157.12369" pt_clust_6="46.39523"></scales>
<clustering>
<clus scale="   31.394">  1  4  2 -1</clus>
<clus scale="   46.395">  3  6 -1 -1</clus>
<clus scale="  157.124">  1  5  2 -1</clus>
<clus scale="   31.394">  1  3  2 -1</clus>
</clustering>
</event>
<event>
 6    0  0.8641190E+002  0.1358029E+03  0.7546771E-02  0.1219091E+00
         21   -1    0    0  503  501  0.00000000000E+00  0.00000000000E+00  0.25606305223E+03  0.25606305223E+03  0.00000000000E+00 0. -1.
         21   -1    0    0  504  502 -0.00000000000E+00 -0.00000000000E+00 -0.74894833397E+03  0.74894833397E+03  0.00000000000E+00 0. -1.
         21    1    1    2  503  505 -0.23107950101E+02  0.76406025305E+02 -0.69800767574E+02  0.10603775372E+03  0.00000000000E+00 0.  1.
         21    1    1    2  504  506  0.14005794969E+03 -0.41351862545E+02 -0.53647932873E+03  0.55600024816E+03  0.00000000000E+00 0. -1.
         21    1    1    2  505  502  0.18212966146E+02 -0.45094512570E+02 -0.87808927021E+02  0.10037746193E+03  0.00000000000E+00 0.  1.
         21    1    1    2  506  501 -0.13516296573E+03  0.10040349810E+02  0.20120374158E+03  0.24259592239E+03  0.00000000000E+00 0. -1.
<scales pt_clust_3="73.32337" pt_clust_4="14000.00000" pt_clust_5="48.63360" pt_clust_6="135.80292"></scales>
<clustering>
<clus scale="   48.634">  2  5  1 -1</clus>
<clus scale="   73.323">  2  3  1 -1</clus>
<clus scale="  135.803">  1  6  2 -1</clus>
<clus scale="  135.803">  1  3  2 -1</clus>
</clustering>
</event>
<event>
 6    0  0.8641190E+002  0.1634312E+03  0.7546771E-02  0.1184877E+00
         21   -1    0    0  504  501  0.00000000000E+00  0.00000000000E+00  0.85514360845E+03  0.85514360845E+03  0.00000000000E+00 0. -1.
         21   -1    0    0  506  502 -0.00000000000E+00 -0.00000000000E+00 -0.16787728477E+03  0.16787728477E+03  0.00000000000E+00 0. -1.
         21    1    1    2  503  502  0.26922534142E+02  0.32058772319E+02 -0.70375996828E+02  0.81886315443E+02  0.00000000000E+00 0. -1.
         21    1    1    2  504  503  0.74349087485E+02  0.83476358628E+02 -0.42689936067E+02  0.11966001797E+03  0.00000000000E+00 0. -1.
         21    1    1    2  505  501 -0.53132165766E+01 -0.43128980860E+02  0.42839934891E+03  0.43059765607E+03  0.00000000000E+00 0. -1.
         21    1    1    2  506  505 -0.95958405051E+02 -0.72406150087E+02  0.37193290767E+03  0.39087690374E+03  0.00000000000E+00 0. -1.
<scales pt_clust_3="39.81399" pt_clust_4="39.81399" pt_clust_5="43.45503" pt_clust_6="149.92344"></scales>
<clustering>
<clus scale="   39.814">  3  4 -1 -1</clus>
<clus scale="   43.455">  1  5  2 -1</clus>
<clus scale="  149.923">  1  6  2 -1</clus>
<clus scale="   43.455">  1  3  2 -1</clus>
</clustering>
</event>
<event>
 6    0  0.8641190E+002  0.9496017E+02  0.7546771E-02  0.1291266E+00
         21   -1    0    0  505  501  0.00000000000E+00  0.00000000000E+00  0.38842972326E+03  0.38842972326E+03  0.00000000000E+00 0. -1.
         21   -1    0    0  506  502 -0.00000000000E+00 -0.00000000000E+00 -0.18668247667E+03  0.18668247667E+03  0.00000000000E+00 0. -1.
         21    1    1    2  503  501  0.71693529817E+02 -0.63171235561E+01  0.21755194980E+03  0.22914781066E+03  0.00000000000E+00 0. -1.
         21    1    1    2  504  502 -0.12968819975E+03 -0.21461178074E+02  0.74075247786E+02  0.15088655889E+03  0.00000000000E+00 0. -1.
         21    1    1    2  505  504  0.10947321246E+02  0.43652156506E+02  0.37361620122E+02  0.58491411919E+02  0.00000000000E+00 0. -1.
         21    1    1    2  506  503  0.47047348683E+02 -0.15873854876E+02 -0.12724157112E+03  0.13658641846E+03  0.00000000000E+00 0. -1.
<scales pt_clust_3="14000.00000" pt_clust_4="94.96017" pt_clust_5="45.00394" pt_clust_6="49.60778"></scales>
<clustering>
<clus scale="   45.004">  1  5  2 -1</clus>
<clus scale="   49.608">  2  6  1 -1</clus>
<clus scale="   94.960">  2  4  1 -1</clus>
<clus scale="   45.004">  1  3  2 -1</clus>
</clustering>
</event>
<event>
 6    0  0.8641190E+002  0.9265564E+02  0.7546771E-02  0.1296545E+00
         21   -1    0    0  504  501  0.00000000000E+00  0.00000000000E+00  0.11446363336E+03  0.11446363336E+03  0.00000000000E+00 0. -1.
         21   -1    0    0  505  502 -0.00000000000E+00 -0.00000000000E+00 -0.21219884061E+03  0.21219884061E+03  0.00000000000E+00 0.  1.
         21    1    1    2  503  501 -0.36248297980E+02  0.78664718682E+02  0.23189175932E+02  0.89665015208E+02  0.00000000000E+00 0. -1.
         21    1    1    2  504  506 -0.33056445298E+02 -0.18930474948E+02  0.14547836867E+02  0.40776598866E+02  0.00000000000E+00 0. -1.
         21    1    1    2  505  503  0.58604471706E+02 -0.91206841201E+02 -0.10890703514E+03  0.15366819543E+03  0.00000000000E+00 0.  1.
         21    1    1    2  506  502  0.10700271572E+02  0.31472597467E+02 -0.26565184917E+02  0.42552664461E+02  0.00000000000E+00 0. -1.
<scales pt_clust_3="14000.00000" pt_clust_4="36.28937" pt_clust_5="92.65564" pt_clust_6="33.24184"></scales>
<clustering>
<clus scale="   33.242">  2  6  1 -1</clus>
<clus scale="   36.289">  1  4  2 -1</clus>
<clus scale="   92.656">  2  5  1 -1</clus>
<clus scale="   36.289">  1  3  2 -1</clus>
</clustering>
</event>
<event>
 6    0  0.8641190E+002  0.6346228E+02  0.7546771E-02  0.1383851E+00
         21   -1    0    0  505  501  0.00000000000E+00  0.00000000000E+00  0.16146286777E+04  0.16146286777E+04  0.00000000000E+00 0. -1.
         21   -1    0    0  503  502 -0.00000000000E+00 -0.00000000000E+00 -0.15053749334E+03  0.15053749334E+03  0.00000000000E+00 0. -1.
         21    1    1    2  503  501 -0.47009699811E+02  0.32511780138E+02  0.84531991059E+03  0.84725006873E+03  0.00000000000E+00 0. -1.
         21    1    1    2  504  506  0.73647606973E+01  0.84656729723E+02  0.27682537297E+03  0.28957432329E+03  0.00000000000E+00 0. -1.
         21    1    1    2  505  504  0.49109531106E+02 -0.54953674448E+02  0.47524967180E+03  0.48093024747E+03  0.00000000000E+00 0. -1.
         21    1    1    2  506  502 -0.94645919924E+01 -0.62214835413E+02 -0.13330377104E+03  0.14741153151E+03  0.00000000000E+00 0. -1.
<scales pt_clust_3="57.15704" pt_clust_4="14000.00000" pt_clust_5="40.00120" pt_clust_6="63.46228"></scales>
<clustering>
<clus scale="   57.157">  1  3  2 -1</clus>
<clus scale="   40.001">  1  5  2 -1</clus>
<clus scale="   63.462">  2  6  1 -1</clus>
<clus scale="   57.157">  1  3  2 -1</clus>
</clustering>
</event>
<event>
 6    0  0.8641190E+002  0.1261212E+03  0.7546771E-02  0.1233327E+00
         21   -1    0    0  503  501  0.00000000000E+00  0.00000000000E+00  0.49312059459E+03  0.49312059459E+03  0.00000000000E+00 0. -1.
         21   -1    0    0  506  502 -0.00000000000E+00 -0.00000000000E+00 -0.27458992289E+03  0.27458992289E+03  0.00000000000E+00 0. -1.
         21    1    1    2  503  505 -0.18167695298E+02 -0.13646171023E+03  0.39672611717E+03  0.41993270361E+03  0.00000000000E+00 0. -1.
         21    1    1    2  504  501 -0.27476789081E+02  0.93813508768E+02  0.32099880050E+02  0.10288999303E+03  0.00000000000E+00 0. -1.
         21    1    1    2  505  502  0.15039792319E+02  0.50688511346E+02 -0.27927702171E+02  0.59795293159E+02  0.00000000000E+00 0. -1.
         21    1    1    2  506  504  0.30604692060E+02 -0.80403098794E+01 -0.18236762335E+03  0.18509252769E+03  0.00000000000E+00 0. -1.
<scales pt_clust_3="14000.00000" pt_clust_4="126.12123" pt_clust_5="55.49571" pt_clust_6="31.64323"></scales>
<clustering>
<clus scale="   31.643">  2  6  1 -1</clus>
<clus scale="   55.496">  2  5  1 -1</clus>
<clus scale="  126.121">  2  4  1 -1</clus>
<clus scale="  126.121">  1  3  2 -1</clus>
</clustering>
</event>
<event>
 6    0  0.8641190E+002  0.9044476E+02  0.7546771E-02  0.1301778E+00
         21   -1    0    0  504  501  0.00000000000E+00  0.00000000000E+00  0.37025143927E+03  0.37025143927E+03  0.00000000000E+00 0. -1.
         21   -1    0    0  505  502 -0.00000000000E+00 -0.00000000000E+00 -0.72203279241E+03  0.72203279241E+03  0.00000000000E+00 0.  1.
         21    1    1    2  503  506 -0.12032755837E+02 -0.67546624498E+02  0.77388831726E+02  0.10342323225E+03  0.00000000000E+00 0. -1.
         21    1    1    2  504  502  0.74239065768E+02  0.51988000448E+02 -0.68338600588E+03  0.68936972961E+03  0.00000000000E+00 0.  1.
         21    1    1    2  505  503 -0.95814122814E+02  0.73930395075E+01  0.24576922146E+03  0.26388920664E+03  0.00000000000E+00 0. -1.
         21    1    1    2  506  501  0.33607812882E+02  0.81655845423E+01  0.84465995470E+01  0.35602063164E+02  0.00000000000E+00 0. -1.
<scales pt_clust_3="65.51024" pt_clust_4="90.44476" pt_clust_5="14000.00000" pt_clust_6="34.58557"></scales>
<clustering>
<clus scale="   34.586">  1  6  2 -1</clus>
<clus scale="   65.510">  1  3  2 -1</clus>
<clus scale="   90.445">  2  4  1 -1</clus>
<clus scale="   34.586">  1  3  2 -1</clus>
</clustering>
</event>
<event>
 6    0  0.8641190E+002  0.1382410E+03  0.7546771E-02  0.1215716E+00
         21   -1    0    0  503  501  0.00000000000E+00  0.00000000000E+00  0.54631133627E+03  0.54631133627E+03  0.00000000000E+00 0. -1.
         21   -1    0    0  506  502 -0.00000000000E+00 -0.00000000000E+00 -0.30238540713E+03  0.30238540713E+03  0.00000000000E+00 0. -1.
         21    1    1    2  503  504 -0.62174018136E+02  0.10987947067E+02 -0.93029466679E+02  0.11243142435E+03  0.00000000000E+00 0. -1.
         21    1    1    2  504  502 -0.72206069136E+02  0.66357450291E+02 -0.15272529460E+03  0.18149943041E+03  0.00000000000E+00 0. -1.
         21    1    1    2  505  501  0.10157933517E+03 -0.81567359585E+02  0.50263848927E+03  0.51924661422E+03  0.00000000000E+00 0. -1.
         21    1    1    2  506  505  0.32800752097E+02  0.42219622265E+01 -0.12957798850E+02  0.35519274404E+02  0.00000000000E+00 0.  1.
<scales pt_clust_3="34.16982" pt_clust_4="34.16982" pt_clust_5="130.96165" pt_clust_6="33.07135"></scales>
<clustering>
<clus scale="   33.071">  2  6  1 -1</clus>
<clus scale="   34.170">  3  4 -1 -1</clus>
<clus scale="  130.962">  1  5  2 -1</clus>
<clus scale="  130.962">  1  3  2 -1</clus>
</clustering>
</event>
<event>
 6    0  0.8641190E+002  0.1093905E+03  0.7546771E-02  0.1261703E+00
         21   -1    0    0  505  501  0.00000000000E+00  0.00000000000E+00  0.23522798273E+03  0.23522798273E+03  0.00000000000E+00 0.  1.
         21   -1    0    0  506  502 -0.00000000000E+00 -0.00000000000E+00 -0.18259343936E+03  0.18259343936E+03  0.00000000000E+00 0.  1.
         21    1    1    2  503  501 -0.37727958756E+02 -0.12110220252E+03  0.45391011323E+02  0.13472002908E+03  0.00000000000E+00 0.  1.
         21    1    1    2  504  502 -0.45857411194E+02  0.98578007825E+02  0.21225474522E+01  0.10874295837E+03  0.00000000000E+00 0.  1.
         21    1    1    2  505  504  0.36999535069E+02  0.12176310707E+02  0.78034910194E+02  0.87216256207E+02  0.00000000000E+00 0.  1.
         21    1    1    2  506  503  0.46585834881E+02  0.10347883987E+02 -0.72913925597E+02  0.87142178424E+02  0.00000000000E+00 0.  1.
<scales pt_clust_3="14000.00000" pt_clust_4="109.39054" pt_clust_5="38.95161" pt_clust_6="49.52851"></scales>
<clustering>
<clus scale="   38.952">  1  5  2 -1</clus>
<clus scale="   49.529">  2  6  1 -1</clus>
<clus scale="  109.391">  2  4  1 -1</clus>
<clus scale="   38.952">  1  3  2 -1</clus>
</clustering>
</event>
<event>
 6    0  0.8641190E+002  0.2801371E+03  0.7546771E-02  0.1095614E+00
         21   -1    0    0  504  501  0.00000000000E+00  0.00000000000E+00  0.14868201838E+04  0.14868201838E+04  0.00000000000E+00 0.  1.
         21   -1    0    0  506  502 -0.00000000000E+00 -0.00000000000E+00 -0.17928946330E+03  0.17928946330E+03  0.00000000000E+00 0.  1.
         21    1    1    2  503  501 -0.29030470392E+02 -0.15456848665E+03  0.63915082584E+03  0.65821574232E+03  0.00000000000E+00 0.  1.
         21    1    1    2  504  502  0.25950167870E+02  0.30282787874E+02 -0.10649407021E+03  0.11371651351E+03  0.00000000000E+00 0.  1.
         21    1    1    2  505  503  0.11271796098E+02 -0.13036082961E+03  0.51056637596E+03  0.52706643181E+03  0.00000000000E+00 0.  1.
         21    1    1    2  506  505 -0.81914935756E+01  0.25464652838E+03  0.26430758888E+03  0.36711095941E+03  0.00000000000E+00 0.  1.
<scales pt_clust_3="35.84230" pt_clust_4="39.88055" pt_clust_5="35.84230" pt_clust_6="277.36744"></scales>
<clustering>
<clus scale="   35.842">  3  5 -1 -1</clus>
<clus scale="   39.881">  2  4  1 -1</clus>
<clus scale="  277.367">  2  6  1 -1</clus>
<clus scale="  280.137">  1  3  2 -1</clus>
</clustering>
</event>
<event>
 6    0  0.8641190E+002  0.8630667E+02  0.7546771E-02  0.1312050E+00
         21   -1    0    0  506  501  0.00000000000E+00  0.00000000000E+00  0.18053973224E+03  0.18053973224E+03  0.00000000000E+00 0. -1.
         21   -1    0    0  503  502 -0.00000000000E+00 -0.00000000000E+00 -0.27407063347E+03  0.27407063347E+03  0.00000000000E+00 0. -1.
         21    1    1    2  503  505 -0.26466717147E+02  0.30641850714E+02 -0.29275186598E+02  0.49964454186E+02  0.00000000000E+00 0. -1.
         21    1    1    2  504  502  0.79986807324E+02 -0.36181203516E+02 -0.17261757609E+03  0.19365896935E+03  0.00000000000E+00 0. -1.
         21    1    1    2  505  501 -0.63426636761E+02 -0.74830226867E+02  0.74666122268E+02  0.12327826620E+03  0.00000000000E+00 0. -1.
         21    1    1    2  506  504  0.99065465848E+01  0.80369579669E+02  0.33695739187E+02  0.87708675971E+02  0.00000000000E+00 0. -1.
<scales pt_clust_3="40.48963" pt_clust_4="60.56360" pt_clust_5="14000.00000" pt_clust_6="86.30667"></scales>
<clustering>
<clus scale="   40.490">  2  3  1 -1</clus>
<clus scale="   60.564">  2  4  1 -1</clus>
<clus scale="   86.307">  2  6  1 -1</clus>
<clus scale="   86.307">  1  3  2 -1</clus>
</clustering>
</event>
<event>
 6    0  0.8641190E+002  0.1119820E+03  0.7546771E-02  0.1256943E+00
         21   -1    0    0  506  501  0.00000000000E+00  0.00000000000E+00  0.63292510850E+03  0.63292510850E+03  0.00000000000E+00 0.  1.
         21   -1    0    0  504  502 -0.00000000000E+00 -0.00000000000E+00 -0.12204158058E+03  0.12204158058E+03  0.00000000000E+00 0. -1.
         21    1    1    2  503  502 -0.26813185547E+02 -0.22670908555E+02  0.15897729642E+02  0.38544193100E+02  0.00000000000E+00 0. -1.
         21    1    1    2  504  505  0.14050737985E+02 -0.10382751806E+03 -0.58033500874E+02  0.11977255098E+03  0.00000000000E+00 0. -1.
         21    1    1    2  505  501  0.34394374609E+02  0.95032876556E+02  0.10052177278E+03  0.14254419467E+03  0.00000000000E+00 0.  1.
         21    1    1    2  506  503 -0.21631927047E+02  0.31465550064E+02  0.45249752637E+03  0.45410575033E+03  0.00000000000E+00 0.  1.
<scales pt_clust_3="35.11292" pt_clust_4="111.98201" pt_clust_5="14000.00000" pt_clust_6="38.15953"></scales>
<clustering>
<clus scale="   35.113">  2  3  1 -1</clus>
<clus scale="   38.160">  1  6  2 -1</clus>
<clus scale="  111.982">  2  4  1 -1</clus>
<clus scale="   38.160">  1  3  2 -1</clus>
</clustering>
</event>
<event>
 6    0  0.8641190E+002  0.9917294E+02  0.7546771E-02  0.1282045E+00
         21   -1    0    0  506  501  0.00000000000E+00  0.00000000000E+00  0.30113799347E+02  0.30113799347E+02  0.00000000000E+00 0. -1.
         21   -1    0    0  503  502 -0.00000000000E+00 -0.00000000000E+00 -0.21961328662E+04  0.21961328662E+04  0.00000000000E+00 0. -1.
         21    1    1    2  503  505  0.15018056562E+02 -0.92889153619E+02 -0.17170216953E+04  0.17195980458E+04  0.00000000000E+00 0. -1.
         21    1    1    2  504  502  0.42324093375E+02  0.53573759518E+01 -0.29438176240E+03  0.29745697570E+03  0.00000000000E+00 0. -1.
         21    1    1    2  505  501 -0.38400188844E+02  0.61103297560E+00 -0.10473472037E+02  0.39807555578E+02  0.00000000000E+00 0. -1.
         21    1    1    2  506  504 -0.18941961093E+02  0.86920744691E+02 -0.14414213716E+03  0.16938408855E+03  0.00000000000E+00 0. -1.
<scales pt_clust_3="99.17294" pt_clust_4="38.88102" pt_clust_5="38.40505" pt_clust_6="14000.00000"></scales>
<clustering>
<clus scale="   38.405">  1  5  2 -1</clus>
<clus scale="   38.881">  2  4  1 -1</clus>
<clus scale="   99.173">  2  3  1 -1</clus>
<clus scale="   38.405">  1  3  2 -1</clus>
</clustering>
</event>
<event>
 6    0  0.8641190E+002  0.1016375E+03  0.7546771E-02  0.1276890E+00
         21   -1    0    0  506  501  0.00000000000E+00  0.00000000000E+00  0.40579414142E+03  0.40579414142E+03  0.00000000000E+00 0. -1.
         21   -1    0    0  503  502 -0.00000000000E+00 -0.00000000000E+00 -0.14915532524E+03  0.14915532524E+03  0.00000000000E+00 0. -1.
         21    1    1    2  503  504 -0.96193391360E+02 -0.20213662946E+02 -0.94621288775E+02  0.13643661166E+03  0.00000000000E+00 0. -1.
         21    1    1    2  504  505  0.12846840137E+03 -0.91257691725E+01  0.11492380748E+03  0.17261196754E+03  0.00000000000E+00 0. -1.
         21    1    1    2  505  501  0.80431323682E-01  0.32781254533E+02  0.15223947256E+03  0.15572884808E+03  0.00000000000E+00 0. -1.
         21    1    1    2  506  502 -0.32355441329E+02 -0.34418224150E+01  0.84096824918E+02  0.90172039383E+02  0.00000000000E+00 0. -1.
<scales pt_clust_3="14000.00000" pt_clust_4="101.63751" pt_clust_5="34.78905" pt_clust_6="32.53799"></scales>
<clustering>
<clus scale="   32.538">  1  6  2 -1</clus>
<clus scale="   34.789">  1  5  2 -1</clus>
<clus scale="  101.638">  1  4  2 -1</clus>
<clus scale="   32.538">  1  3  2 -1</clus>
</clustering>
</event>
<event>
 6    0  0.8641190E+002  0.1574813E+03  0.7546771E-02  0.1191570E+00
         21   -1    0    0  503  501  0.00000000000E+00  0.00000000000E+00  0.90857597371E+03  0.90857597371E+03  0.00000000000E+00 0. -1.
         21   -1    0    0  505  502 -0.00000000000E+00 -0.00000000000E+00 -0.16709688949E+03  0.16709688949E+03  0.00000000000E+00 0. -1.
         21    1    1    2  503  504 -0.50004300999E+02  0.45319663607E+02  0.31389212752E+03  0.32106474386E+03  0.00000000000E+00 0. -1.
         21    1    1    2  504  506 -0.87937454284E+02  0.25455457111E+02  0.50902034800E+03  0.51718728798E+03  0.00000000000E+00 0. -1.
         21    1    1    2  505  501  0.22268745342E+02 -0.53048315650E+02  0.38992677947E+02  0.69501437006E+02  0.00000000000E+00 0. -1.
         21    1    1    2  506  502  0.11567300994E+03 -0.17726805068E+02 -0.12042606926E+03  0.16791939436E+03  0.00000000000E+00 0. -1.
<scales pt_clust_3="32.63155" pt_clust_4="32.63155" pt_clust_5="57.53278" pt_clust_6="152.82631"></scales>
<clustering>
<clus scale="   32.632">  3  4 -1 -1</clus>
<clus scale="   57.533">  2  5  1 -1</clus>
<clus scale="  152.826">  2  6  1 -1</clus>
<clus scale="  157.481">  1  3  2 -1</clus>
</clustering>
</event>
<event>
 6    0  0.8641190E+002  0.9041787E+02  0.7546771E-02  0.1301843E+00
         21   -1    0    0  504  501  0.00000000000E+00  0.00000000000E+00  0.22913866412E+03  0.22913866412E+03  0.00000000000E+00 0. -1.
         21   -1    0    0  503  502 -0.00000000000E+00 -0.00000000000E+00 -0.56979433780E+03  0.56979433780E+03  0.00000000000E+00 0. -1.
         21    1    1    2  503  506 -0.34415176233E+02  0.51668203633E+01 -0.48874887936E+03  0.48998629314E+03  0.00000000000E+00 0. -1.
         21    1    1    2  504  502  0.22670784574E+02 -0.43730260977E+02  0.10600157143E+02  0.50385151879E+02  0.00000000000E+00 0. -1.
         21    1    1    2  505  501  0.79189728161E+02 -0.39370423152E+02  0.12728427886E+03  0.15499138979E+03  0.00000000000E+00 0. -1.
         21    1    1    2  506  505 -0.67445336502E+02  0.77933863766E+02  0.10208769681E+02  0.10357016711E+03  0.00000000000E+00 0. -1.
<scales pt_clust_3="34.80087" pt_clust_4="44.75116" pt_clust_5="90.41787" pt_clust_6="14000.00000"></scales>
<clustering>
<clus scale="   34.801">  2  3  1 -1</clus>
<clus scale="   44.751">  2  4  1 -1</clus>
<clus scale="   90.418">  1  5  2 -1</clus>
<clus scale="   90.418">  1  3  2 -1</clus>
</clustering>
</event>
<event>
 6    0  0.8641190E+002  0.1370899E+03  0.7546771E-02  0.1217299E+00
         21   -1    0    0  504  501  0.00000000000E+00  0.00000000000E+00  0.14607662049E+04  0.14607662049E+04  0.00000000000E+00 0.  1.
         21   -1    0    0  503  502 -0.00000000000E+00 -0.00000000000E+00 -0.66300333625E+02  0.66300333625E+02  0.00000000000E+00 0. -1.
         21    1    1    2  503  501  0.35103199660E+02 -0.21652295266E+02  0.30614595189E+02  0.51364481456E+02  0.00000000000E+00 0.  1.
         21    1    1    2  504  505 -0.89100345001E+00  0.13165098059E+03  0.13451526992E+04  0.13515800230E+04  0.00000000000E+00 0.  1.
         21    1    1    2  505  506 -0.19571060341E+02 -0.72440393037E+02  0.32137179622E+02  0.81629867452E+02  0.00000000000E+00 0. -1.
         21    1    1    2  506  502 -0.14641135869E+02 -0.37558292291E+02 -0.13438602696E+02  0.42492166593E+02  0.00000000000E+00 0. -1.
<scales pt_clust_3="41.24387" pt_clust_4="130.41163" pt_clust_5="30.97915" pt_clust_6="30.97915"></scales>
<clustering>
<clus scale="   30.979">  5  6 -1 -1</clus>
<clus scale="   41.244">  2  3  1 -1</clus>
<clus scale="  130.412">  1  4  2 -1</clus>
<clus scale="  130.412">  1  3  2 -1</clus>
</clustering>
</event>
<event>
 6    0  0.8641190E+002  0.1131832E+03  0.7546771E-02  0.1254786E+00
         21   -1    0    0  506  501  0.00000000000E+00  0.00000000000E+00  0.79245394847E+02  0.79245394847E+02  0.00000000000E+00 0. -1.
         21   -1    0    0  504  502 -0.00000000000E+00 -0.00000000000E+00 -0.54910583967E+03  0.54910583967E+03  0.00000000000E+00 0. -1.
         21    1    1    2  503  505 -0.54332288771E+02 -0.75863769347E+02 -0.11605969187E+03  0.14891998247E+03  0.00000000000E+00 0. -1.
         21    1    1    2  504  503  0.43106538372E+01 -0.47772821822E+02 -0.30335501711E+03  0.30712390114E+03  0.00000000000E+00 0. -1.
         21    1    1    2  505  501 -0.29022800347E+02  0.25021217189E+02 -0.98871726532E+01  0.39574492197E+02  0.00000000000E+00 0. -1.
         21    1    1    2  506  502  0.79044435280E+02  0.98615373980E+02 -0.40558563186E+02  0.13273285871E+03  0.00000000000E+00 0. -1.
<scales pt_clust_3="14000.00000" pt_clust_4="47.16786" pt_clust_5="38.31950" pt_clust_6="113.18318"></scales>
<clustering>
<clus scale="   38.320">  1  5  2 -1</clus>
<clus scale="   47.168">  2  4  1 -1</clus>
<clus scale="  113.183">  1  6  2 -1</clus>
<clus scale="   38.320">  1  3  2 -1</clus>
</clustering>
</event>
<event>
 6    0  0.8641190E+002  0.1399005E+03  0.7546771E-02  0.1213463E+00
         21   -1    0    0  505  501  0.00000000000E+00  0.00000000000E+00  0.24018116807E+04  0.24018116807E+04  0.00000000000E+00 0. -1.
         21   -1    0    0  503  502 -0.00000000000E+00 -0.00000000000E+00 -0.55448390541E+02  0.55448390541E+02  0.00000000000E+00 0. -1.
         21    1    1    2  503  501  0.39537437080E+02  0.19852412607E+02  0.92766742203E+02  0.10277643541E+03  0.00000000000E+00 0. -1.
         21    1    1    2  504  506 -0.39710661932E+02 -0.96362109759E+02  0.67010872180E+02  0.12390742455E+03  0.00000000000E+00 0. -1.
         21    1    1    2  505  504  0.55419259664E+02  0.11903174936E+03  0.21457864057E+04  0.21497997931E+04  0.00000000000E+00 0. -1.
         21    1    1    2  506  502 -0.55246034812E+02 -0.42522052213E+02  0.40799270057E+02  0.80776418118E+02  0.00000000000E+00 0. -1.
<scales pt_clust_3="44.24169" pt_clust_4="36.27174" pt_clust_5="132.68493" pt_clust_6="36.27174"></scales>
<clustering>
<clus scale="   36.272">  4  6 -1 -1</clus>
<clus scale="   44.242">  2  3  1 -1</clus>
<clus scale="  132.685">  1  5  2 -1</clus>
<clus scale="  132.685">  1  3  2 -1</clus>
</clustering>
</event>
<event>
 6    0  0.8641190E+002  0.9067257E+02  0.7546771E-02  0.1301231E+00
         21   -1    0    0  506  501  0.00000000000E+00  0.00000000000E+00  0.74328629348E+03  0.74328629348E+03  0.00000000000E+00 0. -1.
         21   -1    0    0  504  502 -0.00000000000E+00 -0.00000000000E+00 -0.10717911135E+03  0.10717911135E+03  0.00000000000E+00 0.  1.
         21    1    1    2  503  501  0.27365928978E+02  0.26415256806E+02  0.38897554836E+03  0.39083070130E+03  0.00000000000E+00 0. -1.
         21    1    1    2  504  505 -0.69160492250E+02 -0.99307541733E+02 -0.56134979705E+02  0.13340276414E+03  0.00000000000E+00 0.  1.
         21    1    1    2  505  503  0.90396426375E+01  0.62264087034E+02  0.27371850204E+03  0.28085645806E+03  0.00000000000E+00 0. -1.
         21    1    1    2  506  502  0.32754920635E+02  0.10628197893E+02  0.29548111436E+02  0.45375481327E+02  0.00000000000E+00 0.  1.
<scales pt_clust_3="38.32443" pt_clust_4="90.67257" pt_clust_5="14000.00000" pt_clust_6="34.43608"></scales>
<clustering>
<clus scale="   34.436">  2  6  1 -1</clus>
<clus scale="   38.324">  1  3  2 -1</clus>
<clus scale="   90.673">  2  4  1 -1</clus>
<clus scale="   38.324">  1  3  2 -1</clus>
</clustering>
</event>
<event>
 6    0  0.8641190E+002  0.1000706E+03  0.7546771E-02  0.1280148E+00
         21   -1    0    0  504  501  0.00000000000E+00  0.00000000000E+00  0.90157667786E+02  0.90157667786E+02  0.00000000000E+00 0. -1.
         21   -1    0    0  505  502 -0.00000000000E+00 -0.00000000000E+00 -0.70541942278E+03  0.70541942278E+03  0.00000000000E+00 0. -1.
         21    1    1    2  503  506 -0.83297576294E+01  0.70979649836E+02  0.52391933971E+02  0.88613826789E+02  0.00000000000E+00 0. -1.
         21    1    1    2  504  502 -0.33765369650E+02 -0.82131145564E+02 -0.38894317984E+03  0.39895165422E+03  0.00000000000E+00 0. -1.
         21    1    1    2  505  503  0.57007949960E+02 -0.24790421861E+02 -0.25494679633E+03  0.26241634921E+03  0.00000000000E+00 0. -1.
         21    1    1    2  506  501 -0.14912822680E+02  0.35941917589E+02 -0.23763712797E+02  0.45595260348E+02  0.00000000000E+00 0.  1.
<scales pt_clust_3="100.07062" pt_clust_4="14000.00000" pt_clust_5="60.85810" pt_clust_6="38.91290"></scales>
<clustering>
<clus scale="   38.913">  1  6  2 -1</clus>
<clus scale="   60.858">  2  5  1 -1</clus>
<clus scale="  100.071">  1  3  2 -1</clus>
<clus scale="   38.913">  1  3  2 -1</clus>
</clustering>
</event>
<event>
 6    0  0.8641190E+002  0.8886087E+02  0.7546771E-02  0.1305634E+00
         21   -1    0    0  502  501  0.00000000000E+00  0.00000000000E+00  0.66875208074E+03  0.66875208074E+03  0.00000000000E+00 0. -1.
         21   -1    0    0  503  502 -0.00000000000E+00 -0.00000000000E+00 -0.23936334418E+03  0.23936334418E+03  0.00000000000E+00 0. -1.
         21    1    1    2  503  505 -0.80228565773E+02 -0.30940225801E+02 -0.18619744138E+03  0.20509365547E+03  0.00000000000E+00 0. -1.
         21    1    1    2  504  506 -0.84078591522E+02  0.43436414982E+02  0.18042517059E+03  0.20373800304E+03  0.00000000000E+00 0. -1.
         21    1    1    2  505  504  0.13635761791E+03  0.38499976608E+02  0.14268948436E+03  0.20108688945E+03  0.00000000000E+00 0. -1.
         21    1    1    2  506  501  0.27949539381E+02 -0.50996165789E+02  0.29247152299E+03  0.29819687697E+03  0.00000000000E+00 0. -1.
<scales pt_clust_3="88.86087" pt_clust_4="71.79362" pt_clust_5="14000.00000" pt_clust_6="58.15312"></scales>
<clustering>
<clus scale="   58.153">  1  6  2 -1</clus>
<clus scale="   71.794">  1  4  2 -1</clus>
<clus scale="   88.861">  2  3  1 -1</clus>
<clus scale="   58.153">  1  3  2 -1</clus>
</clustering>
</event>
<event>
 6    0  0.8641190E+002  0.1186347E+03  0.7546771E-02  0.1245367E+00
         21   -1    0    0  505  501  0.00000000000E+00  0.00000000000E+00  0.82660581901E+03  0.82660581901E+03  0.00000000000E+00 0.  1.
         21   -1    0    0  506  502 -0.00000000000E+00 -0.00000000000E+00 -0.15152398764E+03  0.15152398764E+03  0.00000000000E+00 0.  1.
         21    1    1    2  503  502 -0.36853991028E+02 -0.15399844364E+02 -0.13308572558E+02  0.42100949688E+02  0.00000000000E+00 0.  1.
         21    1    1    2  504  501 -0.13813277097E+03  0.58168369732E+02  0.13248383948E+03  0.20004046935E+03  0.00000000000E+00 0.  1.
         21    1    1    2  505  503  0.40574805682E+02 -0.37499132692E+02  0.59369967395E+03  0.59626487625E+03  0.00000000000E+00 0.  1.
         21    1    1    2  506  504  0.13441195632E+03 -0.52693926761E+01 -0.37793109505E+02  0.13972351136E+03  0.00000000000E+00 0.  1.
<scales pt_clust_3="39.94211" pt_clust_4="118.63465" pt_clust_5="55.07863" pt_clust_6="14000.00000"></scales>
<clustering>
<clus scale="   39.942">  2  3  1 -1</clus>
<clus scale="   55.079">  1  5  2 -1</clus>
<clus scale="  118.635">  1  4  2 -1</clus>
<clus scale="   55.079">  1  3  2 -1</clus>
</clustering>
</event>
<event>
 6    0  0.8641190E+002  0.1324495E+03  0.7546771E-02  0.1223866E+00
         21   -1    0    0  505  501  0.00000000000E+00  0.00000000000E+00  0.70157751192E+02  0.70157751192E+02  0.00000000000E+00 0. -1.
         21   -1    0    0  504  502 -0.00000000000E+00 -0.00000000000E+00 -0.97284165245E+03  0.97284165245E+03  0.00000000000E+00 0. -1.
         21    1    1    2  503  506 -0.10424440152E+03  0.51854521786E+02 -0.27006892359E+03  0.29409694008E+03  0.00000000000E+00 0. -1.
         21    1    1    2  504  501 -0.82709538533E+02 -0.51788466137E+02 -0.38792521311E+03  0.40001110479E+03  0.00000000000E+00 0. -1.
         21    1    1    2  505  503  0.33305941460E+02 -0.66722604039E+02 -0.40708057423E+02  0.84960800169E+02  0.00000000000E+00 0. -1.
         21    1    1    2  506  502  0.15364799859E+03  0.66656548389E+02 -0.20398170714E+03  0.26393055860E+03  0.00000000000E+00 0. -1.
<scales pt_clust_3="132.44951" pt_clust_4="98.93060" pt_clust_5="74.57340" pt_clust_6="14000.00000"></scales>
<clustering>
<clus scale="   74.573">  1  5  2 -1</clus>
<clus scale="   98.931">  2  4  1 -1</clus>
<clus scale="  132.450">  1  3  2 -1</clus>
<clus scale="   74.573">  1  3  2 -1</clus>
</clustering>
</event>
<event>
 6    0  0.8641190E+002  0.1339076E+03  0.7546771E-02  0.1221770E+00
         21   -1    0    0  504  501  0.00000000000E+00  0.00000000000E+00  0.11465997684E+03  0.11465997684E+03  0.00000000000E+00 0.  1.
         21   -1    0    0  503  502 -0.00000000000E+00 -0.00000000000E+00 -0.57071209620E+03  0.57071209620E+03  0.00000000000E+00 0.  1.
         21    1    1    2  503  501  0.97158450392E+02 -0.62039147603E+02  0.27250535424E+02  0.11845341700E+03  0.00000000000E+00 0.  1.
         21    1    1    2  504  506 -0.57800851241E+02  0.82199838013E+02 -0.11034293581E+03  0.14924247136E+03  0.00000000000E+00 0.  1.
         21    1    1    2  505  502  0.37794507134E+02 -0.59111069549E+02 -0.28822251832E+03  0.29663911303E+03  0.00000000000E+00 0.  1.
         21    1    1    2  506  505 -0.77152106285E+02  0.38950379139E+02 -0.84737200651E+02  0.12103707165E+03  0.00000000000E+00 0.  1.
<scales pt_clust_3="125.80201" pt_clust_4="42.55042" pt_clust_5="70.16084" pt_clust_6="42.55042"></scales>
<clustering>
<clus scale="   42.550">  4  6 -1 -1</clus>
<clus scale="   70.161">  2  5  1 -1</clus>
<clus scale="  125.802">  1  3  2 -1</clus>
<clus scale="  125.802">  1  3  2 -1</clus>
</clustering>
</event>
<event>
 6    0  0.8641190E+002  0.1689108E+03  0.7546771E-02  0.1178988E+00
         21   -1    0    0  505  501  0.00000000000E+00  0.00000000000E+00  0.90205378268E+03  0.90205378268E+03  0.00000000000E+00 0.  1.
         21   -1    0    0  504  502 -0.00000000000E+00 -0.00000000000E+00 -0.53485966540E+03  0.53485966540E+03  0.00000000000E+00 0.  1.
         21    1    1    2  503  506 -0.16536856129E+03  0.14672234855E+02 -0.59209354087E+02  0.17626055472E+03  0.00000000000E+00 0.  1.
         21    1    1    2  504  503  0.48588985860E+02  0.33985660249E+02  0.14083319187E+02  0.60944684171E+02  0.00000000000E+00 0.  1.
         21    1    1    2  505  502  0.14261680037E+03  0.14620998373E+02 -0.37912044875E+03  0.40532165005E+03  0.00000000000E+00 0.  1.
         21    1    1    2  506  501 -0.25837224935E+02 -0.63278893476E+02  0.79144060093E+03  0.79438655914E+03  0.00000000000E+00 0.  1.
<scales pt_clust_3="14000.00000" pt_clust_4="59.29515" pt_clust_5="168.91080" pt_clust_6="68.20697"></scales>
<clustering>
<clus scale="   59.295">  2  4  1 -1</clus>
<clus scale="   68.207">  1  6  2 -1</clus>
<clus scale="  168.911">  2  5  1 -1</clus>
<clus scale="   68.207">  1  3  2 -1</clus>
</clustering>
</event>
<event>
 6    0  0.8641190E+002  0.2448778E+03  0.7546771E-02  0.1116585E+00
         21   -1    0    0  503  501  0.00000000000E+00  0.00000000000E+00  0.10811452445E+04  0.10811452445E+04  0.00000000000E+00 0.  1.
         21   -1    0    0  501  502 -0.00000000000E+00 -0.00000000000E+00 -0.25304602078E+03  0.25304602078E+03  0.00000000000E+00 0. -1.
         21    1    1    2  503  505 -0.19350575880E+03  0.81462525269E+02  0.88928686365E+03  0.91373505327E+03  0.00000000000E+00 0.  1.
         21    1    1    2  504  506  0.77631468722E+02 -0.25731605002E+02  0.52938313708E+02  0.97422920764E+02  0.00000000000E+00 0.  1.
         21    1    1    2  505  504  0.13355694345E+03 -0.14537078624E+03 -0.31616246085E+02  0.19992425979E+03  0.00000000000E+00 0. -1.
         21    1    1    2  506  502 -0.17682653366E+02  0.89639865969E+02 -0.82509707517E+02  0.12310903149E+03  0.00000000000E+00 0.  1.
<scales pt_clust_3="214.19854" pt_clust_4="76.38686" pt_clust_5="76.38686" pt_clust_6="91.36729"></scales>
<clustering>
<clus scale="   76.387">  4  5 -1 -1</clus>
<clus scale="   91.367">  2  6  1 -1</clus>
<clus scale="  214.199">  1  3  2 -1</clus>
<clus scale="  214.199">  1  3  2 -1</clus>
</clustering>
</event>
<event>
 6    0  0.8641190E+002  0.9111818E+02  0.7546771E-02  0.1300166E+00
         21   -1    0    0  504  501  0.00000000000E+00  0.00000000000E+00  0.16990692406E+03  0.16990692406E+03  0.00000000000E+00 0. -1.
         21   -1    0    0  503  502 -0.00000000000E+00 -0.00000000000E+00 -0.12732419066E+04  0.12732419066E+04  0.00000000000E+00 0.  1.
         21    1    1    2  503  505  0.53873717625E+02  0.10294190981E+03 -0.27318151969E+03  0.29686285882E+03  0.00000000000E+00 0.  1.
         21    1    1    2  504  506 -0.32259284255E+02 -0.66011324785E+02 -0.12404100969E+03  0.14416770965E+03  0.00000000000E+00 0.  1.
         21    1    1    2  505  501 -0.49878631009E+00 -0.66336424212E+02  0.14016284734E+03  0.15506899670E+03  0.00000000000E+00 0. -1.
         21    1    1    2  506  502 -0.21115647061E+02  0.29405839185E+02 -0.84627530050E+03  0.84704926549E+03  0.00000000000E+00 0.  1.
<scales pt_clust_3="14000.00000" pt_clust_4="91.11818" pt_clust_5="65.82837" pt_clust_6="36.20185"></scales>
<clustering>
<clus scale="   36.202">  2  6  1 -1</clus>
<clus scale="   65.828">  1  5  2 -1</clus>
<clus scale="   91.118">  2  4  1 -1</clus>
<clus scale="   65.828">  1  3  2 -1</clus>
</clustering>
</event>
<event>
 6    0  0.8641190E+002  0.7408104E+02  0.7546771E-02  0.1346741E+00
         21   -1    0    0  506  501  0.00000000000E+00  0.00000000000E+00  0.11768170050E+04  0.11768170050E+04  0.00000000000E+00 0.  1.
         21   -1    0    0  505  502 -0.00000000000E+00 -0.00000000000E+00 -0.60508975506E+02  0.60508975506E+02  0.00000000000E+00 0.  1.
         21    1    1    2  503  504  0.74958704942E+02  0.46333659217E+02  0.20582224121E+02  0.90494438352E+02  0.00000000000E+00 0.  1.
         21    1    1    2  504  502 -0.54889562863E+02 -0.56322683606E+01  0.34265548468E+02  0.64951631003E+02  0.00000000000E+00 0.  1.
         21    1    1    2  505  501 -0.88026205260E+02 -0.13503700035E+02  0.22144431484E+03  0.23868084821E+03  0.00000000000E+00 0. -1.
         21    1    1    2  506  503  0.67957063181E+02 -0.27197690821E+02  0.84001594211E+03  0.84319906299E+03  0.00000000000E+00 0.  1.
<scales pt_clust_3="53.07185" pt_clust_4="55.17777" pt_clust_5="74.08104" pt_clust_6="14000.00000"></scales>
<clustering>
<clus scale="   55.178">  2  4  1 -1</clus>
<clus scale="   53.072">  2  3  1 -1</clus>
<clus scale="   74.081">  2  5  1 -1</clus>
<clus scale="   74.081">  1  3  2 -1</clus>
</clustering>
</event>
<event>
 6    0  0.8641190E+002  0.1557834E+03  0.7546771E-02  0.1193541E+00
         21   -1    0    0  505  501  0.00000000000E+00  0.00000000000E+00  0.47146805331E+02  0.47146805331E+02  0.00000000000E+00 0. -1.
         21   -1    0    0  503  502 -0.00000000000E+00 -0.00000000000E+00 -0.10767372410E+04  0.10767372410E+04  0.00000000000E+00 0. -1.
         21    1    1    2  503  501 -0.55069815257E+02  0.13460389717E+03 -0.64025733386E+03  0.65656709273E+03  0.00000000000E+00 0. -1.
         21    1    1    2  504  502  0.86628825085E+00 -0.62368951611E+02 -0.98375995698E+02  0.11648378904E+03  0.00000000000E+00 0. -1.
         21    1    1    2  505  506  0.30614165339E+02  0.69825285494E+00  0.15929994299E+02  0.34517812718E+02  0.00000000000E+00 0. -1.
         21    1    1    2  506  504  0.23589361667E+02 -0.72933198416E+02 -0.30688710039E+03  0.31631535182E+03  0.00000000000E+00 0. -1.
<scales pt_clust_3="141.76147" pt_clust_4="58.00279" pt_clust_5="30.62213" pt_clust_6="58.00279"></scales>
<clustering>
<clus scale="   30.622">  1  5  2 -1</clus>
<clus scale="   58.003">  4  6 -1 -1</clus>
<clus scale="  141.761">  2  3  1 -1</clus>
<clus scale="   30.622">  1  3  2 -1</clus>
</clustering>
</event>
<event>
 6    0  0.8641190E+002  0.1840753E+03  0.7546771E-02  0.1163916E+00
         21   -1    0    0  503  501  0.00000000000E+00  0.00000000000E+00  0.53915106536E+03  0.53915106536E+03  0.00000000000E+00 0. -1.
         21   -1    0    0  506  502 -0.00000000000E+00 -0.00000000000E+00 -0.20333282942E+03  0.20333282942E+03  0.00000000000E+00 0.  1.
         21    1    1    2  503  505 -0.22856821263E+02  0.27234820613E+02  0.95173280808E+02  0.10159784994E+03  0.00000000000E+00 0. -1.
         21    1    1    2  504  501  0.56917672263E+02  0.10863296513E+03  0.34459482700E+03  0.36576814695E+03  0.00000000000E+00 0. -1.
         21    1    1    2  505  502 -0.38097008242E+02 -0.17092838750E+03 -0.14034553058E+03  0.22442095188E+03  0.00000000000E+00 0.  1.
         21    1    1    2  506  504  0.40361572417E+01  0.35060601755E+02  0.36395658716E+02  0.50696946004E+02  0.00000000000E+00 0.  1.
<scales pt_clust_3="35.55516" pt_clust_4="33.61311" pt_clust_5="173.08241" pt_clust_6="33.61311"></scales>
<clustering>
<clus scale="   33.613">  4  6 -1 -1</clus>
<clus scale="   35.555">  1  3  2 -1</clus>
<clus scale="  173.082">  2  5  1 -1</clus>
<clus scale="   35.555">  1  3  2 -1</clus>
</clustering>
</event>
<event>
 6    0  0.8641190E+002  0.2517826E+03  0.7546771E-02  0.1112183E+00
         21   -1    0    0  503  501  0.00000000000E+00  0.00000000000E+00  0.28393673575E+03  0.28393673575E+03  0.00000000000E+00 0.  1.
         21   -1    0    0  505  502 -0.00000000000E+00 -0.00000000000E+00 -0.20677374133E+04  0.20677374133E+04  0.00000000000E+00 0.  1.
         21    1    1    2  503  506  0.12579156095E+03  0.22280935013E+03  0.20290430230E+03  0.32655425155E+03  0.00000000000E+00 0.  1.
         21    1    1    2  504  501 -0.13850066559E+02 -0.72940192829E+02 -0.12339895685E+03  0.14401180030E+03  0.00000000000E+00 0. -1.
         21    1    1    2  505  504  0.37989930587E+02 -0.31582965552E+02 -0.74305806583E+03  0.74469860194E+03  0.00000000000E+00 0.  1.
         21    1    1    2  506  502 -0.14993142498E+03 -0.11828619175E+03 -0.11202479572E+04  0.11364094952E+04  0.00000000000E+00 0.  1.
<scales pt_clust_3="251.78264" pt_clust_4="76.78565" pt_clust_5="49.40363" pt_clust_6="14000.00000"></scales>
<clustering>
<clus scale="   49.404">  2  5  1 -1</clus>
<clus scale="   76.786">  2  4  1 -1</clus>
<clus scale="  251.783">  1  3  2 -1</clus>
<clus scale="  251.783">  1  3  2 -1</clus>
</clustering>
</event>
<event>
 6    0  0.8641190E+002  0.9450561E+02  0.7546771E-02  0.1292293E+00
         21   -1    0    0  505  501  0.00000000000E+00  0.00000000000E+00  0.20804983539E+03  0.20804983539E+03  0.00000000000E+00 0. -1.
         21   -1    0    0  504  502 -0.00000000000E+00 -0.00000000000E+00 -0.79316240662E+03  0.79316240662E+03  0.00000000000E+00 0. -1.
         21    1    1    2  503  501  0.59100412082E+02  0.48471257517E+02 -0.12166788885E+03  0.14368506078E+03  0.00000000000E+00 0. -1.
         21    1    1    2  504  503 -0.39894857310E+01  0.40220328946E+02 -0.10965146734E+03  0.11686331822E+03  0.00000000000E+00 0. -1.
         21    1    1    2  505  506  0.54886029674E+02 -0.56143644269E+02  0.17910523516E+03  0.19555886660E+03  0.00000000000E+00 0. -1.
         21    1    1    2  506  502 -0.10999695602E+03 -0.32547942194E+02 -0.53289845021E+03  0.54510499641E+03  0.00000000000E+00 0. -1.
<scales pt_clust_3="14000.00000" pt_clust_4="40.41770" pt_clust_5="78.13373" pt_clust_6="94.50561"></scales>
<clustering>
<clus scale="   40.418">  2  4  1 -1</clus>
<clus scale="   78.134">  1  5  2 -1</clus>
<clus scale="   94.506">  2  6  1 -1</clus>
<clus scale="   78.134">  1  3  2 -1</clus>
</clustering>
</event>
<event>
 6    0  0.8641190E+002  0.8472923E+02  0.7546771E-02  0.1316142E+00
         21   -1    0    0  505  501  0.00000000000E+00  0.00000000000E+00  0.10237663015E+03  0.10237663015E+03  0.00000000000E+00 0. -1.
         21   -1    0    0  506  502 -0.00000000000E+00 -0.00000000000E+00 -0.21488650756E+03  0.21488650756E+03  0.00000000000E+00 0. -1.
         21    1    1    2  503  501  0.43368773773E+02  0.41517636807E+02 -0.19500241683E+01  0.60069687022E+02  0.00000000000E+00 0. -1.
         21    1    1    2  504  502  0.13486498894E+02 -0.84186396659E+02 -0.75599899027E+02  0.11394990025E+03  0.00000000000E+00 0. -1.
         21    1    1    2  505  504 -0.18580797605E+02 -0.34598546340E+02  0.16754979963E+02  0.42697011629E+02  0.00000000000E+00 0. -1.
         21    1    1    2  506  503 -0.38274475063E+02  0.77267306192E+02 -0.51714934178E+02  0.10054653880E+03  0.00000000000E+00 0. -1.
<scales pt_clust_3="45.36002" pt_clust_4="14000.00000" pt_clust_5="39.27220" pt_clust_6="84.72923"></scales>
<clustering>
<clus scale="   39.272">  1  5  2 -1</clus>
<clus scale="   45.360">  1  3  2 -1</clus>
<clus scale="   84.729">  1  6  2 -1</clus>
<clus scale="   39.272">  1  3  2 -1</clus>
</clustering>
</event>
<event>
 6    0  0.8641190E+002  0.7680872E+02  0.7546771E-02  0.1338360E+00
         21   -1    0    0  504  501  0.00000000000E+00  0.00000000000E+00  0.59441687965E+02  0.59441687965E+02  0.00000000000E+00 0. -1.
         21   -1    0    0  505  502 -0.00000000000E+00 -0.00000000000E+00 -0.10066934618E+04  0.10066934618E+04  0.00000000000E+00 0. -1.
         21    1    1    2  503  501  0.19691177910E+02  0.23078904780E+02 -0.38999641687E+02  0.49410023123E+02  0.00000000000E+00 0.  1.
         21    1    1    2  504  506 -0.78529362326E+02 -0.68141638227E+02 -0.10165490695E+02  0.10446760650E+03  0.00000000000E+00 0. -1.
         21    1    1    2  505  503  0.78401185113E+02  0.79275227977E+01 -0.23532621959E+03  0.24816933950E+03  0.00000000000E+00 0. -1.
         21    1    1    2  506  502 -0.19563000697E+02  0.37135210649E+02 -0.66276042185E+03  0.66408818062E+03  0.00000000000E+00 0. -1.
<scales pt_clust_3="30.33774" pt_clust_4="76.80872" pt_clust_5="14000.00000" pt_clust_6="42.11203"></scales>
<clustering>
<clus scale="   30.338">  1  3  2 -1</clus>
<clus scale="   42.112">  2  6  1 -1</clus>
<clus scale="   76.809">  1  4  2 -1</clus>
<clus scale="   30.338">  1  3  2 -1</clus>
</clustering>
</event>
<event>
 6    0  0.8641190E+002  0.6315547E+02  0.7546771E-02  0.1385047E+00
         21   -1    0    0  506  501  0.00000000000E+00  0.00000000000E+00  0.13084004098E+04  0.13084004098E+04  0.00000000000E+00 0.  1.
         21   -1    0    0  503  502 -0.00000000000E+00 -0.00000000000E+00 -0.31513068353E+03  0.31513068353E+03  0.00000000000E+00 0.  1.
         21    1    1    2  503  504  0.30478077689E+01  0.31719078226E+02 -0.47625835256E+02  0.57302785617E+02  0.00000000000E+00 0.  1.
         21    1    1    2  504  501 -0.53712546482E+02  0.80317908927E+02 -0.42906516292E+02  0.10572120546E+03  0.00000000000E+00 0.  1.
         21    1    1    2  505  502  0.71629149975E+01 -0.66716711233E+02 -0.18157242507E+03  0.19357420400E+03  0.00000000000E+00 0.  1.
         21    1    1    2  506  505  0.43501823715E+02 -0.45320275919E+02  0.12653745029E+04  0.12669328982E+04  0.00000000000E+00 0.  1.
<scales pt_clust_3="31.86517" pt_clust_4="14000.00000" pt_clust_5="45.04456" pt_clust_6="63.15547"></scales>
<clustering>
<clus scale="   31.865">  2  3  1 -1</clus>
<clus scale="   45.045">  2  5  1 -1</clus>
<clus scale="   63.155">  1  6  2 -1</clus>
<clus scale="   63.155">  1  3  2 -1</clus>
</clustering>
</event>
<event>
 6    0  0.8641190E+002  0.1189250E+03  0.7546771E-02  0.1244881E+00
         21   -1    0    0  506  501  0.00000000000E+00  0.00000000000E+00  0.91434819634E+02  0.91434819634E+02  0.00000000000E+00 0.  1.
         21   -1    0    0  503  502 -0.00000000000E+00 -0.00000000000E+00 -0.67665939411E+03  0.67665939411E+03  0.00000000000E+00 0. -1.
         21    1    1    2  503  501 -0.26285776252E+02  0.43999716752E+02  0.26998372928E+02  0.57929519661E+02  0.00000000000E+00 0.  1.
         21    1    1    2  504  502 -0.60588557931E+02 -0.94302765199E+02 -0.58613803626E+03  0.59675940078E+03  0.00000000000E+00 0. -1.
         21    1    1    2  505  504  0.50012451198E+02  0.31829501854E+02 -0.38086318044E+02  0.70462260007E+02  0.00000000000E+00 0. -1.
         21    1    1    2  506  505  0.36861882985E+02  0.18473546594E+02  0.12001406896E+02  0.42943033294E+02  0.00000000000E+00 0.  1.
<scales pt_clust_3="51.25346" pt_clust_4="109.72856" pt_clust_5="38.24311" pt_clust_6="38.24311"></scales>
<clustering>
<clus scale="   38.243">  5  6 -1 -1</clus>
<clus scale="   51.253">  1  3  2 -1</clus>
<clus scale="  109.729">  2  4  1 -1</clus>
<clus scale="   51.253">  1  3  2 -1</clus>
</clustering>
</event>
<event>
 6    0  0.8641190E+002  0.1944815E+03  0.7546771E-02  0.1154480E+00
         21   -1    0    0  502  501  0.00000000000E+00  0.00000000000E+00  0.23634299083E+03  0.23634299083E+03  0.00000000000E+00 0. -1.
         21   -1    0    0  506  502 -0.00000000000E+00 -0.00000000000E+00 -0.20644634373E+03  0.20644634373E+03  0.00000000000E+00 0. -1.
         21    1    1    2  503  504  0.13184975231E+03  0.52352551020E+02  0.52263797960E+02  0.15118416372E+03  0.00000000000E+00 0. -1.
         21    1    1    2  504  501 -0.13399962958E+02 -0.34861914094E+02  0.18337102720E+02  0.41607227711E+02  0.00000000000E+00 0. -1.
         21    1    1    2  505  503  0.37253771127E+02  0.59085914698E+02  0.65696938969E+01  0.70158033445E+02  0.00000000000E+00 0. -1.
         21    1    1    2  506  505 -0.15570356048E+03 -0.76576551624E+02 -0.47273947472E+02  0.17983990968E+03  0.00000000000E+00 0. -1.
<scales pt_clust_3="46.78795" pt_clust_4="37.34852" pt_clust_5="46.78795" pt_clust_6="182.50091"></scales>
<clustering>
<clus scale="   37.349">  1  4  2 -1</clus>
<clus scale="   46.788">  3  5 -1 -1</clus>
<clus scale="  182.501">  2  6  1 -1</clus>
<clus scale="   37.349">  1  3  2 -1</clus>
</clustering>
</event>
<event>
 6    0  0.8641190E+002  0.1654466E+03  0.7546771E-02  0.1182681E+00
         21   -1    0    0  505  501  0.00000000000E+00  0.00000000000E+00  0.15240397409E+04  0.15240397409E+04  0.00000000000E+00 0.  1.
         21   -1    0    0  506  502 -0.00000000000E+00 -0.00000000000E+00 -0.13587692906E+03  0.13587692906E+03  0.00000000000E+00 0. -1.
         21    1    1    2  503  501  0.48763327951E+02  0.54190051606E+01  0.12662923650E+03  0.13580202983E+03  0.00000000000E+00 0. -1.
         21    1    1    2  504  503 -0.62299864652E+02 -0.68228155092E+01  0.66503109656E+01  0.63024206326E+02  0.00000000000E+00 0. -1.
         21    1    1    2  505  502  0.98725468489E+02  0.23651169738E+02  0.13369080004E+04  0.13407569122E+04  0.00000000000E+00 0.  1.
         21    1    1    2  506  504 -0.85188931788E+02 -0.22247359389E+02 -0.82024736063E+02  0.12033352162E+03  0.00000000000E+00 0. -1.
<scales pt_clust_3="49.06351" pt_clust_4="61.28332" pt_clust_5="148.43125" pt_clust_6="61.28332"></scales>
<clustering>
<clus scale="   49.064">  1  3  2 -1</clus>
<clus scale="   61.283">  4  6 -1 -1</clus>
<clus scale="  148.431">  1  5  2 -1</clus>
<clus scale="   49.064">  1  3  2 -1</clus>
</clustering>
</event>
<event>
 6    0  0.8641190E+002  0.1740465E+03  0.7546771E-02  0.1173692E+00
         21   -1    0    0  502  501  0.00000000000E+00  0.00000000000E+00  0.49886307009E+02  0.49886307009E+02  0.00000000000E+00 0.  1.
         21   -1    0    0  503  502 -0.00000000000E+00 -0.00000000000E+00 -0.73252201070E+03  0.73252201070E+03  0.00000000000E+00 0.  1.
         21    1    1    2  503  505  0.38819913878E+02 -0.10386279075E+02 -0.24278723817E+03  0.24609043770E+03  0.00000000000E+00 0.  1.
         21    1    1    2  504  501 -0.56741687786E+02  0.52081581046E+02 -0.69423793827E+02  0.10369075835E+03  0.00000000000E+00 0.  1.
         21    1    1    2  505  506  0.11150310695E+03 -0.44011685741E+02 -0.26958375532E+03  0.29503452760E+03  0.00000000000E+00 0.  1.
         21    1    1    2  506  504 -0.93581333043E+02  0.23163837697E+01 -0.10084091637E+03  0.13759259407E+03  0.00000000000E+00 0.  1.
<scales pt_clust_3="39.84535" pt_clust_4="54.96157" pt_clust_5="39.84535" pt_clust_6="170.96077"></scales>
<clustering>
<clus scale="   39.845">  3  5 -1 -1</clus>
<clus scale="   54.962">  4  6 -1 -1</clus>
<clus scale="  170.961">  1  4  2 -1</clus>
<clus scale="  170.961">  1  3  2 -1</clus>
</clustering>
</event>
<event>
 6    0  0.8641190E+002  0.1524657E+03  0.7546771E-02  0.1197476E+00
         21   -1    0    0  502  501  0.00000000000E+00  0.00000000000E+00  0.73000901436E+02  0.73000901436E+02  0.00000000000E+00 0.  1.
         21   -1    0    0  505  502 -0.00000000000E+00 -0.00000000000E+00 -0.12419453556E+04  0.12419453556E+04  0.00000000000E+00 0.  1.
         21    1    1    2  503  504  0.28908277397E+02 -0.46563360273E+02 -0.41532216988E+02  0.68765980469E+02  0.00000000000E+00 0.  1.
         21    1    1    2  504  506  0.10295763475E+02 -0.49068120807E+02  0.81446331248E+01  0.50793880279E+02  0.00000000000E+00 0.  1.
         21    1    1    2  505  503 -0.10722161163E+03  0.10446167567E+03 -0.11132387512E+04  0.11232583109E+04  0.00000000000E+00 0.  1.
         21    1    1    2  506  501  0.68017570755E+02 -0.88301945883E+01 -0.22318119070E+02  0.72128085423E+02  0.00000000000E+00 0.  1.
<scales pt_clust_3="47.79811" pt_clust_4="47.79811" pt_clust_5="144.04268" pt_clust_6="68.58835"></scales>
<clustering>
<clus scale="   47.798">  3  4 -1 -1</clus>
<clus scale="   68.588">  1  6  2 -1</clus>
<clus scale="  144.043">  2  5  1 -1</clus>
<clus scale="   68.588">  1  3  2 -1</clus>
</clustering>
</event>
<event>
 6    0  0.8641190E+002  0.2064281E+03  0.7546771E-02  0.1144426E+00
         21   -1    0    0  504  501  0.00000000000E+00  0.00000000000E+00  0.11938839783E+04  0.11938839783E+04  0.00000000000E+00 0.  1.
         21   -1    0    0  505  502 -0.00000000000E+00 -0.00000000000E+00 -0.12378765748E+03  0.12378765748E+03  0.00000000000E+00 0. -1.
         21    1    1    2  503  502 -0.28702646180E+02  0.15892012128E+03  0.12682065494E+03  0.20533612776E+03  0.00000000000E+00 0.  1.
         21    1    1    2  504  506  0.14613573138E+03  0.15433383374E+02  0.78870987929E+03  0.80228244091E+03  0.00000000000E+00 0.  1.
         21    1    1    2  505  501 -0.90759565139E+02 -0.19901725481E+03  0.91147253316E+02  0.23696621734E+03  0.00000000000E+00 0. -1.
         21    1    1    2  506  503 -0.26673520064E+02  0.24663750150E+02  0.63418533262E+02  0.73086849741E+02  0.00000000000E+00 0.  1.
<scales pt_clust_3="32.02419" pt_clust_4="146.94843" pt_clust_5="195.07365" pt_clust_6="32.02419"></scales>
<clustering>
<clus scale="   32.024">  3  6 -1 -1</clus>
<clus scale="  146.948">  1  4  2 -1</clus>
<clus scale="  195.074">  2  5  1 -1</clus>
<clus scale="  146.948">  1  3  2 -1</clus>
</clustering>
</event>
<event>
 6    0  0.8641190E+002  0.8873267E+02  0.7546771E-02  0.1305950E+00
         21   -1    0    0  505  501  0.00000000000E+00  0.00000000000E+00  0.10743484613E+04  0.10743484613E+04  0.00000000000E+00 0. -1.
         21   -1    0    0  506  502 -0.00000000000E+00 -0.00000000000E+00 -0.77624764387E+03  0.77624764387E+03  0.00000000000E+00 0.  1.
         21    1    1    2  503  501  0.13912852701E+02  0.96244528249E+02  0.62868912577E+01  0.97447943487E+02  0.00000000000E+00 0. -1.
         21    1    1    2  504  502  0.10939928723E+02 -0.79293543562E+02  0.43513991432E+02  0.91107713951E+02  0.00000000000E+00 0. -1.
         21    1    1    2  505  504 -0.50628213858E+02 -0.44932756869E+02  0.95345748213E+03  0.95585738419E+03  0.00000000000E+00 0. -1.
         21    1    1    2  506  503  0.25775432434E+02  0.27981772182E+02 -0.70515754743E+03  0.70618306351E+03  0.00000000000E+00 0.  1.
<scales pt_clust_3="14000.00000" pt_clust_4="88.73267" pt_clust_5="67.04819" pt_clust_6="38.04409"></scales>
<clustering>
<clus scale="   38.044">  2  6  1 -1</clus>
<clus scale="   67.048">  1  5  2 -1</clus>
<clus scale="   88.733">  2  4  1 -1</clus>
<clus scale="   67.048">  1  3  2 -1</clus>
</clustering>
</event>
<event>
 6    0  0.8641190E+002  0.1737127E+03  0.7546771E-02  0.1174031E+00
         21   -1    0    0  506  501  0.00000000000E+00  0.00000000000E+00  0.27696392145E+03  0.27696392145E+03  0.00000000000E+00 0.  1.
         21   -1    0    0  503  502 -0.00000000000E+00 -0.00000000000E+00 -0.58366051853E+03  0.58366051853E+03  0.00000000000E+00 0.  1.
         21    1    1    2  503  501  0.10581646630E+03 -0.11996850956E+03 -0.48950484564E+02  0.16728932353E+03  0.00000000000E+00 0.  1.
         21    1    1    2  504  505 -0.11105486075E+03 -0.95583675085E+02 -0.28864246432E+03  0.32370340321E+03  0.00000000000E+00 0.  1.
         21    1    1    2  505  502 -0.44758751929E+02  0.42167994359E+02 -0.11971681837E+03  0.13458678324E+03  0.00000000000E+00 0. -1.
         21    1    1    2  506  504  0.49997146374E+02  0.17338419029E+03  0.15061317017E+03  0.23504493000E+03  0.00000000000E+00 0.  1.
<scales pt_clust_3="145.47148" pt_clust_4="173.71267" pt_clust_5="61.49379" pt_clust_6="14000.00000"></scales>
<clustering>
<clus scale="   61.494">  2  5  1 -1</clus>
<clus scale="  145.471">  2  3  1 -1</clus>
<clus scale="  173.713">  2  4  1 -1</clus>
<clus scale="  173.713">  1  3  2 -1</clus>
</clustering>
</event>
<event>
 6    0  0.8641190E+002  0.9317078E+02  0.7546771E-02  0.1295350E+00
         21   -1    0    0  506  501  0.00000000000E+00  0.00000000000E+00  0.40431550966E+02  0.40431550966E+02  0.00000000000E+00 0.  1.
         21   -1    0    0  504  502 -0.00000000000E+00 -0.00000000000E+00 -0.10177202894E+04  0.10177202894E+04  0.00000000000E+00 0.  1.
         21    1    1    2  503  502 -0.27239726046E+01  0.92092332833E+02 -0.33887398693E+03  0.35117516542E+03  0.00000000000E+00 0.  1.
         21    1    1    2  504  505 -0.66205815788E+02 -0.21914414505E+02 -0.43822072048E+03  0.44373511407E+03  0.00000000000E+00 0.  1.
         21    1    1    2  505  501  0.11159090828E+03 -0.52456373670E+02 -0.16005303115E+03  0.20204250723E+03  0.00000000000E+00 0.  1.
         21    1    1    2  506  503 -0.42661119885E+02 -0.17721544658E+02 -0.40140999889E+02  0.61199053645E+02  0.00000000000E+00 0.  1.
<scales pt_clust_3="14000.00000" pt_clust_4="73.98696" pt_clust_5="93.17078" pt_clust_6="46.19550"></scales>
<clustering>
<clus scale="   46.196">  1  6  2 -1</clus>
<clus scale="   73.987">  2  4  1 -1</clus>
<clus scale="   93.171">  1  5  2 -1</clus>
<clus scale="   46.196">  1  3  2 -1</clus>
</clustering>
</event>
<event>
 6    0  0.8641190E+002  0.9762146E+02  0.7546771E-02  0.1285379E+00
         21   -1    0    0  503  501  0.00000000000E+00  0.00000000000E+00  0.40964142989E+02  0.40964142989E+02  0.00000000000E+00 0. -1.
         21   -1    0    0  505  502 -0.00000000000E+00 -0.00000000000E+00 -0.66791328550E+03  0.66791328550E+03  0.00000000000E+00 0. -1.
         21    1    1    2  503  504  0.30159345587E+02 -0.18959761469E+01 -0.16915192471E+02  0.34630977291E+02  0.00000000000E+00 0.  1.
         21    1    1    2  504  502  0.92428871163E+02  0.57326529727E+02 -0.32541190255E+03  0.34310688357E+03  0.00000000000E+00 0. -1.
         21    1    1    2  505  506 -0.45845439825E+02 -0.76604722894E+02 -0.16117953545E+03  0.18425235567E+03  0.00000000000E+00 0. -1.
         21    1    1    2  506  501 -0.76742776925E+02  0.21174169314E+02 -0.12344251204E+03  0.14688721195E+03  0.00000000000E+00 0. -1.
<scales pt_clust_3="30.21888" pt_clust_4="97.62146" pt_clust_5="14000.00000" pt_clust_6="68.84844"></scales>
<clustering>
<clus scale="   30.219">  1  3  2 -1</clus>
<clus scale="   68.848">  1  6  2 -1</clus>
<clus scale="   97.621">  2  4  1 -1</clus>
<clus scale="   30.219">  1  3  2 -1</clus>
</clustering>
</event>
<event>
 6    0  0.8641190E+002  0.9317354E+02  0.7546771E-02  0.1295344E+00
         21   -1    0    0  504  501  0.00000000000E+00  0.00000000000E+00  0.87115872491E+03  0.87115872491E+03  0.00000000000E+00 0.  1.
         21   -1    0    0  506  502 -0.00000000000E+00 -0.00000000000E+00 -0.30249207299E+02  0.30249207299E+02  0.00000000000E+00 0.  1.
         21    1    1    2  503  501 -0.15754945494E+01  0.33942191057E+02  0.11529604817E+03  0.12019872395E+03  0.00000000000E+00 0. -1.
         21    1    1    2  504  505  0.48110012921E+02 -0.28055800338E+02  0.36937286590E+03  0.37354787556E+03  0.00000000000E+00 0.  1.
         21    1    1    2  505  502  0.58818012717E+02  0.27076774776E+02  0.23472063380E+03  0.24348816457E+03  0.00000000000E+00 0.  1.
         21    1    1    2  506  503 -0.10535253109E+03 -0.32963165495E+02  0.12151996974E+03  0.16417316813E+03  0.00000000000E+00 0.  1.
<scales pt_clust_3="33.97874" pt_clust_4="48.66827" pt_clust_5="14000.00000" pt_clust_6="93.17354"></scales>
<clustering>
<clus scale="   33.979">  1  3  2 -1</clus>
<clus scale="   48.668">  1  4  2 -1</clus>
<clus scale="   93.174">  2  6  1 -1</clus>
<clus scale="   33.979">  1  3  2 -1</clus>
</clustering>
</event>
<event>
 6    0  0.8641190E+002  0.9339085E+02  0.7546771E-02  0.1294842E+00
         21   -1    0    0  506  501  0.00000000000E+00  0.00000000000E+00  0.33352186053E+02  0.33352186053E+02  0.00000000000E+00 0. -1.
         21   -1    0    0  505  502 -0.00000000000E+00 -0.00000000000E+00 -0.23226021479E+04  0.23226021479E+04  0.00000000000E+00 0. -1.
         21    1    1    2  503  502  0.11050278403E+03 -0.14535699031E+02 -0.17909722624E+04  0.17944369024E+04  0.00000000000E+00 0. -1.
         21    1    1    2  504  501  0.35959347592E+02 -0.50979540126E+00 -0.11376538790E+03  0.11931428269E+03  0.00000000000E+00 0. -1.
         21    1    1    2  505  504 -0.28521905107E+02 -0.18976393793E+02 -0.27675130048E+03  0.27886355966E+03  0.00000000000E+00 0. -1.
         21    1    1    2  506  503 -0.11794022651E+03  0.34021888226E+02 -0.10776101107E+03  0.16333958925E+03  0.00000000000E+00 0. -1.
<scales pt_clust_3="93.39085" pt_clust_4="34.37064" pt_clust_5="34.25788" pt_clust_6="14000.00000"></scales>
<clustering>
<clus scale="   34.258">  2  5  1 -1</clus>
<clus scale="   34.371">  1  4  2 -1</clus>
<clus scale="   93.391">  2  3  1 -1</clus>
<clus scale="   34.371">  1  3  2 -1</clus>
</clustering>
</event>
<event>
 6    0  0.8641190E+002  0.7924177E+02  0.7546771E-02  0.1331217E+00
         21   -1    0    0  503  501  0.00000000000E+00  0.00000000000E+00  0.11276469585E+03  0.11276469585E+03  0.00000000000E+00 0. -1.
         21   -1    0    0  506  502 -0.00000000000E+00 -0.00000000000E+00 -0.30313538254E+03  0.30313538254E+03  0.00000000000E+00 0. -1.
         21    1    1    2  503  505 -0.28553831110E+01  0.44123673677E+02  0.33195547810E+02  0.55290109295E+02  0.00000000000E+00 0. -1.
         21    1    1    2  504  501 -0.38221183767E+02  0.31812131821E+01  0.29353579171E+02  0.48297118093E+02  0.00000000000E+00 0.  1.
         21    1    1    2  505  502  0.73425771810E+02  0.36273827975E+02 -0.17634137634E+03  0.19443100466E+03  0.00000000000E+00 0. -1.
         21    1    1    2  506  504 -0.32349204932E+02 -0.83578714834E+02 -0.76578437331E+02  0.11788184634E+03  0.00000000000E+00 0. -1.
<scales pt_clust_3="52.72867" pt_clust_4="38.35334" pt_clust_5="79.24177" pt_clust_6="14000.00000"></scales>
<clustering>
<clus scale="   38.353">  1  4  2 -1</clus>
<clus scale="   52.729">  1  3  2 -1</clus>
<clus scale="   79.242">  2  5  1 -1</clus>
<clus scale="   38.353">  1  3  2 -1</clus>
</clustering>
</event>
<event>
 6    0  0.8641190E+002  0.1172488E+03  0.7546771E-02  0.1247706E+00
         21   -1    0    0  506  501  0.00000000000E+00  0.00000000000E+00  0.20472277000E+02  0.20472277000E+02  0.00000000000E+00 0. -1.
         21   -1    0    0  505  502 -0.00000000000E+00 -0.00000000000E+00 -0.22985220177E+04  0.22985220177E+04  0.00000000000E+00 0.  1.
         21    1    1    2  503  501  0.49684371448E+02 -0.17745884159E+02 -0.65891819579E+02  0.84410811263E+02  0.00000000000E+00 0. -1.
         21    1    1    2  504  503  0.48959603196E+02 -0.47560148862E+02 -0.14066845733E+03  0.15635416654E+03  0.00000000000E+00 0. -1.
         21    1    1    2  505  504 -0.70657403091E+02 -0.22808388233E+02 -0.84055945568E+03  0.84383226397E+03  0.00000000000E+00 0.  1.
         21    1    1    2  506  502 -0.27986571553E+02  0.88114421254E+02 -0.12309300081E+04  0.12343970529E+04  0.00000000000E+00 0.  1.
<scales pt_clust_3="31.76120" pt_clust_4="31.76120" pt_clust_5="74.24750" pt_clust_6="111.54451"></scales>
<clustering>
<clus scale="   31.761">  3  4 -1 -1</clus>
<clus scale="   74.247">  2  5  1 -1</clus>
<clus scale="  111.545">  2  6  1 -1</clus>
<clus scale="  117.249">  1  3  2 -1</clus>
</clustering>
</event>
<event>
 6    0  0.8641190E+002  0.1156192E+03  0.7546771E-02  0.1250504E+00
         21   -1    0    0  503  501  0.00000000000E+00  0.00000000000E+00  0.17194134810E+02  0.17194134810E+02  0.00000000000E+00 0.  1.
         21   -1    0    0  505  502 -0.00000000000E+00 -0.00000000000E+00 -0.29608862767E+04  0.29608862767E+04  0.00000000000E+00 0.  1.
         21    1    1    2  503  506 -0.10205988701E+02 -0.31730153023E+02 -0.47197986048E+02  0.57780746821E+02  0.00000000000E+00 0. -1.
         21    1    1    2  504  501 -0.15322648869E+03 -0.78981735332E+01 -0.85163738879E+03  0.86534789534E+03  0.00000000000E+00 0.  1.
         21    1    1    2  505  504  0.10547802098E+03 -0.12528745965E+02 -0.15830371440E+04  0.15865967294E+04  0.00000000000E+00 0.  1.
         21    1    1    2  506  502  0.57954456411E+02  0.52157072521E+02 -0.46181962302E+03  0.46835503994E+03  0.00000000000E+00 0.  1.
<scales pt_clust_3="33.33114" pt_clust_4="14000.00000" pt_clust_5="115.61922" pt_clust_6="70.20945"></scales>
<clustering>
<clus scale="   33.331">  1  3  2 -1</clus>
<clus scale="   70.209">  1  6  2 -1</clus>
<clus scale="  115.619">  2  5  1 -1</clus>
<clus scale="   33.331">  1  3  2 -1</clus>
</clustering>
</event>
<event>
 6    0  0.8641190E+002  0.1078188E+03  0.7546771E-02  0.1264663E+00
         21   -1    0    0  506  501  0.00000000000E+00  0.00000000000E+00  0.22030285567E+03  0.22030285567E+03  0.00000000000E+00 0. -1.
         21   -1    0    0  505  502 -0.00000000000E+00 -0.00000000000E+00 -0.43338289620E+03  0.43338289620E+03  0.00000000000E+00 0. -1.
         21    1    1    2  503  502 -0.39594375518E+02  0.61011252040E+02 -0.25672548872E+03  0.26682965354E+03  0.00000000000E+00 0. -1.
         21    1    1    2  504  503  0.10648050463E+03  0.64299145245E+01 -0.35714836581E+02  0.11249440528E+03  0.00000000000E+00 0. -1.
         21    1    1    2  505  501 -0.80514065546E+02 -0.10762498511E+03 -0.45962865204E+02  0.14205012196E+03  0.00000000000E+00 0. -1.
         21    1    1    2  506  504  0.13627936437E+02  0.40183818545E+02  0.12532314998E+03  0.13231157109E+03  0.00000000000E+00 0. -1.
<scales pt_clust_3="74.20754" pt_clust_4="14000.00000" pt_clust_5="107.81881" pt_clust_6="42.43183"></scales>
<clustering>
<clus scale="   42.432">  1  6  2 -1</clus>
<clus scale="   74.208">  2  3  1 -1</clus>
<clus scale="  107.819">  1  5  2 -1</clus>
<clus scale="   42.432">  1  3  2 -1</clus>
</clustering>
</event>
<event>
 6    0  0.8641190E+002  0.2318990E+03  0.7546771E-02  0.1125310E+00
         21   -1    0    0  506  501  0.00000000000E+00  0.00000000000E+00  0.93067276599E+03  0.93067276599E+03  0.00000000000E+00 0.  1.
         21   -1    0    0  505  502 -0.00000000000E+00 -0.00000000000E+00 -0.73852512212E+02  0.73852512212E+02  0.00000000000E+00 0.  1.
         21    1    1    2  503  501  0.34105752391E+02 -0.20642015103E+02  0.19159419523E+03  0.19569780474E+03  0.00000000000E+00 0.  1.
         21    1    1    2  504  502  0.97222337577E+01 -0.68465836700E+02  0.11824406711E+03  0.13698084549E+03  0.00000000000E+00 0.  1.
         21    1    1    2  505  503  0.59829198237E+01  0.23492393246E+03  0.35386357272E+03  0.42478756746E+03  0.00000000000E+00 0.  1.
         21    1    1    2  506  504 -0.49810905972E+02 -0.14581608066E+03  0.19311841871E+03  0.24705906050E+03  0.00000000000E+00 0.  1.
<scales pt_clust_3="39.86596" pt_clust_4="36.79165" pt_clust_5="225.30185" pt_clust_6="36.79165"></scales>
<clustering>
<clus scale="   36.792">  4  6 -1 -1</clus>
<clus scale="   39.866">  1  3  2 -1</clus>
<clus scale="  225.302">  1  5  2 -1</clus>
<clus scale="   39.866">  1  3  2 -1</clus>
</clustering>
</event>
<event>
 6    0  0.8641190E+002  0.7236452E+02  0.7546771E-02  0.1352232E+00
         21   -1    0    0  505  501  0.00000000000E+00  0.00000000000E+00  0.16512780461E+03  0.16512780461E+03  0.00000000000E+00 0.  1.
         21   -1    0    0  503  502 -0.00000000000E+00 -0.00000000000E+00 -0.13504320296E+03  0.13504320296E+03  0.00000000000E+00 0.  1.
         21    1    1    2  503  506  0.57878286233E+01 -0.40737870816E+02 -0.19627391650E+02  0.45588458866E+02  0.00000000000E+00 0.  1.
         21    1    1    2  504  502  0.59676259492E+02  0.26283892769E+02 -0.44248909790E+02  0.78803965533E+02  0.00000000000E+00 0.  1.
         21    1    1    2  505  504 -0.10422203902E+03  0.27278359798E+02  0.68371785955E+02  0.12759719215E+03  0.00000000000E+00 0.  1.
         21    1    1    2  506  501  0.38757950901E+02 -0.12824381751E+02  0.25589117130E+02  0.48181391022E+02  0.00000000000E+00 0. -1.
<scales pt_clust_3="43.14303" pt_clust_4="14000.00000" pt_clust_5="72.36452" pt_clust_6="40.82455"></scales>
<clustering>
<clus scale="   40.825">  1  6  2 -1</clus>
<clus scale="   43.143">  2  3  1 -1</clus>
<clus scale="   72.365">  1  5  2 -1</clus>
<clus scale="   40.825">  1  3  2 -1</clus>
</clustering>
</event>
<event>
 6    0  0.8641190E+002  0.1003310E+03  0.7546771E-02  0.1279601E+00
         21   -1    0    0  504  501  0.00000000000E+00  0.00000000000E+00  0.67608576787E+03  0.67608576787E+03  0.00000000000E+00 0.  1.
         21   -1    0    0  503  502 -0.00000000000E+00 -0.00000000000E+00 -0.38503814276E+03  0.38503814276E+03  0.00000000000E+00 0. -1.
         21    1    1    2  503  506  0.29445576185E+02 -0.89737838696E+02 -0.26189920849E+03  0.27840818425E+03  0.00000000000E+00 0. -1.
         21    1    1    2  504  505  0.30300289868E+02  0.78481006278E+02  0.30196498467E+02  0.89382349668E+02  0.00000000000E+00 0. -1.
         21    1    1    2  505  502 -0.71584947909E+02 -0.16402778536E+02 -0.69029313729E+02  0.10078939460E+03  0.00000000000E+00 0.  1.
         21    1    1    2  506  501  0.11839081856E+02  0.27659610954E+02  0.59177964886E+03  0.59254398211E+03  0.00000000000E+00 0.  1.
<scales pt_clust_3="100.33103" pt_clust_4="14000.00000" pt_clust_5="70.23848" pt_clust_6="30.08684"></scales>
<clustering>
<clus scale="   30.087">  1  6  2 -1</clus>
<clus scale="   70.238">  2  5  1 -1</clus>
<clus scale="  100.331">  2  3  1 -1</clus>
<clus scale="   30.087">  1  3  2 -1</clus>
</clustering>
</event>
<event>
 6    0  0.8641190E+002  0.2523889E+03  0.7546771E-02  0.1111804E+00
         21   -1    0    0  506  501  0.00000000000E+00  0.00000000000E+00  0.10645653380E+04  0.10645653380E+04  0.00000000000E+00 0.  1.
         21   -1    0    0  503  502 -0.00000000000E+00 -0.00000000000E+00 -0.29923695205E+03  0.29923695205E+03  0.00000000000E+00 0.  1.
         21    1    1    2  503  504  0.10972125207E+03 -0.11522777504E+03 -0.13816624471E+03  0.21072755984E+03  0.00000000000E+00 0.  1.
         21    1    1    2  504  505  0.77381617200E+02 -0.74641223601E+02 -0.40670224646E+02  0.11494909358E+03  0.00000000000E+00 0.  1.
         21    1    1    2  505  501 -0.14557195556E+03  0.19736485841E+03  0.96166191094E+03  0.99244028160E+03  0.00000000000E+00 0.  1.
         21    1    1    2  506  502 -0.41530913712E+02 -0.74958597675E+01 -0.17497055646E+02  0.45685355025E+02  0.00000000000E+00 0. -1.
<scales pt_clust_3="45.73802" pt_clust_4="45.73802" pt_clust_5="246.32312" pt_clust_6="42.20195"></scales>
<clustering>
<clus scale="   42.202">  2  6  1 -1</clus>
<clus scale="   45.738">  3  4 -1 -1</clus>
<clus scale="  246.323">  1  5  2 -1</clus>
<clus scale="  246.323">  1  3  2 -1</clus>
</clustering>
</event>
<event>
 6    0  0.1398719E+003  0.1018997E+03  0.7546771E-02  0.1276351E+00
         21   -1    0    0  503  501  0.00000000000E+00  0.00000000000E+00  0.18975412271E+04  0.18975412271E+04  0.00000000000E+00 0.  1.
         21   -1    0    0  505  502 -0.00000000000E+00 -0.00000000000E+00 -0.29101518188E+03  0.29101518188E+03  0.00000000000E+00 0.  1.
         21    1    1    2  503  506  0.71180861576E+02  0.71937123403E+02  0.17458579926E+04  0.17487886651E+04  0.00000000000E+00 0.  1.
         21    1    1    2  504  502  0.31742598495E+02 -0.32253115766E+02 -0.20888939968E+03  0.21373496985E+03  0.00000000000E+00 0.  1.
         21    1    1    2  505  501 -0.14867598404E+03 -0.42236979584E+02  0.15753654468E+02  0.15535986710E+03  0.00000000000E+00 0.  1.
         21    1    1    2  506  504  0.45752523973E+02  0.25529719472E+01  0.53803797794E+02  0.70672906921E+02  0.00000000000E+00 0. -1.
<scales pt_clust_3="14000.00000" pt_clust_4="45.25324" pt_clust_5="101.89972" pt_clust_6="49.11921"></scales>
<clustering>
<clus scale="   45.253">  2  4  1 -1</clus>
<clus scale="   49.119">  2  6  1 -1</clus>
<clus scale="  101.900">  2  5  1 -1</clus>
<clus scale="  101.900">  1  3  2 -1</clus>
</clustering>
</event>
<event>
 6    0  0.8641190E+002  0.1163358E+03  0.7546771E-02  0.1249267E+00
         21   -1    0    0  505  501  0.00000000000E+00  0.00000000000E+00  0.55348325332E+02  0.55348325332E+02  0.00000000000E+00 0. -1.
         21   -1    0    0  504  502 -0.00000000000E+00 -0.00000000000E+00 -0.22913983285E+04  0.22913983285E+04  0.00000000000E+00 0.  1.
         21    1    1    2  503  502  0.68625459307E+02  0.14487105009E+02 -0.16213277833E+04  0.16228441425E+04  0.00000000000E+00 0.  1.
         21    1    1    2  504  501 -0.16148157054E+03 -0.76357834044E+01 -0.34800353680E+03  0.38372003393E+03  0.00000000000E+00 0. -1.
         21    1    1    2  505  506  0.15987318311E+02 -0.28572563604E+02  0.22766662814E+02  0.39878649342E+02  0.00000000000E+00 0. -1.
         21    1    1    2  506  503  0.76868792926E+02  0.21721241999E+02 -0.28948534587E+03  0.30030382807E+03  0.00000000000E+00 0. -1.
<scales pt_clust_3="70.45223" pt_clust_4="116.33576" pt_clust_5="32.74119" pt_clust_6="14000.00000"></scales>
<clustering>
<clus scale="   32.741">  1  5  2 -1</clus>
<clus scale="   70.452">  2  3  1 -1</clus>
<clus scale="  116.336">  2  4  1 -1</clus>
<clus scale="   32.741">  1  3  2 -1</clus>
</clustering>
</event>
<event>
 6    0  0.8641190E+002  0.1059034E+03  0.7546771E-02  0.1268350E+00
         21   -1    0    0  506  501  0.00000000000E+00  0.00000000000E+00  0.44541320745E+03  0.44541320745E+03  0.00000000000E+00 0.  1.
         21   -1    0    0  503  502 -0.00000000000E+00 -0.00000000000E+00 -0.10466551328E+03  0.10466551328E+03  0.00000000000E+00 0.  1.
         21    1    1    2  503  501  0.12973332116E+03  0.93885844133E+01  0.10290388098E+03  0.16585562654E+03  0.00000000000E+00 0.  1.
         21    1    1    2  504  502 -0.75161425761E+02  0.80103932874E+02  0.63233197087E+01  0.11002665294E+03  0.00000000000E+00 0.  1.
         21    1    1    2  505  504 -0.64323082993E+02 -0.25714875828E+02  0.62575565291E+02  0.93351032217E+02  0.00000000000E+00 0.  1.
         21    1    1    2  506  505  0.97511875986E+01 -0.63777641460E+02  0.16894492819E+03  0.18084540904E+03  0.00000000000E+00 0.  1.
<scales pt_clust_3="105.90341" pt_clust_4="14000.00000" pt_clust_5="75.68517" pt_clust_6="64.51878"></scales>
<clustering>
<clus scale="   64.519">  1  6  2 -1</clus>
<clus scale="   75.685">  1  5  2 -1</clus>
<clus scale="  105.903">  1  3  2 -1</clus>
<clus scale="   64.519">  1  3  2 -1</clus>
</clustering>
</event>
<event>
 6    0  0.8641190E+002  0.8122562E+02  0.7546771E-02  0.1325609E+00
         21   -1    0    0  505  501  0.00000000000E+00  0.00000000000E+00  0.11532454637E+04  0.11532454637E+04  0.00000000000E+00 0.  1.
         21   -1    0    0  504  502 -0.00000000000E+00 -0.00000000000E+00 -0.75894090190E+02  0.75894090190E+02  0.00000000000E+00 0.  1.
         21    1    1    2  503  502 -0.12012871643E+01 -0.52757987335E+02 -0.52822326436E+02  0.74666233925E+02  0.00000000000E+00 0.  1.
         21    1    1    2  504  506  0.87895144022E+02  0.56376629110E+02  0.35102560916E+03  0.36622787843E+03  0.00000000000E+00 0. -1.
         21    1    1    2  505  503 -0.22357074864E+02 -0.21626326905E+02  0.78786232104E+02  0.84704233548E+02  0.00000000000E+00 0.  1.
         21    1    1    2  506  501 -0.64336781994E+02  0.18007685130E+02  0.70036185866E+03  0.70354120797E+03  0.00000000000E+00 0.  1.
<scales pt_clust_3="52.99770" pt_clust_4="14000.00000" pt_clust_5="31.10525" pt_clust_6="81.22562"></scales>
<clustering>
<clus scale="   31.105">  1  5  2 -1</clus>
<clus scale="   52.998">  2  3  1 -1</clus>
<clus scale="   81.226">  1  6  2 -1</clus>
<clus scale="   31.105">  1  3  2 -1</clus>
</clustering>
</event>
<event>
 6    0  0.8641190E+002  0.1342842E+03  0.7546771E-02  0.1221234E+00
         21   -1    0    0  505  501  0.00000000000E+00  0.00000000000E+00  0.20876998121E+04  0.20876998121E+04  0.00000000000E+00 0. -1.
         21   -1    0    0  506  502 -0.00000000000E+00 -0.00000000000E+00 -0.53780734096E+03  0.53780734096E+03  0.00000000000E+00 0. -1.
         21    1    1    2  503  501  0.58006310721E+01  0.44007993152E+02  0.20057068636E+04  0.20061979896E+04  0.00000000000E+00 0. -1.
         21    1    1    2  504  503  0.48145268992E+02  0.50036265495E+02  0.19499544133E+02  0.72123692449E+02  0.00000000000E+00 0. -1.
         21    1    1    2  505  502  0.79268357737E+02 -0.16413201042E+02 -0.50874890315E+02  0.95609205474E+02  0.00000000000E+00 0.  1.
         21    1    1    2  506  504 -0.13321425780E+03 -0.77631057605E+02 -0.42443904628E+03  0.45157626554E+03  0.00000000000E+00 0. -1.
<scales pt_clust_3="44.38863" pt_clust_4="14000.00000" pt_clust_5="80.97360" pt_clust_6="134.28416"></scales>
<clustering>
<clus scale="   44.389">  1  3  2 -1</clus>
<clus scale="   80.974">  1  5  2 -1</clus>
<clus scale="  134.284">  2  6  1 -1</clus>
<clus scale="   44.389">  1  3  2 -1</clus>
</clustering>
</event>
<event>
 6    0  0.8641190E+002  0.7599111E+02  0.7546771E-02  0.1340829E+00
         21   -1    0    0  503  501  0.00000000000E+00  0.00000000000E+00  0.74243458180E+03  0.74243458180E+03  0.00000000000E+00 0. -1.
         21   -1    0    0  504  502 -0.00000000000E+00 -0.00000000000E+00 -0.99633661372E+02  0.99633661372E+02  0.00000000000E+00 0. -1.
         21    1    1    2  503  505 -0.60888489278E+02  0.51541437020E+02  0.45129201340E+03  0.45828856545E+03  0.00000000000E+00 0. -1.
         21    1    1    2  504  506  0.43924191061E+01  0.36642965862E+02 -0.59082746061E+02  0.69661834421E+02  0.00000000000E+00 0. -1.
         21    1    1    2  505  502  0.66922277225E+02 -0.27679776997E+02  0.24140991180E+03  0.25203870092E+03  0.00000000000E+00 0. -1.
         21    1    1    2  506  501 -0.10426207053E+02 -0.60504625885E+02  0.91817412862E+01  0.62079142391E+02  0.00000000000E+00 0. -1.
<scales pt_clust_3="75.99111" pt_clust_4="36.90529" pt_clust_5="14000.00000" pt_clust_6="33.78098"></scales>
<clustering>
<clus scale="   36.905">  2  4  1 -1</clus>
<clus scale="   33.781">  2  6  1 -1</clus>
<clus scale="   75.991">  1  3  2 -1</clus>
<clus scale="   75.991">  1  3  2 -1</clus>
</clustering>
</event>
<event>
 6    0  0.8641190E+002  0.7056033E+02  0.7546771E-02  0.1358198E+00
         21   -1    0    0  506  501  0.00000000000E+00  0.00000000000E+00  0.63583952749E+03  0.63583952749E+03  0.00000000000E+00 0. -1.
         21   -1    0    0  505  502 -0.00000000000E+00 -0.00000000000E+00 -0.20095532767E+03  0.20095532767E+03  0.00000000000E+00 0.  1.
         21    1    1    2  503  502  0.52884823428E+02 -0.78187835060E+02 -0.81348744506E+02  0.12461043429E+03  0.00000000000E+00 0. -1.
         21    1    1    2  504  501 -0.36917096023E+02  0.43686009411E+02  0.35244987276E+02  0.67182948172E+02  0.00000000000E+00 0.  1.
         21    1    1    2  505  504 -0.54451346352E+02 -0.83907079090E+00 -0.71595599668E+02  0.89953227019E+02  0.00000000000E+00 0.  1.
         21    1    1    2  506  503  0.38483618947E+02  0.35340896441E+02  0.55258355671E+03  0.55504824568E+03  0.00000000000E+00 0. -1.
<scales pt_clust_3="14000.00000" pt_clust_4="70.56033" pt_clust_5="50.24156" pt_clust_6="52.24909"></scales>
<clustering>
<clus scale="   52.249">  1  6  2 -1</clus>
<clus scale="   50.242">  2  5  1 -1</clus>
<clus scale="   70.560">  1  4  2 -1</clus>
<clus scale="   52.249">  1  3  2 -1</clus>
</clustering>
</event>
<event>
 6    0  0.8641190E+002  0.2458740E+03  0.7546771E-02  0.1115940E+00
         21   -1    0    0  503  501  0.00000000000E+00  0.00000000000E+00  0.27105995987E+03  0.27105995987E+03  0.00000000000E+00 0. -1.
         21   -1    0    0  505  502 -0.00000000000E+00 -0.00000000000E+00 -0.44461055152E+03  0.44461055152E+03  0.00000000000E+00 0. -1.
         21    1    1    2  503  506 -0.29411990801E+02  0.20513733794E+03  0.58734044006E+02  0.21539749428E+03  0.00000000000E+00 0. -1.
         21    1    1    2  504  501 -0.79091985246E+01 -0.89181729530E+02 -0.29154829816E+01  0.89579218261E+02  0.00000000000E+00 0. -1.
         21    1    1    2  505  504 -0.20296131402E+02 -0.22042499512E+03 -0.15071601238E+03  0.26779549625E+03  0.00000000000E+00 0. -1.
         21    1    1    2  506  502  0.57617320728E+02  0.10446938671E+03 -0.78653140299E+02  0.14289830260E+03  0.00000000000E+00 0. -1.
<scales pt_clust_3="230.19951" pt_clust_4="54.93821" pt_clust_5="54.93821" pt_clust_6="119.30469"></scales>
<clustering>
<clus scale="   54.938">  4  5 -1 -1</clus>
<clus scale="  119.305">  2  6  1 -1</clus>
<clus scale="  230.200">  1  3  2 -1</clus>
<clus scale="  230.200">  1  3  2 -1</clus>
</clustering>
</event>
<event>
 6    0  0.8641190E+002  0.1483974E+03  0.7546771E-02  0.1202456E+00
         21   -1    0    0  503  501  0.00000000000E+00  0.00000000000E+00  0.74690601554E+03  0.74690601554E+03  0.00000000000E+00 0.  1.
         21   -1    0    0  506  502 -0.00000000000E+00 -0.00000000000E+00 -0.20111026873E+04  0.20111026873E+04  0.00000000000E+00 0.  1.
         21    1    1    2  503  505 -0.19373321093E+02  0.50256826055E+02  0.24724815633E+03  0.25304688290E+03  0.00000000000E+00 0.  1.
         21    1    1    2  504  501  0.32090321894E+02 -0.56721107342E+02  0.77265499386E+02  0.10107932614E+03  0.00000000000E+00 0. -1.
         21    1    1    2  505  502 -0.12904628694E+03  0.73468738104E+02 -0.19823894922E+04  0.19879433338E+04  0.00000000000E+00 0.  1.
         21    1    1    2  506  504  0.11632928614E+03 -0.67004456817E+02  0.39367916475E+03  0.41593915998E+03  0.00000000000E+00 0.  1.
<scales pt_clust_3="53.86162" pt_clust_4="55.62313" pt_clust_5="148.39736" pt_clust_6="14000.00000"></scales>
<clustering>
<clus scale="   53.862">  1  3  2 -1</clus>
<clus scale="   55.623">  1  4  2 -1</clus>
<clus scale="  148.397">  2  5  1 -1</clus>
<clus scale="   53.862">  1  3  2 -1</clus>
</clustering>
</event>
<event>
 6    0  0.8641190E+002  0.1485730E+03  0.7546771E-02  0.1202238E+00
         21   -1    0    0  504  501  0.00000000000E+00  0.00000000000E+00  0.14502746641E+04  0.14502746641E+04  0.00000000000E+00 0. -1.
         21   -1    0    0  503  502 -0.00000000000E+00 -0.00000000000E+00 -0.10077317284E+03  0.10077317284E+03  0.00000000000E+00 0.  1.
         21    1    1    2  503  506  0.47285122563E+02  0.13211281633E+02 -0.38013572888E+02  0.62092290197E+02  0.00000000000E+00 0.  1.
         21    1    1    2  504  505 -0.13030537771E+03 -0.75852172037E+02  0.11517921956E+04  0.11616188296E+04  0.00000000000E+00 0. -1.
         21    1    1    2  505  502 -0.61583227155E+02  0.48566378813E+02  0.11066975536E+03  0.13564284636E+03  0.00000000000E+00 0.  1.
         21    1    1    2  506  501  0.14460348230E+03  0.14074511591E+02  0.12505311317E+03  0.19169387075E+03  0.00000000000E+00 0.  1.
<scales pt_clust_3="49.09604" pt_clust_4="14000.00000" pt_clust_5="71.96823" pt_clust_6="148.57298"></scales>
<clustering>
<clus scale="   49.096">  2  3  1 -1</clus>
<clus scale="   71.968">  2  5  1 -1</clus>
<clus scale="  148.573">  2  6  1 -1</clus>
<clus scale="  148.573">  1  3  2 -1</clus>
</clustering>
</event>
<event>
 6    0  0.8641190E+002  0.8190822E+02  0.7546771E-02  0.1323722E+00
         21   -1    0    0  504  501  0.00000000000E+00  0.00000000000E+00  0.72671520035E+03  0.72671520035E+03  0.00000000000E+00 0.  1.
         21   -1    0    0  503  502 -0.00000000000E+00 -0.00000000000E+00 -0.18115924750E+03  0.18115924750E+03  0.00000000000E+00 0.  1.
         21    1    1    2  503  505 -0.79375541024E+01 -0.55986134875E+02 -0.13705032504E+03  0.14825735616E+03  0.00000000000E+00 0.  1.
         21    1    1    2  504  506  0.21770830278E+02 -0.51909027606E+02  0.67360910767E+02  0.87783873789E+02  0.00000000000E+00 0. -1.
         21    1    1    2  505  501 -0.43874662581E+02  0.13158363087E+03  0.61809753318E+03  0.63346965077E+03  0.00000000000E+00 0.  1.
         21    1    1    2  506  502  0.30041386405E+02 -0.23688468389E+02 -0.28521660638E+01  0.38363567131E+02  0.00000000000E+00 0. -1.
<scales pt_clust_3="14000.00000" pt_clust_4="58.42987" pt_clust_5="81.90822" pt_clust_6="38.25740"></scales>
<clustering>
<clus scale="   38.257">  2  6  1 -1</clus>
<clus scale="   58.430">  1  4  2 -1</clus>
<clus scale="   81.908">  1  5  2 -1</clus>
<clus scale="   58.430">  1  3  2 -1</clus>
</clustering>
</event>
<event>
 6    0  0.8641190E+002  0.2027286E+03  0.7546771E-02  0.1147457E+00
         21   -1    0    0  505  501  0.00000000000E+00  0.00000000000E+00  0.13863581083E+04  0.13863581083E+04  0.00000000000E+00 0. -1.
         21   -1    0    0  504  502 -0.00000000000E+00 -0.00000000000E+00 -0.52790767698E+02  0.52790767698E+02  0.00000000000E+00 0. -1.
         21    1    1    2  503  501 -0.11050056342E+02 -0.86296887567E+02  0.22612414679E+03  0.24228368974E+03  0.00000000000E+00 0. -1.
         21    1    1    2  504  506 -0.48952689604E+02  0.15723201312E+02  0.15936812034E+02  0.53829052163E+02  0.00000000000E+00 0. -1.
         21    1    1    2  505  502  0.28474574524E+02  0.19175370334E+03  0.84006295291E+03  0.86214038822E+03  0.00000000000E+00 0. -1.
         21    1    1    2  506  503  0.31528171422E+02 -0.12118001709E+03  0.25144342882E+03  0.28089574584E+03  0.00000000000E+00 0. -1.
<scales pt_clust_3="38.91849" pt_clust_4="51.41580" pt_clust_5="197.27889" pt_clust_6="38.91849"></scales>
<clustering>
<clus scale="   38.918">  3  6 -1 -1</clus>
<clus scale="   51.416">  2  4  1 -1</clus>
<clus scale="  197.279">  1  5  2 -1</clus>
<clus scale="  197.279">  1  3  2 -1</clus>
</clustering>
</event>
<event>
 6    0  0.8641190E+002  0.1582078E+03  0.7546771E-02  0.1190735E+00
         21   -1    0    0  504  501  0.00000000000E+00  0.00000000000E+00  0.28790241925E+03  0.28790241925E+03  0.00000000000E+00 0. -1.
         21   -1    0    0  505  502 -0.00000000000E+00 -0.00000000000E+00 -0.22689892987E+04  0.22689892987E+04  0.00000000000E+00 0.  1.
         21    1    1    2  503  506  0.18543009029E+02 -0.49833813726E+02 -0.52412018893E+02  0.74661046730E+02  0.00000000000E+00 0. -1.
         21    1    1    2  504  502  0.80825718418E+02  0.94493059400E+01  0.24892004817E+03  0.26188408986E+03  0.00000000000E+00 0. -1.
         21    1    1    2  505  503 -0.14121265435E+03  0.73694625579E+02 -0.21572525616E+04  0.21631251758E+04  0.00000000000E+00 0.  1.
         21    1    1    2  506  501  0.41843926905E+02 -0.33310117793E+02 -0.20342347077E+02  0.57221405530E+02  0.00000000000E+00 0. -1.
<scales pt_clust_3="39.13204" pt_clust_4="81.37620" pt_clust_5="153.26260" pt_clust_6="39.13204"></scales>
<clustering>
<clus scale="   39.132">  3  6 -1 -1</clus>
<clus scale="   81.376">  1  4  2 -1</clus>
<clus scale="  153.263">  2  5  1 -1</clus>
<clus scale="   81.376">  1  3  2 -1</clus>
</clustering>
</event>
<event>
 6    0  0.8641190E+002  0.1278240E+03  0.7546771E-02  0.1230721E+00
         21   -1    0    0  504  501  0.00000000000E+00  0.00000000000E+00  0.63816221640E+03  0.63816221640E+03  0.00000000000E+00 0.  1.
         21   -1    0    0  503  502 -0.00000000000E+00 -0.00000000000E+00 -0.21356672294E+03  0.21356672294E+03  0.00000000000E+00 0. -1.
         21    1    1    2  503  506  0.37097215220E+02 -0.25702173561E+02  0.77818842441E+02  0.89958753558E+02  0.00000000000E+00 0. -1.
         21    1    1    2  504  502 -0.11957086558E+03 -0.87013955317E+01 -0.18415515747E+03  0.21974082052E+03  0.00000000000E+00 0. -1.
         21    1    1    2  505  501  0.20751454837E+02  0.32475470657E+02  0.31791000103E+03  0.32023748660E+03  0.00000000000E+00 0. -1.
         21    1    1    2  506  505  0.61722195524E+02  0.19280984350E+01  0.21302180746E+03  0.22179187866E+03  0.00000000000E+00 0.  1.
<scales pt_clust_3="36.17457" pt_clust_4="118.61405" pt_clust_5="38.53932" pt_clust_6="36.17457"></scales>
<clustering>
<clus scale="   38.539">  1  5  2 -1</clus>
<clus scale="   36.175">  3  6 -1 -1</clus>
<clus scale="  118.614">  2  4  1 -1</clus>
<clus scale="   38.539">  1  3  2 -1</clus>
</clustering>
</event>
<event>
 6    0  0.8641190E+002  0.9406775E+02  0.7546771E-02  0.1293290E+00
         21   -1    0    0  503  501  0.00000000000E+00  0.00000000000E+00  0.15667651853E+03  0.15667651853E+03  0.00000000000E+00 0. -1.
         21   -1    0    0  505  502 -0.00000000000E+00 -0.00000000000E+00 -0.16887592121E+03  0.16887592121E+03  0.00000000000E+00 0. -1.
         21    1    1    2  503  504 -0.20526866323E+02  0.26128691626E+02  0.49427909870E+01  0.33593034246E+02  0.00000000000E+00 0. -1.
         21    1    1    2  504  502  0.23602589081E+02  0.45632974413E+02  0.75821145613E+01  0.51932061641E+02  0.00000000000E+00 0. -1.
         21    1    1    2  505  506  0.81124492748E+02 -0.62126328822E+02 -0.87527898890E+02  0.13454366258E+03  0.00000000000E+00 0. -1.
         21    1    1    2  506  501 -0.84200215507E+02 -0.96353372168E+01  0.62803590662E+02  0.10548368127E+03  0.00000000000E+00 0. -1.
<scales pt_clust_3="33.22741" pt_clust_4="54.75224" pt_clust_5="14000.00000" pt_clust_6="94.06775"></scales>
<clustering>
<clus scale="   33.227">  1  3  2 -1</clus>
<clus scale="   54.752">  1  4  2 -1</clus>
<clus scale="   94.068">  1  6  2 -1</clus>
<clus scale="   33.227">  1  3  2 -1</clus>
</clustering>
</event>
<event>
 6    0  0.8641190E+002  0.1166692E+03  0.7546771E-02  0.1248695E+00
         21   -1    0    0  503  501  0.00000000000E+00  0.00000000000E+00  0.79364295425E+03  0.79364295425E+03  0.00000000000E+00 0.  1.
         21   -1    0    0  504  502 -0.00000000000E+00 -0.00000000000E+00 -0.87621358935E+02  0.87621358935E+02  0.00000000000E+00 0.  1.
         21    1    1    2  503  506  0.38934958817E+02 -0.84810814273E+02  0.46328697815E+03  0.47259245589E+03  0.00000000000E+00 0.  1.
         21    1    1    2  504  505  0.15056534380E+02  0.42438162820E+02  0.79082229318E+02  0.91003823464E+02  0.00000000000E+00 0.  1.
         21    1    1    2  505  501 -0.47883738910E+02  0.10246431889E+03  0.21201149354E+03  0.24029286816E+03  0.00000000000E+00 0.  1.
         21    1    1    2  506  502 -0.61077542869E+01 -0.60091667439E+02 -0.48359105697E+02  0.77375165667E+02  0.00000000000E+00 0.  1.
<scales pt_clust_3="103.26722" pt_clust_4="34.25716" pt_clust_5="34.25716" pt_clust_6="60.40127"></scales>
<clustering>
<clus scale="   34.257">  4  5 -1 -1</clus>
<clus scale="   60.401">  2  6  1 -1</clus>
<clus scale="  103.267">  1  3  2 -1</clus>
<clus scale="  103.267">  1  3  2 -1</clus>
</clustering>
</event>
<event>
 6    0  0.8641190E+002  0.1237429E+03  0.7546771E-02  0.1237047E+00
         21   -1    0    0  505  501  0.00000000000E+00  0.00000000000E+00  0.24022190519E+03  0.24022190519E+03  0.00000000000E+00 0. -1.
         21   -1    0    0  501  502 -0.00000000000E+00 -0.00000000000E+00 -0.33429932948E+03  0.33429932948E+03  0.00000000000E+00 0.  1.
         21    1    1    2  503  504  0.24435738837E+01 -0.10427417744E+03 -0.47650175961E+02  0.11467176812E+03  0.00000000000E+00 0.  1.
         21    1    1    2  504  502  0.12504403670E+02 -0.46693197021E+02 -0.21177995935E+03  0.21722653139E+03  0.00000000000E+00 0.  1.
         21    1    1    2  505  506 -0.45054727733E+02  0.45430449654E+02  0.37640227659E+02  0.74233691711E+02  0.00000000000E+00 0. -1.
         21    1    1    2  506  503  0.30106750180E+02  0.10553692481E+03  0.12771248335E+03  0.16838924345E+03  0.00000000000E+00 0. -1.
<scales pt_clust_3="123.74294" pt_clust_4="48.33854" pt_clust_5="57.69131" pt_clust_6="14000.00000"></scales>
<clustering>
<clus scale="   48.339">  2  4  1 -1</clus>
<clus scale="   57.691">  1  5  2 -1</clus>
<clus scale="  123.743">  2  3  1 -1</clus>
<clus scale="   57.691">  1  3  2 -1</clus>
</clustering>
</event>
<event>
 6    0  0.8641190E+002  0.1418708E+03  0.7546771E-02  0.1210834E+00
         21   -1    0    0  506  501  0.00000000000E+00  0.00000000000E+00  0.63620008861E+03  0.63620008861E+03  0.00000000000E+00 0.  1.
         21   -1    0    0  505  502 -0.00000000000E+00 -0.00000000000E+00 -0.23549056930E+03  0.23549056930E+03  0.00000000000E+00 0.  1.
         21    1    1    2  503  502  0.19168033147E+02 -0.92718627248E+02 -0.13797607044E+03  0.16733664676E+03  0.00000000000E+00 0.  1.
         21    1    1    2  504  501  0.29025673935E+02  0.63301892361E+02  0.79638439838E+02  0.10579177862E+03  0.00000000000E+00 0. -1.
         21    1    1    2  505  504  0.11839872911E+03  0.16885139846E+02  0.10668731715E+02  0.12007159880E+03  0.00000000000E+00 0.  1.
         21    1    1    2  506  503 -0.16659243619E+03  0.12531595041E+02  0.44837841820E+03  0.47849063374E+03  0.00000000000E+00 0.  1.
<scales pt_clust_3="93.17016" pt_clust_4="69.63921" pt_clust_5="141.87085" pt_clust_6="14000.00000"></scales>
<clustering>
<clus scale="   69.639">  1  4  2 -1</clus>
<clus scale="   93.170">  2  3  1 -1</clus>
<clus scale="  141.871">  2  5  1 -1</clus>
<clus scale="   69.639">  1  3  2 -1</clus>
</clustering>
</event>
<event>
 6    0  0.8641190E+002  0.1498758E+03  0.7546771E-02  0.1200626E+00
         21   -1    0    0  505  501  0.00000000000E+00  0.00000000000E+00  0.26254438221E+03  0.26254438221E+03  0.00000000000E+00 0.  1.
         21   -1    0    0  503  502 -0.00000000000E+00 -0.00000000000E+00 -0.38509677711E+03  0.38509677711E+03  0.00000000000E+00 0.  1.
         21    1    1    2  503  504  0.70060044827E+01 -0.29325618519E+02 -0.16069294496E+02  0.34165746384E+02  0.00000000000E+00 0.  1.
         21    1    1    2  504  501 -0.15378969328E+03 -0.29443901185E+02  0.18401973767E+03  0.24162259193E+03  0.00000000000E+00 0.  1.
         21    1    1    2  505  506  0.11319587098E+03  0.65016950183E+02 -0.68851436032E+02  0.14758397359E+03  0.00000000000E+00 0.  1.
         21    1    1    2  506  502  0.33587817817E+02 -0.62474304786E+01 -0.22165140205E+03  0.22426884742E+03  0.00000000000E+00 0.  1.
<scales pt_clust_3="30.15089" pt_clust_4="14000.00000" pt_clust_5="149.87577" pt_clust_6="45.10382"></scales>
<clustering>
<clus scale="   30.151">  2  3  1 -1</clus>
<clus scale="   45.104">  2  6  1 -1</clus>
<clus scale="  149.876">  2  5  1 -1</clus>
<clus scale="  149.876">  1  3  2 -1</clus>
</clustering>
</event>
<event>
 6    0  0.8641190E+002  0.9568174E+02  0.7546771E-02  0.1289648E+00
         21   -1    0    0  502  501  0.00000000000E+00  0.00000000000E+00  0.90371317731E+02  0.90371317731E+02  0.00000000000E+00 0.  1.
         21   -1    0    0  503  502 -0.00000000000E+00 -0.00000000000E+00 -0.49493020686E+03  0.49493020686E+03  0.00000000000E+00 0.  1.
         21    1    1    2  503  505 -0.51330208663E+02  0.71755261293E+02 -0.39511595084E+03  0.40484592434E+03  0.00000000000E+00 0.  1.
         21    1    1    2  504  506  0.50808759150E+02 -0.41638712045E+02 -0.40583157800E+01  0.65816276666E+02  0.00000000000E+00 0.  1.
         21    1    1    2  505  504  0.52513767088E+02 -0.11371345570E+02 -0.20228280075E+02  0.57412425037E+02  0.00000000000E+00 0.  1.
         21    1    1    2  506  501 -0.51992317575E+02 -0.18745203678E+02  0.14843657567E+02  0.57226898550E+02  0.00000000000E+00 0. -1.
<scales pt_clust_3="89.69466" pt_clust_4="30.12961" pt_clust_5="30.12961" pt_clust_6="55.26829"></scales>
<clustering>
<clus scale="   30.130">  4  5 -1 -1</clus>
<clus scale="   55.268">  1  6  2 -1</clus>
<clus scale="   89.695">  2  3  1 -1</clus>
<clus scale="   55.268">  1  3  2 -1</clus>
</clustering>
</event>
<event>
 6    0  0.8641190E+002  0.7785646E+02  0.7546771E-02  0.1335247E+00
         21   -1    0    0  503  501  0.00000000000E+00  0.00000000000E+00  0.23939786922E+04  0.23939786922E+04  0.00000000000E+00 0. -1.
         21   -1    0    0  505  502 -0.00000000000E+00 -0.00000000000E+00 -0.19100352100E+02  0.19100352100E+02  0.00000000000E+00 0.  1.
         21    1    1    2  503  502 -0.12640982676E+02  0.67039111309E+02  0.88426237401E+03  0.88689006251E+03  0.00000000000E+00 0. -1.
         21    1    1    2  504  501 -0.34333160120E+02  0.92044642217E+01  0.38091391601E+03  0.38256881662E+03  0.00000000000E+00 0. -1.
         21    1    1    2  505  506  0.71795905894E+02  0.14497132537E+02  0.75652492413E+02  0.10530013563E+03  0.00000000000E+00 0.  1.
         21    1    1    2  506  504 -0.24821763098E+02 -0.90740708068E+02  0.10340495577E+04  0.10383200295E+04  0.00000000000E+00 0. -1.
<scales pt_clust_3="77.85646" pt_clust_4="35.54558" pt_clust_5="71.81718" pt_clust_6="14000.00000"></scales>
<clustering>
<clus scale="   35.546">  1  4  2 -1</clus>
<clus scale="   71.817">  2  5  1 -1</clus>
<clus scale="   77.856">  1  3  2 -1</clus>
<clus scale="   35.546">  1  3  2 -1</clus>
</clustering>
</event>
<event>
 6    0  0.8641190E+002  0.8230022E+02  0.7546771E-02  0.1322648E+00
         21   -1    0    0  504  501  0.00000000000E+00  0.00000000000E+00  0.11997399094E+03  0.11997399094E+03  0.00000000000E+00 0.  1.
         21   -1    0    0  503  502 -0.00000000000E+00 -0.00000000000E+00 -0.15679387550E+04  0.15679387550E+04  0.00000000000E+00 0.  1.
         21    1    1    2  503  505 -0.53801016114E+02  0.63654665161E+02 -0.16143446691E+03  0.18167980856E+03  0.00000000000E+00 0.  1.
         21    1    1    2  504  506  0.31691548230E+02 -0.29131270808E+02 -0.51982582766E+02  0.67492029746E+02  0.00000000000E+00 0.  1.
         21    1    1    2  505  501  0.50095365352E+02 -0.65180083365E+02  0.85169185799E+02  0.11837136101E+03  0.00000000000E+00 0.  1.
         21    1    1    2  506  502 -0.27985897468E+02  0.30656689013E+02 -0.13197169002E+04  0.13203695467E+04  0.00000000000E+00 0.  1.
<scales pt_clust_3="14000.00000" pt_clust_4="33.09334" pt_clust_5="82.30022" pt_clust_6="41.50955"></scales>
<clustering>
<clus scale="   41.510">  2  6  1 -1</clus>
<clus scale="   33.093">  2  4  1 -1</clus>
<clus scale="   82.300">  1  5  2 -1</clus>
<clus scale="   82.300">  1  3  2 -1</clus>
</clustering>
</event>
<event>
 6    0  0.8641190E+002  0.1014888E+03  0.7546771E-02  0.1277196E+00
         21   -1    0    0  506  501  0.00000000000E+00  0.00000000000E+00  0.22979907072E+02  0.22979907072E+02  0.00000000000E+00 0.  1.
         21   -1    0    0  504  502 -0.00000000000E+00 -0.00000000000E+00 -0.10035713713E+04  0.10035713713E+04  0.00000000000E+00 0. -1.
         21    1    1    2  503  505  0.19490552120E+02 -0.27874156219E+02 -0.99889504767E+02  0.10552138821E+03  0.00000000000E+00 0.  1.
         21    1    1    2  504  503 -0.60098692695E+02 -0.89038199984E+01 -0.23064107602E+03  0.23850877725E+03  0.00000000000E+00 0.  1.
         21    1    1    2  505  501  0.16030500115E+02 -0.59057047705E+02 -0.65464965569E+02  0.89612351461E+02  0.00000000000E+00 0.  1.
         21    1    1    2  506  502  0.24577640459E+02  0.95835023923E+02 -0.58459591785E+03  0.59290876144E+03  0.00000000000E+00 0. -1.
<scales pt_clust_3="32.63593" pt_clust_4="60.75468" pt_clust_5="32.63593" pt_clust_6="91.56241"></scales>
<clustering>
<clus scale="   32.636">  3  5 -1 -1</clus>
<clus scale="   60.755">  2  4  1 -1</clus>
<clus scale="   91.562">  2  6  1 -1</clus>
<clus scale="  101.489">  1  3  2 -1</clus>
</clustering>
</event>
<event>
 6    0  0.8641190E+002  0.6798475E+02  0.7546771E-02  0.1367083E+00
         21   -1    0    0  505  501  0.00000000000E+00  0.00000000000E+00  0.78262796943E+03  0.78262796943E+03  0.00000000000E+00 0. -1.
         21   -1    0    0  506  502 -0.00000000000E+00 -0.00000000000E+00 -0.64458721427E+02  0.64458721427E+02  0.00000000000E+00 0. -1.
         21    1    1    2  503  504  0.81273053680E+02 -0.53667968883E+02  0.23594306540E+03  0.25525416793E+03  0.00000000000E+00 0. -1.
         21    1    1    2  504  501  0.29906135647E+02  0.11612119941E+02  0.40007087940E+03  0.40135511311E+03  0.00000000000E+00 0. -1.
         21    1    1    2  505  502 -0.44557264962E+02  0.48120766141E+02  0.10149593681E+03  0.12084032102E+03  0.00000000000E+00 0. -1.
         21    1    1    2  506  503 -0.66621924365E+02 -0.60649171998E+01 -0.19340633607E+02  0.69637088789E+02  0.00000000000E+00 0. -1.
<scales pt_clust_3="67.98475" pt_clust_4="32.08143" pt_clust_5="62.75120" pt_clust_6="14000.00000"></scales>
<clustering>
<clus scale="   32.081">  1  4  2 -1</clus>
<clus scale="   62.751">  1  5  2 -1</clus>
<clus scale="   67.985">  1  3  2 -1</clus>
<clus scale="   32.081">  1  3  2 -1</clus>
</clustering>
</event>
<event>
 6    0  0.8641190E+002  0.1121375E+03  0.7546771E-02  0.1256662E+00
         21   -1    0    0  503  501  0.00000000000E+00  0.00000000000E+00  0.64619073696E+03  0.64619073696E+03  0.00000000000E+00 0.  1.
         21   -1    0    0  506  502 -0.00000000000E+00 -0.00000000000E+00 -0.25537921801E+03  0.25537921801E+03  0.00000000000E+00 0. -1.
         21    1    1    2  503  504 -0.45511550126E+02  0.18725326671E+02  0.14110892942E+02  0.51196253315E+02  0.00000000000E+00 0.  1.
         21    1    1    2  504  502  0.11094458585E+02 -0.28891198735E+02  0.37174245840E+01  0.31170621123E+02  0.00000000000E+00 0. -1.
         21    1    1    2  505  501  0.11267534333E+03 -0.79221314779E+01  0.58326589461E+03  0.59410234554E+03  0.00000000000E+00 0.  1.
         21    1    1    2  506  505 -0.78258251789E+02  0.18088003542E+02 -0.21028269319E+03  0.22510073500E+03  0.00000000000E+00 0. -1.
<scales pt_clust_3="47.61371" pt_clust_4="30.94816" pt_clust_5="14000.00000" pt_clust_6="112.13747"></scales>
<clustering>
<clus scale="   30.948">  2  4  1 -1</clus>
<clus scale="   47.614">  2  3  1 -1</clus>
<clus scale="  112.137">  2  6  1 -1</clus>
<clus scale="  112.137">  1  3  2 -1</clus>
</clustering>
</event>
<event>
 6    0  0.8641190E+002  0.1019589E+03  0.7546771E-02  0.1276230E+00
         21   -1    0    0  504  501  0.00000000000E+00  0.00000000000E+00  0.31484901262E+03  0.31484901262E+03  0.00000000000E+00 0. -1.
         21   -1    0    0  503  502 -0.00000000000E+00 -0.00000000000E+00 -0.16913575839E+04  0.16913575839E+04  0.00000000000E+00 0. -1.
         21    1    1    2  503  505 -0.14484613539E+03  0.47391922248E+02 -0.33117766587E+03  0.36456144009E+03  0.00000000000E+00 0. -1.
         21    1    1    2  504  506  0.67461410928E+01  0.33118120935E+02  0.28576642680E+03  0.28775818153E+03  0.00000000000E+00 0. -1.
         21    1    1    2  505  501  0.42298874969E+02 -0.70877173491E+02 -0.17181002399E+03  0.19060811339E+03  0.00000000000E+00 0. -1.
         21    1    1    2  506  502  0.95801119329E+02 -0.96328696920E+01 -0.11592873082E+04  0.11632788615E+04  0.00000000000E+00 0. -1.
<scales pt_clust_3="14000.00000" pt_clust_4="33.79823" pt_clust_5="74.56974" pt_clust_6="101.95888"></scales>
<clustering>
<clus scale="   33.798">  1  4  2 -1</clus>
<clus scale="   74.570">  1  5  2 -1</clus>
<clus scale="  101.959">  2  6  1 -1</clus>
<clus scale="   33.798">  1  3  2 -1</clus>
</clustering>
</event>
<event>
 6    0  0.8641190E+002  0.1139199E+03  0.7546771E-02  0.1253478E+00
         21   -1    0    0  506  501  0.00000000000E+00  0.00000000000E+00  0.49107874933E+02  0.49107874933E+02  0.00000000000E+00 0.  1.
         21   -1    0    0  504  502 -0.00000000000E+00 -0.00000000000E+00 -0.12076497436E+04  0.12076497436E+04  0.00000000000E+00 0.  1.
         21    1    1    2  503  501  0.14272549070E+02  0.63720256450E+02 -0.47374821758E+02  0.80674348312E+02  0.00000000000E+00 0.  1.
         21    1    1    2  504  505 -0.15002325401E+02 -0.44055121841E+02 -0.94770649211E+03  0.94884852253E+03  0.00000000000E+00 0.  1.
         21    1    1    2  505  503  0.53592808855E+02  0.46220960710E+02 -0.54271327284E+02  0.89184882884E+02  0.00000000000E+00 0.  1.
         21    1    1    2  506  502 -0.52863032524E+02 -0.65886095319E+02 -0.10918922747E+03  0.13804986476E+03  0.00000000000E+00 0.  1.
<scales pt_clust_3="41.06265" pt_clust_4="46.53948" pt_clust_5="41.06265" pt_clust_6="105.59494"></scales>
<clustering>
<clus scale="   41.063">  3  5 -1 -1</clus>
<clus scale="   46.539">  2  4  1 -1</clus>
<clus scale="  105.595">  1  6  2 -1</clus>
<clus scale="  105.595">  1  3  2 -1</clus>
</clustering>
</event>
<event>
 6    0  0.8641190E+002  0.7426366E+02  0.7546771E-02  0.1346167E+00
         21   -1    0    0  506  501  0.00000000000E+00  0.00000000000E+00  0.22729970337E+03  0.22729970337E+03  0.00000000000E+00 0.  1.
         21   -1    0    0  505  502 -0.00000000000E+00 -0.00000000000E+00 -0.21948592069E+03  0.21948592069E+03  0.00000000000E+00 0.  1.
         21    1    1    2  503  502  0.60320452571E+02 -0.64124651107E+02 -0.83734130449E+02  0.12149869333E+03  0.00000000000E+00 0.  1.
         21    1    1    2  504  503  0.33013779960E+02  0.53219354431E+02  0.42409526658E+01  0.62770972852E+02  0.00000000000E+00 0.  1.
         21    1    1    2  505  501 -0.14553359474E+02  0.35332809107E+02 -0.72908575020E+02  0.82315660617E+02  0.00000000000E+00 0.  1.
         21    1    1    2  506  504 -0.78780873058E+02 -0.24427512431E+02  0.16021553548E+03  0.18020029726E+03  0.00000000000E+00 0.  1.
<scales pt_clust_3="62.98408" pt_clust_4="14000.00000" pt_clust_5="38.21266" pt_clust_6="74.26366"></scales>
<clustering>
<clus scale="   38.213">  2  5  1 -1</clus>
<clus scale="   62.984">  2  3  1 -1</clus>
<clus scale="   74.264">  1  6  2 -1</clus>
<clus scale="   74.264">  1  3  2 -1</clus>
</clustering>
</event>
<event>
 6    0  0.8641190E+002  0.1098320E+03  0.7546771E-02  0.1260881E+00
         21   -1    0    0  504  501  0.00000000000E+00  0.00000000000E+00  0.54099236180E+03  0.54099236180E+03  0.00000000000E+00 0.  1.
         21   -1    0    0  506  502 -0.00000000000E+00 -0.00000000000E+00 -0.40221441063E+03  0.40221441063E+03  0.00000000000E+00 0. -1.
         21    1    1    2  503  501 -0.67924709375E+02  0.26724276207E+02  0.10372194407E+03  0.12683136349E+03  0.00000000000E+00 0.  1.
         21    1    1    2  504  505  0.25897712516E+02  0.16587419363E+02  0.31488736211E+02  0.44015616579E+02  0.00000000000E+00 0. -1.
         21    1    1    2  505  502  0.92535920873E+02 -0.13948362966E+03  0.36146435828E+03  0.39834038447E+03  0.00000000000E+00 0.  1.
         21    1    1    2  506  503 -0.50508924014E+02  0.96171934088E+02 -0.35789708739E+03  0.37401940789E+03  0.00000000000E+00 0. -1.
<scales pt_clust_3="69.09965" pt_clust_4="30.75441" pt_clust_5="14000.00000" pt_clust_6="109.83203"></scales>
<clustering>
<clus scale="   30.754">  1  4  2 -1</clus>
<clus scale="   69.100">  1  3  2 -1</clus>
<clus scale="  109.832">  2  6  1 -1</clus>
<clus scale="   30.754">  1  3  2 -1</clus>
</clustering>
</event>
<event>
 6    0  0.8641190E+002  0.8428975E+02  0.7546771E-02  0.1317300E+00
         21   -1    0    0  506  501  0.00000000000E+00  0.00000000000E+00  0.72804886636E+03  0.72804886636E+03  0.00000000000E+00 0.  1.
         21   -1    0    0  503  502 -0.00000000000E+00 -0.00000000000E+00 -0.18939134428E+03  0.18939134428E+03  0.00000000000E+00 0. -1.
         21    1    1    2  503  504  0.43016500981E+01  0.66922466386E+02  0.30040915643E+02  0.73481816209E+02  0.00000000000E+00 0. -1.
         21    1    1    2  504  501  0.63417526528E+02 -0.60513157126E+02  0.20762423357E+02  0.90081646743E+02  0.00000000000E+00 0. -1.
         21    1    1    2  505  502 -0.31795381602E+02 -0.82856259686E+02 -0.11492801506E+03  0.14520521584E+03  0.00000000000E+00 0. -1.
         21    1    1    2  506  505 -0.35923795024E+02  0.76446950426E+02  0.60278219814E+03  0.60867153184E+03  0.00000000000E+00 0.  1.
<scales pt_clust_3="67.06057" pt_clust_4="84.28975" pt_clust_5="42.03976" pt_clust_6="14000.00000"></scales>
<clustering>
<clus scale="   67.061">  2  3  1 -1</clus>
<clus scale="   42.040">  2  5  1 -1</clus>
<clus scale="   84.290">  2  4  1 -1</clus>
<clus scale="   84.290">  1  3  2 -1</clus>
</clustering>
</event>
<event>
 6    0  0.8641190E+002  0.1157205E+03  0.7546771E-02  0.1250329E+00
         21   -1    0    0  506  501  0.00000000000E+00  0.00000000000E+00  0.57285789154E+03  0.57285789154E+03  0.00000000000E+00 0.  1.
         21   -1    0    0  503  502 -0.00000000000E+00 -0.00000000000E+00 -0.24601004224E+03  0.24601004224E+03  0.00000000000E+00 0.  1.
         21    1    1    2  503  505 -0.10298961851E+03 -0.57300692558E+02 -0.20424581532E+03  0.23581048315E+03  0.00000000000E+00 0.  1.
         21    1    1    2  504  501 -0.56469600098E+01  0.30893543931E+02  0.35890093611E+02  0.47690649329E+02  0.00000000000E+00 0.  1.
         21    1    1    2  505  504  0.67697314855E+02 -0.12519901147E+02  0.46400168051E+02  0.83021984790E+02  0.00000000000E+00 0.  1.
         21    1    1    2  506  502  0.40939263666E+02  0.38927049773E+02  0.44880340296E+03  0.45234481651E+03  0.00000000000E+00 0.  1.
<scales pt_clust_3="115.72050" pt_clust_4="31.40540" pt_clust_5="67.57881" pt_clust_6="14000.00000"></scales>
<clustering>
<clus scale="   31.405">  1  4  2 -1</clus>
<clus scale="   67.579">  1  5  2 -1</clus>
<clus scale="  115.720">  2  3  1 -1</clus>
<clus scale="   31.405">  1  3  2 -1</clus>
</clustering>
</event>
<event>
 6    0  0.8641190E+002  0.1033576E+03  0.7546771E-02  0.1273390E+00
         21   -1    0    0  505  501  0.00000000000E+00  0.00000000000E+00  0.51935648398E+02  0.51935648398E+02  0.00000000000E+00 0.  1.
         21   -1    0    0  506  502 -0.00000000000E+00 -0.00000000000E+00 -0.13647090486E+04  0.13647090486E+04  0.00000000000E+00 0.  1.
         21    1    1    2  503  504  0.86197991391E+02 -0.23732891413E+02 -0.97775234345E+02  0.13248901957E+03  0.00000000000E+00 0. -1.
         21    1    1    2  504  501  0.43489842378E+02 -0.25215517934E+02 -0.79396982095E+01  0.50894278091E+02  0.00000000000E+00 0.  1.
         21    1    1    2  505  502 -0.26079956757E+02  0.30235736418E+02 -0.26287412102E+02  0.47805773043E+02  0.00000000000E+00 0.  1.
         21    1    1    2  506  503 -0.10360787701E+03  0.18712672928E+02 -0.11807710555E+04  0.11854556263E+04  0.00000000000E+00 0.  1.
<scales pt_clust_3="103.35755" pt_clust_4="31.34363" pt_clust_5="39.92949" pt_clust_6="14000.00000"></scales>
<clustering>
<clus scale="   39.929">  1  5  2 -1</clus>
<clus scale="   31.344">  1  4  2 -1</clus>
<clus scale="  103.358">  1  3  2 -1</clus>
<clus scale="   39.929">  1  3  2 -1</clus>
</clustering>
</event>
<event>
 6    0  0.8641190E+002  0.9096573E+02  0.7546771E-02  0.1300530E+00
         21   -1    0    0  506  501  0.00000000000E+00  0.00000000000E+00  0.57402882863E+03  0.57402882863E+03  0.00000000000E+00 0.  1.
         21   -1    0    0  503  502 -0.00000000000E+00 -0.00000000000E+00 -0.86898249491E+02  0.86898249491E+02  0.00000000000E+00 0.  1.
         21    1    1    2  503  505  0.95477693432E+02 -0.30400713175E+02  0.21922810864E+01  0.10022474446E+03  0.00000000000E+00 0.  1.
         21    1    1    2  504  502 -0.15065036645E+02  0.91796756901E+02  0.41358597709E+02  0.10180438847E+03  0.00000000000E+00 0.  1.
         21    1    1    2  505  501 -0.28474008075E+02 -0.20329779232E+02  0.58473406697E+02  0.68141091496E+02  0.00000000000E+00 0.  1.
         21    1    1    2  506  504 -0.51938648713E+02 -0.41066264494E+02  0.38510629365E+03  0.39075685371E+03  0.00000000000E+00 0.  1.
<scales pt_clust_3="87.36784" pt_clust_4="90.96573" pt_clust_5="34.98670" pt_clust_6="14000.00000"></scales>
<clustering>
<clus scale="   34.987">  1  5  2 -1</clus>
<clus scale="   90.966">  2  4  1 -1</clus>
<clus scale="   87.368">  2  3  1 -1</clus>
<clus scale="   34.987">  1  3  2 -1</clus>
</clustering>
</event>
<event>
 6    0  0.8641190E+002  0.1123583E+03  0.7546771E-02  0.1256264E+00
         21   -1    0    0  503  501  0.00000000000E+00  0.00000000000E+00  0.42958231537E+03  0.42958231537E+03  0.00000000000E+00 0. -1.
         21   -1    0    0  504  502 -0.00000000000E+00 -0.00000000000E+00 -0.12311866702E+04  0.12311866702E+04  0.00000000000E+00 0. -1.
         21    1    1    2  503  505 -0.32154645906E+02  0.62813846166E+01  0.13339951781E+02  0.35374162316E+02  0.00000000000E+00 0.  1.
         21    1    1    2  504  506  0.13037833708E+03 -0.42125568718E+02  0.48373383237E+02  0.14530333281E+03  0.00000000000E+00 0. -1.
         21    1    1    2  505  502 -0.30971456377E+02  0.10790155251E+03 -0.11610519081E+04  0.11664662488E+04  0.00000000000E+00 0. -1.
         21    1    1    2  506  501 -0.67252234797E+02 -0.72057368413E+02  0.29773421832E+03  0.31362524163E+03  0.00000000000E+00 0. -1.
<scales pt_clust_3="32.76243" pt_clust_4="106.77860" pt_clust_5="112.35829" pt_clust_6="14000.00000"></scales>
<clustering>
<clus scale="   32.762">  1  3  2 -1</clus>
<clus scale="  112.358">  2  5  1 -1</clus>
<clus scale="  106.779">  2  4  1 -1</clus>
<clus scale="   32.762">  1  3  2 -1</clus>
</clustering>
</event>
<event>
 6    0  0.8641190E+002  0.9324190E+02  0.7546771E-02  0.1295186E+00
         21   -1    0    0  506  501  0.00000000000E+00  0.00000000000E+00  0.27956248591E+02  0.27956248591E+02  0.00000000000E+00 0.  1.
         21   -1    0    0  505  502 -0.00000000000E+00 -0.00000000000E+00 -0.97892601288E+03  0.97892601288E+03  0.00000000000E+00 0.  1.
         21    1    1    2  503  502 -0.97993012228E+01 -0.98224048253E+02 -0.18919133386E+03  0.21339482367E+03  0.00000000000E+00 0.  1.
         21    1    1    2  504  501 -0.23489009310E+01  0.82467842979E+02 -0.48569088887E+03  0.49264805083E+03  0.00000000000E+00 0.  1.
         21    1    1    2  505  504 -0.36089901338E+02  0.14032385204E+02 -0.23281597451E+03  0.23601412415E+03  0.00000000000E+00 0.  1.
         21    1    1    2  506  503  0.48238103492E+02  0.17238200699E+01 -0.43271567048E+02  0.64825262814E+02  0.00000000000E+00 0.  1.
<scales pt_clust_3="93.24190" pt_clust_4="14000.00000" pt_clust_5="38.72194" pt_clust_6="45.70049"></scales>
<clustering>
<clus scale="   38.722">  2  5  1 -1</clus>
<clus scale="   45.700">  1  6  2 -1</clus>
<clus scale="   93.242">  1  3  2 -1</clus>
<clus scale="   45.700">  1  3  2 -1</clus>
</clustering>
</event>
<event>
 6    0  0.8641190E+002  0.7625129E+02  0.7546771E-02  0.1340039E+00
         21   -1    0    0  506  501  0.00000000000E+00  0.00000000000E+00  0.12037919911E+04  0.12037919911E+04  0.00000000000E+00 0.  1.
         21   -1    0    0  505  502 -0.00000000000E+00 -0.00000000000E+00 -0.12717638896E+04  0.12717638896E+04  0.00000000000E+00 0.  1.
         21    1    1    2  503  502 -0.53232622162E+02 -0.11552393649E+02 -0.45238185994E+03  0.45564955510E+03  0.00000000000E+00 0.  1.
         21    1    1    2  504  503  0.23383602619E+02 -0.58328463488E+02 -0.78966799839E+03  0.79216447169E+03  0.00000000000E+00 0.  1.
         21    1    1    2  505  501 -0.57785951460E+01 -0.37687492628E+02  0.10794174007E+04  0.10800905815E+04  0.00000000000E+00 0.  1.
         21    1    1    2  506  504  0.35627614689E+02  0.10756834977E+03  0.94660559094E+02  0.14765127242E+03  0.00000000000E+00 0.  1.
<scales pt_clust_3="54.65341" pt_clust_4="76.25129" pt_clust_5="38.12793" pt_clust_6="14000.00000"></scales>
<clustering>
<clus scale="   38.128">  1  5  2 -1</clus>
<clus scale="   54.653">  2  3  1 -1</clus>
<clus scale="   76.251">  2  4  1 -1</clus>
<clus scale="   38.128">  1  3  2 -1</clus>
</clustering>
</event>
<event>
 6    0  0.8641190E+002  0.2133133E+03  0.7546771E-02  0.1138969E+00
         21   -1    0    0  503  501  0.00000000000E+00  0.00000000000E+00  0.49917406736E+03  0.49917406736E+03  0.00000000000E+00 0. -1.
         21   -1    0    0  506  502 -0.00000000000E+00 -0.00000000000E+00 -0.23757203954E+03  0.23757203954E+03  0.00000000000E+00 0. -1.
         21    1    1    2  503  505  0.10066037018E+03 -0.93812138604E+02  0.11842838848E+03  0.18154478972E+03  0.00000000000E+00 0. -1.
         21    1    1    2  504  501 -0.10328591749E+03  0.17782050007E+03  0.20503197004E+03  0.29038977209E+03  0.00000000000E+00 0. -1.
         21    1    1    2  505  502  0.32240137131E+02 -0.72828633247E+02  0.83883667171E+02  0.11567154309E+03  0.00000000000E+00 0. -1.
         21    1    1    2  506  504 -0.29614589823E+02 -0.11179728222E+02 -0.14574199787E+03  0.14914000200E+03  0.00000000000E+00 0. -1.
<scales pt_clust_3="34.36474" pt_clust_4="208.63092" pt_clust_5="34.36474" pt_clust_6="31.65455"></scales>
<clustering>
<clus scale="   31.655">  2  6  1 -1</clus>
<clus scale="   34.365">  3  5 -1 -1</clus>
<clus scale="  208.631">  1  4  2 -1</clus>
<clus scale="  208.631">  1  3  2 -1</clus>
</clustering>
</event>
<event>
 6    0  0.8641190E+002  0.8462870E+02  0.7546771E-02  0.1316406E+00
         21   -1    0    0  503  501  0.00000000000E+00  0.00000000000E+00  0.28278314211E+03  0.28278314211E+03  0.00000000000E+00 0. -1.
         21   -1    0    0  506  502 -0.00000000000E+00 -0.00000000000E+00 -0.62710796408E+03  0.62710796408E+03  0.00000000000E+00 0.  1.
         21    1    1    2  503  505  0.31136250153E+02  0.35363957701E+02  0.25294731562E+03  0.25729830947E+03  0.00000000000E+00 0. -1.
         21    1    1    2  504  502 -0.79119490962E+02 -0.87174505738E+02 -0.51379632537E+03  0.52711094873E+03  0.00000000000E+00 0.  1.
         21    1    1    2  505  504  0.16097330826E+02  0.57889930892E+02 -0.63225687308E+02  0.87223022730E+02  0.00000000000E+00 0.  1.
         21    1    1    2  506  501  0.31885909983E+02 -0.60793828552E+01 -0.20250124912E+02  0.38258825260E+02  0.00000000000E+00 0. -1.
<scales pt_clust_3="47.17786" pt_clust_4="84.62870" pt_clust_5="14000.00000" pt_clust_6="32.46029"></scales>
<clustering>
<clus scale="   32.460">  2  6  1 -1</clus>
<clus scale="   47.178">  1  3  2 -1</clus>
<clus scale="   84.629">  2  4  1 -1</clus>
<clus scale="   47.178">  1  3  2 -1</clus>
</clustering>
</event>
<event>
 6    0  0.8641190E+002  0.1019444E+03  0.7546771E-02  0.1276260E+00
         21   -1    0    0  504  501  0.00000000000E+00  0.00000000000E+00  0.51900553589E+02  0.51900553589E+02  0.00000000000E+00 0.  1.
         21   -1    0    0  505  502 -0.00000000000E+00 -0.00000000000E+00 -0.58514683466E+03  0.58514683466E+03  0.00000000000E+00 0.  1.
         21    1    1    2  503  502  0.50744696971E+02  0.61844463406E+02 -0.18049587487E+03  0.19742979200E+03  0.00000000000E+00 0.  1.
         21    1    1    2  504  503  0.32964228839E+02  0.34511127324E+02 -0.41194678512E+01  0.47902278730E+02  0.00000000000E+00 0.  1.
         21    1    1    2  505  506 -0.11385966012E+03 -0.93569354917E+02 -0.30318838347E+03  0.33710894716E+03  0.00000000000E+00 0.  1.
         21    1    1    2  506  501  0.30150734315E+02 -0.27862358123E+01 -0.45442554875E+02  0.54606370355E+02  0.00000000000E+00 0.  1.
<scales pt_clust_3="101.94438" pt_clust_4="57.48520" pt_clust_5="14000.00000" pt_clust_6="30.27920"></scales>
<clustering>
<clus scale="   30.279">  1  6  2 -1</clus>
<clus scale="   57.485">  1  4  2 -1</clus>
<clus scale="  101.944">  2  3  1 -1</clus>
<clus scale="   30.279">  1  3  2 -1</clus>
</clustering>
</event>
<event>
 6    0  0.8641190E+002  0.8167656E+02  0.7546771E-02  0.1324360E+00
         21   -1    0    0  505  501  0.00000000000E+00  0.00000000000E+00  0.29937218007E+03  0.29937218007E+03  0.00000000000E+00 0. -1.
         21   -1    0    0  503  502 -0.00000000000E+00 -0.00000000000E+00 -0.50482331601E+03  0.50482331601E+03  0.00000000000E+00 0.  1.
         21    1    1    2  503  501  0.80950367138E+02 -0.77546345953E+02 -0.32832793883E+03  0.34693750608E+03  0.00000000000E+00 0.  1.
         21    1    1    2  504  502 -0.39502832958E+02  0.26402885501E+01 -0.10900973896E+03  0.11597658437E+03  0.00000000000E+00 0. -1.
         21    1    1    2  505  506  0.23653419570E+02  0.78760851554E+02  0.25818359350E+03  0.27096406394E+03  0.00000000000E+00 0. -1.
         21    1    1    2  506  504 -0.65100953751E+02 -0.38547941506E+01 -0.26297051655E+02  0.70317341694E+02  0.00000000000E+00 0. -1.
<scales pt_clust_3="81.67656" pt_clust_4="39.59097" pt_clust_5="14000.00000" pt_clust_6="70.05388"></scales>
<clustering>
<clus scale="   39.591">  2  4  1 -1</clus>
<clus scale="   70.054">  2  6  1 -1</clus>
<clus scale="   81.677">  2  3  1 -1</clus>
<clus scale="   81.677">  1  3  2 -1</clus>
</clustering>
</event>
<event>
 6    0  0.8641190E+002  0.1935689E+03  0.7546771E-02  0.1155281E+00
         21   -1    0    0  503  501  0.00000000000E+00  0.00000000000E+00  0.25689593053E+03  0.25689593053E+03  0.00000000000E+00 0.  1.
         21   -1    0    0  506  502 -0.00000000000E+00 -0.00000000000E+00 -0.67956636381E+03  0.67956636381E+03  0.00000000000E+00 0.  1.
         21    1    1    2  503  505 -0.16168362261E+02 -0.60026725426E+02 -0.29202769178E+02  0.68683516445E+02  0.00000000000E+00 0.  1.
         21    1    1    2  504  501 -0.12272954171E+03  0.18528559970E+03  0.14882540371E+03  0.26747391397E+03  0.00000000000E+00 0.  1.
         21    1    1    2  505  502 -0.30787123997E+02 -0.94501248274E-01 -0.19123237405E+02  0.36242987505E+02  0.00000000000E+00 0.  1.
         21    1    1    2  506  504  0.16968502797E+03 -0.12516437302E+03 -0.52316983040E+03  0.56406187642E+03  0.00000000000E+00 0.  1.
<scales pt_clust_3="62.81373" pt_clust_4="14000.00000" pt_clust_5="30.78727" pt_clust_6="193.56887"></scales>
<clustering>
<clus scale="   30.787">  2  5  1 -1</clus>
<clus scale="   62.814">  1  3  2 -1</clus>
<clus scale="  193.569">  2  6  1 -1</clus>
<clus scale="   62.814">  1  3  2 -1</clus>
</clustering>
</event>
<event>
 6    0  0.8641190E+002  0.1184959E+03  0.7546771E-02  0.1245599E+00
         21   -1    0    0  504  501  0.00000000000E+00  0.00000000000E+00  0.37686652052E+03  0.37686652052E+03  0.00000000000E+00 0.  1.
         21   -1    0    0  503  502 -0.00000000000E+00 -0.00000000000E+00 -0.85626722458E+02  0.85626722458E+02  0.00000000000E+00 0.  1.
         21    1    1    2  503  505 -0.57369129861E+02 -0.68447566805E+02 -0.41360827121E+01  0.89405780812E+02  0.00000000000E+00 0.  1.
         21    1    1    2  504  506  0.41006764466E+01  0.10427607647E+03  0.22821064523E+03  0.25093906485E+03  0.00000000000E+00 0.  1.
         21    1    1    2  505  501 -0.11233560888E+02 -0.34761346952E+02  0.32593101960E+02  0.48957679965E+02  0.00000000000E+00 0.  1.
         21    1    1    2  506  502  0.64502014302E+02 -0.10671627137E+01  0.34572133578E+02  0.73190717345E+02  0.00000000000E+00 0. -1.
<scales pt_clust_3="34.89127" pt_clust_4="105.19046" pt_clust_5="34.89127" pt_clust_6="64.51084"></scales>
<clustering>
<clus scale="   34.891">  3  5 -1 -1</clus>
<clus scale="   64.511">  2  6  1 -1</clus>
<clus scale="  105.190">  1  4  2 -1</clus>
<clus scale="  105.190">  1  3  2 -1</clus>
</clustering>
</event>
<event>
 6    0  0.8641190E+002  0.2079336E+03  0.7546771E-02  0.1143213E+00
         21   -1    0    0  503  501  0.00000000000E+00  0.00000000000E+00  0.10849352590E+04  0.10849352590E+04  0.00000000000E+00 0.  1.
         21   -1    0    0  506  502 -0.00000000000E+00 -0.00000000000E+00 -0.58863995441E+02  0.58863995441E+02  0.00000000000E+00 0.  1.
         21    1    1    2  503  504  0.11613582271E+03 -0.94454244215E+02  0.50452116172E+03  0.52626109127E+03  0.00000000000E+00 0.  1.
         21    1    1    2  504  502  0.67725750840E+02 -0.21730049457E+02  0.15322087144E+03  0.16892485851E+03  0.00000000000E+00 0.  1.
         21    1    1    2  505  501 -0.14500813585E+03  0.10679667618E+03  0.36678452826E+03  0.40861201606E+03  0.00000000000E+00 0.  1.
         21    1    1    2  506  505 -0.38853437703E+02  0.93876174925E+01  0.15447021293E+01  0.40001288581E+02  0.00000000000E+00 0.  1.
<scales pt_clust_3="39.92630" pt_clust_4="39.92630" pt_clust_5="199.70313" pt_clust_6="39.97145"></scales>
<clustering>
<clus scale="   39.926">  3  4 -1 -1</clus>
<clus scale="   39.971">  2  6  1 -1</clus>
<clus scale="  199.703">  2  5  1 -1</clus>
<clus scale="  207.934">  1  3  2 -1</clus>
</clustering>
</event>
<event>
 6    0  0.8641190E+002  0.1204931E+03  0.7546771E-02  0.1242286E+00
         21   -1    0    0  503  501  0.00000000000E+00  0.00000000000E+00  0.10303706598E+03  0.10303706598E+03  0.00000000000E+00 0.  1.
         21   -1    0    0  504  502 -0.00000000000E+00 -0.00000000000E+00 -0.75363662667E+03  0.75363662667E+03  0.00000000000E+00 0.  1.
         21    1    1    2  503  505  0.35479854020E+02  0.11392759853E+03  0.42869953200E+02  0.12679176091E+03  0.00000000000E+00 0.  1.
         21    1    1    2  504  501 -0.50993311919E+02 -0.11886806600E+03 -0.28220191384E+03  0.31043172381E+03  0.00000000000E+00 0.  1.
         21    1    1    2  505  506  0.25546535879E+02  0.35324393188E+02 -0.14925826152E+03  0.15549426639E+03  0.00000000000E+00 0.  1.
         21    1    1    2  506  502 -0.10033077980E+02 -0.30383925715E+02 -0.26200933853E+03  0.26395594154E+03  0.00000000000E+00 0.  1.
<scales pt_clust_3="14000.00000" pt_clust_4="120.49308" pt_clust_5="34.25415" pt_clust_6="31.99759"></scales>
<clustering>
<clus scale="   31.998">  2  6  1 -1</clus>
<clus scale="   34.254">  2  5  1 -1</clus>
<clus scale="  120.493">  2  4  1 -1</clus>
<clus scale="  120.493">  1  3  2 -1</clus>
</clustering>
</event>
<event>
 6    0  0.8641190E+002  0.1499065E+03  0.7546771E-02  0.1200588E+00
         21   -1    0    0  505  501  0.00000000000E+00  0.00000000000E+00  0.24443815215E+03  0.24443815215E+03  0.00000000000E+00 0.  1.
         21   -1    0    0  504  502 -0.00000000000E+00 -0.00000000000E+00 -0.34246959908E+03  0.34246959908E+03  0.00000000000E+00 0. -1.
         21    1    1    2  503  506  0.72975122309E+02 -0.26250085330E+02  0.79054277787E+02  0.11074301013E+03  0.00000000000E+00 0.  1.
         21    1    1    2  504  503 -0.96784163870E+02  0.10166811111E+03 -0.27692200277E+03  0.31046638273E+03  0.00000000000E+00 0. -1.
         21    1    1    2  505  502 -0.36814164755E+02 -0.22046480790E+01  0.22919049257E+02  0.43421492588E+02  0.00000000000E+00 0.  1.
         21    1    1    2  506  501  0.60623206316E+02 -0.73213377701E+02  0.76917228801E+02  0.12227686578E+03  0.00000000000E+00 0.  1.
<scales pt_clust_3="40.32256" pt_clust_4="142.27540" pt_clust_5="36.88012" pt_clust_6="40.32256"></scales>
<clustering>
<clus scale="   36.880">  1  5  2 -1</clus>
<clus scale="   40.323">  3  6 -1 -1</clus>
<clus scale="  142.275">  2  4  1 -1</clus>
<clus scale="   36.880">  1  3  2 -1</clus>
</clustering>
</event>
<event>
 6    0  0.8641190E+002  0.1274344E+03  0.7546771E-02  0.1231313E+00
         21   -1    0    0  504  501  0.00000000000E+00  0.00000000000E+00  0.19273184840E+03  0.19273184840E+03  0.00000000000E+00 0. -1.
         21   -1    0    0  506  502 -0.00000000000E+00 -0.00000000000E+00 -0.15601246115E+04  0.15601246115E+04  0.00000000000E+00 0. -1.
         21    1    1    2  503  501 -0.13998794845E+01  0.77018976070E+02 -0.92207694938E+02  0.12015049456E+03  0.00000000000E+00 0. -1.
         21    1    1    2  504  502 -0.12479483661E+02 -0.37500894837E+02  0.15945363645E+03  0.16427877770E+03  0.00000000000E+00 0. -1.
         21    1    1    2  505  503 -0.10503439623E+03  0.21866821789E+02 -0.20361448050E+03  0.23015047025E+03  0.00000000000E+00 0. -1.
         21    1    1    2  506  505  0.11891375938E+03 -0.61384903022E+02 -0.12310242241E+04  0.12382767174E+04  0.00000000000E+00 0. -1.
<scales pt_clust_3="60.45643" pt_clust_4="39.52284" pt_clust_5="14000.00000" pt_clust_6="127.43439"></scales>
<clustering>
<clus scale="   39.523">  1  4  2 -1</clus>
<clus scale="   60.456">  1  3  2 -1</clus>
<clus scale="  127.434">  2  6  1 -1</clus>
<clus scale="   39.523">  1  3  2 -1</clus>
</clustering>
</event>
<event>
 6    0  0.8641190E+002  0.1303566E+03  0.7546771E-02  0.1226928E+00
         21   -1    0    0  505  501  0.00000000000E+00  0.00000000000E+00  0.57725790073E+03  0.57725790073E+03  0.00000000000E+00 0.  1.
         21   -1    0    0  503  502 -0.00000000000E+00 -0.00000000000E+00 -0.48095293086E+03  0.48095293086E+03  0.00000000000E+00 0.  1.
         21    1    1    2  503  506  0.43930954184E+02  0.17697766286E+02 -0.83550696362E+02  0.96040921120E+02  0.00000000000E+00 0.  1.
         21    1    1    2  504  502 -0.44901867517E+02  0.64177269897E+01 -0.22656096010E+03  0.23105677564E+03  0.00000000000E+00 0.  1.
         21    1    1    2  505  504 -0.99307652749E+02  0.83221086942E+02  0.52598603673E+03  0.54170939630E+03  0.00000000000E+00 0.  1.
         21    1    1    2  506  501  0.10027856608E+03 -0.10733658022E+03 -0.11956941039E+03  0.18940373853E+03  0.00000000000E+00 0.  1.
<scales pt_clust_3="34.35086" pt_clust_4="45.35818" pt_clust_5="14000.00000" pt_clust_6="130.35656"></scales>
<clustering>
<clus scale="   45.358">  2  4  1 -1</clus>
<clus scale="   34.351">  2  3  1 -1</clus>
<clus scale="  130.357">  2  6  1 -1</clus>
<clus scale="  130.357">  1  3  2 -1</clus>
</clustering>
</event>
<event>
 6    0  0.8641190E+002  0.1075130E+03  0.7546771E-02  0.1265246E+00
         21   -1    0    0  504  501  0.00000000000E+00  0.00000000000E+00  0.14593948523E+04  0.14593948523E+04  0.00000000000E+00 0. -1.
         21   -1    0    0  503  502 -0.00000000000E+00 -0.00000000000E+00 -0.18968426879E+03  0.18968426879E+03  0.00000000000E+00 0. -1.
         21    1    1    2  503  505  0.29285269827E+02 -0.63483249597E+02 -0.15584364242E+03  0.17080688186E+03  0.00000000000E+00 0. -1.
         21    1    1    2  504  506 -0.81036850527E+02  0.13004372524E+03  0.42737877245E+03  0.45401647190E+03  0.00000000000E+00 0. -1.
         21    1    1    2  505  501  0.42901011179E+02 -0.30934331668E+02  0.98318067852E+03  0.98460229344E+03  0.00000000000E+00 0. -1.
         21    1    1    2  506  502  0.88505695207E+01 -0.35626143972E+02  0.14994774948E+02  0.39653473882E+02  0.00000000000E+00 0.  1.
<scales pt_clust_3="107.51296" pt_clust_4="14000.00000" pt_clust_5="53.00310" pt_clust_6="36.70905"></scales>
<clustering>
<clus scale="   36.709">  2  6  1 -1</clus>
<clus scale="   53.003">  1  5  2 -1</clus>
<clus scale="  107.513">  2  3  1 -1</clus>
<clus scale="   53.003">  1  3  2 -1</clus>
</clustering>
</event>
<event>
 6    0  0.8641190E+002  0.1307334E+03  0.7546771E-02  0.1226371E+00
         21   -1    0    0  504  501  0.00000000000E+00  0.00000000000E+00  0.77402019733E+02  0.77402019733E+02  0.00000000000E+00 0.  1.
         21   -1    0    0  503  502 -0.00000000000E+00 -0.00000000000E+00 -0.58488179845E+03  0.58488179845E+03  0.00000000000E+00 0.  1.
         21    1    1    2  503  506 -0.85276921542E+02  0.82102073594E+02 -0.16667038691E+03  0.20443072594E+03  0.00000000000E+00 0.  1.
         21    1    1    2  504  505 -0.22269336946E+02  0.22608272387E+02  0.52504198180E+01  0.32165575646E+02  0.00000000000E+00 0.  1.
         21    1    1    2  505  502 -0.36218039962E+02 -0.47796893992E+02 -0.21433082341E+03  0.22256233139E+03  0.00000000000E+00 0.  1.
         21    1    1    2  506  501  0.14376429845E+03 -0.56913451989E+02 -0.13172898822E+03  0.20312518520E+03  0.00000000000E+00 0.  1.
<scales pt_clust_3="130.73345" pt_clust_4="31.73417" pt_clust_5="59.68925" pt_clust_6="14000.00000"></scales>
<clustering>
<clus scale="   31.734">  1  4  2 -1</clus>
<clus scale="   59.689">  2  5  1 -1</clus>
<clus scale="  130.733">  2  3  1 -1</clus>
<clus scale="   31.734">  1  3  2 -1</clus>
</clustering>
</event>
<event>
 6    0  0.8641190E+002  0.8223613E+02  0.7546771E-02  0.1322823E+00
         21   -1    0    0  506  501  0.00000000000E+00  0.00000000000E+00  0.54131653241E+03  0.54131653241E+03  0.00000000000E+00 0. -1.
         21   -1    0    0  503  502 -0.00000000000E+00 -0.00000000000E+00 -0.23408982264E+03  0.23408982264E+03  0.00000000000E+00 0. -1.
         21    1    1    2  503  505  0.96139937831E+02 -0.48059543731E+02 -0.16583974505E+03  0.19762446313E+03  0.00000000000E+00 0. -1.
         21    1    1    2  504  502 -0.13425768953E+02  0.69319010303E+02 -0.10408780250E+01  0.70614870165E+02  0.00000000000E+00 0. -1.
         21    1    1    2  505  501 -0.24734773589E+02 -0.45311123433E+02  0.32239263556E+02  0.60862772249E+02  0.00000000000E+00 0. -1.
         21    1    1    2  506  504 -0.57979395289E+02  0.24051656861E+02  0.44186806929E+03  0.44630424951E+03  0.00000000000E+00 0. -1.
<scales pt_clust_3="14000.00000" pt_clust_4="67.84962" pt_clust_5="51.62274" pt_clust_6="82.23613"></scales>
<clustering>
<clus scale="   51.623">  1  5  2 -1</clus>
<clus scale="   67.850">  2  4  1 -1</clus>
<clus scale="   82.236">  1  6  2 -1</clus>
<clus scale="   51.623">  1  3  2 -1</clus>
</clustering>
</event>
<event>
 6    0  0.8641190E+002  0.7620050E+02  0.7546771E-02  0.1340193E+00
         21   -1    0    0  506  501  0.00000000000E+00  0.00000000000E+00  0.21961484520E+03  0.21961484520E+03  0.00000000000E+00 0.  1.
         21   -1    0    0  504  502 -0.00000000000E+00 -0.00000000000E+00 -0.13921321554E+03  0.13921321554E+03  0.00000000000E+00 0.  1.
         21    1    1    2  503  501  0.29040776032E+02  0.39766996740E+02  0.42888954883E+02  0.65301172679E+02  0.00000000000E+00 0.  1.
         21    1    1    2  504  503 -0.47326485390E+02 -0.14139011038E+02  0.19665264564E+02  0.53164184211E+02  0.00000000000E+00 0.  1.
         21    1    1    2  505  502  0.52819654550E+02  0.53911025418E+02 -0.79754980291E+02  0.10980515220E+03  0.00000000000E+00 0.  1.
         21    1    1    2  506  505 -0.34533945192E+02 -0.79539011120E+02  0.97602390505E+02  0.13055755165E+03  0.00000000000E+00 0.  1.
<scales pt_clust_3="49.24206" pt_clust_4="41.29078" pt_clust_5="76.20050" pt_clust_6="14000.00000"></scales>
<clustering>
<clus scale="   49.242">  1  3  2 -1</clus>
<clus scale="   41.291">  1  4  2 -1</clus>
<clus scale="   76.201">  2  5  1 -1</clus>
<clus scale="   49.242">  1  3  2 -1</clus>
</clustering>
</event>
<event>
 6    0  0.8641190E+002  0.1224716E+03  0.7546771E-02  0.1239075E+00
         21   -1    0    0  506  501  0.00000000000E+00  0.00000000000E+00  0.59057535464E+02  0.59057535464E+02  0.00000000000E+00 0.  1.
         21   -1    0    0  504  502 -0.00000000000E+00 -0.00000000000E+00 -0.11025801170E+04  0.11025801170E+04  0.00000000000E+00 0. -1.
         21    1    1    2  503  501 -0.13926519455E+03  0.57344076646E+02 -0.22243072284E+03  0.26862346138E+03  0.00000000000E+00 0. -1.
         21    1    1    2  504  503 -0.43898027357E+01 -0.52585834467E+02 -0.31542398245E+03  0.31980748750E+03  0.00000000000E+00 0.  1.
         21    1    1    2  505  502  0.10048012626E+03  0.10653430251E+03 -0.32742857392E+03  0.35868549511E+03  0.00000000000E+00 0.  1.
         21    1    1    2  506  505  0.43174871031E+02 -0.11129254469E+03 -0.17823930233E+03  0.21452120848E+03  0.00000000000E+00 0. -1.
<scales pt_clust_3="122.47156" pt_clust_4="52.76874" pt_clust_5="129.21070" pt_clust_6="14000.00000"></scales>
<clustering>
<clus scale="   52.769">  2  4  1 -1</clus>
<clus scale="  129.211">  2  5  1 -1</clus>
<clus scale="  122.472">  2  3  1 -1</clus>
<clus scale="  122.472">  1  3  2 -1</clus>
</clustering>
</event>
<event>
 6    0  0.8641190E+002  0.6467565E+02  0.7546771E-02  0.1379196E+00
         21   -1    0    0  503  501  0.00000000000E+00  0.00000000000E+00  0.29659278204E+03  0.29659278204E+03  0.00000000000E+00 0. -1.
         21   -1    0    0  504  502 -0.00000000000E+00 -0.00000000000E+00 -0.11362563017E+03  0.11362563017E+03  0.00000000000E+00 0. -1.
         21    1    1    2  503  505 -0.46854494615E+02  0.11356253874E+02  0.39774618751E+02  0.62500627713E+02  0.00000000000E+00 0.  1.
         21    1    1    2  504  506  0.35510480897E+02 -0.94231564418E+02  0.14107901744E+02  0.10168389685E+03  0.00000000000E+00 0. -1.
         21    1    1    2  505  502 -0.32613284454E+02  0.36506891997E+02 -0.41310225399E+02  0.64053994478E+02  0.00000000000E+00 0.  1.
         21    1    1    2  506  501  0.43957298173E+02  0.46368418547E+02  0.17039485678E+03  0.18197989317E+03  0.00000000000E+00 0. -1.
<scales pt_clust_3="48.21108" pt_clust_4="64.67565" pt_clust_5="50.80723" pt_clust_6="14000.00000"></scales>
<clustering>
<clus scale="   48.211">  1  3  2 -1</clus>
<clus scale="   50.807">  2  5  1 -1</clus>
<clus scale="   64.676">  2  4  1 -1</clus>
<clus scale="   48.211">  1  3  2 -1</clus>
</clustering>
</event>
<event>
 6    0  0.8641190E+002  0.1915852E+03  0.7546771E-02  0.1157039E+00
         21   -1    0    0  503  501  0.00000000000E+00  0.00000000000E+00  0.13090453182E+04  0.13090453182E+04  0.00000000000E+00 0.  1.
         21   -1    0    0  506  502 -0.00000000000E+00 -0.00000000000E+00 -0.16702484870E+03  0.16702484870E+03  0.00000000000E+00 0. -1.
         21    1    1    2  503  505 -0.17275682641E+03 -0.18815015370E+03  0.44709732576E+03  0.51491884808E+03  0.00000000000E+00 0.  1.
         21    1    1    2  504  502  0.74327308831E+02  0.14173425188E+03 -0.66776483134E+02  0.17341351070E+03  0.00000000000E+00 0. -1.
         21    1    1    2  505  504 -0.82554455161E+00 -0.52298426153E+02  0.11929347540E+03  0.13025644005E+03  0.00000000000E+00 0.  1.
         21    1    1    2  506  501  0.99255062132E+02  0.98714327969E+02  0.64240615145E+03  0.65748136804E+03  0.00000000000E+00 0.  1.
<scales pt_clust_3="39.20537" pt_clust_4="170.87609" pt_clust_5="39.20537" pt_clust_6="139.98602"></scales>
<clustering>
<clus scale="   39.205">  3  5 -1 -1</clus>
<clus scale="  139.986">  1  6  2 -1</clus>
<clus scale="  170.876">  2  4  1 -1</clus>
<clus scale="  139.986">  1  3  2 -1</clus>
</clustering>
</event>
<event>
 6    0  0.8641190E+002  0.2276413E+03  0.7546771E-02  0.1128311E+00
         21   -1    0    0  504  501  0.00000000000E+00  0.00000000000E+00  0.21684760168E+03  0.21684760168E+03  0.00000000000E+00 0. -1.
         21   -1    0    0  505  502 -0.00000000000E+00 -0.00000000000E+00 -0.42570780066E+03  0.42570780066E+03  0.00000000000E+00 0. -1.
         21    1    1    2  503  506  0.66274237849E+01 -0.12226360430E+03 -0.60845036030E+02  0.13672757620E+03  0.00000000000E+00 0. -1.
         21    1    1    2  504  503  0.54318402184E+01 -0.76821361740E+02 -0.82337463101E+02  0.11274078383E+03  0.00000000000E+00 0. -1.
         21    1    1    2  505  501 -0.18092893323E+02  0.23287079168E+03  0.77312826825E+02  0.24603542753E+03  0.00000000000E+00 0. -1.
         21    1    1    2  506  502  0.60336293196E+01 -0.33785825639E+02 -0.14299052667E+03  0.14705161480E+03  0.00000000000E+00 0. -1.
<scales pt_clust_3="35.93284" pt_clust_4="35.93284" pt_clust_5="223.31053" pt_clust_6="34.32035"></scales>
<clustering>
<clus scale="   34.320">  2  6  1 -1</clus>
<clus scale="   35.933">  3  4 -1 -1</clus>
<clus scale="  223.311">  1  5  2 -1</clus>
<clus scale="  223.311">  1  3  2 -1</clus>
</clustering>
</event>
<event>
 6    0  0.8641190E+002  0.2943363E+03  0.7546771E-02  0.1088107E+00
         21   -1    0    0  505  501  0.00000000000E+00  0.00000000000E+00  0.35160847914E+03  0.35160847914E+03  0.00000000000E+00 0. -1.
         21   -1    0    0  504  502 -0.00000000000E+00 -0.00000000000E+00 -0.75397737625E+03  0.75397737625E+03  0.00000000000E+00 0.  1.
         21    1    1    2  503  506 -0.61704355795E+02  0.18067246531E+03 -0.26884992686E+02  0.19280241201E+03  0.00000000000E+00 0. -1.
         21    1    1    2  504  501 -0.30463907859E+02 -0.40332008687E+02  0.19345237453E+03  0.19994634735E+03  0.00000000000E+00 0.  1.
         21    1    1    2  505  503 -0.82707453821E+02  0.77387314828E+02 -0.50591396904E+02  0.12405163786E+03  0.00000000000E+00 0. -1.
         21    1    1    2  506  502  0.17487571748E+03 -0.21772777145E+03 -0.51834488204E+03  0.58878545818E+03  0.00000000000E+00 0.  1.
<scales pt_clust_3="66.44414" pt_clust_4="50.54424" pt_clust_5="66.44414" pt_clust_6="282.29341"></scales>
<clustering>
<clus scale="   50.544">  1  4  2 -1</clus>
<clus scale="   66.444">  3  5 -1 -1</clus>
<clus scale="  282.293">  2  6  1 -1</clus>
<clus scale="   50.544">  1  3  2 -1</clus>
</clustering>
</event>
<event>
 6    0  0.8641190E+002  0.8766184E+02  0.7546771E-02  0.1308615E+00
         21   -1    0    0  506  501  0.00000000000E+00  0.00000000000E+00  0.58071417133E+02  0.58071417133E+02  0.00000000000E+00 0. -1.
         21   -1    0    0  503  502 -0.00000000000E+00 -0.00000000000E+00 -0.44021013657E+03  0.44021013657E+03  0.00000000000E+00 0.  1.
         21    1    1    2  503  504  0.88877897222E+01  0.98483988927E+02 -0.17750421016E+03  0.20318915696E+03  0.00000000000E+00 0.  1.
         21    1    1    2  504  501 -0.21044010432E+01  0.44832157006E+02 -0.17979333952E+02  0.48348808206E+02  0.00000000000E+00 0.  1.
         21    1    1    2  505  502 -0.30368102555E+02 -0.41963016367E+02 -0.94393630929E+02  0.10767206674E+03  0.00000000000E+00 0.  1.
         21    1    1    2  506  505  0.23584713876E+02 -0.10135312957E+03 -0.92261544390E+02  0.13907152180E+03  0.00000000000E+00 0. -1.
<scales pt_clust_3="14000.00000" pt_clust_4="44.88152" pt_clust_5="46.56929" pt_clust_6="87.66184"></scales>
<clustering>
<clus scale="   44.882">  1  4  2 -1</clus>
<clus scale="   46.569">  2  5  1 -1</clus>
<clus scale="   87.662">  1  6  2 -1</clus>
<clus scale="   44.882">  1  3  2 -1</clus>
</clustering>
</event>
<event>
 6    0  0.8641190E+002  0.1161090E+03  0.7546771E-02  0.1249658E+00
         21   -1    0    0  504  501  0.00000000000E+00  0.00000000000E+00  0.16456361502E+03  0.16456361502E+03  0.00000000000E+00 0.  1.
         21   -1    0    0  505  502 -0.00000000000E+00 -0.00000000000E+00 -0.15485050091E+04  0.15485050091E+04  0.00000000000E+00 0.  1.
         21    1    1    2  503  506  0.34747060784E+01  0.51570393142E+02 -0.11111909257E+02  0.52868266082E+02  0.00000000000E+00 0.  1.
         21    1    1    2  504  502 -0.17293330092E+02 -0.26172499844E+02  0.10928167871E+03  0.11369496170E+03  0.00000000000E+00 0.  1.
         21    1    1    2  505  503  0.60462120716E+02 -0.88265945274E+02 -0.14616950197E+04  0.14656052933E+04  0.00000000000E+00 0.  1.
         21    1    1    2  506  501 -0.46643496702E+02  0.62868051976E+02 -0.20416143831E+02  0.80900103045E+02  0.00000000000E+00 0.  1.
<scales pt_clust_3="32.92693" pt_clust_4="31.36971" pt_clust_5="107.42926" pt_clust_6="32.92693"></scales>
<clustering>
<clus scale="   31.370">  1  4  2 -1</clus>
<clus scale="   32.927">  3  6 -1 -1</clus>
<clus scale="  107.429">  2  5  1 -1</clus>
<clus scale="   31.370">  1  3  2 -1</clus>
</clustering>
</event>
<event>
 6    0  0.8641190E+002  0.3438989E+03  0.7546771E-02  0.1065147E+00
         21   -1    0    0  503  501  0.00000000000E+00  0.00000000000E+00  0.30727528607E+03  0.30727528607E+03  0.00000000000E+00 0.  1.
         21   -1    0    0  505  502 -0.00000000000E+00 -0.00000000000E+00 -0.83772717810E+03  0.83772717810E+03  0.00000000000E+00 0.  1.
         21    1    1    2  503  506  0.62586858026E+01 -0.57030527266E+02 -0.57387164798E+01  0.57659214832E+02  0.00000000000E+00 0.  1.
         21    1    1    2  504  501  0.31048549706E+03  0.92947085802E+02 -0.67657093821E+02  0.33108592086E+03  0.00000000000E+00 0.  1.
         21    1    1    2  505  504  0.50389699191E+02  0.87028511261E+01 -0.37365105966E+03  0.37713389637E+03  0.00000000000E+00 0.  1.
         21    1    1    2  506  502 -0.36713388206E+03 -0.44619409662E+02 -0.83405022073E+02  0.37912343212E+03  0.00000000000E+00 0.  1.
<scales pt_clust_3="57.26369" pt_clust_4="14000.00000" pt_clust_5="51.13572" pt_clust_6="343.89895"></scales>
<clustering>
<clus scale="   51.136">  2  5  1 -1</clus>
<clus scale="   57.264">  1  3  2 -1</clus>
<clus scale="  343.899">  2  6  1 -1</clus>
<clus scale="   57.264">  1  3  2 -1</clus>
</clustering>
</event>
<event>
 6    0  0.8641190E+002  0.2130931E+03  0.7546771E-02  0.1139140E+00
         21   -1    0    0  506  501  0.00000000000E+00  0.00000000000E+00  0.33208063624E+03  0.33208063624E+03  0.00000000000E+00 0.  1.
         21   -1    0    0  505  502 -0.00000000000E+00 -0.00000000000E+00 -0.45107151924E+03  0.45107151924E+03  0.00000000000E+00 0.  1.
         21    1    1    2  503  504  0.30988403315E+03 -0.50090641098E+02 -0.84219094465E+02  0.32500775713E+03  0.00000000000E+00 0.  1.
         21    1    1    2  504  502 -0.20134028530E+02 -0.23072108822E+02 -0.87065825058E+02  0.92293874138E+02  0.00000000000E+00 0.  1.
         21    1    1    2  505  501 -0.11361686375E+03  0.29016486563E+01 -0.76157351544E+02  0.13681064830E+03  0.00000000000E+00 0.  1.
         21    1    1    2  506  503 -0.17613314087E+03  0.70261101264E+02  0.12845138807E+03  0.22903987591E+03  0.00000000000E+00 0.  1.
<scales pt_clust_3="213.09309" pt_clust_4="30.62191" pt_clust_5="119.61284" pt_clust_6="14000.00000"></scales>
<clustering>
<clus scale="   30.622">  2  4  1 -1</clus>
<clus scale="  119.613">  2  5  1 -1</clus>
<clus scale="  213.093">  2  3  1 -1</clus>
<clus scale="  213.093">  1  3  2 -1</clus>
</clustering>
</event>
<event>
 6    0  0.8641190E+002  0.1005404E+03  0.7546771E-02  0.1279164E+00
         21   -1    0    0  506  501  0.00000000000E+00  0.00000000000E+00  0.75854120095E+02  0.75854120095E+02  0.00000000000E+00 0.  1.
         21   -1    0    0  503  502 -0.00000000000E+00 -0.00000000000E+00 -0.14129728841E+04  0.14129728841E+04  0.00000000000E+00 0.  1.
         21    1    1    2  503  501 -0.78895505472E+02  0.53613869098E+01 -0.19659126039E+03  0.21189943113E+03  0.00000000000E+00 0.  1.
         21    1    1    2  504  505  0.76423069822E+02  0.43906816810E+02  0.19653516676E+02  0.90302574057E+02  0.00000000000E+00 0.  1.
         21    1    1    2  505  502  0.55104349279E+01 -0.82621574952E+02 -0.11480071562E+04  0.11509896264E+04  0.00000000000E+00 0.  1.
         21    1    1    2  506  504 -0.30379992784E+01  0.33353371232E+02 -0.12173864154E+02  0.35635372603E+02  0.00000000000E+00 0.  1.
<scales pt_clust_3="79.80687" pt_clust_4="14000.00000" pt_clust_5="100.54043" pt_clust_6="33.49144"></scales>
<clustering>
<clus scale="   33.491">  1  6  2 -1</clus>
<clus scale="   79.807">  2  3  1 -1</clus>
<clus scale="  100.540">  2  5  1 -1</clus>
<clus scale="   33.491">  1  3  2 -1</clus>
</clustering>
</event>
<event>
 6    0  0.8641190E+002  0.8081855E+02  0.7546771E-02  0.1326744E+00
         21   -1    0    0  506  501  0.00000000000E+00  0.00000000000E+00  0.13917456493E+04  0.13917456493E+04  0.00000000000E+00 0. -1.
         21   -1    0    0  503  502 -0.00000000000E+00 -0.00000000000E+00 -0.14534317868E+03  0.14534317868E+03  0.00000000000E+00 0.  1.
         21    1    1    2  503  504  0.25306817034E+02  0.20469370307E+02 -0.12694758226E+03  0.13105387728E+03  0.00000000000E+00 0.  1.
         21    1    1    2  504  505  0.54500425922E+02 -0.23154297501E+02  0.10431276547E+03  0.11994820115E+03  0.00000000000E+00 0. -1.
         21    1    1    2  505  501 -0.13859277553E+03  0.51311473332E+01  0.67229191009E+03  0.68644788475E+03  0.00000000000E+00 0. -1.
         21    1    1    2  506  502  0.58785532573E+02 -0.24462201394E+01  0.59674537730E+03  0.59963886478E+03  0.00000000000E+00 0. -1.
<scales pt_clust_3="32.54889" pt_clust_4="14000.00000" pt_clust_5="80.81855" pt_clust_6="61.02916"></scales>
<clustering>
<clus scale="   32.549">  2  3  1 -1</clus>
<clus scale="   61.029">  1  6  2 -1</clus>
<clus scale="   80.819">  1  5  2 -1</clus>
<clus scale="   61.029">  1  3  2 -1</clus>
</clustering>
</event>
<event>
 6    0  0.8641190E+002  0.1471582E+03  0.7546771E-02  0.1204009E+00
         21   -1    0    0  506  501  0.00000000000E+00  0.00000000000E+00  0.17892121806E+02  0.17892121806E+02  0.00000000000E+00 0. -1.
         21   -1    0    0  504  502 -0.00000000000E+00 -0.00000000000E+00 -0.16564194692E+04  0.16564194692E+04  0.00000000000E+00 0. -1.
         21    1    1    2  503  502 -0.10840253130E+03  0.11494993237E+03 -0.85936475123E+03  0.87376906068E+03  0.00000000000E+00 0. -1.
         21    1    1    2  504  501 -0.85668986305E+00 -0.42137518617E+02 -0.25400501933E+03  0.25747787136E+03  0.00000000000E+00 0. -1.
         21    1    1    2  505  503  0.49425615034E+02 -0.10379359877E+02 -0.15869729805E+03  0.16653964976E+03  0.00000000000E+00 0. -1.
         21    1    1    2  506  505  0.59833606127E+02 -0.62433053875E+02 -0.36646027880E+03  0.37652500923E+03  0.00000000000E+00 0. -1.
<scales pt_clust_3="140.59171" pt_clust_4="42.14623" pt_clust_5="33.21938" pt_clust_6="33.21938"></scales>
<clustering>
<clus scale="   33.219">  5  6 -1 -1</clus>
<clus scale="   42.146">  2  4  1 -1</clus>
<clus scale="  140.592">  2  3  1 -1</clus>
<clus scale="  147.158">  1  3  2 -1</clus>
</clustering>
</event>
<event>
 6    0  0.8641190E+002  0.5279652E+02  0.7546771E-02  0.1430816E+00
         21   -1    0    0  504  501  0.00000000000E+00  0.00000000000E+00  0.25602139412E+03  0.25602139412E+03  0.00000000000E+00 0.  1.
         21   -1    0    0  503  502 -0.00000000000E+00 -0.00000000000E+00 -0.16380325211E+03  0.16380325211E+03  0.00000000000E+00 0. -1.
         21    1    1    2  503  506  0.41689973836E+02 -0.46008753067E+01 -0.30926193470E+02  0.52111912406E+02  0.00000000000E+00 0. -1.
         21    1    1    2  504  505 -0.12376164111E+02  0.43333281129E+02  0.59686210565E+02  0.74788945862E+02  0.00000000000E+00 0. -1.
         21    1    1    2  505  502 -0.78131515609E+02  0.29384370667E+02 -0.87082459087E+02  0.12062889227E+03  0.00000000000E+00 0. -1.
         21    1    1    2  506  501  0.48817705883E+02 -0.68116776490E+02  0.15054058400E+03  0.17229489569E+03  0.00000000000E+00 0.  1.
<scales pt_clust_3="41.94308" pt_clust_4="44.15092" pt_clust_5="52.79652" pt_clust_6="14000.00000"></scales>
<clustering>
<clus scale="   41.943">  2  3  1 -1</clus>
<clus scale="   44.151">  1  4  2 -1</clus>
<clus scale="   52.797">  2  5  1 -1</clus>
<clus scale="   44.151">  1  3  2 -1</clus>
</clustering>
</event>
<event>
 6    0  0.8641190E+002  0.9819291E+02  0.7546771E-02  0.1284143E+00
         21   -1    0    0  503  501  0.00000000000E+00  0.00000000000E+00  0.15655205315E+03  0.15655205315E+03  0.00000000000E+00 0. -1.
         21   -1    0    0  506  502 -0.00000000000E+00 -0.00000000000E+00 -0.44253989581E+03  0.44253989581E+03  0.00000000000E+00 0. -1.
         21    1    1    2  503  504  0.67678862032E+02 -0.56716304425E+02 -0.11153555654E+03  0.14225803291E+03  0.00000000000E+00 0. -1.
         21    1    1    2  504  502  0.49613923361E+02  0.60933773569E+01 -0.14092860674E+03  0.14953107649E+03  0.00000000000E+00 0. -1.
         21    1    1    2  505  501 -0.28056486559E+02 -0.20228520164E+02  0.11501023010E+03  0.12009876142E+03  0.00000000000E+00 0. -1.
         21    1    1    2  506  505 -0.89236298833E+02  0.70851447232E+02 -0.14853390948E+03  0.18720407813E+03  0.00000000000E+00 0. -1.
<scales pt_clust_3="98.19291" pt_clust_4="46.67949" pt_clust_5="34.58843" pt_clust_6="14000.00000"></scales>
<clustering>
<clus scale="   34.588">  1  5  2 -1</clus>
<clus scale="   46.679">  2  4  1 -1</clus>
<clus scale="   98.193">  1  3  2 -1</clus>
<clus scale="   34.588">  1  3  2 -1</clus>
</clustering>
</event>
<event>
 6    0  0.8641190E+002  0.7806873E+02  0.7546771E-02  0.1334623E+00
         21   -1    0    0  506  501  0.00000000000E+00  0.00000000000E+00  0.55689920629E+02  0.55689920629E+02  0.00000000000E+00 0.  1.
         21   -1    0    0  503  502 -0.00000000000E+00 -0.00000000000E+00 -0.34044264291E+04  0.34044264291E+04  0.00000000000E+00 0. -1.
         21    1    1    2  503  505  0.12568712753E+02 -0.58120493195E+02 -0.17645924988E+04  0.17655941354E+04  0.00000000000E+00 0. -1.
         21    1    1    2  504  501 -0.24121760409E+02 -0.43536221548E+02  0.32816331966E+02  0.59616889852E+02  0.00000000000E+00 0.  1.
         21    1    1    2  505  504 -0.74183160267E+02  0.92924887956E+02 -0.13294522380E+04  0.13347589404E+04  0.00000000000E+00 0. -1.
         21    1    1    2  506  502  0.85736207923E+02  0.87318267877E+01 -0.28750810368E+03  0.30014638400E+03  0.00000000000E+00 0. -1.
<scales pt_clust_3="61.46846" pt_clust_4="49.77210" pt_clust_5="14000.00000" pt_clust_6="78.06873"></scales>
<clustering>
<clus scale="   49.772">  1  4  2 -1</clus>
<clus scale="   61.468">  2  3  1 -1</clus>
<clus scale="   78.069">  1  6  2 -1</clus>
<clus scale="   49.772">  1  3  2 -1</clus>
</clustering>
</event>
<event>
 6    0  0.8641190E+002  0.1058606E+03  0.7546771E-02  0.1268433E+00
         21   -1    0    0  505  501  0.00000000000E+00  0.00000000000E+00  0.17182392943E+03  0.17182392943E+03  0.00000000000E+00 0.  1.
         21   -1    0    0  504  502 -0.00000000000E+00 -0.00000000000E+00 -0.28116943848E+03  0.28116943848E+03  0.00000000000E+00 0.  1.
         21    1    1    2  503  506 -0.66746658956E+02  0.52807054164E+02 -0.13059254189E+02  0.86106013560E+02  0.00000000000E+00 0.  1.
         21    1    1    2  504  503 -0.29476927062E+02  0.39790609514E+02 -0.43085981614E+02  0.65639802301E+02  0.00000000000E+00 0.  1.
         21    1    1    2  505  502  0.33115487272E+02 -0.82186179167E+02 -0.15644552164E+03  0.17979545263E+03  0.00000000000E+00 0.  1.
         21    1    1    2  506  501  0.63108098745E+02 -0.10411484512E+02  0.10324524840E+03  0.12145209942E+03  0.00000000000E+00 0.  1.
<scales pt_clust_3="34.46202" pt_clust_4="34.46202" pt_clust_5="95.73536" pt_clust_6="63.96117"></scales>
<clustering>
<clus scale="   34.462">  3  4 -1 -1</clus>
<clus scale="   63.961">  1  6  2 -1</clus>
<clus scale="   95.735">  2  5  1 -1</clus>
<clus scale="   63.961">  1  3  2 -1</clus>
</clustering>
</event>
<event>
 6    0  0.8641190E+002  0.1018350E+03  0.7546771E-02  0.1276484E+00
         21   -1    0    0  505  501  0.00000000000E+00  0.00000000000E+00  0.32130099418E+03  0.32130099418E+03  0.00000000000E+00 0.  1.
         21   -1    0    0  503  502 -0.00000000000E+00 -0.00000000000E+00 -0.37732172178E+03  0.37732172178E+03  0.00000000000E+00 0.  1.
         21    1    1    2  503  501 -0.56511264085E+02 -0.77907477115E+02  0.16939635612E+03  0.19482870277E+03  0.00000000000E+00 0.  1.
         21    1    1    2  504  506 -0.16630614904E+01 -0.51414437390E+02  0.29373009635E+02  0.59236676482E+02  0.00000000000E+00 0.  1.
         21    1    1    2  505  504  0.15290941532E+02  0.36621140572E+02  0.82818851755E+02  0.91836174984E+02  0.00000000000E+00 0.  1.
         21    1    1    2  506  502  0.42883384043E+02  0.92700773933E+02 -0.33760894510E+03  0.35272116172E+03  0.00000000000E+00 0.  1.
<scales pt_clust_3="101.83496" pt_clust_4="44.49699" pt_clust_5="39.68527" pt_clust_6="14000.00000"></scales>
<clustering>
<clus scale="   39.685">  1  5  2 -1</clus>
<clus scale="   44.497">  1  4  2 -1</clus>
<clus scale="  101.835">  1  3  2 -1</clus>
<clus scale="   39.685">  1  3  2 -1</clus>
</clustering>
</event>
<event>
 6    0  0.8641190E+002  0.1079756E+03  0.7546771E-02  0.1264365E+00
         21   -1    0    0  506  501  0.00000000000E+00  0.00000000000E+00  0.18972234839E+02  0.18972234839E+02  0.00000000000E+00 0. -1.
         21   -1    0    0  504  502 -0.00000000000E+00 -0.00000000000E+00 -0.12092697358E+04  0.12092697358E+04  0.00000000000E+00 0. -1.
         21    1    1    2  503  505  0.66713776411E+02  0.39292053335E+02 -0.48666996950E+03  0.49279027246E+03  0.00000000000E+00 0. -1.
         21    1    1    2  504  503  0.48588674755E+02  0.29114743494E+02 -0.18415233390E+03  0.19266709549E+03  0.00000000000E+00 0. -1.
         21    1    1    2  505  501 -0.63369981297E+02 -0.59881145419E+01 -0.12771315194E+03  0.14269639527E+03  0.00000000000E+00 0. -1.
         21    1    1    2  506  502 -0.51932469869E+02 -0.62418682286E+02 -0.39176204562E+03  0.40008820742E+03  0.00000000000E+00 0. -1.
<scales pt_clust_3="37.03806" pt_clust_4="37.03806" pt_clust_5="63.65227" pt_clust_6="98.91221"></scales>
<clustering>
<clus scale="   37.038">  3  4 -1 -1</clus>
<clus scale="   63.652">  1  5  2 -1</clus>
<clus scale="   98.912">  2  6  1 -1</clus>
<clus scale="   63.652">  1  3  2 -1</clus>
</clustering>
</event>
<event>
 6    0  0.8641190E+002  0.1223510E+03  0.7546771E-02  0.1239268E+00
         21   -1    0    0  503  501  0.00000000000E+00  0.00000000000E+00  0.12049806514E+04  0.12049806514E+04  0.00000000000E+00 0. -1.
         21   -1    0    0  506  502 -0.00000000000E+00 -0.00000000000E+00 -0.29597051687E+03  0.29597051687E+03  0.00000000000E+00 0.  1.
         21    1    1    2  503  504 -0.91629970123E+01 -0.32681209094E+02  0.11180575294E+04  0.11185725998E+04  0.00000000000E+00 0. -1.
         21    1    1    2  504  505  0.13338636679E+02  0.11028555122E+03 -0.12053787733E+03  0.16392132841E+03  0.00000000000E+00 0.  1.
         21    1    1    2  505  502  0.41770550998E+02  0.27387392370E+02 -0.91020427238E+02  0.10382469054E+03  0.00000000000E+00 0.  1.
         21    1    1    2  506  501 -0.45946190664E+02 -0.10499173449E+03  0.25109097016E+01  0.11463254955E+03  0.00000000000E+00 0.  1.
<scales pt_clust_3="33.94145" pt_clust_4="14000.00000" pt_clust_5="48.08689" pt_clust_6="122.35103"></scales>
<clustering>
<clus scale="   33.941">  1  3  2 -1</clus>
<clus scale="   48.087">  2  5  1 -1</clus>
<clus scale="  122.351">  1  6  2 -1</clus>
<clus scale="   33.941">  1  3  2 -1</clus>
</clustering>
</event>
<event>
 6    0  0.8641190E+002  0.2685270E+03  0.7546771E-02  0.1102126E+00
         21   -1    0    0  504  501  0.00000000000E+00  0.00000000000E+00  0.42282041825E+03  0.42282041825E+03  0.00000000000E+00 0. -1.
         21   -1    0    0  503  502 -0.00000000000E+00 -0.00000000000E+00 -0.47138003125E+03  0.47138003125E+03  0.00000000000E+00 0. -1.
         21    1    1    2  503  506  0.23510701714E+02 -0.10152059026E+03 -0.10330032210E+03  0.14673152316E+03  0.00000000000E+00 0. -1.
         21    1    1    2  504  502  0.22314965176E+03 -0.60468060651E+02  0.23396296131E+02  0.23237801125E+03  0.00000000000E+00 0. -1.
         21    1    1    2  505  501  0.22791096515E+02 -0.33377593008E+02  0.15488982672E+03  0.16007609508E+03  0.00000000000E+00 0. -1.
         21    1    1    2  506  505 -0.26945144999E+03  0.19536624392E+03 -0.12354541375E+03  0.35501482001E+03  0.00000000000E+00 0. -1.
<scales pt_clust_3="107.29619" pt_clust_4="14000.00000" pt_clust_5="40.41655" pt_clust_6="268.52701"></scales>
<clustering>
<clus scale="   40.417">  1  5  2 -1</clus>
<clus scale="  107.296">  2  3  1 -1</clus>
<clus scale="  268.527">  2  6  1 -1</clus>
<clus scale="   40.417">  1  3  2 -1</clus>
</clustering>
</event>
<event>
 6    0  0.8641190E+002  0.6956020E+02  0.7546771E-02  0.1361595E+00
         21   -1    0    0  503  501  0.00000000000E+00  0.00000000000E+00  0.93107581455E+02  0.93107581455E+02  0.00000000000E+00 0.  1.
         21   -1    0    0  506  502 -0.00000000000E+00 -0.00000000000E+00 -0.57075853072E+03  0.57075853072E+03  0.00000000000E+00 0.  1.
         21    1    1    2  503  502 -0.29799017794E+02  0.31918635082E+02 -0.17839947659E+02  0.47170376927E+02  0.00000000000E+00 0.  1.
         21    1    1    2  504  505 -0.18171307633E+02 -0.58072761506E+02 -0.36835404680E+02  0.71130085674E+02  0.00000000000E+00 0.  1.
         21    1    1    2  505  501  0.99137946286E+02  0.18647129825E+02  0.17226048637E+02  0.10233662392E+03  0.00000000000E+00 0.  1.
         21    1    1    2  506  504 -0.51167620859E+02  0.75069965998E+01 -0.44020164556E+03  0.44322902565E+03  0.00000000000E+00 0.  1.
<scales pt_clust_3="43.66670" pt_clust_4="69.56020" pt_clust_5="14000.00000" pt_clust_6="52.37636"></scales>
<clustering>
<clus scale="   43.667">  1  3  2 -1</clus>
<clus scale="   52.376">  2  6  1 -1</clus>
<clus scale="   69.560">  2  4  1 -1</clus>
<clus scale="   43.667">  1  3  2 -1</clus>
</clustering>
</event>
<event>
 6    0  0.8641190E+002  0.8769784E+02  0.7546771E-02  0.1308524E+00
         21   -1    0    0  504  501  0.00000000000E+00  0.00000000000E+00  0.56565809126E+02  0.56565809126E+02  0.00000000000E+00 0.  1.
         21   -1    0    0  505  502 -0.00000000000E+00 -0.00000000000E+00 -0.76050361558E+03  0.76050361558E+03  0.00000000000E+00 0.  1.
         21    1    1    2  503  501 -0.69262761639E+02 -0.40164463509E+02 -0.13634252850E+03  0.15811324852E+03  0.00000000000E+00 0.  1.
         21    1    1    2  504  506 -0.33620037342E+02  0.52554749189E+02  0.86210364664E+01  0.62981194359E+02  0.00000000000E+00 0.  1.
         21    1    1    2  505  503  0.14824227315E+02 -0.42145625836E+02 -0.84838807264E+02  0.95883443360E+02  0.00000000000E+00 0.  1.
         21    1    1    2  506  502  0.88058571666E+02  0.29755340155E+02 -0.49137750715E+03  0.50009153847E+03  0.00000000000E+00 0.  1.
<scales pt_clust_3="14000.00000" pt_clust_4="60.62584" pt_clust_5="44.67674" pt_clust_6="87.69784"></scales>
<clustering>
<clus scale="   44.677">  2  5  1 -1</clus>
<clus scale="   60.626">  1  4  2 -1</clus>
<clus scale="   87.698">  2  6  1 -1</clus>
<clus scale="   60.626">  1  3  2 -1</clus>
</clustering>
</event>
<event>
 6    0  0.8641190E+002  0.8985752E+02  0.7546771E-02  0.1303197E+00
         21   -1    0    0  505  501  0.00000000000E+00  0.00000000000E+00  0.83842270656E+02  0.83842270656E+02  0.00000000000E+00 0.  1.
         21   -1    0    0  504  502 -0.00000000000E+00 -0.00000000000E+00 -0.58693396797E+03  0.58693396797E+03  0.00000000000E+00 0.  1.
         21    1    1    2  503  502  0.42645302761E+02 -0.35726206230E+02 -0.36224226418E+03  0.36648934720E+03  0.00000000000E+00 0.  1.
         21    1    1    2  504  501  0.21768337428E+02  0.38245671551E+02 -0.16363352560E+02  0.46950518781E+02  0.00000000000E+00 0. -1.
         21    1    1    2  505  506 -0.19490421021E+02  0.69193632854E+02  0.32580313297E+02  0.78924724603E+02  0.00000000000E+00 0.  1.
         21    1    1    2  506  503 -0.44923219167E+02 -0.71713098176E+02 -0.15706639388E+03  0.17841164804E+03  0.00000000000E+00 0.  1.
<scales pt_clust_3="55.40489" pt_clust_4="44.00673" pt_clust_5="89.85752" pt_clust_6="14000.00000"></scales>
<clustering>
<clus scale="   44.007">  1  4  2 -1</clus>
<clus scale="   55.405">  2  3  1 -1</clus>
<clus scale="   89.858">  1  5  2 -1</clus>
<clus scale="   44.007">  1  3  2 -1</clus>
</clustering>
</event>
<event>
 6    0  0.8641190E+002  0.9714657E+02  0.7546771E-02  0.1286413E+00
         21   -1    0    0  506  501  0.00000000000E+00  0.00000000000E+00  0.41534702975E+03  0.41534702975E+03  0.00000000000E+00 0.  1.
         21   -1    0    0  503  502 -0.00000000000E+00 -0.00000000000E+00 -0.41972013233E+02  0.41972013233E+02  0.00000000000E+00 0.  1.
         21    1    1    2  503  501 -0.57360804891E+02  0.83582055383E+02  0.11057104366E+03  0.15000725855E+03  0.00000000000E+00 0.  1.
         21    1    1    2  504  502 -0.28228225226E+02 -0.10965859462E+02  0.30812237069E+02  0.43202739801E+02  0.00000000000E+00 0.  1.
         21    1    1    2  505  504  0.85835443347E+02 -0.41911826885E+02  0.17600200692E+03  0.20025241823E+03  0.00000000000E+00 0.  1.
         21    1    1    2  506  505 -0.24641322986E+00 -0.30704369036E+02  0.55989728864E+02  0.63856626403E+02  0.00000000000E+00 0.  1.
<scales pt_clust_3="97.14657" pt_clust_4="30.28337" pt_clust_5="14000.00000" pt_clust_6="32.08536"></scales>
<clustering>
<clus scale="   30.283">  2  4  1 -1</clus>
<clus scale="   32.085">  1  6  2 -1</clus>
<clus scale="   97.147">  2  3  1 -1</clus>
<clus scale="   32.085">  1  3  2 -1</clus>
</clustering>
</event>
<event>
 6    0  0.8641190E+002  0.7358743E+02  0.7546771E-02  0.1348302E+00
         21   -1    0    0  504  501  0.00000000000E+00  0.00000000000E+00  0.28409111728E+03  0.28409111728E+03  0.00000000000E+00 0. -1.
         21   -1    0    0  503  502 -0.00000000000E+00 -0.00000000000E+00 -0.10903302238E+03  0.10903302238E+03  0.00000000000E+00 0. -1.
         21    1    1    2  503  506 -0.24784570684E+02  0.21847578387E+02 -0.48143781810E+02  0.58390199112E+02  0.00000000000E+00 0. -1.
         21    1    1    2  504  505  0.28380272096E+01  0.57133687806E+02  0.88665759010E+02  0.10551743695E+03  0.00000000000E+00 0. -1.
         21    1    1    2  505  502 -0.92867376013E+01 -0.12275602491E+03  0.12338773897E+03  0.17429807594E+03  0.00000000000E+00 0. -1.
         21    1    1    2  506  501  0.31233281076E+02  0.43774758715E+02  0.11148378728E+02  0.54918427650E+02  0.00000000000E+00 0. -1.
<scales pt_clust_3="33.03924" pt_clust_4="14000.00000" pt_clust_5="73.58743" pt_clust_6="56.59440"></scales>
<clustering>
<clus scale="   33.039">  2  3  1 -1</clus>
<clus scale="   56.594">  2  6  1 -1</clus>
<clus scale="   73.587">  2  5  1 -1</clus>
<clus scale="   73.587">  1  3  2 -1</clus>
</clustering>
</event>
<event>
 6    0  0.8641190E+002  0.1744269E+03  0.7546771E-02  0.1173308E+00
         21   -1    0    0  504  501  0.00000000000E+00  0.00000000000E+00  0.96656373477E+02  0.96656373477E+02  0.00000000000E+00 0.  1.
         21   -1    0    0  506  502 -0.00000000000E+00 -0.00000000000E+00 -0.82526074097E+03  0.82526074097E+03  0.00000000000E+00 0. -1.
         21    1    1    2  503  501  0.39108690129E+00  0.30244249363E+02 -0.63247827101E+01  0.30900978056E+02  0.00000000000E+00 0.  1.
         21    1    1    2  504  505  0.37356136449E+02 -0.32265896248E+02 -0.60366480080E+02  0.77978720869E+02  0.00000000000E+00 0.  1.
         21    1    1    2  505  502  0.14139565952E+03 -0.21059681742E+02 -0.17777646750E+02  0.14405654255E+03  0.00000000000E+00 0.  1.
         21    1    1    2  506  503 -0.17914288287E+03  0.23081328627E+02 -0.64413545795E+03  0.66898087297E+03  0.00000000000E+00 0. -1.
<scales pt_clust_3="30.24678" pt_clust_4="47.39063" pt_clust_5="174.42693" pt_clust_6="14000.00000"></scales>
<clustering>
<clus scale="   30.247">  1  3  2 -1</clus>
<clus scale="   47.391">  1  4  2 -1</clus>
<clus scale="  174.427">  1  5  2 -1</clus>
<clus scale="   30.247">  1  3  2 -1</clus>
</clustering>
</event>
<event>
 6    0  0.8641190E+002  0.1087559E+03  0.7546771E-02  0.1262891E+00
         21   -1    0    0  503  501  0.00000000000E+00  0.00000000000E+00  0.32724961244E+03  0.32724961244E+03  0.00000000000E+00 0.  1.
         21   -1    0    0  506  502 -0.00000000000E+00 -0.00000000000E+00 -0.36982174522E+03  0.36982174522E+03  0.00000000000E+00 0. -1.
         21    1    1    2  503  502  0.34608994696E+02  0.47322848215E+02 -0.24368149405E+03  0.25063500358E+03  0.00000000000E+00 0. -1.
         21    1    1    2  504  501 -0.10310522161E+03 -0.41713174585E+02  0.28751331608E+03  0.30827679540E+03  0.00000000000E+00 0.  1.
         21    1    1    2  505  504  0.52723612876E+02 -0.41798283480E+02 -0.44949044596E+02  0.80915341355E+02  0.00000000000E+00 0.  1.
         21    1    1    2  506  505  0.15772614036E+02  0.36188609850E+02 -0.41454910214E+02  0.57244217326E+02  0.00000000000E+00 0. -1.
<scales pt_clust_3="14000.00000" pt_clust_4="108.75585" pt_clust_5="65.72289" pt_clust_6="39.47646"></scales>
<clustering>
<clus scale="   39.476">  2  6  1 -1</clus>
<clus scale="   65.723">  2  5  1 -1</clus>
<clus scale="  108.756">  1  4  2 -1</clus>
<clus scale="  108.756">  1  3  2 -1</clus>
</clustering>
</event>
<event>
 6    0  0.8641190E+002  0.1568244E+03  0.7546771E-02  0.1192329E+00
         21   -1    0    0  505  501  0.00000000000E+00  0.00000000000E+00  0.67410139654E+03  0.67410139654E+03  0.00000000000E+00 0.  1.
         21   -1    0    0  503  502 -0.00000000000E+00 -0.00000000000E+00 -0.84235487312E+03  0.84235487312E+03  0.00000000000E+00 0. -1.
         21    1    1    2  503  506  0.49567305665E+02  0.52283751037E+02 -0.20002833405E+01  0.72072946012E+02  0.00000000000E+00 0.  1.
         21    1    1    2  504  501 -0.44844461844E+02 -0.22365429873E+02  0.55078911232E+03  0.55306408712E+03  0.00000000000E+00 0.  1.
         21    1    1    2  505  502 -0.48530147907E+02 -0.13950266798E+03 -0.75346867553E+03  0.76780936086E+03  0.00000000000E+00 0. -1.
         21    1    1    2  506  504  0.43807304086E+02  0.10958434682E+03  0.36426369964E+02  0.12350987567E+03  0.00000000000E+00 0.  1.
<scales pt_clust_3="36.20652" pt_clust_4="50.11226" pt_clust_5="149.82155" pt_clust_6="36.20652"></scales>
<clustering>
<clus scale="   36.207">  3  6 -1 -1</clus>
<clus scale="   50.112">  1  4  2 -1</clus>
<clus scale="  149.822">  2  5  1 -1</clus>
<clus scale="   50.112">  1  3  2 -1</clus>
</clustering>
</event>
<event>
 6    0  0.8641190E+002  0.1077582E+03  0.7546771E-02  0.1264778E+00
         21   -1    0    0  506  501  0.00000000000E+00  0.00000000000E+00  0.67841840295E+03  0.67841840295E+03  0.00000000000E+00 0. -1.
         21   -1    0    0  504  502 -0.00000000000E+00 -0.00000000000E+00 -0.53680474094E+03  0.53680474094E+03  0.00000000000E+00 0. -1.
         21    1    1    2  503  501 -0.27462786845E+02 -0.33183311279E+02 -0.88283944090E+02  0.98231316762E+02  0.00000000000E+00 0. -1.
         21    1    1    2  504  503  0.10792492594E+02 -0.52682152775E+02 -0.14552015140E+03  0.15513865277E+03  0.00000000000E+00 0. -1.
         21    1    1    2  505  502  0.76240460919E+02  0.92350616105E+02 -0.27956527589E+03  0.30413481823E+03  0.00000000000E+00 0. -1.
         21    1    1    2  506  505 -0.59570166668E+02 -0.64851520511E+01  0.65498303339E+03  0.65771835613E+03  0.00000000000E+00 0. -1.
<scales pt_clust_3="38.81763" pt_clust_4="38.81763" pt_clust_5="98.64396" pt_clust_6="59.92213"></scales>
<clustering>
<clus scale="   38.818">  3  4 -1 -1</clus>
<clus scale="   59.922">  1  6  2 -1</clus>
<clus scale="   98.644">  1  5  2 -1</clus>
<clus scale="   59.922">  1  3  2 -1</clus>
</clustering>
</event>
<event>
 6    0  0.8641190E+002  0.9310522E+02  0.7546771E-02  0.1295502E+00
         21   -1    0    0  505  501  0.00000000000E+00  0.00000000000E+00  0.15536858421E+04  0.15536858421E+04  0.00000000000E+00 0. -1.
         21   -1    0    0  506  502 -0.00000000000E+00 -0.00000000000E+00 -0.15697408290E+03  0.15697408290E+03  0.00000000000E+00 0.  1.
         21    1    1    2  503  501 -0.61354914759E+02  0.69420524438E+02  0.14211798712E+04  0.14241965668E+04  0.00000000000E+00 0. -1.
         21    1    1    2  504  502  0.38849904327E+02  0.23377681961E+02 -0.44738804401E+02  0.63697658507E+02  0.00000000000E+00 0.  1.
         21    1    1    2  505  504 -0.62265233233E+02 -0.74168868639E+01  0.68748737644E+02  0.93050300418E+02  0.00000000000E+00 0. -1.
         21    1    1    2  506  503  0.84770243665E+02 -0.85381319535E+02 -0.48478045201E+02  0.12971539925E+03  0.00000000000E+00 0.  1.
<scales pt_clust_3="93.10522" pt_clust_4="45.34127" pt_clust_5="57.85863" pt_clust_6="14000.00000"></scales>
<clustering>
<clus scale="   45.341">  2  4  1 -1</clus>
<clus scale="   57.859">  2  5  1 -1</clus>
<clus scale="   93.105">  1  3  2 -1</clus>
<clus scale="   93.105">  1  3  2 -1</clus>
</clustering>
</event>
<event>
 6    0  0.8641190E+002  0.1221406E+03  0.7546771E-02  0.1239607E+00
         21   -1    0    0  504  501  0.00000000000E+00  0.00000000000E+00  0.50972844397E+02  0.50972844397E+02  0.00000000000E+00 0.  1.
         21   -1    0    0  505  502 -0.00000000000E+00 -0.00000000000E+00 -0.91154256162E+03  0.91154256162E+03  0.00000000000E+00 0.  1.
         21    1    1    2  503  501  0.63852338360E+02 -0.41011433276E+02 -0.56844971613E+02  0.94817770334E+02  0.00000000000E+00 0.  1.
         21    1    1    2  504  502  0.44128457372E+01  0.66290596491E+02 -0.16793316501E+03  0.18059752020E+03  0.00000000000E+00 0.  1.
         21    1    1    2  505  506 -0.94357935703E+02  0.10237709611E+02 -0.63598527713E+03  0.64302838464E+03  0.00000000000E+00 0.  1.
         21    1    1    2  506  503  0.26092751606E+02 -0.35516872826E+02  0.19369652755E+00  0.44071730849E+02  0.00000000000E+00 0.  1.
<scales pt_clust_3="35.20548" pt_clust_4="66.43731" pt_clust_5="113.06680" pt_clust_6="35.20548"></scales>
<clustering>
<clus scale="   35.205">  3  6 -1 -1</clus>
<clus scale="   66.437">  2  4  1 -1</clus>
<clus scale="  113.067">  2  5  1 -1</clus>
<clus scale="  122.141">  1  3  2 -1</clus>
</clustering>
</event>
<event>
 6    0  0.8641190E+002  0.9338067E+02  0.7546771E-02  0.1294865E+00
         21   -1    0    0  505  501  0.00000000000E+00  0.00000000000E+00  0.11782272628E+03  0.11782272628E+03  0.00000000000E+00 0.  1.
         21   -1    0    0  506  502 -0.00000000000E+00 -0.00000000000E+00 -0.49406786645E+03  0.49406786645E+03  0.00000000000E+00 0.  1.
         21    1    1    2  503  502  0.62974283493E+02 -0.80428089027E+01 -0.36945516119E+03  0.37487006187E+03  0.00000000000E+00 0.  1.
         21    1    1    2  504  501 -0.10399695691E+03  0.20479013254E+02  0.41736516648E+02  0.11391529245E+03  0.00000000000E+00 0.  1.
         21    1    1    2  505  503  0.75444509787E+02 -0.96461205021E+01 -0.20894281038E+02  0.78876439308E+02  0.00000000000E+00 0.  1.
         21    1    1    2  506  504 -0.34421836367E+02 -0.27900838495E+01 -0.27632214593E+02  0.44228799103E+02  0.00000000000E+00 0. -1.
<scales pt_clust_3="36.49834" pt_clust_4="14000.00000" pt_clust_5="93.38067" pt_clust_6="34.53473"></scales>
<clustering>
<clus scale="   34.535">  2  6  1 -1</clus>
<clus scale="   36.498">  2  3  1 -1</clus>
<clus scale="   93.381">  2  5  1 -1</clus>
<clus scale="   93.381">  1  3  2 -1</clus>
</clustering>
</event>
<event>
 6    0  0.8641190E+002  0.9057979E+02  0.7546771E-02  0.1301454E+00
         21   -1    0    0  504  501  0.00000000000E+00  0.00000000000E+00  0.12994912307E+03  0.12994912307E+03  0.00000000000E+00 0.  1.
         21   -1    0    0  503  502 -0.00000000000E+00 -0.00000000000E+00 -0.27786832657E+03  0.27786832657E+03  0.00000000000E+00 0.  1.
         21    1    1    2  503  505 -0.41639371725E+02  0.27477659438E+02 -0.41579427799E+01  0.50061437594E+02  0.00000000000E+00 0.  1.
         21    1    1    2  504  506  0.19221796388E+02 -0.57678485187E+02  0.34539647707E+00  0.60798062540E+02  0.00000000000E+00 0.  1.
         21    1    1    2  505  501 -0.22837508959E+02  0.76078678846E+02  0.49035491705E+02  0.93348790229E+02  0.00000000000E+00 0.  1.
         21    1    1    2  506  502  0.45255084296E+02 -0.45877853096E+02 -0.19314214891E+03  0.20360915928E+03  0.00000000000E+00 0.  1.
<scales pt_clust_3="48.01887" pt_clust_4="60.79708" pt_clust_5="48.01887" pt_clust_6="67.33040"></scales>
<clustering>
<clus scale="   48.019">  3  5 -1 -1</clus>
<clus scale="   60.797">  1  4  2 -1</clus>
<clus scale="   67.330">  2  6  1 -1</clus>
<clus scale="   60.797">  1  3  2 -1</clus>
</clustering>
</event>
<event>
 6    0  0.8641190E+002  0.2213863E+03  0.7546771E-02  0.1132854E+00
         21   -1    0    0  504  501  0.00000000000E+00  0.00000000000E+00  0.59762492828E+03  0.59762492828E+03  0.00000000000E+00 0. -1.
         21   -1    0    0  505  502 -0.00000000000E+00 -0.00000000000E+00 -0.60377328835E+03  0.60377328835E+03  0.00000000000E+00 0.  1.
         21    1    1    2  503  502 -0.18531150362E+02  0.30095766503E+02 -0.18579826901E+03  0.18912999619E+03  0.00000000000E+00 0.  1.
         21    1    1    2  504  506  0.17127738501E+03 -0.14695871533E+03  0.53989605855E+03  0.58516712199E+03  0.00000000000E+00 0. -1.
         21    1    1    2  505  501 -0.13809887997E+03  0.73329913940E+02 -0.34487661360E+03  0.37866668131E+03  0.00000000000E+00 0.  1.
         21    1    1    2  506  503 -0.14647354680E+02  0.43533034884E+02 -0.15369536009E+02  0.48434417127E+02  0.00000000000E+00 0.  1.
<scales pt_clust_3="35.34344" pt_clust_4="14000.00000" pt_clust_5="221.38625" pt_clust_6="48.57367"></scales>
<clustering>
<clus scale="   35.343">  2  3  1 -1</clus>
<clus scale="   48.574">  2  6  1 -1</clus>
<clus scale="  221.386">  2  5  1 -1</clus>
<clus scale="  221.386">  1  3  2 -1</clus>
</clustering>
</event>
<event>
 6    0  0.8641190E+002  0.1010747E+03  0.7546771E-02  0.1278052E+00
         21   -1    0    0  505  501  0.00000000000E+00  0.00000000000E+00  0.92709516173E+03  0.92709516173E+03  0.00000000000E+00 0.  1.
         21   -1    0    0  506  502 -0.00000000000E+00 -0.00000000000E+00 -0.36035853903E+03  0.36035853903E+03  0.00000000000E+00 0. -1.
         21    1    1    2  503  502  0.10271490042E+02  0.74425382612E+02 -0.19935794414E+02  0.77730798166E+02  0.00000000000E+00 0. -1.
         21    1    1    2  504  501  0.41034582850E+02 -0.33145923635E+01  0.65488049192E+01  0.41685853213E+02  0.00000000000E+00 0.  1.
         21    1    1    2  505  503 -0.67856307906E+01  0.30985346524E+02  0.86322796589E+03  0.86381054496E+03  0.00000000000E+00 0.  1.
         21    1    1    2  506  504 -0.44520442102E+02 -0.10209613677E+03 -0.28310435370E+03  0.30422650442E+03  0.00000000000E+00 0. -1.
<scales pt_clust_3="14000.00000" pt_clust_4="39.37556" pt_clust_5="31.71965" pt_clust_6="101.07470"></scales>
<clustering>
<clus scale="   31.720">  1  5  2 -1</clus>
<clus scale="   39.376">  1  4  2 -1</clus>
<clus scale="  101.075">  2  6  1 -1</clus>
<clus scale="   31.720">  1  3  2 -1</clus>
</clustering>
</event>
<event>
 6    0  0.8641190E+002  0.7001989E+02  0.7546771E-02  0.1360025E+00
         21   -1    0    0  503  501  0.00000000000E+00  0.00000000000E+00  0.10283236853E+04  0.10283236853E+04  0.00000000000E+00 0. -1.
         21   -1    0    0  505  502 -0.00000000000E+00 -0.00000000000E+00 -0.17166450449E+03  0.17166450449E+03  0.00000000000E+00 0. -1.
         21    1    1    2  503  504 -0.39435036582E+02 -0.57196734936E+02  0.92445719649E+03  0.92706401976E+03  0.00000000000E+00 0. -1.
         21    1    1    2  504  506 -0.64682655595E+02  0.21343123877E+02  0.40901623121E+02  0.79450095315E+02  0.00000000000E+00 0. -1.
         21    1    1    2  505  501  0.10860009518E+03  0.66235785138E+02 -0.74113772281E+02  0.14722096028E+03  0.00000000000E+00 0. -1.
         21    1    1    2  506  502 -0.44824030000E+01 -0.30382174078E+02 -0.34585866476E+02  0.46253114471E+02  0.00000000000E+00 0. -1.
<scales pt_clust_3="70.01989" pt_clust_4="67.48640" pt_clust_5="14000.00000" pt_clust_6="30.71105"></scales>
<clustering>
<clus scale="   30.711">  2  6  1 -1</clus>
<clus scale="   67.486">  2  4  1 -1</clus>
<clus scale="   70.020">  1  3  2 -1</clus>
<clus scale="   70.020">  1  3  2 -1</clus>
</clustering>
</event>
<event>
 6    0  0.8641190E+002  0.1413405E+03  0.7546771E-02  0.1211537E+00
         21   -1    0    0  506  501  0.00000000000E+00  0.00000000000E+00  0.33177537923E+02  0.33177537923E+02  0.00000000000E+00 0. -1.
         21   -1    0    0  503  502 -0.00000000000E+00 -0.00000000000E+00 -0.31857173172E+04  0.31857173172E+04  0.00000000000E+00 0. -1.
         21    1    1    2  503  505  0.11431047977E+03 -0.67035614655E+02 -0.28568129357E+04  0.28598847545E+04  0.00000000000E+00 0. -1.
         21    1    1    2  504  502 -0.75221333554E+02  0.17401773919E+02 -0.10583247339E+03  0.13100222587E+03  0.00000000000E+00 0. -1.
         21    1    1    2  505  501  0.17041897070E+02  0.33861229069E+02 -0.10439766750E+02  0.39319178776E+02  0.00000000000E+00 0. -1.
         21    1    1    2  506  504 -0.56131043283E+02  0.15772611667E+02 -0.17945460343E+03  0.18868869598E+03  0.00000000000E+00 0. -1.
<scales pt_clust_3="132.35389" pt_clust_4="43.22993" pt_clust_5="37.90790" pt_clust_6="43.22993"></scales>
<clustering>
<clus scale="   37.908">  1  5  2 -1</clus>
<clus scale="   43.230">  4  6 -1 -1</clus>
<clus scale="  132.354">  2  3  1 -1</clus>
<clus scale="   37.908">  1  3  2 -1</clus>
</clustering>
</event>
<event>
 6    0  0.8641190E+002  0.8764791E+02  0.7546771E-02  0.1308650E+00
         21   -1    0    0  505  501  0.00000000000E+00  0.00000000000E+00  0.91156046256E+02  0.91156046256E+02  0.00000000000E+00 0. -1.
         21   -1    0    0  506  502 -0.00000000000E+00 -0.00000000000E+00 -0.23990562411E+03  0.23990562411E+03  0.00000000000E+00 0.  1.
         21    1    1    2  503  502 -0.12222276393E+02  0.34014278263E+02 -0.74744848329E+02  0.83024981287E+02  0.00000000000E+00 0.  1.
         21    1    1    2  504  503 -0.62309630340E+02  0.28455131413E+02 -0.43067800495E+02  0.80913657539E+02  0.00000000000E+00 0.  1.
         21    1    1    2  505  504 -0.36231826880E+02 -0.34166166519E+02 -0.12228056684E+02  0.51279602026E+02  0.00000000000E+00 0. -1.
         21    1    1    2  506  501  0.11076373361E+03 -0.28303243157E+02 -0.18708872345E+02  0.11584342951E+03  0.00000000000E+00 0. -1.
<scales pt_clust_3="36.14354" pt_clust_4="87.64791" pt_clust_5="47.40441" pt_clust_6="14000.00000"></scales>
<clustering>
<clus scale="   36.144">  2  3  1 -1</clus>
<clus scale="   47.404">  1  5  2 -1</clus>
<clus scale="   87.648">  2  4  1 -1</clus>
<clus scale="   47.404">  1  3  2 -1</clus>
</clustering>
</event>
<event>
 6    0  0.8641190E+002  0.1268162E+03  0.7546771E-02  0.1232258E+00
         21   -1    0    0  506  501  0.00000000000E+00  0.00000000000E+00  0.10741918672E+03  0.10741918672E+03  0.00000000000E+00 0.  1.
         21   -1    0    0  504  502 -0.00000000000E+00 -0.00000000000E+00 -0.76580715620E+03  0.76580715620E+03  0.00000000000E+00 0. -1.
         21    1    1    2  503  502 -0.55433523727E+02  0.12645103918E+03  0.12382373098E+02  0.13862201854E+03  0.00000000000E+00 0.  1.
         21    1    1    2  504  505  0.38471470439E+02 -0.11990061209E+03 -0.61478998174E+03  0.62755313119E+03  0.00000000000E+00 0. -1.
         21    1    1    2  505  501  0.50399893151E+02 -0.31513579353E+01 -0.53161944521E+02  0.73323070256E+02  0.00000000000E+00 0. -1.
         21    1    1    2  506  503 -0.33437839863E+02 -0.33990691479E+01 -0.28184163244E+01  0.33728122930E+02  0.00000000000E+00 0.  1.
<scales pt_clust_3="14000.00000" pt_clust_4="126.81621" pt_clust_5="46.86731" pt_clust_6="33.61016"></scales>
<clustering>
<clus scale="   33.610">  1  6  2 -1</clus>
<clus scale="   46.867">  1  5  2 -1</clus>
<clus scale="  126.816">  2  4  1 -1</clus>
<clus scale="   33.610">  1  3  2 -1</clus>
</clustering>
</event>
<event>
 6    0  0.8641190E+002  0.6786779E+02  0.7546771E-02  0.1367498E+00
         21   -1    0    0  505  501  0.00000000000E+00  0.00000000000E+00  0.35579283360E+03  0.35579283360E+03  0.00000000000E+00 0. -1.
         21   -1    0    0  503  502 -0.00000000000E+00 -0.00000000000E+00 -0.11645906614E+04  0.11645906614E+04  0.00000000000E+00 0. -1.
         21    1    1    2  503  504 -0.73579564921E+02 -0.76478301697E+02 -0.88259474863E+03  0.88895240216E+03  0.00000000000E+00 0. -1.
         21    1    1    2  504  501  0.30745690958E+02 -0.59166571411E+01  0.33515717807E+03  0.33661645586E+03  0.00000000000E+00 0. -1.
         21    1    1    2  505  506 -0.39733991179E+01  0.66911951210E+02 -0.68844287539E+02  0.96086071010E+02  0.00000000000E+00 0.  1.
         21    1    1    2  506  502  0.46807273080E+02  0.15483007628E+02 -0.19251596973E+03  0.19872856599E+03  0.00000000000E+00 0. -1.
<scales pt_clust_3="14000.00000" pt_clust_4="31.30981" pt_clust_5="67.86779" pt_clust_6="53.61968"></scales>
<clustering>
<clus scale="   31.310">  1  4  2 -1</clus>
<clus scale="   53.620">  2  6  1 -1</clus>
<clus scale="   67.868">  1  5  2 -1</clus>
<clus scale="   31.310">  1  3  2 -1</clus>
</clustering>
</event>
<event>
 6    0  0.8641190E+002  0.1235470E+03  0.7546771E-02  0.1237358E+00
         21   -1    0    0  504  501  0.00000000000E+00  0.00000000000E+00  0.26810962543E+03  0.26810962543E+03  0.00000000000E+00 0.  1.
         21   -1    0    0  505  502 -0.00000000000E+00 -0.00000000000E+00 -0.36443032790E+03  0.36443032790E+03  0.00000000000E+00 0. -1.
         21    1    1    2  503  502 -0.75149713495E+02  0.28540748230E+01 -0.28354876409E+03  0.29335222310E+03  0.00000000000E+00 0. -1.
         21    1    1    2  504  503  0.40992318255E+02 -0.34115017022E+02  0.23455384944E+02  0.58261133058E+02  0.00000000000E+00 0.  1.
         21    1    1    2  505  506 -0.58682358547E+02  0.14745777285E+02 -0.28418825876E+02  0.66848237198E+02  0.00000000000E+00 0. -1.
         21    1    1    2  506  501  0.92839753786E+02  0.16515164914E+02  0.19219150256E+03  0.21407835998E+03  0.00000000000E+00 0.  1.
<scales pt_clust_3="14000.00000" pt_clust_4="53.33108" pt_clust_5="56.47597" pt_clust_6="123.54702"></scales>
<clustering>
<clus scale="   53.331">  1  4  2 -1</clus>
<clus scale="   56.476">  2  5  1 -1</clus>
<clus scale="  123.547">  1  6  2 -1</clus>
<clus scale="   53.331">  1  3  2 -1</clus>
</clustering>
</event>
<event>
 6    0  0.8641190E+002  0.9629495E+02  0.7546771E-02  0.1288286E+00
         21   -1    0    0  503  501  0.00000000000E+00  0.00000000000E+00  0.26268632116E+03  0.26268632116E+03  0.00000000000E+00 0. -1.
         21   -1    0    0  504  502 -0.00000000000E+00 -0.00000000000E+00 -0.24318938812E+03  0.24318938812E+03  0.00000000000E+00 0. -1.
         21    1    1    2  503  505 -0.16624123639E+02  0.37681126320E+02  0.83300759306E+02  0.92926020406E+02  0.00000000000E+00 0. -1.
         21    1    1    2  504  501  0.29381555291E+02  0.28633282965E+02  0.20426499561E+02  0.45829930930E+02  0.00000000000E+00 0.  1.
         21    1    1    2  505  506 -0.85778568381E+02  0.66230636395E+00  0.11567171117E+03  0.14400814632E+03  0.00000000000E+00 0. -1.
         21    1    1    2  506  502  0.73021136728E+02 -0.66976715649E+02 -0.19990203699E+03  0.22311161163E+03  0.00000000000E+00 0. -1.
<scales pt_clust_3="48.96445" pt_clust_4="41.02610" pt_clust_5="96.29495" pt_clust_6="14000.00000"></scales>
<clustering>
<clus scale="   41.026">  1  4  2 -1</clus>
<clus scale="   48.964">  1  3  2 -1</clus>
<clus scale="   96.295">  1  5  2 -1</clus>
<clus scale="   41.026">  1  3  2 -1</clus>
</clustering>
</event>
<event>
 6    0  0.8641190E+002  0.1790424E+03  0.7546771E-02  0.1168733E+00
         21   -1    0    0  505  501  0.00000000000E+00  0.00000000000E+00  0.56192003906E+03  0.56192003906E+03  0.00000000000E+00 0. -1.
         21   -1    0    0  506  502 -0.00000000000E+00 -0.00000000000E+00 -0.17098782902E+03  0.17098782902E+03  0.00000000000E+00 0.  1.
         21    1    1    2  503  501  0.75491621549E+02  0.16422348203E+03  0.25779831155E+03  0.31484648071E+03  0.00000000000E+00 0. -1.
         21    1    1    2  504  502 -0.69489634802E+02 -0.59726720149E+02  0.88010316994E+02  0.12705080221E+03  0.00000000000E+00 0. -1.
         21    1    1    2  505  504 -0.99684707528E+02 -0.11422507774E+02  0.10568467428E+03  0.14572839454E+03  0.00000000000E+00 0. -1.
         21    1    1    2  506  503  0.93682720781E+02 -0.93074254108E+02 -0.60561092783E+02  0.14528219061E+03  0.00000000000E+00 0.  1.
<scales pt_clust_3="169.84587" pt_clust_4="54.13080" pt_clust_5="54.13080" pt_clust_6="132.05782"></scales>
<clustering>
<clus scale="   54.131">  4  5 -1 -1</clus>
<clus scale="  132.058">  2  6  1 -1</clus>
<clus scale="  169.846">  1  3  2 -1</clus>
<clus scale="  169.846">  1  3  2 -1</clus>
</clustering>
</event>
<event>
 6    0  0.8641190E+002  0.1235262E+03  0.7546771E-02  0.1237391E+00
         21   -1    0    0  504  501  0.00000000000E+00  0.00000000000E+00  0.45454953851E+03  0.45454953851E+03  0.00000000000E+00 0. -1.
         21   -1    0    0  501  502 -0.00000000000E+00 -0.00000000000E+00 -0.76899057774E+02  0.76899057774E+02  0.00000000000E+00 0. -1.
         21    1    1    2  503  506 -0.34583699272E+02 -0.56484897297E+02  0.98141165787E+02  0.11839875126E+03  0.00000000000E+00 0. -1.
         21    1    1    2  504  503  0.32776090552E+02 -0.13466860924E+02  0.23546094532E+03  0.23811233741E+03  0.00000000000E+00 0. -1.
         21    1    1    2  505  502  0.17945633405E+02  0.11667215101E+03  0.19135394036E+02  0.11958511565E+03  0.00000000000E+00 0. -1.
         21    1    1    2  506  505 -0.16138024685E+02 -0.46720392791E+02  0.24912975590E+02  0.55352391963E+02  0.00000000000E+00 0. -1.
<scales pt_clust_3="37.31225" pt_clust_4="35.43485" pt_clust_5="115.91209" pt_clust_6="37.31225"></scales>
<clustering>
<clus scale="   35.435">  1  4  2 -1</clus>
<clus scale="   37.312">  3  6 -1 -1</clus>
<clus scale="  115.912">  2  5  1 -1</clus>
<clus scale="   35.435">  1  3  2 -1</clus>
</clustering>
</event>
<event>
 6    0  0.8641190E+002  0.1257707E+03  0.7546771E-02  0.1233870E+00
         21   -1    0    0  505  501  0.00000000000E+00  0.00000000000E+00  0.17061043725E+03  0.17061043725E+03  0.00000000000E+00 0.  1.
         21   -1    0    0  503  502 -0.00000000000E+00 -0.00000000000E+00 -0.35786104394E+03  0.35786104394E+03  0.00000000000E+00 0. -1.
         21    1    1    2  503  506  0.14626055247E+02 -0.31304301283E+02 -0.83009194319E+02  0.89913331116E+02  0.00000000000E+00 0.  1.
         21    1    1    2  504  502  0.10057797590E+03  0.74975908409E+02 -0.17922717929E+03  0.21876859435E+03  0.00000000000E+00 0. -1.
         21    1    1    2  505  504 -0.57173911209E+01  0.53966350569E+02 -0.16219828193E+01  0.54292599710E+02  0.00000000000E+00 0.  1.
         21    1    1    2  506  501 -0.10948664003E+03 -0.97637957695E+02  0.76607749745E+02  0.16549695601E+03  0.00000000000E+00 0.  1.
<scales pt_clust_3="34.55258" pt_clust_4="14000.00000" pt_clust_5="50.91606" pt_clust_6="125.77068"></scales>
<clustering>
<clus scale="   34.553">  2  3  1 -1</clus>
<clus scale="   50.916">  1  5  2 -1</clus>
<clus scale="  125.771">  1  6  2 -1</clus>
<clus scale="   50.916">  1  3  2 -1</clus>
</clustering>
</event>
<event>
 6    0  0.8641190E+002  0.8348583E+02  0.7546771E-02  0.1319440E+00
         21   -1    0    0  502  501  0.00000000000E+00  0.00000000000E+00  0.10999034573E+04  0.10999034573E+04  0.00000000000E+00 0. -1.
         21   -1    0    0  506  502 -0.00000000000E+00 -0.00000000000E+00 -0.16475315610E+03  0.16475315610E+03  0.00000000000E+00 0. -1.
         21    1    1    2  503  501  0.33694533202E+02  0.26027732381E+02  0.68697357723E+03  0.68829169706E+03  0.00000000000E+00 0. -1.
         21    1    1    2  504  505  0.50870633863E+02  0.70634020196E+01  0.28815194828E+02  0.58889969355E+02  0.00000000000E+00 0.  1.
         21    1    1    2  505  503 -0.12554956349E+03 -0.17723490048E+02  0.35393545856E+03  0.37596159886E+03  0.00000000000E+00 0. -1.
         21    1    1    2  506  504  0.40984396426E+02 -0.15367644353E+02 -0.13457392938E+03  0.14151334818E+03  0.00000000000E+00 0. -1.
<scales pt_clust_3="42.57657" pt_clust_4="83.48583" pt_clust_5="14000.00000" pt_clust_6="43.96050"></scales>
<clustering>
<clus scale="   42.577">  1  3  2 -1</clus>
<clus scale="   43.960">  2  6  1 -1</clus>
<clus scale="   83.486">  2  4  1 -1</clus>
<clus scale="   42.577">  1  3  2 -1</clus>
</clustering>
</event>
<event>
 6    0  0.8641190E+002  0.1155046E+03  0.7546771E-02  0.1250703E+00
         21   -1    0    0  505  501  0.00000000000E+00  0.00000000000E+00  0.57030611025E+03  0.57030611025E+03  0.00000000000E+00 0. -1.
         21   -1    0    0  503  502 -0.00000000000E+00 -0.00000000000E+00 -0.18216071518E+03  0.18216071518E+03  0.00000000000E+00 0. -1.
         21    1    1    2  503  506  0.42884329981E+02  0.11624305067E+03 -0.11623859716E+03  0.16989091811E+03  0.00000000000E+00 0. -1.
         21    1    1    2  504  502 -0.42110422955E+02 -0.81957008853E+02  0.48552258099E+02  0.10415162403E+03  0.00000000000E+00 0. -1.
         21    1    1    2  505  504  0.26031997979E+02 -0.55230524133E+02  0.43339161829E+03  0.43767153268E+03  0.00000000000E+00 0. -1.
         21    1    1    2  506  501 -0.26805905005E+02  0.20944482314E+02  0.22440115844E+02  0.40752750602E+02  0.00000000000E+00 0. -1.
<scales pt_clust_3="14000.00000" pt_clust_4="115.50456" pt_clust_5="38.54491" pt_clust_6="34.01805"></scales>
<clustering>
<clus scale="   34.018">  1  6  2 -1</clus>
<clus scale="   38.545">  1  5  2 -1</clus>
<clus scale="  115.505">  1  4  2 -1</clus>
<clus scale="   34.018">  1  3  2 -1</clus>
</clustering>
</event>
<event>
 6    0  0.8641190E+002  0.1303456E+03  0.7546771E-02  0.1226944E+00
         21   -1    0    0  505  501  0.00000000000E+00  0.00000000000E+00  0.11211109883E+04  0.11211109883E+04  0.00000000000E+00 0.  1.
         21   -1    0    0  504  502 -0.00000000000E+00 -0.00000000000E+00 -0.28473337792E+03  0.28473337792E+03  0.00000000000E+00 0.  1.
         21    1    1    2  503  506 -0.10059990006E+03  0.65932243608E+02  0.30934773157E+02  0.12419485025E+03  0.00000000000E+00 0.  1.
         21    1    1    2  504  503  0.50828660448E+02 -0.20205825869E+01 -0.43308199868E+02  0.66807452075E+02  0.00000000000E+00 0.  1.
         21    1    1    2  505  502  0.60735219825E+02 -0.96197061095E+02 -0.16505438478E+03  0.20046344162E+03  0.00000000000E+00 0.  1.
         21    1    1    2  506  501 -0.10963980215E+02  0.32285400074E+02  0.10138054219E+04  0.10143786223E+04  0.00000000000E+00 0.  1.
<scales pt_clust_3="130.34560" pt_clust_4="49.64832" pt_clust_5="14000.00000" pt_clust_6="34.09627"></scales>
<clustering>
<clus scale="   34.096">  1  6  2 -1</clus>
<clus scale="   49.648">  2  4  1 -1</clus>
<clus scale="  130.346">  1  3  2 -1</clus>
<clus scale="   34.096">  1  3  2 -1</clus>
</clustering>
</event>
<event>
 6    0  0.8641190E+002  0.8624122E+02  0.7546771E-02  0.1312218E+00
         21   -1    0    0  505  501  0.00000000000E+00  0.00000000000E+00  0.13260618910E+02  0.13260618910E+02  0.00000000000E+00 0. -1.
         21   -1    0    0  503  502 -0.00000000000E+00 -0.00000000000E+00 -0.23664196794E+04  0.23664196794E+04  0.00000000000E+00 0. -1.
         21    1    1    2  503  506  0.33031305761E+02  0.19047870436E+02 -0.12925431652E+04  0.12931054568E+04  0.00000000000E+00 0. -1.
         21    1    1    2  504  501  0.16675562774E+02  0.79540342198E+02 -0.23168100020E+03  0.24552153935E+03  0.00000000000E+00 0. -1.
         21    1    1    2  505  502 -0.94591526740E+01 -0.99785810546E+02 -0.64682260630E+03  0.65454271639E+03  0.00000000000E+00 0. -1.
         21    1    1    2  506  504 -0.40247715862E+02  0.11975979126E+01 -0.18211228878E+03  0.18651058575E+03  0.00000000000E+00 0. -1.
<scales pt_clust_3="38.12989" pt_clust_4="14000.00000" pt_clust_5="86.24122" pt_clust_6="34.86444"></scales>
<clustering>
<clus scale="   38.130">  2  3  1 -1</clus>
<clus scale="   34.864">  2  6  1 -1</clus>
<clus scale="   86.241">  2  5  1 -1</clus>
<clus scale="   86.241">  1  3  2 -1</clus>
</clustering>
</event>
<event>
 6    0  0.8641190E+002  0.1665807E+03  0.7546771E-02  0.1181461E+00
         21   -1    0    0  505  501  0.00000000000E+00  0.00000000000E+00  0.36672485434E+03  0.36672485434E+03  0.00000000000E+00 0. -1.
         21   -1    0    0  503  502 -0.00000000000E+00 -0.00000000000E+00 -0.32730296290E+03  0.32730296290E+03  0.00000000000E+00 0.  1.
         21    1    1    2  503  504 -0.17531030699E+02 -0.17265512802E+03 -0.26524461990E+03  0.31697293048E+03  0.00000000000E+00 0.  1.
         21    1    1    2  504  501  0.32316085589E+02  0.10967477006E+03  0.18451974634E+03  0.21707238738E+03  0.00000000000E+00 0. -1.
         21    1    1    2  505  506 -0.19496902081E+02  0.24270429758E+02  0.11676113159E+03  0.12084016221E+03  0.00000000000E+00 0. -1.
         21    1    1    2  506  502  0.47118471912E+01  0.38709928210E+02  0.33856333937E+01  0.39142337174E+02  0.00000000000E+00 0.  1.
<scales pt_clust_3="166.58075" pt_clust_4="14000.00000" pt_clust_5="31.13170" pt_clust_6="40.90465"></scales>
<clustering>
<clus scale="   31.132">  1  5  2 -1</clus>
<clus scale="   40.905">  1  6  2 -1</clus>
<clus scale="  166.581">  2  3  1 -1</clus>
<clus scale="   31.132">  1  3  2 -1</clus>
</clustering>
</event>
<event>
 6    0  0.9466220E+002  0.1834867E+03  0.7546771E-02  0.1164471E+00
         21   -1    0    0  503  501  0.00000000000E+00  0.00000000000E+00  0.12217895197E+04  0.12217895197E+04  0.00000000000E+00 0. -1.
         21   -1    0    0  504  502 -0.00000000000E+00 -0.00000000000E+00 -0.13802883838E+04  0.13802883838E+04  0.00000000000E+00 0.  1.
         21    1    1    2  503  502  0.15690855804E+03 -0.58798359165E+01 -0.13688860253E+04  0.13778620462E+04  0.00000000000E+00 0.  1.
         21    1    1    2  504  506 -0.51973679185E+02  0.30296791594E+02  0.57468168022E+03  0.57782193839E+03  0.00000000000E+00 0. -1.
         21    1    1    2  505  501 -0.33979007491E+02 -0.81284136388E+01  0.10362951718E+03  0.10936050882E+03  0.00000000000E+00 0.  1.
         21    1    1    2  506  505 -0.70955871370E+02 -0.16288542038E+02  0.53207596384E+03  0.53703341012E+03  0.00000000000E+00 0. -1.
<scales pt_clust_3="157.01869" pt_clust_4="53.04621" pt_clust_5="31.71653" pt_clust_6="53.04621"></scales>
<clustering>
<clus scale="   31.717">  5  6 -1 -1</clus>
<clus scale="   53.046">  4  5 -1 -1</clus>
<clus scale="  157.019">  2  3  1 -1</clus>
<clus scale="  183.487">  1  3  2 -1</clus>
</clustering>
</event>
<event>
 6    0  0.8641190E+002  0.7642994E+02  0.7546771E-02  0.1339499E+00
         21   -1    0    0  504  501  0.00000000000E+00  0.00000000000E+00  0.70986773145E+03  0.70986773145E+03  0.00000000000E+00 0. -1.
         21   -1    0    0  505  502 -0.00000000000E+00 -0.00000000000E+00 -0.27343364698E+03  0.27343364698E+03  0.00000000000E+00 0.  1.
         21    1    1    2  503  501 -0.84323426314E+02  0.24093275534E+02 -0.84559213821E+02  0.12182440968E+03  0.00000000000E+00 0.  1.
         21    1    1    2  504  506 -0.23668731871E+02 -0.40981888849E+02  0.64473567007E+03  0.64647026872E+03  0.00000000000E+00 0. -1.
         21    1    1    2  505  503  0.33022064393E+02 -0.52704406979E+02 -0.85655419019E+02  0.10585396572E+03  0.00000000000E+00 0.  1.
         21    1    1    2  506  502  0.74970093792E+02  0.69593020294E+02 -0.38086952762E+02  0.10915273431E+03  0.00000000000E+00 0.  1.
<scales pt_clust_3="76.42994" pt_clust_4="47.32572" pt_clust_5="66.00559" pt_clust_6="14000.00000"></scales>
<clustering>
<clus scale="   47.326">  1  4  2 -1</clus>
<clus scale="   66.006">  2  5  1 -1</clus>
<clus scale="   76.430">  2  3  1 -1</clus>
<clus scale="   47.326">  1  3  2 -1</clus>
</clustering>
</event>
<event>
 6    0  0.8641190E+002  0.7372785E+02  0.7546771E-02  0.1347856E+00
         21   -1    0    0  505  501  0.00000000000E+00  0.00000000000E+00  0.31190094295E+03  0.31190094295E+03  0.00000000000E+00 0. -1.
         21   -1    0    0  504  502 -0.00000000000E+00 -0.00000000000E+00 -0.77394116754E+02  0.77394116754E+02  0.00000000000E+00 0. -1.
         21    1    1    2  503  502 -0.23067374255E+02 -0.70304426363E+02 -0.15491190840E+02  0.75596250667E+02  0.00000000000E+00 0. -1.
         21    1    1    2  504  501 -0.65865037141E+02  0.38879554779E+01  0.77481187363E+02  0.10176764570E+03  0.00000000000E+00 0. -1.
         21    1    1    2  505  506  0.31764289942E+02  0.10817596507E+02  0.94862465065E+02  0.10062245171E+03  0.00000000000E+00 0.  1.
         21    1    1    2  506  503  0.57168121454E+02  0.55598874378E+02  0.77654364607E+02  0.11130871163E+03  0.00000000000E+00 0. -1.
<scales pt_clust_3="73.72785" pt_clust_4="53.24105" pt_clust_5="33.55578" pt_clust_6="14000.00000"></scales>
<clustering>
<clus scale="   33.556">  1  5  2 -1</clus>
<clus scale="   53.241">  1  4  2 -1</clus>
<clus scale="   73.728">  2  3  1 -1</clus>
<clus scale="   33.556">  1  3  2 -1</clus>
</clustering>
</event>
<event>
 6    0  0.8641190E+002  0.1734827E+03  0.7546771E-02  0.1174264E+00
         21   -1    0    0  504  501  0.00000000000E+00  0.00000000000E+00  0.15979545063E+03  0.15979545063E+03  0.00000000000E+00 0.  1.
         21   -1    0    0  503  502 -0.00000000000E+00 -0.00000000000E+00 -0.43195779939E+03  0.43195779939E+03  0.00000000000E+00 0.  1.
         21    1    1    2  503  506  0.36183323186E+02 -0.94570594131E+02  0.96270534494E+01  0.10171288173E+03  0.00000000000E+00 0.  1.
         21    1    1    2  504  505  0.24722486913E+02  0.55582485835E+02 -0.92387242256E+00  0.60839687960E+02  0.00000000000E+00 0.  1.
         21    1    1    2  505  502 -0.12157493902E+03  0.11440166621E+03 -0.28721362520E+03  0.33220456578E+03  0.00000000000E+00 0.  1.
         21    1    1    2  506  501  0.60669128916E+02 -0.75413557918E+02  0.63480954069E+01  0.96996114544E+02  0.00000000000E+00 0.  1.
<scales pt_clust_3="30.21435" pt_clust_4="60.83267" pt_clust_5="170.70793" pt_clust_6="30.21435"></scales>
<clustering>
<clus scale="   30.214">  3  6 -1 -1</clus>
<clus scale="   60.833">  1  4  2 -1</clus>
<clus scale="  170.708">  2  5  1 -1</clus>
<clus scale="   60.833">  1  3  2 -1</clus>
</clustering>
</event>
<event>
 6    0  0.8641190E+002  0.1671596E+03  0.7546771E-02  0.1180843E+00
         21   -1    0    0  505  501  0.00000000000E+00  0.00000000000E+00  0.15237627834E+03  0.15237627834E+03  0.00000000000E+00 0.  1.
         21   -1    0    0  503  502 -0.00000000000E+00 -0.00000000000E+00 -0.27623749204E+03  0.27623749204E+03  0.00000000000E+00 0.  1.
         21    1    1    2  503  501  0.13522552069E+03 -0.12321877322E+03 -0.47264596386E+01  0.18300586586E+03  0.00000000000E+00 0.  1.
         21    1    1    2  504  502 -0.68389548062E+02  0.29877680891E+02 -0.38452675846E+02  0.83954835354E+02  0.00000000000E+00 0.  1.
         21    1    1    2  505  506 -0.35381729787E+01  0.42593367181E+02  0.57325212004E+01  0.43122794380E+02  0.00000000000E+00 0. -1.
         21    1    1    2  506  504 -0.63297799649E+02  0.50747725147E+02 -0.86414599417E+02  0.11853027478E+03  0.00000000000E+00 0.  1.
<scales pt_clust_3="162.40679" pt_clust_4="37.95934" pt_clust_5="42.74007" pt_clust_6="37.95934"></scales>
<clustering>
<clus scale="   37.959">  4  6 -1 -1</clus>
<clus scale="   42.740">  1  5  2 -1</clus>
<clus scale="  162.407">  1  3  2 -1</clus>
<clus scale="   42.740">  1  3  2 -1</clus>
</clustering>
</event>
<event>
 6    0  0.8641190E+002  0.6802819E+02  0.7546771E-02  0.1366930E+00
         21   -1    0    0  504  501  0.00000000000E+00  0.00000000000E+00  0.23813774123E+03  0.23813774123E+03  0.00000000000E+00 0. -1.
         21   -1    0    0  503  502 -0.00000000000E+00 -0.00000000000E+00 -0.32644262347E+03  0.32644262347E+03  0.00000000000E+00 0. -1.
         21    1    1    2  503  506 -0.34547552707E+02  0.43480167601E+02 -0.22432555014E+03  0.23109740548E+03  0.00000000000E+00 0. -1.
         21    1    1    2  504  505  0.52310359699E+02  0.40200906821E+02  0.18340366547E+03  0.19490867386E+03  0.00000000000E+00 0. -1.
         21    1    1    2  505  502  0.30930566413E+02  0.18344453003E+01 -0.18184225823E+02  0.35926747653E+02  0.00000000000E+00 0. -1.
         21    1    1    2  506  501 -0.48693373405E+02 -0.85515519722E+02 -0.29198771742E+02  0.10264753771E+03  0.00000000000E+00 0. -1.
<scales pt_clust_3="46.20919" pt_clust_4="68.02819" pt_clust_5="30.98492" pt_clust_6="14000.00000"></scales>
<clustering>
<clus scale="   30.985">  2  5  1 -1</clus>
<clus scale="   46.209">  2  3  1 -1</clus>
<clus scale="   68.028">  1  4  2 -1</clus>
<clus scale="   68.028">  1  3  2 -1</clus>
</clustering>
</event>
<event>
 6    0  0.8641190E+002  0.8359060E+02  0.7546771E-02  0.1319160E+00
         21   -1    0    0  505  501  0.00000000000E+00  0.00000000000E+00  0.29812556802E+03  0.29812556802E+03  0.00000000000E+00 0. -1.
         21   -1    0    0  503  502 -0.00000000000E+00 -0.00000000000E+00 -0.69588875314E+03  0.69588875314E+03  0.00000000000E+00 0. -1.
         21    1    1    2  503  504  0.80232847417E+02 -0.50739916831E+01 -0.26295948266E+03  0.27497408009E+03  0.00000000000E+00 0. -1.
         21    1    1    2  504  501  0.60946228762E+02  0.18528702993E+02 -0.71162799145E+02  0.95508636348E+02  0.00000000000E+00 0. -1.
         21    1    1    2  505  506 -0.83330510581E+02 -0.17597941733E+02  0.27091445636E+03  0.28398645076E+03  0.00000000000E+00 0. -1.
         21    1    1    2  506  502 -0.57848565599E+02  0.41432304230E+01 -0.33455535967E+03  0.33954515397E+03  0.00000000000E+00 0. -1.
<scales pt_clust_3="36.92506" pt_clust_4="83.59060" pt_clust_5="14000.00000" pt_clust_6="57.99675"></scales>
<clustering>
<clus scale="   57.997">  2  6  1 -1</clus>
<clus scale="   36.925">  2  3  1 -1</clus>
<clus scale="   83.591">  2  4  1 -1</clus>
<clus scale="   83.591">  1  3  2 -1</clus>
</clustering>
</event>
<event>
 6    0  0.8641190E+002  0.1663877E+03  0.7546771E-02  0.1181668E+00
         21   -1    0    0  505  501  0.00000000000E+00  0.00000000000E+00  0.31741391560E+03  0.31741391560E+03  0.00000000000E+00 0.  1.
         21   -1    0    0  503  502 -0.00000000000E+00 -0.00000000000E+00 -0.31986031751E+03  0.31986031751E+03  0.00000000000E+00 0.  1.
         21    1    1    2  503  506 -0.23325402645E+01 -0.12035611092E+03 -0.10974722819E+03  0.16289717086E+03  0.00000000000E+00 0.  1.
         21    1    1    2  504  502 -0.14956068738E+03  0.11340542937E+03 -0.14829709456E+02  0.18827934274E+03  0.00000000000E+00 0.  1.
         21    1    1    2  505  504  0.19093921696E+03  0.46206984902E+02  0.12098657246E+03  0.23071762122E+03  0.00000000000E+00 0.  1.
         21    1    1    2  506  501 -0.39045989309E+02 -0.39256303354E+02  0.11439632766E+01  0.55380098286E+02  0.00000000000E+00 0.  1.
<scales pt_clust_3="124.10536" pt_clust_4="166.38769" pt_clust_5="14000.00000" pt_clust_6="55.36828"></scales>
<clustering>
<clus scale="   55.368">  1  6  2 -1</clus>
<clus scale="  124.105">  2  3  1 -1</clus>
<clus scale="  166.388">  2  4  1 -1</clus>
<clus scale="   55.368">  1  3  2 -1</clus>
</clustering>
</event>
<event>
 6    0  0.8641190E+002  0.9646320E+02  0.7546771E-02  0.1287914E+00
         21   -1    0    0  504  501  0.00000000000E+00  0.00000000000E+00  0.75842303865E+02  0.75842303865E+02  0.00000000000E+00 0.  1.
         21   -1    0    0  506  502 -0.00000000000E+00 -0.00000000000E+00 -0.99908614348E+03  0.99908614348E+03  0.00000000000E+00 0. -1.
         21    1    1    2  503  502  0.77334469228E+01 -0.65231541273E+02 -0.20075906621E+03  0.21123248529E+03  0.00000000000E+00 0.  1.
         21    1    1    2  504  503  0.65901383375E+02 -0.55456718216E+01  0.34583900347E+02  0.74631045617E+02  0.00000000000E+00 0.  1.
         21    1    1    2  505  501  0.28555573849E+02 -0.26136036864E+02 -0.31367791805E+02  0.49824206803E+02  0.00000000000E+00 0.  1.
         21    1    1    2  506  505 -0.10219040415E+03  0.96913249958E+02 -0.72570088195E+03  0.73924070963E+03  0.00000000000E+00 0. -1.
<scales pt_clust_3="68.02201" pt_clust_4="14000.00000" pt_clust_5="38.71063" pt_clust_6="96.46320"></scales>
<clustering>
<clus scale="   38.711">  1  5  2 -1</clus>
<clus scale="   68.022">  2  3  1 -1</clus>
<clus scale="   96.463">  2  6  1 -1</clus>
<clus scale="   38.711">  1  3  2 -1</clus>
</clustering>
</event>
<event>
 6    0  0.8641190E+002  0.2035026E+03  0.7546771E-02  0.1146817E+00
         21   -1    0    0  503  501  0.00000000000E+00  0.00000000000E+00  0.54455870762E+03  0.54455870762E+03  0.00000000000E+00 0. -1.
         21   -1    0    0  506  502 -0.00000000000E+00 -0.00000000000E+00 -0.24248254456E+03  0.24248254456E+03  0.00000000000E+00 0. -1.
         21    1    1    2  503  504  0.15624389361E+02 -0.31644170486E+02  0.34731814077E+03  0.34910652525E+03  0.00000000000E+00 0. -1.
         21    1    1    2  504  505 -0.34047099745E+02 -0.61033790392E+02 -0.22182453933E+02  0.73323869464E+02  0.00000000000E+00 0. -1.
         21    1    1    2  505  502  0.30348180929E+02 -0.11913682184E+03 -0.77827827903E+02  0.14550520678E+03  0.00000000000E+00 0. -1.
         21    1    1    2  506  501 -0.11925470545E+02  0.21181478272E+03  0.54768304124E+02  0.21910565068E+03  0.00000000000E+00 0. -1.
<scales pt_clust_3="35.29129" pt_clust_4="55.19344" pt_clust_5="55.19344" pt_clust_6="189.74812"></scales>
<clustering>
<clus scale="   35.291">  1  3  2 -1</clus>
<clus scale="   55.193">  4  5 -1 -1</clus>
<clus scale="  189.748">  1  6  2 -1</clus>
<clus scale="   35.291">  1  3  2 -1</clus>
</clustering>
</event>
<event>
 6    0  0.8641190E+002  0.1647702E+03  0.7546771E-02  0.1183414E+00
         21   -1    0    0  503  501  0.00000000000E+00  0.00000000000E+00  0.11463667270E+03  0.11463667270E+03  0.00000000000E+00 0.  1.
         21   -1    0    0  504  502 -0.00000000000E+00 -0.00000000000E+00 -0.20772417419E+04  0.20772417419E+04  0.00000000000E+00 0.  1.
         21    1    1    2  503  506 -0.15154295554E+03  0.45625379581E+02 -0.44268731977E+03  0.47012658479E+03  0.00000000000E+00 0.  1.
         21    1    1    2  504  501  0.21186568373E+02  0.33255363091E+02  0.92724315681E+02  0.10076005445E+03  0.00000000000E+00 0.  1.
         21    1    1    2  505  502  0.10148525749E+03 -0.30088357191E+02 -0.93171539446E+03  0.93770898631E+03  0.00000000000E+00 0.  1.
         21    1    1    2  506  505  0.28871129682E+02 -0.48792385482E+02 -0.68092667068E+03  0.68328278908E+03  0.00000000000E+00 0.  1.
<scales pt_clust_3="152.85371" pt_clust_4="39.43082" pt_clust_5="44.15907" pt_clust_6="44.15907"></scales>
<clustering>
<clus scale="   39.431">  1  4  2 -1</clus>
<clus scale="   44.159">  5  6 -1 -1</clus>
<clus scale="  152.854">  1  3  2 -1</clus>
<clus scale="   39.431">  1  3  2 -1</clus>
</clustering>
</event>
<event>
 6    0  0.8641190E+002  0.8988250E+02  0.7546771E-02  0.1303136E+00
         21   -1    0    0  503  501  0.00000000000E+00  0.00000000000E+00  0.65991676537E+03  0.65991676537E+03  0.00000000000E+00 0. -1.
         21   -1    0    0  505  502 -0.00000000000E+00 -0.00000000000E+00 -0.72612452042E+02  0.72612452042E+02  0.00000000000E+00 0. -1.
         21    1    1    2  503  506 -0.20180844791E+02 -0.78085451338E+02  0.26069496020E+03  0.27288544571E+03  0.00000000000E+00 0. -1.
         21    1    1    2  504  501 -0.65605467056E+02 -0.19333200589E+02  0.14833198843E+03  0.16334083612E+03  0.00000000000E+00 0. -1.
         21    1    1    2  505  504  0.43565419207E+02 -0.54189227739E+01 -0.34765887418E+02  0.55999798237E+02  0.00000000000E+00 0. -1.
         21    1    1    2  506  502  0.42220892641E+02  0.10283757470E+03  0.21304325212E+03  0.24030313735E+03  0.00000000000E+00 0. -1.
<scales pt_clust_3="89.88250" pt_clust_4="57.50299" pt_clust_5="43.90114" pt_clust_6="14000.00000"></scales>
<clustering>
<clus scale="   43.901">  2  5  1 -1</clus>
<clus scale="   57.503">  2  4  1 -1</clus>
<clus scale="   89.883">  1  3  2 -1</clus>
<clus scale="   89.883">  1  3  2 -1</clus>
</clustering>
</event>
<event>
 6    0  0.8641190E+002  0.9640504E+02  0.7546771E-02  0.1288043E+00
         21   -1    0    0  503  501  0.00000000000E+00  0.00000000000E+00  0.15057818876E+04  0.15057818876E+04  0.00000000000E+00 0.  1.
         21   -1    0    0  506  502 -0.00000000000E+00 -0.00000000000E+00 -0.76178737131E+02  0.76178737131E+02  0.00000000000E+00 0.  1.
         21    1    1    2  503  504 -0.71194596885E+02  0.11577072504E+02  0.74361953214E+03  0.74710956881E+03  0.00000000000E+00 0.  1.
         21    1    1    2  504  502  0.79364977099E+02  0.58257807450E+02 -0.38200502822E+02  0.10560326763E+03  0.00000000000E+00 0.  1.
         21    1    1    2  505  501 -0.25225726940E+02 -0.30337206196E+02  0.24737736657E+03  0.25050398174E+03  0.00000000000E+00 0.  1.
         21    1    1    2  506  505  0.17055346725E+02 -0.39497673759E+02  0.47680675455E+03  0.47874380651E+03  0.00000000000E+00 0.  1.
<scales pt_clust_3="14000.00000" pt_clust_4="96.40504" pt_clust_5="39.45483" pt_clust_6="51.57333"></scales>
<clustering>
<clus scale="   39.455">  1  5  2 -1</clus>
<clus scale="   51.573">  1  6  2 -1</clus>
<clus scale="   96.405">  2  4  1 -1</clus>
<clus scale="   39.455">  1  3  2 -1</clus>
</clustering>
</event>
<event>
 6    0  0.8641190E+002  0.1110483E+03  0.7546771E-02  0.1258641E+00
         21   -1    0    0  504  501  0.00000000000E+00  0.00000000000E+00  0.31518174778E+03  0.31518174778E+03  0.00000000000E+00 0. -1.
         21   -1    0    0  506  502 -0.00000000000E+00 -0.00000000000E+00 -0.14203837931E+03  0.14203837931E+03  0.00000000000E+00 0. -1.
         21    1    1    2  503  501 -0.88469008014E+02 -0.25877515073E+02  0.19145078840E+03  0.21248485956E+03  0.00000000000E+00 0. -1.
         21    1    1    2  504  502 -0.12700900931E+02  0.10128908329E+03 -0.38834268357E+02  0.10921946565E+03  0.00000000000E+00 0. -1.
         21    1    1    2  505  503  0.44248107208E+02 -0.19052764643E+02  0.26870150994E+02  0.55162558375E+02  0.00000000000E+00 0. -1.
         21    1    1    2  506  505  0.56921801737E+02 -0.56358803576E+02 -0.63433025715E+01  0.80353243501E+02  0.00000000000E+00 0. -1.
<scales pt_clust_3="92.17598" pt_clust_4="101.54212" pt_clust_5="34.86314" pt_clust_6="34.86314"></scales>
<clustering>
<clus scale="   34.863">  5  6 -1 -1</clus>
<clus scale="   92.176">  1  3  2 -1</clus>
<clus scale="  101.542">  2  4  1 -1</clus>
<clus scale="   92.176">  1  3  2 -1</clus>
</clustering>
</event>
<event>
 6    0  0.8641190E+002  0.1763735E+03  0.7546771E-02  0.1171360E+00
         21   -1    0    0  505  501  0.00000000000E+00  0.00000000000E+00  0.48849348181E+03  0.48849348181E+03  0.00000000000E+00 0.  1.
         21   -1    0    0  501  502 -0.00000000000E+00 -0.00000000000E+00 -0.96687469860E+02  0.96687469860E+02  0.00000000000E+00 0.  1.
         21    1    1    2  503  506  0.96691974873E+02  0.39006495169E+01  0.84027068689E+02  0.12816045156E+03  0.00000000000E+00 0.  1.
         21    1    1    2  504  502 -0.46891502789E+02  0.84215972094E+01 -0.20143208721E+02  0.51725092469E+02  0.00000000000E+00 0. -1.
         21    1    1    2  505  503  0.81452475171E+02  0.33297188719E+02  0.19061127651E+03  0.20994253314E+03  0.00000000000E+00 0.  1.
         21    1    1    2  506  504 -0.13125294726E+03 -0.45619435445E+02  0.13731087547E+03  0.19535287450E+03  0.00000000000E+00 0.  1.
<scales pt_clust_3="75.13868" pt_clust_4="47.64175" pt_clust_5="75.13868" pt_clust_6="159.18329"></scales>
<clustering>
<clus scale="   47.642">  2  4  1 -1</clus>
<clus scale="   75.139">  3  5 -1 -1</clus>
<clus scale="  159.183">  2  6  1 -1</clus>
<clus scale="  176.373">  1  3  2 -1</clus>
</clustering>
</event>
<event>
 6    0  0.8641190E+002  0.8320166E+02  0.7546771E-02  0.1320204E+00
         21   -1    0    0  505  501  0.00000000000E+00  0.00000000000E+00  0.28624123677E+03  0.28624123677E+03  0.00000000000E+00 0.  1.
         21   -1    0    0  506  502 -0.00000000000E+00 -0.00000000000E+00 -0.43236003397E+03  0.43236003397E+03  0.00000000000E+00 0.  1.
         21    1    1    2  503  501 -0.13889883644E+02 -0.27753196469E+02  0.42317895709E+01  0.31322145917E+02  0.00000000000E+00 0.  1.
         21    1    1    2  504  502 -0.57619313825E+02  0.60844283884E+02 -0.38760090703E+03  0.39655576574E+03  0.00000000000E+00 0.  1.
         21    1    1    2  505  504  0.92911966279E+01 -0.68349507140E+02  0.19685281445E+03  0.20858813968E+03  0.00000000000E+00 0.  1.
         21    1    1    2  506  503  0.62218000841E+02  0.35258419726E+02  0.40397505814E+02  0.82135219402E+02  0.00000000000E+00 0.  1.
<scales pt_clust_3="31.03496" pt_clust_4="14000.00000" pt_clust_5="83.20166" pt_clust_6="65.75207"></scales>
<clustering>
<clus scale="   31.035">  1  3  2 -1</clus>
<clus scale="   65.752">  1  6  2 -1</clus>
<clus scale="   83.202">  1  5  2 -1</clus>
<clus scale="   31.035">  1  3  2 -1</clus>
</clustering>
</event>
<event>
 6    0  0.8641190E+002  0.1108083E+03  0.7546771E-02  0.1259080E+00
         21   -1    0    0  506  501  0.00000000000E+00  0.00000000000E+00  0.12624249236E+03  0.12624249236E+03  0.00000000000E+00 0.  1.
         21   -1    0    0  504  502 -0.00000000000E+00 -0.00000000000E+00 -0.30755354020E+03  0.30755354020E+03  0.00000000000E+00 0.  1.
         21    1    1    2  503  502  0.32540950879E+01  0.79402084558E+02 -0.48928017919E+02  0.93323261326E+02  0.00000000000E+00 0.  1.
         21    1    1    2  504  505  0.44006759105E+02  0.75934733902E+01 -0.59057193404E+02  0.74040581966E+02  0.00000000000E+00 0.  1.
         21    1    1    2  505  501 -0.58981803836E+02 -0.15098786929E+03 -0.10595025681E+03  0.19365341922E+03  0.00000000000E+00 0.  1.
         21    1    1    2  506  503  0.11720949643E+02  0.63992311341E+02  0.32624420284E+02  0.72778770051E+02  0.00000000000E+00 0.  1.
<scales pt_clust_3="14000.00000" pt_clust_4="44.65709" pt_clust_5="110.80832" pt_clust_6="66.43144"></scales>
<clustering>
<clus scale="   44.657">  2  4  1 -1</clus>
<clus scale="   66.431">  1  6  2 -1</clus>
<clus scale="  110.808">  1  5  2 -1</clus>
<clus scale="   66.431">  1  3  2 -1</clus>
</clustering>
</event>
<event>
 6    0  0.8641190E+002  0.1144456E+03  0.7546771E-02  0.1252552E+00
         21   -1    0    0  506  501  0.00000000000E+00  0.00000000000E+00  0.25053936207E+03  0.25053936207E+03  0.00000000000E+00 0. -1.
         21   -1    0    0  503  502 -0.00000000000E+00 -0.00000000000E+00 -0.92207377893E+03  0.92207377893E+03  0.00000000000E+00 0.  1.
         21    1    1    2  503  504  0.28798362087E+02 -0.46426724674E+02 -0.49544097473E+03  0.49844412512E+03  0.00000000000E+00 0.  1.
         21    1    1    2  504  501 -0.19906355524E+02 -0.75109919878E+02 -0.42544789943E+02  0.88587934876E+02  0.00000000000E+00 0. -1.
         21    1    1    2  505  502  0.15203956442E+02  0.16324781113E+03 -0.33792819211E+03  0.37560147917E+03  0.00000000000E+00 0.  1.
         21    1    1    2  506  505 -0.24095963005E+02 -0.41711166581E+02  0.20437953992E+03  0.20997960184E+03  0.00000000000E+00 0. -1.
<scales pt_clust_3="55.44035" pt_clust_4="114.44558" pt_clust_5="14000.00000" pt_clust_6="48.17091"></scales>
<clustering>
<clus scale="   48.171">  1  6  2 -1</clus>
<clus scale="   55.440">  2  3  1 -1</clus>
<clus scale="  114.446">  1  4  2 -1</clus>
<clus scale="   48.171">  1  3  2 -1</clus>
</clustering>
</event>
<event>
 6    0  0.8641190E+002  0.1695627E+03  0.7546771E-02  0.1178305E+00
         21   -1    0    0  506  501  0.00000000000E+00  0.00000000000E+00  0.83939857745E+03  0.83939857745E+03  0.00000000000E+00 0. -1.
         21   -1    0    0  505  502 -0.00000000000E+00 -0.00000000000E+00 -0.16608782606E+03  0.16608782606E+03  0.00000000000E+00 0. -1.
         21    1    1    2  503  504  0.23383718526E+02  0.56669202994E+02  0.19297065540E+03  0.20247437050E+03  0.00000000000E+00 0. -1.
         21    1    1    2  504  502  0.18170434775E+01 -0.15532501943E+03 -0.10688821458E+03  0.18855835628E+03  0.00000000000E+00 0. -1.
         21    1    1    2  505  501  0.12838225893E+02 -0.28112801002E+02  0.25447343315E+03  0.25634328118E+03  0.00000000000E+00 0. -1.
         21    1    1    2  506  503 -0.38038987897E+02  0.12676861744E+03  0.33275487740E+03  0.35811039555E+03  0.00000000000E+00 0. -1.
<scales pt_clust_3="43.77876" pt_clust_4="157.31421" pt_clust_5="30.90550" pt_clust_6="43.77876"></scales>
<clustering>
<clus scale="   30.905">  1  5  2 -1</clus>
<clus scale="   43.779">  3  6 -1 -1</clus>
<clus scale="  157.314">  2  4  1 -1</clus>
<clus scale="   30.905">  1  3  2 -1</clus>
</clustering>
</event>
<event>
 6    0  0.8641190E+002  0.8957955E+02  0.7546771E-02  0.1303873E+00
         21   -1    0    0  505  501  0.00000000000E+00  0.00000000000E+00  0.88707571389E+03  0.88707571389E+03  0.00000000000E+00 0. -1.
         21   -1    0    0  506  502 -0.00000000000E+00 -0.00000000000E+00 -0.91901154111E+02  0.91901154111E+02  0.00000000000E+00 0. -1.
         21    1    1    2  503  502  0.20602495318E+02  0.55973643636E+02  0.22447371604E+03  0.23226269780E+03  0.00000000000E+00 0. -1.
         21    1    1    2  504  503  0.61809459126E+02  0.39105751705E+02  0.36050508314E+03  0.36784994770E+03  0.00000000000E+00 0. -1.
         21    1    1    2  505  504 -0.30367635131E+02 -0.40355546100E+02  0.27484801848E+03  0.27944981057E+03  0.00000000000E+00 0. -1.
         21    1    1    2  506  501 -0.52044319314E+02 -0.54723849241E+02 -0.64652257888E+02  0.99414411927E+02  0.00000000000E+00 0. -1.
<scales pt_clust_3="41.41351" pt_clust_4="41.41351" pt_clust_5="50.50508" pt_clust_6="76.95015"></scales>
<clustering>
<clus scale="   41.414">  3  4 -1 -1</clus>
<clus scale="   50.505">  1  5  2 -1</clus>
<clus scale="   76.950">  2  6  1 -1</clus>
<clus scale="   50.505">  1  3  2 -1</clus>
</clustering>
</event>
<event>
 6    0  0.8641190E+002  0.9195637E+02  0.7546771E-02  0.1298182E+00
         21   -1    0    0  504  501  0.00000000000E+00  0.00000000000E+00  0.18115838203E+04  0.18115838203E+04  0.00000000000E+00 0. -1.
         21   -1    0    0  506  502 -0.00000000000E+00 -0.00000000000E+00 -0.15259108344E+03  0.15259108344E+03  0.00000000000E+00 0.  1.
         21    1    1    2  503  502 -0.29358599422E+02  0.15969621087E+02 -0.13476579907E+03  0.13884803476E+03  0.00000000000E+00 0.  1.
         21    1    1    2  504  503 -0.17340011583E+02 -0.34314284544E+02  0.21857779354E+03  0.22193331872E+03  0.00000000000E+00 0. -1.
         21    1    1    2  505  501 -0.37069246997E+02  0.97272030158E+02  0.13122939378E+04  0.13164161029E+04  0.00000000000E+00 0. -1.
         21    1    1    2  506  505  0.83767858002E+02 -0.78927366702E+02  0.26288680459E+03  0.28697744733E+03  0.00000000000E+00 0. -1.
<scales pt_clust_3="33.42089" pt_clust_4="38.50318" pt_clust_5="14000.00000" pt_clust_6="91.95637"></scales>
<clustering>
<clus scale="   33.421">  2  3  1 -1</clus>
<clus scale="   38.503">  1  4  2 -1</clus>
<clus scale="   91.956">  2  6  1 -1</clus>
<clus scale="   38.503">  1  3  2 -1</clus>
</clustering>
</event>
<event>
 6    0  0.8641190E+002  0.9695190E+02  0.7546771E-02  0.1286839E+00
         21   -1    0    0  503  501  0.00000000000E+00  0.00000000000E+00  0.13103007270E+03  0.13103007270E+03  0.00000000000E+00 0.  1.
         21   -1    0    0  504  502 -0.00000000000E+00 -0.00000000000E+00 -0.26958062744E+03  0.26958062744E+03  0.00000000000E+00 0.  1.
         21    1    1    2  503  506 -0.33809439527E+02  0.43004569438E+02  0.37305818816E+02  0.66213256310E+02  0.00000000000E+00 0.  1.
         21    1    1    2  504  501  0.45430843004E+02 -0.65444496203E+02 -0.79380579533E+02  0.11246430539E+03  0.00000000000E+00 0.  1.
         21    1    1    2  505  502 -0.92373025874E+02 -0.34303847566E+02 -0.66159542807E+02  0.11868704635E+03  0.00000000000E+00 0.  1.
         21    1    1    2  506  505  0.80751622397E+02  0.56743774331E+02 -0.30316251212E+02  0.10324609209E+03  0.00000000000E+00 0.  1.
<scales pt_clust_3="54.70348" pt_clust_4="68.27593" pt_clust_5="14000.00000" pt_clust_6="96.95190"></scales>
<clustering>
<clus scale="   54.703">  1  3  2 -1</clus>
<clus scale="   68.276">  2  4  1 -1</clus>
<clus scale="   96.952">  1  6  2 -1</clus>
<clus scale="   54.703">  1  3  2 -1</clus>
</clustering>
</event>
<event>
 6    0  0.8641190E+002  0.9639472E+02  0.7546771E-02  0.1288065E+00
         21   -1    0    0  503  501  0.00000000000E+00  0.00000000000E+00  0.11651699424E+03  0.11651699424E+03  0.00000000000E+00 0. -1.
         21   -1    0    0  504  502 -0.00000000000E+00 -0.00000000000E+00 -0.94123585256E+03  0.94123585256E+03  0.00000000000E+00 0. -1.
         21    1    1    2  503  506 -0.63152393073E+02  0.69273585639E+02  0.65959749453E+02  0.11461999374E+03  0.00000000000E+00 0. -1.
         21    1    1    2  504  501 -0.54613464547E+02  0.22442400179E+02 -0.48533568378E+03  0.48891412107E+03  0.00000000000E+00 0. -1.
         21    1    1    2  505  502  0.67968090607E+02  0.24247043313E+02 -0.20610769960E+03  0.21837574106E+03  0.00000000000E+00 0. -1.
         21    1    1    2  506  505  0.49797767013E+02 -0.11596302913E+03 -0.19923522440E+03  0.23584299092E+03  0.00000000000E+00 0. -1.
<scales pt_clust_3="96.39472" pt_clust_4="59.04483" pt_clust_5="54.84525" pt_clust_6="14000.00000"></scales>
<clustering>
<clus scale="   59.045">  2  4  1 -1</clus>
<clus scale="   54.845">  2  5  1 -1</clus>
<clus scale="   96.395">  1  3  2 -1</clus>
<clus scale="   96.395">  1  3  2 -1</clus>
</clustering>
</event>
<event>
 6    0  0.8641190E+002  0.1148712E+03  0.7546771E-02  0.1251806E+00
         21   -1    0    0  504  501  0.00000000000E+00  0.00000000000E+00  0.39878780760E+03  0.39878780760E+03  0.00000000000E+00 0. -1.
         21   -1    0    0  505  502 -0.00000000000E+00 -0.00000000000E+00 -0.30087588493E+03  0.30087588493E+03  0.00000000000E+00 0. -1.
         21    1    1    2  503  501 -0.36542896709E+02 -0.87100440855E+02  0.16764417111E+03  0.19242255119E+03  0.00000000000E+00 0. -1.
         21    1    1    2  504  502  0.19401385907E+02 -0.44270492709E+02  0.19117710959E+03  0.19719274208E+03  0.00000000000E+00 0. -1.
         21    1    1    2  505  506 -0.10890733188E+02  0.52566678972E+02 -0.19865816067E+03  0.20578369374E+03  0.00000000000E+00 0. -1.
         21    1    1    2  506  503  0.28032243990E+02  0.78804254592E+02 -0.62251197360E+02  0.10426470552E+03  0.00000000000E+00 0.  1.
<scales pt_clust_3="114.87121" pt_clust_4="48.33519" pt_clust_5="52.85989" pt_clust_6="14000.00000"></scales>
<clustering>
<clus scale="   48.335">  1  4  2 -1</clus>
<clus scale="   52.860">  2  5  1 -1</clus>
<clus scale="  114.871">  1  3  2 -1</clus>
<clus scale="   48.335">  1  3  2 -1</clus>
</clustering>
</event>
<event>
 6    0  0.8641190E+002  0.8506187E+02  0.7546771E-02  0.1315271E+00
         21   -1    0    0  505  501  0.00000000000E+00  0.00000000000E+00  0.46873643141E+03  0.46873643141E+03  0.00000000000E+00 0.  1.
         21   -1    0    0  503  502 -0.00000000000E+00 -0.00000000000E+00 -0.72056062675E+02  0.72056062675E+02  0.00000000000E+00 0.  1.
         21    1    1    2  503  504 -0.30704171475E+02  0.32114204884E+02  0.29801097913E+02  0.53499287268E+02  0.00000000000E+00 0.  1.
         21    1    1    2  504  506 -0.44219529988E+02 -0.32415134323E+02 -0.61746395320E+01  0.55174576925E+02  0.00000000000E+00 0.  1.
         21    1    1    2  505  502  0.14155604484E+03 -0.17290222950E+02  0.19818954716E+03  0.24416421163E+03  0.00000000000E+00 0.  1.
         21    1    1    2  506  501 -0.66632343376E+02  0.17591152389E+02  0.17486436320E+03  0.18795441826E+03  0.00000000000E+00 0.  1.
<scales pt_clust_3="44.43049" pt_clust_4="61.97802" pt_clust_5="85.06187" pt_clust_6="14000.00000"></scales>
<clustering>
<clus scale="   44.430">  2  3  1 -1</clus>
<clus scale="   61.978">  2  4  1 -1</clus>
<clus scale="   85.062">  2  5  1 -1</clus>
<clus scale="   85.062">  1  3  2 -1</clus>
</clustering>
</event>
<event>
 6    0  0.8641190E+002  0.1322933E+03  0.7546771E-02  0.1224092E+00
         21   -1    0    0  505  501  0.00000000000E+00  0.00000000000E+00  0.21158135357E+03  0.21158135357E+03  0.00000000000E+00 0. -1.
         21   -1    0    0  504  502 -0.00000000000E+00 -0.00000000000E+00 -0.19474508846E+03  0.19474508846E+03  0.00000000000E+00 0. -1.
         21    1    1    2  503  502 -0.46792065943E+01  0.92901933159E+02 -0.46942073018E+02  0.10419319737E+03  0.00000000000E+00 0. -1.
         21    1    1    2  504  506  0.23815682418E+02 -0.11396699445E+03 -0.43369829715E+02  0.12424413339E+03  0.00000000000E+00 0. -1.
         21    1    1    2  505  503  0.34843858224E+02  0.29911223965E+02 -0.11412417848E+02  0.47318274019E+02  0.00000000000E+00 0. -1.
         21    1    1    2  506  501 -0.53980334048E+02 -0.88461626715E+01  0.11856058569E+03  0.13057083724E+03  0.00000000000E+00 0. -1.
<scales pt_clust_3="41.90759" pt_clust_4="118.08473" pt_clust_5="41.90759" pt_clust_6="54.70038"></scales>
<clustering>
<clus scale="   41.908">  3  5 -1 -1</clus>
<clus scale="   54.700">  1  6  2 -1</clus>
<clus scale="  118.085">  2  4  1 -1</clus>
<clus scale="   54.700">  1  3  2 -1</clus>
</clustering>
</event>
<event>
 6    0  0.8641190E+002  0.1440069E+03  0.7546771E-02  0.1208037E+00
         21   -1    0    0  506  501  0.00000000000E+00  0.00000000000E+00  0.12689047747E+04  0.12689047747E+04  0.00000000000E+00 0. -1.
         21   -1    0    0  503  502 -0.00000000000E+00 -0.00000000000E+00 -0.15386373286E+03  0.15386373286E+03  0.00000000000E+00 0.  1.
         21    1    1    2  503  501  0.63029516338E+01 -0.31684194197E+02  0.99521066434E+01  0.33803251143E+02  0.00000000000E+00 0.  1.
         21    1    1    2  504  505 -0.12405266560E+03  0.13010009844E+02  0.30913684798E+03  0.33335253858E+03  0.00000000000E+00 0.  1.
         21    1    1    2  505  502  0.13775280365E+03 -0.84282616002E+01 -0.92744405675E+02  0.16627806617E+03  0.00000000000E+00 0.  1.
         21    1    1    2  506  504 -0.20003089679E+02  0.27102445953E+02  0.88869649289E+03  0.88933465166E+03  0.00000000000E+00 0. -1.
<scales pt_clust_3="32.30504" pt_clust_4="14000.00000" pt_clust_5="144.00692" pt_clust_6="33.61910"></scales>
<clustering>
<clus scale="   32.305">  2  3  1 -1</clus>
<clus scale="   33.619">  1  6  2 -1</clus>
<clus scale="  144.007">  2  5  1 -1</clus>
<clus scale="   33.619">  1  3  2 -1</clus>
</clustering>
</event>
<event>
 6    0  0.8641190E+002  0.1297627E+03  0.7546771E-02  0.1227808E+00
         21   -1    0    0  505  501  0.00000000000E+00  0.00000000000E+00  0.10763044188E+03  0.10763044188E+03  0.00000000000E+00 0.  1.
         21   -1    0    0  504  502 -0.00000000000E+00 -0.00000000000E+00 -0.33092709099E+03  0.33092709099E+03  0.00000000000E+00 0. -1.
         21    1    1    2  503  506  0.47144494344E+02 -0.44318230813E+02 -0.67376091949E+02  0.93414381632E+02  0.00000000000E+00 0.  1.
         21    1    1    2  504  501 -0.56332684241E+02  0.14779412976E+03 -0.34741384002E+02  0.16193653037E+03  0.00000000000E+00 0.  1.
         21    1    1    2  505  503 -0.83714390392E+01 -0.56709948540E+02 -0.59709817600E+01  0.57634641303E+02  0.00000000000E+00 0.  1.
         21    1    1    2  506  502  0.17559628936E+02 -0.46765950407E+02 -0.11520819141E+03  0.12557197957E+03  0.00000000000E+00 0. -1.
<scales pt_clust_3="40.59954" pt_clust_4="121.25715" pt_clust_5="57.32451" pt_clust_6="40.59954"></scales>
<clustering>
<clus scale="   40.600">  3  6 -1 -1</clus>
<clus scale="   57.325">  1  5  2 -1</clus>
<clus scale="  121.257">  1  4  2 -1</clus>
<clus scale="   57.325">  1  3  2 -1</clus>
</clustering>
</event>
<event>
 6    0  0.8641190E+002  0.2141919E+03  0.7546771E-02  0.1138289E+00
         21   -1    0    0  504  501  0.00000000000E+00  0.00000000000E+00  0.45348631182E+02  0.45348631182E+02  0.00000000000E+00 0.  1.
         21   -1    0    0  505  502 -0.00000000000E+00 -0.00000000000E+00 -0.16092892119E+04  0.16092892119E+04  0.00000000000E+00 0.  1.
         21    1    1    2  503  502 -0.28578300848E+02  0.10054581822E+02 -0.57942096994E+03  0.58021243894E+03  0.00000000000E+00 0.  1.
         21    1    1    2  504  506  0.25244849975E+02  0.62750193563E+02 -0.13068081756E+03  0.14714742716E+03  0.00000000000E+00 0.  1.
         21    1    1    2  505  501 -0.95945578444E+02 -0.17823788131E+03 -0.36420711001E+03  0.41667867156E+03  0.00000000000E+00 0.  1.
         21    1    1    2  506  503  0.99279029317E+02  0.10543310592E+03 -0.48963168322E+03  0.51059930542E+03  0.00000000000E+00 0.  1.
<scales pt_clust_3="30.29544" pt_clust_4="44.30088" pt_clust_5="204.51604" pt_clust_6="44.30088"></scales>
<clustering>
<clus scale="   30.295">  2  3  1 -1</clus>
<clus scale="   44.301">  4  6 -1 -1</clus>
<clus scale="  204.516">  1  5  2 -1</clus>
<clus scale="  204.516">  1  3  2 -1</clus>
</clustering>
</event>
<event>
 6    0  0.8641190E+002  0.8374026E+02  0.7546771E-02  0.1318760E+00
         21   -1    0    0  503  501  0.00000000000E+00  0.00000000000E+00  0.53818825922E+03  0.53818825922E+03  0.00000000000E+00 0.  1.
         21   -1    0    0  505  502 -0.00000000000E+00 -0.00000000000E+00 -0.15259126348E+03  0.15259126348E+03  0.00000000000E+00 0. -1.
         21    1    1    2  503  502 -0.41642321942E+01 -0.68141385786E+02  0.99018990267E+00  0.68275689397E+02  0.00000000000E+00 0. -1.
         21    1    1    2  504  501 -0.91381114717E+01 -0.41859794050E+02  0.39617311798E+03  0.39848323283E+03  0.00000000000E+00 0.  1.
         21    1    1    2  505  506  0.33007610820E+02 -0.46272088187E+01 -0.81675575240E+02  0.88214585099E+02  0.00000000000E+00 0. -1.
         21    1    1    2  506  504 -0.19705267154E+02  0.11462838865E+03  0.70109263105E+02  0.13580601538E+03  0.00000000000E+00 0.  1.
<scales pt_clust_3="14000.00000" pt_clust_4="42.80637" pt_clust_5="33.33037" pt_clust_6="83.74026"></scales>
<clustering>
<clus scale="   33.330">  2  5  1 -1</clus>
<clus scale="   42.806">  1  4  2 -1</clus>
<clus scale="   83.740">  1  6  2 -1</clus>
<clus scale="   42.806">  1  3  2 -1</clus>
</clustering>
</event>
<event>
 6    0  0.8641190E+002  0.1228562E+03  0.7546771E-02  0.1238458E+00
         21   -1    0    0  503  501  0.00000000000E+00  0.00000000000E+00  0.11214221834E+03  0.11214221834E+03  0.00000000000E+00 0.  1.
         21   -1    0    0  505  502 -0.00000000000E+00 -0.00000000000E+00 -0.28585254812E+03  0.28585254812E+03  0.00000000000E+00 0. -1.
         21    1    1    2  503  506  0.63694453443E+02 -0.16289163269E+02 -0.16275086914E+02  0.67728861599E+02  0.00000000000E+00 0.  1.
         21    1    1    2  504  502 -0.20783050397E+02 -0.61373853792E+02 -0.12311109049E+03  0.13912234082E+03  0.00000000000E+00 0. -1.
         21    1    1    2  505  501 -0.10244687180E+03  0.61592266285E+02  0.20398683449E+01  0.11955387852E+03  0.00000000000E+00 0.  1.
         21    1    1    2  506  504  0.59535468750E+02  0.16070750777E+02 -0.36364020725E+02  0.71589685522E+02  0.00000000000E+00 0.  1.
<scales pt_clust_3="36.91865" pt_clust_4="64.79726" pt_clust_5="116.79269" pt_clust_6="36.91865"></scales>
<clustering>
<clus scale="   36.919">  3  6 -1 -1</clus>
<clus scale="   64.797">  2  4  1 -1</clus>
<clus scale="  116.793">  1  5  2 -1</clus>
<clus scale="  116.793">  1  3  2 -1</clus>
</clustering>
</event>
<event>
 6    0  0.8641190E+002  0.1086132E+03  0.7546771E-02  0.1263160E+00
         21   -1    0    0  503  501  0.00000000000E+00  0.00000000000E+00  0.43008436672E+03  0.43008436672E+03  0.00000000000E+00 0. -1.
         21   -1    0    0  505  502 -0.00000000000E+00 -0.00000000000E+00 -0.40744886873E+02  0.40744886873E+02  0.00000000000E+00 0. -1.
         21    1    1    2  503  502  0.62173480138E+01 -0.42527454155E+02  0.72565992219E+02  0.84338976754E+02  0.00000000000E+00 0. -1.
         21    1    1    2  504  501  0.98699891138E+02  0.13196493388E+02  0.19884424928E+03  0.22238446757E+03  0.00000000000E+00 0. -1.
         21    1    1    2  505  506 -0.54679811103E+02 -0.18050553147E+01  0.62708844731E+02  0.83219824408E+02  0.00000000000E+00 0. -1.
         21    1    1    2  506  504 -0.50237428049E+02  0.31136016082E+02  0.55220393619E+02  0.80885984855E+02  0.00000000000E+00 0. -1.
<scales pt_clust_3="42.97953" pt_clust_4="103.15688" pt_clust_5="32.70434" pt_clust_6="32.70434"></scales>
<clustering>
<clus scale="   32.704">  5  6 -1 -1</clus>
<clus scale="   42.980">  1  3  2 -1</clus>
<clus scale="  103.157">  1  4  2 -1</clus>
<clus scale="   42.980">  1  3  2 -1</clus>
</clustering>
</event>
<event>
 6    0  0.8641190E+002  0.1050061E+03  0.7546771E-02  0.1270108E+00
         21   -1    0    0  506  501  0.00000000000E+00  0.00000000000E+00  0.41174293295E+03  0.41174293295E+03  0.00000000000E+00 0.  1.
         21   -1    0    0  505  502 -0.00000000000E+00 -0.00000000000E+00 -0.44702602974E+03  0.44702602974E+03  0.00000000000E+00 0.  1.
         21    1    1    2  503  501  0.57836123906E+02 -0.47703666231E+02  0.28317902500E+02  0.80140879721E+02  0.00000000000E+00 0.  1.
         21    1    1    2  504  502  0.12742615145E+02  0.81556878790E+02 -0.38441397540E+03  0.39317680908E+03  0.00000000000E+00 0.  1.
         21    1    1    2  505  503  0.29573948327E+02  0.18281095059E+02 -0.97728326731E+01  0.36115441499E+02  0.00000000000E+00 0. -1.
         21    1    1    2  506  504 -0.10015268738E+03 -0.52134307617E+02  0.33058580878E+03  0.34933583239E+03  0.00000000000E+00 0.  1.
<scales pt_clust_3="75.68103" pt_clust_4="105.00614" pt_clust_5="34.76804" pt_clust_6="14000.00000"></scales>
<clustering>
<clus scale="   34.768">  2  5  1 -1</clus>
<clus scale="   75.681">  1  3  2 -1</clus>
<clus scale="  105.006">  2  4  1 -1</clus>
<clus scale="   75.681">  1  3  2 -1</clus>
</clustering>
</event>
<event>
 6    0  0.8641190E+002  0.8861633E+02  0.7546771E-02  0.1306237E+00
         21   -1    0    0  503  501  0.00000000000E+00  0.00000000000E+00  0.32882369846E+02  0.32882369846E+02  0.00000000000E+00 0. -1.
         21   -1    0    0  504  502 -0.00000000000E+00 -0.00000000000E+00 -0.12362806309E+04  0.12362806309E+04  0.00000000000E+00 0.  1.
         21    1    1    2  503  506 -0.23609528811E+02  0.35887731689E+02 -0.33474550388E+02  0.54459936284E+02  0.00000000000E+00 0. -1.
         21    1    1    2  504  505 -0.57020668868E+02 -0.96038529980E+02 -0.10013351349E+04  0.10075449411E+04  0.00000000000E+00 0.  1.
         21    1    1    2  505  501  0.51278939414E+02  0.17227967807E+02 -0.36648024655E+02  0.65340724003E+02  0.00000000000E+00 0. -1.
         21    1    1    2  506  502  0.29351258266E+02  0.42922830485E+02 -0.13194055115E+03  0.14181739941E+03  0.00000000000E+00 0. -1.
<scales pt_clust_3="42.95741" pt_clust_4="88.61633" pt_clust_5="54.08147" pt_clust_6="14000.00000"></scales>
<clustering>
<clus scale="   42.957">  1  3  2 -1</clus>
<clus scale="   54.081">  1  5  2 -1</clus>
<clus scale="   88.616">  2  4  1 -1</clus>
<clus scale="   42.957">  1  3  2 -1</clus>
</clustering>
</event>
<event>
 6    0  0.8641190E+002  0.1521057E+03  0.7546771E-02  0.1197909E+00
         21   -1    0    0  505  501  0.00000000000E+00  0.00000000000E+00  0.31421912301E+03  0.31421912301E+03  0.00000000000E+00 0.  1.
         21   -1    0    0  503  502 -0.00000000000E+00 -0.00000000000E+00 -0.70733134370E+03  0.70733134370E+03  0.00000000000E+00 0. -1.
         21    1    1    2  503  506  0.35998006703E+02 -0.13586892985E+03 -0.64754791762E+03  0.66262699024E+03  0.00000000000E+00 0. -1.
         21    1    1    2  504  501 -0.38046556634E+02  0.93557863390E+02  0.46993871051E+02  0.11139586254E+03  0.00000000000E+00 0.  1.
         21    1    1    2  505  502  0.95822891863E+01 -0.41407684963E+02  0.11490215986E+03  0.12251090964E+03  0.00000000000E+00 0.  1.
         21    1    1    2  506  504 -0.75337392555E+01  0.83718751427E+02  0.92539666013E+02  0.12501670430E+03  0.00000000000E+00 0.  1.
<scales pt_clust_3="142.19502" pt_clust_4="45.90558" pt_clust_5="42.50196" pt_clust_6="45.90558"></scales>
<clustering>
<clus scale="   42.502">  1  5  2 -1</clus>
<clus scale="   45.906">  4  6 -1 -1</clus>
<clus scale="  142.195">  2  3  1 -1</clus>
<clus scale="   42.502">  1  3  2 -1</clus>
</clustering>
</event>
<event>
 6    0  0.8641190E+002  0.1411980E+03  0.7546771E-02  0.1211726E+00
         21   -1    0    0  506  501  0.00000000000E+00  0.00000000000E+00  0.24342583910E+03  0.24342583910E+03  0.00000000000E+00 0. -1.
         21   -1    0    0  505  502 -0.00000000000E+00 -0.00000000000E+00 -0.91143993375E+02  0.91143993375E+02  0.00000000000E+00 0. -1.
         21    1    1    2  503  501  0.31378015711E+02 -0.24775011131E+02  0.75871220267E+02  0.85760265341E+02  0.00000000000E+00 0. -1.
         21    1    1    2  504  502 -0.59064455164E+02  0.52621521486E+02 -0.68025232037E+01  0.79397158068E+02  0.00000000000E+00 0. -1.
         21    1    1    2  505  503  0.82250123024E+02 -0.40118696214E+02  0.55052431135E+02  0.10679589270E+03  0.00000000000E+00 0. -1.
         21    1    1    2  506  504 -0.54563683572E+02  0.12272185859E+02  0.28160717531E+02  0.62616516372E+02  0.00000000000E+00 0. -1.
<scales pt_clust_3="35.06439" pt_clust_4="140.39840" pt_clust_5="35.06439" pt_clust_6="42.78456"></scales>
<clustering>
<clus scale="   35.064">  3  5 -1 -1</clus>
<clus scale="   42.785">  4  6 -1 -1</clus>
<clus scale="  140.398">  2  4  1 -1</clus>
<clus scale="  141.198">  1  3  2 -1</clus>
</clustering>
</event>
<event>
 6    0  0.8641190E+002  0.1083637E+03  0.7546771E-02  0.1263630E+00
         21   -1    0    0  506  501  0.00000000000E+00  0.00000000000E+00  0.11345923025E+03  0.11345923025E+03  0.00000000000E+00 0.  1.
         21   -1    0    0  504  502 -0.00000000000E+00 -0.00000000000E+00 -0.11252220162E+04  0.11252220162E+04  0.00000000000E+00 0.  1.
         21    1    1    2  503  502 -0.95387700669E+02  0.57527302675E+02 -0.29068930920E+03  0.31130126643E+03  0.00000000000E+00 0.  1.
         21    1    1    2  504  505  0.25080918131E+02 -0.35488202472E+02 -0.14856721496E+03  0.15479238460E+03  0.00000000000E+00 0. -1.
         21    1    1    2  505  501  0.10170841800E+03  0.13713083343E+02 -0.66270613044E+03  0.67060574578E+03  0.00000000000E+00 0.  1.
         21    1    1    2  506  503 -0.31401635460E+02 -0.35752183545E+02  0.90199868691E+02  0.10198184961E+03  0.00000000000E+00 0.  1.
<scales pt_clust_3="14000.00000" pt_clust_4="43.45647" pt_clust_5="108.36366" pt_clust_6="47.64634"></scales>
<clustering>
<clus scale="   43.456">  2  4  1 -1</clus>
<clus scale="   47.646">  1  6  2 -1</clus>
<clus scale="  108.364">  2  5  1 -1</clus>
<clus scale="   47.646">  1  3  2 -1</clus>
</clustering>
</event>
<event>
 6    0  0.8641190E+002  0.1125339E+03  0.7546771E-02  0.1255948E+00
         21   -1    0    0  506  501  0.00000000000E+00  0.00000000000E+00  0.19486575342E+03  0.19486575342E+03  0.00000000000E+00 0. -1.
         21   -1    0    0  504  502 -0.00000000000E+00 -0.00000000000E+00 -0.54015725607E+03  0.54015725607E+03  0.00000000000E+00 0. -1.
         21    1    1    2  503  505  0.45969472283E+02  0.43111610564E+02  0.70059955970E+02  0.94234817227E+02  0.00000000000E+00 0. -1.
         21    1    1    2  504  503  0.83468727331E+01  0.53871802294E+02  0.68379352314E+02  0.87450427041E+02  0.00000000000E+00 0. -1.
         21    1    1    2  505  501 -0.30954990220E+02  0.60826995663E+01  0.20846266650E+02  0.37812398586E+02  0.00000000000E+00 0. -1.
         21    1    1    2  506  502 -0.23361354796E+02 -0.10306611242E+03 -0.50457707758E+03  0.51552536663E+03  0.00000000000E+00 0. -1.
<scales pt_clust_3="37.99145" pt_clust_4="37.99145" pt_clust_5="31.54696" pt_clust_6="105.71579"></scales>
<clustering>
<clus scale="   31.547">  1  5  2 -1</clus>
<clus scale="   37.991">  3  4 -1 -1</clus>
<clus scale="  105.716">  2  6  1 -1</clus>
<clus scale="   31.547">  1  3  2 -1</clus>
</clustering>
</event>
<event>
 6    0  0.8641190E+002  0.1358661E+03  0.7546771E-02  0.1219002E+00
         21   -1    0    0  506  501  0.00000000000E+00  0.00000000000E+00  0.25620740105E+03  0.25620740105E+03  0.00000000000E+00 0. -1.
         21   -1    0    0  503  502 -0.00000000000E+00 -0.00000000000E+00 -0.28111347475E+03  0.28111347475E+03  0.00000000000E+00 0. -1.
         21    1    1    2  503  501 -0.49896393808E+02 -0.18435235373E+01  0.17150143286E+03  0.17862191962E+03  0.00000000000E+00 0. -1.
         21    1    1    2  504  505  0.84798996179E+02  0.19692044212E+02 -0.15403621840E+03  0.17693445944E+03  0.00000000000E+00 0. -1.
         21    1    1    2  505  502  0.58875427994E+02 -0.76702118984E+01 -0.61535289379E+02  0.85508713070E+02  0.00000000000E+00 0. -1.
         21    1    1    2  506  504 -0.93778030365E+02 -0.10178308776E+02  0.19164001213E+02  0.96255783677E+02  0.00000000000E+00 0. -1.
<scales pt_clust_3="49.93044" pt_clust_4="33.22385" pt_clust_5="33.22385" pt_clust_6="129.77337"></scales>
<clustering>
<clus scale="   33.224">  4  5 -1 -1</clus>
<clus scale="   49.930">  1  3  2 -1</clus>
<clus scale="  129.773">  1  6  2 -1</clus>
<clus scale="   49.930">  1  3  2 -1</clus>
</clustering>
</event>
<event>
 6    0  0.8641190E+002  0.1717307E+03  0.7546771E-02  0.1176055E+00
         21   -1    0    0  506  501  0.00000000000E+00  0.00000000000E+00  0.21354513396E+04  0.21354513396E+04  0.00000000000E+00 0. -1.
         21   -1    0    0  504  502 -0.00000000000E+00 -0.00000000000E+00 -0.46722845426E+03  0.46722845426E+03  0.00000000000E+00 0. -1.
         21    1    1    2  503  502 -0.94347976880E+02 -0.21159869638E+02 -0.19344134648E+03  0.21626103522E+03  0.00000000000E+00 0.  1.
         21    1    1    2  504  501  0.10965105735E+03 -0.53913296686E+02  0.20069191122E+04  0.20106353028E+04  0.00000000000E+00 0. -1.
         21    1    1    2  505  503 -0.70706895158E+02  0.81874087887E+02 -0.24144383536E+03  0.26457127003E+03  0.00000000000E+00 0. -1.
         21    1    1    2  506  505  0.55403814691E+02 -0.68009215624E+01  0.96188955005E+02  0.11121218585E+03  0.00000000000E+00 0. -1.
<scales pt_clust_3="96.39650" pt_clust_4="171.73066" pt_clust_5="14000.00000" pt_clust_6="55.81967"></scales>
<clustering>
<clus scale="   55.820">  1  6  2 -1</clus>
<clus scale="   96.397">  2  3  1 -1</clus>
<clus scale="  171.731">  1  4  2 -1</clus>
<clus scale="   55.820">  1  3  2 -1</clus>
</clustering>
</event>
<event>
 6    0  0.4509960E+003  0.1116476E+03  0.7546771E-02  0.1257549E+00
         21   -1    0    0  504  501  0.00000000000E+00  0.00000000000E+00  0.44876516363E+03  0.44876516363E+03  0.00000000000E+00 0. -1.
         21   -1    0    0  503  502 -0.00000000000E+00 -0.00000000000E+00 -0.83288266860E+03  0.83288266860E+03  0.00000000000E+00 0. -1.
         21    1    1    2  503  501  0.33569295604E+02 -0.63053231119E+01  0.91307951952E+01  0.35355708560E+02  0.00000000000E+00 0.  1.
         21    1    1    2  504  505  0.58764056933E+02 -0.75006325114E+02  0.39192240570E+03  0.40333898310E+03  0.00000000000E+00 0. -1.
         21    1    1    2  505  506 -0.55625118437E+02  0.65412905338E+02 -0.36644186608E+02  0.93358440422E+02  0.00000000000E+00 0. -1.
         21    1    1    2  506  502 -0.36708234100E+02  0.15898742887E+02 -0.74852651926E+03  0.74959470016E+03  0.00000000000E+00 0. -1.
<scales pt_clust_3="34.15633" pt_clust_4="14000.00000" pt_clust_5="111.64764" pt_clust_6="39.96160"></scales>
<clustering>
<clus scale="   34.156">  1  3  2 -1</clus>
<clus scale="   39.962">  2  6  1 -1</clus>
<clus scale="  111.648">  2  5  1 -1</clus>
<clus scale="   34.156">  1  3  2 -1</clus>
</clustering>
</event>
<event>
 6    0  0.8641190E+002  0.1729977E+03  0.7546771E-02  0.1174757E+00
         21   -1    0    0  506  501  0.00000000000E+00  0.00000000000E+00  0.31518942615E+03  0.31518942615E+03  0.00000000000E+00 0. -1.
         21   -1    0    0  505  502 -0.00000000000E+00 -0.00000000000E+00 -0.31426519636E+03  0.31426519636E+03  0.00000000000E+00 0. -1.
         21    1    1    2  503  502  0.15754620582E+02  0.53711204444E+02 -0.56295577465E+02  0.79386986305E+02  0.00000000000E+00 0. -1.
         21    1    1    2  504  501 -0.84683347125E+02 -0.72810432647E+01 -0.66719659256E+02  0.10805459640E+03  0.00000000000E+00 0. -1.
         21    1    1    2  505  504 -0.52835994571E+02  0.49522254784E+02 -0.12749591107E+03  0.14662640752E+03  0.00000000000E+00 0.  1.
         21    1    1    2  506  503  0.12176472111E+03 -0.95952415964E+02  0.25143537758E+03  0.29538663229E+03  0.00000000000E+00 0. -1.
<scales pt_clust_3="55.97412" pt_clust_4="75.34666" pt_clust_5="75.34666" pt_clust_6="153.23636"></scales>
<clustering>
<clus scale="   55.974">  2  3  1 -1</clus>
<clus scale="   75.347">  4  5 -1 -1</clus>
<clus scale="  153.236">  1  6  2 -1</clus>
<clus scale="  153.236">  1  3  2 -1</clus>
</clustering>
</event>
<event>
 6    0  0.8641190E+002  0.1805812E+03  0.7546771E-02  0.1167242E+00
         21   -1    0    0  505  501  0.00000000000E+00  0.00000000000E+00  0.27289469719E+03  0.27289469719E+03  0.00000000000E+00 0.  1.
         21   -1    0    0  506  502 -0.00000000000E+00 -0.00000000000E+00 -0.82453306448E+03  0.82453306448E+03  0.00000000000E+00 0. -1.
         21    1    1    2  503  504 -0.53762409507E+02 -0.86034712605E+02 -0.37073821684E+03  0.38436856515E+03  0.00000000000E+00 0. -1.
         21    1    1    2  504  502 -0.24528538566E+02 -0.76165089853E+02 -0.39503090522E+03  0.40305357732E+03  0.00000000000E+00 0. -1.
         21    1    1    2  505  503  0.91338461892E+02  0.89445563195E+02  0.19582046179E+03  0.23385653006E+03  0.00000000000E+00 0.  1.
         21    1    1    2  506  501 -0.13047513818E+02  0.72754239263E+02  0.18310292980E+02  0.76149089139E+02  0.00000000000E+00 0.  1.
<scales pt_clust_3="30.67535" pt_clust_4="30.67535" pt_clust_5="177.24710" pt_clust_6="73.91493"></scales>
<clustering>
<clus scale="   30.675">  3  4 -1 -1</clus>
<clus scale="   73.915">  1  6  2 -1</clus>
<clus scale="  177.247">  1  5  2 -1</clus>
<clus scale="   73.915">  1  3  2 -1</clus>
</clustering>
</event>
<event>
 6    0  0.8641190E+002  0.1040896E+03  0.7546771E-02  0.1271924E+00
         21   -1    0    0  504  501  0.00000000000E+00  0.00000000000E+00  0.26249583893E+02  0.26249583893E+02  0.00000000000E+00 0. -1.
         21   -1    0    0  506  502 -0.00000000000E+00 -0.00000000000E+00 -0.13994121730E+04  0.13994121730E+04  0.00000000000E+00 0. -1.
         21    1    1    2  503  502 -0.30621483343E+00 -0.10706820815E+03 -0.93741365943E+03  0.94350838038E+03  0.00000000000E+00 0. -1.
         21    1    1    2  504  503  0.30123808592E+02  0.94141322699E+02 -0.26310209738E+03  0.28105648210E+03  0.00000000000E+00 0. -1.
         21    1    1    2  505  501  0.29140313648E+02 -0.11380249679E+02 -0.24264295321E+02  0.39590705849E+02  0.00000000000E+00 0.  1.
         21    1    1    2  506  505 -0.58957907407E+02  0.24307135132E+02 -0.14838253694E+03  0.16150618853E+03  0.00000000000E+00 0. -1.
<scales pt_clust_3="104.08957" pt_clust_4="14000.00000" pt_clust_5="31.28367" pt_clust_6="52.72983"></scales>
<clustering>
<clus scale="   31.284">  1  5  2 -1</clus>
<clus scale="   52.730">  1  6  2 -1</clus>
<clus scale="  104.090">  2  3  1 -1</clus>
<clus scale="   31.284">  1  3  2 -1</clus>
</clustering>
</event>
<event>
 6    0  0.8641190E+002  0.1121601E+03  0.7546771E-02  0.1256621E+00
         21   -1    0    0  503  501  0.00000000000E+00  0.00000000000E+00  0.14923699748E+03  0.14923699748E+03  0.00000000000E+00 0. -1.
         21   -1    0    0  506  502 -0.00000000000E+00 -0.00000000000E+00 -0.20836614252E+03  0.20836614252E+03  0.00000000000E+00 0. -1.
         21    1    1    2  503  502 -0.28907888879E+02 -0.76394429339E+02 -0.60268592826E+02  0.10150900529E+03  0.00000000000E+00 0. -1.
         21    1    1    2  504  505  0.46173113337E+02  0.99781096778E+02 -0.47074732819E+02  0.11960039356E+03  0.00000000000E+00 0. -1.
         21    1    1    2  505  501 -0.24210849771E+01 -0.61262392268E+02  0.67743621773E+02  0.91368159935E+02  0.00000000000E+00 0. -1.
         21    1    1    2  506  504 -0.14844139481E+02  0.37875724830E+02 -0.19529441172E+02  0.45125581224E+02  0.00000000000E+00 0. -1.
<scales pt_clust_3="99.05688" pt_clust_4="32.00053" pt_clust_5="61.31021" pt_clust_6="32.00053"></scales>
<clustering>
<clus scale="   32.001">  4  6 -1 -1</clus>
<clus scale="   61.310">  1  5  2 -1</clus>
<clus scale="   99.057">  2  3  1 -1</clus>
<clus scale="   61.310">  1  3  2 -1</clus>
</clustering>
</event>
<event>
 6    0  0.8641190E+002  0.8603980E+02  0.7546771E-02  0.1312736E+00
         21   -1    0    0  506  501  0.00000000000E+00  0.00000000000E+00  0.97133966403E+03  0.97133966403E+03  0.00000000000E+00 0.  1.
         21   -1    0    0  503  502 -0.00000000000E+00 -0.00000000000E+00 -0.89112622148E+02  0.89112622148E+02  0.00000000000E+00 0.  1.
         21    1    1    2  503  501 -0.40498070782E+02 -0.56865410687E+02  0.17204827366E+02  0.71901145709E+02  0.00000000000E+00 0.  1.
         21    1    1    2  504  502  0.11393392813E+03 -0.11695645291E+02  0.55876753093E+02  0.12743602173E+03  0.00000000000E+00 0.  1.
         21    1    1    2  505  504 -0.24933934617E+02  0.90665725121E+02  0.63266605971E+02  0.11333418830E+03  0.00000000000E+00 0.  1.
         21    1    1    2  506  505 -0.48501922735E+02 -0.22104669144E+02  0.74587885546E+03  0.74778093044E+03  0.00000000000E+00 0.  1.
<scales pt_clust_3="79.14624" pt_clust_4="14000.00000" pt_clust_5="86.03980" pt_clust_6="53.30153"></scales>
<clustering>
<clus scale="   53.302">  1  6  2 -1</clus>
<clus scale="   79.146">  2  3  1 -1</clus>
<clus scale="   86.040">  1  5  2 -1</clus>
<clus scale="   53.302">  1  3  2 -1</clus>
</clustering>
</event>
<event>
 6    0  0.8641190E+002  0.8604810E+02  0.7546771E-02  0.1312714E+00
         21   -1    0    0  505  501  0.00000000000E+00  0.00000000000E+00  0.98998115554E+02  0.98998115554E+02  0.00000000000E+00 0. -1.
         21   -1    0    0  506  502 -0.00000000000E+00 -0.00000000000E+00 -0.24466536694E+03  0.24466536694E+03  0.00000000000E+00 0.  1.
         21    1    1    2  503  501  0.59006027485E+02 -0.15644774144E+02  0.97974486928E+01  0.61826048220E+02  0.00000000000E+00 0. -1.
         21    1    1    2  504  502 -0.20881806239E+02 -0.32551489325E+02 -0.32271263307E+02  0.50369472148E+02  0.00000000000E+00 0.  1.
         21    1    1    2  505  504 -0.10858623988E+03  0.58211356335E+02 -0.63654494442E+02  0.13867742484E+03  0.00000000000E+00 0.  1.
         21    1    1    2  506  503  0.70462018637E+02 -0.10015092866E+02 -0.59538942329E+02  0.92790537282E+02  0.00000000000E+00 0. -1.
<scales pt_clust_3="59.71589" pt_clust_4="38.67363" pt_clust_5="14000.00000" pt_clust_6="86.04810"></scales>
<clustering>
<clus scale="   38.674">  2  4  1 -1</clus>
<clus scale="   59.716">  1  3  2 -1</clus>
<clus scale="   86.048">  2  6  1 -1</clus>
<clus scale="   59.716">  1  3  2 -1</clus>
</clustering>
</event>
<event>
 6    0  0.8641190E+002  0.2749935E+03  0.7546771E-02  0.1098455E+00
         21   -1    0    0  506  501  0.00000000000E+00  0.00000000000E+00  0.11874956561E+03  0.11874956561E+03  0.00000000000E+00 0. -1.
         21   -1    0    0  505  502 -0.00000000000E+00 -0.00000000000E+00 -0.72758557630E+03  0.72758557630E+03  0.00000000000E+00 0.  1.
         21    1    1    2  503  501  0.13375074247E+03  0.10304458097E+03 -0.13735029861E+03  0.21765236343E+03  0.00000000000E+00 0. -1.
         21    1    1    2  504  502 -0.11616088533E+03 -0.23151294695E+03 -0.31461237886E+03  0.40751999315E+03  0.00000000000E+00 0.  1.
         21    1    1    2  505  503  0.14402177161E+02  0.92762261119E+02 -0.14334689228E+03  0.17134932542E+03  0.00000000000E+00 0. -1.
         21    1    1    2  506  504 -0.31992034308E+02  0.35706104863E+02 -0.13526440950E+02  0.49813459912E+02  0.00000000000E+00 0. -1.
<scales pt_clust_3="84.47907" pt_clust_4="251.75307" pt_clust_5="84.47907" pt_clust_6="47.94180"></scales>
<clustering>
<clus scale="   47.942">  1  6  2 -1</clus>
<clus scale="   84.479">  3  5 -1 -1</clus>
<clus scale="  251.753">  2  4  1 -1</clus>
<clus scale="   47.942">  1  3  2 -1</clus>
</clustering>
</event>
<event>
 6    0  0.8641190E+002  0.2188944E+03  0.7546771E-02  0.1134710E+00
         21   -1    0    0  502  501  0.00000000000E+00  0.00000000000E+00  0.45108263713E+03  0.45108263713E+03  0.00000000000E+00 0. -1.
         21   -1    0    0  503  502 -0.00000000000E+00 -0.00000000000E+00 -0.24381510643E+04  0.24381510643E+04  0.00000000000E+00 0. -1.
         21    1    1    2  503  505 -0.13444567070E+02  0.47027242080E+02 -0.17980908632E+04  0.17987559785E+04  0.00000000000E+00 0. -1.
         21    1    1    2  504  506 -0.50769276643E+02  0.51523829384E+02 -0.13859079455E+03  0.15633180348E+03  0.00000000000E+00 0. -1.
         21    1    1    2  505  504 -0.30922220971E+01  0.86497890440E+02 -0.46614653740E+03  0.47411395383E+03  0.00000000000E+00 0. -1.
         21    1    1    2  506  501  0.67306065810E+02 -0.18504896190E+03  0.41575976793E+03  0.46003196566E+03  0.00000000000E+00 0. -1.
<scales pt_clust_3="48.91133" pt_clust_4="81.45919" pt_clust_5="81.45919" pt_clust_6="195.22096"></scales>
<clustering>
<clus scale="   48.911">  2  3  1 -1</clus>
<clus scale="   81.459">  4  5 -1 -1</clus>
<clus scale="  195.221">  1  6  2 -1</clus>
<clus scale="  195.221">  1  3  2 -1</clus>
</clustering>
</event>
<event>
 6    0  0.8641190E+002  0.1335649E+03  0.7546771E-02  0.1222260E+00
         21   -1    0    0  505  501  0.00000000000E+00  0.00000000000E+00  0.23780068829E+03  0.23780068829E+03  0.00000000000E+00 0.  1.
         21   -1    0    0  504  502 -0.00000000000E+00 -0.00000000000E+00 -0.51376413248E+03  0.51376413248E+03  0.00000000000E+00 0. -1.
         21    1    1    2  503  506 -0.24267310163E+02  0.81207514491E+02  0.42273725914E+01  0.84861259897E+02  0.00000000000E+00 0.  1.
         21    1    1    2  504  501  0.41663053842E+02 -0.12359511410E+03  0.13871987517E+03  0.19040684350E+03  0.00000000000E+00 0.  1.
         21    1    1    2  505  503  0.18820850387E+02  0.34875633733E+02  0.13833286485E+02  0.41974921710E+02  0.00000000000E+00 0.  1.
         21    1    1    2  506  502 -0.36216594066E+02  0.75119658751E+01 -0.43274397843E+03  0.43432179566E+03  0.00000000000E+00 0. -1.
<scales pt_clust_3="32.48047" pt_clust_4="124.83315" pt_clust_5="32.48047" pt_clust_6="36.98745"></scales>
<clustering>
<clus scale="   32.480">  3  5 -1 -1</clus>
<clus scale="   36.987">  2  6  1 -1</clus>
<clus scale="  124.833">  1  4  2 -1</clus>
<clus scale="  124.833">  1  3  2 -1</clus>
</clustering>
</event>
<event>
 6    0  0.8641190E+002  0.8239865E+02  0.7546771E-02  0.1322379E+00
         21   -1    0    0  506  501  0.00000000000E+00  0.00000000000E+00  0.90050405552E+02  0.90050405552E+02  0.00000000000E+00 0.  1.
         21   -1    0    0  503  502 -0.00000000000E+00 -0.00000000000E+00 -0.33035573461E+03  0.33035573461E+03  0.00000000000E+00 0.  1.
         21    1    1    2  503  501 -0.72333072700E+02 -0.32754767720E+01 -0.74256096506E+02  0.10371484958E+03  0.00000000000E+00 0.  1.
         21    1    1    2  504  505 -0.48130644462E+02 -0.43848760150E+02 -0.30171280247E+00  0.65110396510E+02  0.00000000000E+00 0.  1.
         21    1    1    2  505  502  0.88424853254E+02  0.15267862430E+02 -0.18252145035E+03  0.20338668131E+03  0.00000000000E+00 0.  1.
         21    1    1    2  506  504  0.32038863908E+02  0.31856374492E+02  0.16773930601E+02  0.48194212765E+02  0.00000000000E+00 0.  1.
<scales pt_clust_3="14000.00000" pt_clust_4="39.71690" pt_clust_5="82.39865" pt_clust_6="45.18094"></scales>
<clustering>
<clus scale="   45.181">  1  6  2 -1</clus>
<clus scale="   39.717">  1  4  2 -1</clus>
<clus scale="   82.399">  2  5  1 -1</clus>
<clus scale="   45.181">  1  3  2 -1</clus>
</clustering>
</event>
<event>
 6    0  0.1741543E+003  0.1414499E+03  0.7546771E-02  0.1211391E+00
         21   -1    0    0  505  501  0.00000000000E+00  0.00000000000E+00  0.60262738715E+03  0.60262738715E+03  0.00000000000E+00 0. -1.
         21   -1    0    0  504  502 -0.00000000000E+00 -0.00000000000E+00 -0.59559388037E+03  0.59559388037E+03  0.00000000000E+00 0. -1.
         21    1    1    2  503  501  0.23546154089E+02 -0.25440488373E+02  0.71691014027E+01  0.35398246227E+02  0.00000000000E+00 0. -1.
         21    1    1    2  504  503 -0.13726942271E+01  0.48647047150E+02 -0.49039247757E+03  0.49280138143E+03  0.00000000000E+00 0. -1.
         21    1    1    2  505  506  0.11353873100E+03 -0.31476356649E+02  0.51802183619E+03  0.53125175504E+03  0.00000000000E+00 0. -1.
         21    1    1    2  506  502 -0.13571219086E+03  0.82697978721E+01 -0.27764953245E+02  0.13876988482E+03  0.00000000000E+00 0.  1.
<scales pt_clust_3="34.66468" pt_clust_4="48.61237" pt_clust_5="14000.00000" pt_clust_6="141.44986"></scales>
<clustering>
<clus scale="   34.665">  1  3  2 -1</clus>
<clus scale="   48.612">  2  4  1 -1</clus>
<clus scale="  141.450">  2  6  1 -1</clus>
<clus scale="   34.665">  1  3  2 -1</clus>
</clustering>
</event>
<event>
 6    0  0.8641190E+002  0.1397469E+03  0.7546771E-02  0.1213670E+00
         21   -1    0    0  502  501  0.00000000000E+00  0.00000000000E+00  0.28075775579E+03  0.28075775579E+03  0.00000000000E+00 0.  1.
         21   -1    0    0  503  502 -0.00000000000E+00 -0.00000000000E+00 -0.43009435465E+03  0.43009435465E+03  0.00000000000E+00 0.  1.
         21    1    1    2  503  505 -0.66252038765E+02  0.11723215079E+03 -0.39203073773E+03  0.41451273701E+03  0.00000000000E+00 0.  1.
         21    1    1    2  504  501  0.45294632233E+02 -0.50395469541E+01  0.90814293774E+02  0.10160825112E+03  0.00000000000E+00 0.  1.
         21    1    1    2  505  506 -0.90568760052E+01 -0.61803318721E+02  0.67468148377E+02  0.91943614533E+02  0.00000000000E+00 0.  1.
         21    1    1    2  506  504  0.30014282537E+02 -0.50389285118E+02  0.84411696720E+02  0.10278750777E+03  0.00000000000E+00 0.  1.
<scales pt_clust_3="133.05213" pt_clust_4="45.57412" pt_clust_5="41.41087" pt_clust_6="41.41087"></scales>
<clustering>
<clus scale="   41.411">  5  6 -1 -1</clus>
<clus scale="   45.574">  1  4  2 -1</clus>
<clus scale="  133.052">  2  3  1 -1</clus>
<clus scale="   45.574">  1  3  2 -1</clus>
</clustering>
</event>
<event>
 6    0  0.8641190E+002  0.1384464E+03  0.7546771E-02  0.1215435E+00
         21   -1    0    0  502  501  0.00000000000E+00  0.00000000000E+00  0.76855247535E+02  0.76855247535E+02  0.00000000000E+00 0. -1.
         21   -1    0    0  506  502 -0.00000000000E+00 -0.00000000000E+00 -0.91218425119E+03  0.91218425119E+03  0.00000000000E+00 0. -1.
         21    1    1    2  503  504  0.52360263066E+02  0.45612822740E+02 -0.51348222781E+02  0.86364151877E+02  0.00000000000E+00 0. -1.
         21    1    1    2  504  501 -0.38048185116E+02  0.14523405219E+01  0.14621541449E+02  0.40786801272E+02  0.00000000000E+00 0. -1.
         21    1    1    2  505  503  0.34009802304E+02  0.75820014712E+02 -0.40627795822E+02  0.92498427430E+02  0.00000000000E+00 0. -1.
         21    1    1    2  506  505 -0.48321880254E+02 -0.12288517797E+03 -0.75797452650E+03  0.76939011815E+03  0.00000000000E+00 0. -1.
<scales pt_clust_3="33.29423" pt_clust_4="38.07589" pt_clust_5="33.29423" pt_clust_6="133.56978"></scales>
<clustering>
<clus scale="   33.294">  3  5 -1 -1</clus>
<clus scale="   38.076">  1  4  2 -1</clus>
<clus scale="  133.570">  2  6  1 -1</clus>
<clus scale="   38.076">  1  3  2 -1</clus>
</clustering>
</event>
<event>
 6    0  0.8641190E+002  0.1699611E+03  0.7546771E-02  0.1177888E+00
         21   -1    0    0  505  501  0.00000000000E+00  0.00000000000E+00  0.65695142774E+03  0.65695142774E+03  0.00000000000E+00 0.  1.
         21   -1    0    0  503  502 -0.00000000000E+00 -0.00000000000E+00 -0.93732904552E+02  0.93732904552E+02  0.00000000000E+00 0.  1.
         21    1    1    2  503  506  0.19638251928E+02  0.27503031352E+02 -0.20948407234E+02  0.39760702182E+02  0.00000000000E+00 0.  1.
         21    1    1    2  504  502 -0.42369202276E+02 -0.99392900808E+01  0.19663917657E+02  0.47755716374E+02  0.00000000000E+00 0.  1.
         21    1    1    2  505  504  0.19584715843E+02  0.15932871335E+03  0.18829222030E+03  0.24743314293E+03  0.00000000000E+00 0.  1.
         21    1    1    2  506  501  0.31462345041E+01 -0.17689245462E+03  0.37621079246E+03  0.41573477081E+03  0.00000000000E+00 0.  1.
<scales pt_clust_3="33.79464" pt_clust_4="38.21083" pt_clust_5="169.96114" pt_clust_6="14000.00000"></scales>
<clustering>
<clus scale="   33.795">  2  3  1 -1</clus>
<clus scale="   38.211">  2  4  1 -1</clus>
<clus scale="  169.961">  2  5  1 -1</clus>
<clus scale="  169.961">  1  3  2 -1</clus>
</clustering>
</event>
<event>
 6    0  0.8641190E+002  0.1388975E+03  0.7546771E-02  0.1214820E+00
         21   -1    0    0  505  501  0.00000000000E+00  0.00000000000E+00  0.11999320741E+04  0.11999320741E+04  0.00000000000E+00 0. -1.
         21   -1    0    0  501  502 -0.00000000000E+00 -0.00000000000E+00 -0.96114782512E+02  0.96114782512E+02  0.00000000000E+00 0.  1.
         21    1    1    2  503  506 -0.11151252889E+03  0.93730224508E+01  0.20415790261E+03  0.23281612240E+03  0.00000000000E+00 0. -1.
         21    1    1    2  504  502  0.95278668880E+02  0.77627188724E+01 -0.29312962689E+02  0.99987670887E+02  0.00000000000E+00 0.  1.
         21    1    1    2  505  503 -0.12670612801E+02 -0.49561378925E+02  0.91666991518E+03  0.91809618674E+03  0.00000000000E+00 0. -1.
         21    1    1    2  506  504  0.28904472814E+02  0.32425637602E+02  0.12302436493E+02  0.45146876594E+02  0.00000000000E+00 0.  1.
<scales pt_clust_3="124.71721" pt_clust_4="41.21424" pt_clust_5="51.15540" pt_clust_6="41.21424"></scales>
<clustering>
<clus scale="   41.214">  4  6 -1 -1</clus>
<clus scale="   51.155">  1  5  2 -1</clus>
<clus scale="  124.717">  1  3  2 -1</clus>
<clus scale="   51.155">  1  3  2 -1</clus>
</clustering>
</event>
<event>
 6    0  0.8641190E+002  0.7069954E+02  0.7546771E-02  0.1357730E+00
         21   -1    0    0  504  501  0.00000000000E+00  0.00000000000E+00  0.71655861507E+03  0.71655861507E+03  0.00000000000E+00 0. -1.
         21   -1    0    0  503  502 -0.00000000000E+00 -0.00000000000E+00 -0.93799894079E+02  0.93799894079E+02  0.00000000000E+00 0. -1.
         21    1    1    2  503  501 -0.10943305078E+03 -0.27192114027E+02  0.39430721979E+03  0.41011362724E+03  0.00000000000E+00 0. -1.
         21    1    1    2  504  506  0.13336370403E+02 -0.30062253762E+02  0.83242608268E+02  0.89503797171E+02  0.00000000000E+00 0. -1.
         21    1    1    2  505  502  0.63788787626E+02  0.26801582689E+02 -0.65577513042E+02  0.95329662112E+02  0.00000000000E+00 0. -1.
         21    1    1    2  506  505  0.32307892750E+02  0.30452785099E+02  0.21078640597E+03  0.21541142262E+03  0.00000000000E+00 0. -1.
<scales pt_clust_3="70.69954" pt_clust_4="32.88766" pt_clust_5="14000.00000" pt_clust_6="42.03696"></scales>
<clustering>
<clus scale="   32.888">  1  4  2 -1</clus>
<clus scale="   42.037">  1  6  2 -1</clus>
<clus scale="   70.700">  1  3  2 -1</clus>
<clus scale="   32.888">  1  3  2 -1</clus>
</clustering>
</event>
<event>
 6    0  0.8641190E+002  0.3464322E+03  0.7546771E-02  0.1064089E+00
         21   -1    0    0  503  501  0.00000000000E+00  0.00000000000E+00  0.64849643281E+03  0.64849643281E+03  0.00000000000E+00 0.  1.
         21   -1    0    0  504  502 -0.00000000000E+00 -0.00000000000E+00 -0.22598458687E+03  0.22598458687E+03  0.00000000000E+00 0.  1.
         21    1    1    2  503  505  0.13772125650E+03  0.11327975733E+03  0.18494504179E+03  0.25691266297E+03  0.00000000000E+00 0.  1.
         21    1    1    2  504  501 -0.32904051369E+01 -0.35446442114E+02 -0.23142416148E+02  0.42459962902E+02  0.00000000000E+00 0.  1.
         21    1    1    2  505  506  0.12619712671E+03  0.12385983822E+03  0.13469002804E+03  0.22227995404E+03  0.00000000000E+00 0.  1.
         21    1    1    2  506  502 -0.26062797807E+03 -0.20169315344E+03  0.12601919225E+03  0.35282843977E+03  0.00000000000E+00 0.  1.
<scales pt_clust_3="39.29331" pt_clust_4="35.59883" pt_clust_5="39.29331" pt_clust_6="344.15745"></scales>
<clustering>
<clus scale="   35.599">  2  4  1 -1</clus>
<clus scale="   39.293">  3  5 -1 -1</clus>
<clus scale="  344.157">  2  6  1 -1</clus>
<clus scale="  346.432">  1  3  2 -1</clus>
</clustering>
</event>
<event>
 6    0  0.8641190E+002  0.1015751E+03  0.7546771E-02  0.1277018E+00
         21   -1    0    0  504  501  0.00000000000E+00  0.00000000000E+00  0.14085760394E+03  0.14085760394E+03  0.00000000000E+00 0. -1.
         21   -1    0    0  506  502 -0.00000000000E+00 -0.00000000000E+00 -0.15216808114E+04  0.15216808114E+04  0.00000000000E+00 0. -1.
         21    1    1    2  503  501  0.55973827519E+02 -0.88231611769E+02  0.11152007343E+03  0.15282216285E+03  0.00000000000E+00 0. -1.
         21    1    1    2  504  502  0.37264880036E+02  0.42867784168E+02 -0.90223382394E+03  0.90402001707E+03  0.00000000000E+00 0. -1.
         21    1    1    2  505  503 -0.90873539257E+02  0.17940289444E+01 -0.34725291575E+03  0.35895098018E+03  0.00000000000E+00 0. -1.
         21    1    1    2  506  505 -0.23651682980E+01  0.43569798657E+02 -0.24285654116E+03  0.24674525519E+03  0.00000000000E+00 0. -1.
<scales pt_clust_3="14000.00000" pt_clust_4="81.83016" pt_clust_5="101.57512" pt_clust_6="43.63395"></scales>
<clustering>
<clus scale="   43.634">  2  6  1 -1</clus>
<clus scale="   81.830">  2  4  1 -1</clus>
<clus scale="  101.575">  2  5  1 -1</clus>
<clus scale="  101.575">  1  3  2 -1</clus>
</clustering>
</event>
<event>
 6    0  0.8641190E+002  0.7687156E+02  0.7546771E-02  0.1338171E+00
         21   -1    0    0  505  501  0.00000000000E+00  0.00000000000E+00  0.19960762168E+04  0.19960762168E+04  0.00000000000E+00 0. -1.
         21   -1    0    0  503  502 -0.00000000000E+00 -0.00000000000E+00 -0.62636041348E+02  0.62636041348E+02  0.00000000000E+00 0. -1.
         21    1    1    2  503  501  0.29762545341E+02 -0.41703373351E+02  0.88778533449E+02  0.10250174855E+03  0.00000000000E+00 0. -1.
         21    1    1    2  504  506 -0.61237738817E+02  0.11209222758E+03  0.81216685165E+02  0.15136339746E+03  0.00000000000E+00 0. -1.
         21    1    1    2  505  504  0.30353853716E+02 -0.15536640255E+02  0.17473341855E+04  0.17476668731E+04  0.00000000000E+00 0. -1.
         21    1    1    2  506  502  0.11213397593E+01 -0.54852213978E+02  0.16110771349E+02  0.57180239022E+02  0.00000000000E+00 0. -1.
<scales pt_clust_3="76.87156" pt_clust_4="14000.00000" pt_clust_5="34.09903" pt_clust_6="57.41603"></scales>
<clustering>
<clus scale="   34.099">  1  5  2 -1</clus>
<clus scale="   57.416">  2  6  1 -1</clus>
<clus scale="   76.872">  1  3  2 -1</clus>
<clus scale="   34.099">  1  3  2 -1</clus>
</clustering>
</event>
<event>
 6    0  0.8641190E+002  0.8133542E+02  0.7546771E-02  0.1325304E+00
         21   -1    0    0  504  501  0.00000000000E+00  0.00000000000E+00  0.14779848327E+04  0.14779848327E+04  0.00000000000E+00 0.  1.
         21   -1    0    0  506  502 -0.00000000000E+00 -0.00000000000E+00 -0.49101495945E+03  0.49101495945E+03  0.00000000000E+00 0.  1.
         21    1    1    2  503  501  0.36625776720E+02  0.22642300845E+02  0.29422356771E+03  0.29735774600E+03  0.00000000000E+00 0.  1.
         21    1    1    2  504  505 -0.62982858953E+02 -0.72231115991E+02  0.76065661685E+03  0.76666985294E+03  0.00000000000E+00 0.  1.
         21    1    1    2  505  502  0.13566112218E+02 -0.60980085528E+02 -0.47696788519E+03  0.48104155094E+03  0.00000000000E+00 0.  1.
         21    1    1    2  506  503  0.12790970015E+02  0.11056890067E+03  0.40905757383E+03  0.42393064223E+03  0.00000000000E+00 0.  1.
<scales pt_clust_3="43.05951" pt_clust_4="14000.00000" pt_clust_5="62.44654" pt_clust_6="81.33542"></scales>
<clustering>
<clus scale="   43.060">  1  3  2 -1</clus>
<clus scale="   62.447">  2  5  1 -1</clus>
<clus scale="   81.335">  2  6  1 -1</clus>
<clus scale="   43.060">  1  3  2 -1</clus>
</clustering>
</event>
<event>
 6    0  0.8641190E+002  0.1929877E+03  0.7546771E-02  0.1155794E+00
         21   -1    0    0  504  501  0.00000000000E+00  0.00000000000E+00  0.53036992447E+03  0.53036992447E+03  0.00000000000E+00 0. -1.
         21   -1    0    0  503  502 -0.00000000000E+00 -0.00000000000E+00 -0.17104699216E+03  0.17104699216E+03  0.00000000000E+00 0. -1.
         21    1    1    2  503  505  0.81709663683E+02 -0.87157721333E+02  0.46180422577E+02  0.12808422603E+03  0.00000000000E+00 0. -1.
         21    1    1    2  504  506 -0.16623357551E+03  0.86499788629E+02  0.37229868303E+03  0.41679986138E+03  0.00000000000E+00 0. -1.
         21    1    1    2  505  501  0.67469312382E+02 -0.40730940324E+02  0.42404558551E+01  0.78924641772E+02  0.00000000000E+00 0. -1.
         21    1    1    2  506  502  0.17054599441E+02  0.41388873028E+02 -0.63396629155E+02  0.77608187460E+02  0.00000000000E+00 0. -1.
<scales pt_clust_3="33.49317" pt_clust_4="188.53044" pt_clust_5="33.49317" pt_clust_6="44.76492"></scales>
<clustering>
<clus scale="   33.493">  3  5 -1 -1</clus>
<clus scale="   44.765">  2  6  1 -1</clus>
<clus scale="  188.530">  1  4  2 -1</clus>
<clus scale="  188.530">  1  3  2 -1</clus>
</clustering>
</event>
<event>
 6    0  0.8641190E+002  0.1379050E+03  0.7546771E-02  0.1216176E+00
         21   -1    0    0  504  501  0.00000000000E+00  0.00000000000E+00  0.16398731088E+03  0.16398731088E+03  0.00000000000E+00 0.  1.
         21   -1    0    0  503  502 -0.00000000000E+00 -0.00000000000E+00 -0.15334108552E+04  0.15334108552E+04  0.00000000000E+00 0.  1.
         21    1    1    2  503  505  0.97462539154E+02  0.26839079782E+02 -0.91875122261E+03  0.92429599793E+03  0.00000000000E+00 0.  1.
         21    1    1    2  504  506 -0.68244622354E+02  0.82660934180E+02 -0.47494346459E+03  0.48688956969E+03  0.00000000000E+00 0.  1.
         21    1    1    2  505  501 -0.71982647616E+02 -0.12029041285E+03  0.11760562811E+03  0.18298188092E+03  0.00000000000E+00 0.  1.
         21    1    1    2  506  502  0.42764730817E+02  0.10790398886E+02 -0.93334485205E+02  0.10323071751E+03  0.00000000000E+00 0. -1.
<scales pt_clust_3="14000.00000" pt_clust_4="101.73698" pt_clust_5="137.90496" pt_clust_6="44.10504"></scales>
<clustering>
<clus scale="   44.105">  2  6  1 -1</clus>
<clus scale="  101.737">  2  4  1 -1</clus>
<clus scale="  137.905">  1  5  2 -1</clus>
<clus scale="  137.905">  1  3  2 -1</clus>
</clustering>
</event>
<event>
 6    0  0.8641190E+002  0.1012181E+03  0.7546771E-02  0.1277755E+00
         21   -1    0    0  504  501  0.00000000000E+00  0.00000000000E+00  0.13852460503E+04  0.13852460503E+04  0.00000000000E+00 0.  1.
         21   -1    0    0  506  502 -0.00000000000E+00 -0.00000000000E+00 -0.16377020716E+02  0.16377020716E+02  0.00000000000E+00 0.  1.
         21    1    1    2  503  502  0.38195749952E+02 -0.57974093175E+02  0.48768307094E+03  0.49259992740E+03  0.00000000000E+00 0.  1.
         21    1    1    2  504  503  0.23041478451E+02 -0.61074093935E+02  0.23078283568E+03  0.23983676100E+03  0.00000000000E+00 0.  1.
         21    1    1    2  505  501 -0.62436359115E+02  0.42186155193E+02  0.40754887450E+03  0.41445633755E+03  0.00000000000E+00 0.  1.
         21    1    1    2  506  505  0.11991307118E+01  0.76862031917E+02  0.24285424846E+03  0.25473004507E+03  0.00000000000E+00 0.  1.
<scales pt_clust_3="46.98348" pt_clust_4="46.98348" pt_clust_5="75.35231" pt_clust_6="88.86693"></scales>
<clustering>
<clus scale="   46.983">  3  4 -1 -1</clus>
<clus scale="   75.352">  1  5  2 -1</clus>
<clus scale="   88.867">  2  6  1 -1</clus>
<clus scale="   75.352">  1  3  2 -1</clus>
</clustering>
</event>
<event>
 6    0  0.8641190E+002  0.1338401E+03  0.7546771E-02  0.1221866E+00
         21   -1    0    0  505  501  0.00000000000E+00  0.00000000000E+00  0.53156787531E+02  0.53156787531E+02  0.00000000000E+00 0.  1.
         21   -1    0    0  503  502 -0.00000000000E+00 -0.00000000000E+00 -0.13085427149E+04  0.13085427149E+04  0.00000000000E+00 0.  1.
         21    1    1    2  503  504 -0.17215545055E+01 -0.34501907740E+02 -0.30338739652E+03  0.30534776527E+03  0.00000000000E+00 0.  1.
         21    1    1    2  504  506 -0.13173968735E+03  0.16443269972E+02 -0.56875410089E+03  0.58404362305E+03  0.00000000000E+00 0.  1.
         21    1    1    2  505  502  0.86962637469E+01  0.69093686993E+02 -0.31231857568E+03  0.31998821119E+03  0.00000000000E+00 0.  1.
         21    1    1    2  506  501  0.12476497811E+03 -0.51035049226E+02 -0.70925854235E+02  0.15231990287E+03  0.00000000000E+00 0.  1.
<scales pt_clust_3="34.54483" pt_clust_4="133.84014" pt_clust_5="58.79930" pt_clust_6="14000.00000"></scales>
<clustering>
<clus scale="   34.545">  2  3  1 -1</clus>
<clus scale="   58.799">  2  5  1 -1</clus>
<clus scale="  133.840">  2  4  1 -1</clus>
<clus scale="  133.840">  1  3  2 -1</clus>
</clustering>
</event>
<event>
 6    0  0.8641190E+002  0.1165109E+03  0.7546771E-02  0.1248966E+00
         21   -1    0    0  506  501  0.00000000000E+00  0.00000000000E+00  0.44049857770E+03  0.44049857770E+03  0.00000000000E+00 0.  1.
         21   -1    0    0  505  502 -0.00000000000E+00 -0.00000000000E+00 -0.39332611877E+03  0.39332611877E+03  0.00000000000E+00 0.  1.
         21    1    1    2  503  502  0.70279221858E+02  0.51860911080E+02  0.33159984135E+01  0.87405485917E+02  0.00000000000E+00 0.  1.
         21    1    1    2  504  501 -0.24418860254E+02 -0.15048016021E+03 -0.17053370321E+03  0.22874069005E+03  0.00000000000E+00 0.  1.
         21    1    1    2  505  504 -0.79715649361E+02  0.81707774710E+02 -0.12897384414E+03  0.17223529741E+03  0.00000000000E+00 0.  1.
         21    1    1    2  506  503  0.33855287757E+02  0.16911474421E+02  0.34336400787E+03  0.34544322309E+03  0.00000000000E+00 0.  1.
<scales pt_clust_3="104.98629" pt_clust_4="116.51093" pt_clust_5="14000.00000" pt_clust_6="37.84413"></scales>
<clustering>
<clus scale="   37.844">  1  6  2 -1</clus>
<clus scale="  104.986">  1  3  2 -1</clus>
<clus scale="  116.511">  1  4  2 -1</clus>
<clus scale="   37.844">  1  3  2 -1</clus>
</clustering>
</event>
<event>
 6    0  0.8641190E+002  0.1096843E+03  0.7546771E-02  0.1261156E+00
         21   -1    0    0  503  501  0.00000000000E+00  0.00000000000E+00  0.95089191400E+02  0.95089191400E+02  0.00000000000E+00 0.  1.
         21   -1    0    0  506  502 -0.00000000000E+00 -0.00000000000E+00 -0.59746852727E+03  0.59746852727E+03  0.00000000000E+00 0.  1.
         21    1    1    2  503  502 -0.11593868860E+03 -0.27140205133E+02  0.34567959513E+02  0.12398916918E+03  0.00000000000E+00 0.  1.
         21    1    1    2  504  501  0.51544670924E+02  0.27510415729E+02 -0.24935688560E+03  0.25611039118E+03  0.00000000000E+00 0.  1.
         21    1    1    2  505  504  0.33163121519E+02  0.27198519223E+02 -0.32043886367E+02  0.53538422934E+02  0.00000000000E+00 0. -1.
         21    1    1    2  506  505  0.31230896155E+02 -0.27568729819E+02 -0.25554652341E+03  0.25891973537E+03  0.00000000000E+00 0.  1.
<scales pt_clust_3="109.68428" pt_clust_4="14000.00000" pt_clust_5="44.03310" pt_clust_6="41.65818"></scales>
<clustering>
<clus scale="   41.658">  2  6  1 -1</clus>
<clus scale="   44.033">  2  5  1 -1</clus>
<clus scale="  109.684">  1  3  2 -1</clus>
<clus scale="  109.684">  1  3  2 -1</clus>
</clustering>
</event>
<event>
 6    0  0.8641190E+002  0.1642655E+03  0.7546771E-02  0.1183964E+00
         21   -1    0    0  503  501  0.00000000000E+00  0.00000000000E+00  0.77171639474E+02  0.77171639474E+02  0.00000000000E+00 0. -1.
         21   -1    0    0  504  502 -0.00000000000E+00 -0.00000000000E+00 -0.98576753720E+03  0.98576753720E+03  0.00000000000E+00 0.  1.
         21    1    1    2  503  506  0.40992884333E+02 -0.13551730207E+02 -0.69304384292E+02  0.81652701362E+02  0.00000000000E+00 0. -1.
         21    1    1    2  504  501 -0.81916535295E+02 -0.13488886858E+03 -0.36700197021E+02  0.16202539950E+03  0.00000000000E+00 0. -1.
         21    1    1    2  505  502  0.42921986820E+02  0.10151877944E+03 -0.65985383149E+03  0.66899584338E+03  0.00000000000E+00 0.  1.
         21    1    1    2  506  505 -0.19983358575E+01  0.46921819343E+02 -0.14273748493E+03  0.15026523244E+03  0.00000000000E+00 0.  1.
<scales pt_clust_3="43.17483" pt_clust_4="153.80707" pt_clust_5="37.64876" pt_clust_6="37.64876"></scales>
<clustering>
<clus scale="   37.649">  5  6 -1 -1</clus>
<clus scale="   43.175">  1  3  2 -1</clus>
<clus scale="  153.807">  1  4  2 -1</clus>
<clus scale="   43.175">  1  3  2 -1</clus>
</clustering>
</event>
<event>
 6    0  0.8641190E+002  0.1049304E+03  0.7546771E-02  0.1270257E+00
         21   -1    0    0  506  501  0.00000000000E+00  0.00000000000E+00  0.12697127308E+04  0.12697127308E+04  0.00000000000E+00 0. -1.
         21   -1    0    0  503  502 -0.00000000000E+00 -0.00000000000E+00 -0.31507280888E+03  0.31507280888E+03  0.00000000000E+00 0. -1.
         21    1    1    2  503  504 -0.74097155007E+02 -0.97905911829E+02 -0.19784479687E+03  0.23284870538E+03  0.00000000000E+00 0. -1.
         21    1    1    2  504  501  0.89287012185E+02  0.97489993211E+02  0.15012771087E+02  0.13304830934E+03  0.00000000000E+00 0. -1.
         21    1    1    2  505  502  0.15464582168E+02  0.28468450822E+02 -0.33835109133E+02  0.46844643278E+02  0.00000000000E+00 0.  1.
         21    1    1    2  506  505 -0.30654439345E+02 -0.28052532204E+02  0.11713070569E+04  0.11720438817E+04  0.00000000000E+00 0. -1.
<scales pt_clust_3="104.93038" pt_clust_4="14000.00000" pt_clust_5="32.39762" pt_clust_6="41.51178"></scales>
<clustering>
<clus scale="   32.398">  2  5  1 -1</clus>
<clus scale="   41.512">  1  6  2 -1</clus>
<clus scale="  104.930">  2  3  1 -1</clus>
<clus scale="   41.512">  1  3  2 -1</clus>
</clustering>
</event>
<event>
 6    0  0.8641190E+002  0.9660075E+02  0.7546771E-02  0.1287611E+00
         21   -1    0    0  503  501  0.00000000000E+00  0.00000000000E+00  0.16181074626E+04  0.16181074626E+04  0.00000000000E+00 0.  1.
         21   -1    0    0  504  502 -0.00000000000E+00 -0.00000000000E+00 -0.21876447927E+03  0.21876447927E+03  0.00000000000E+00 0.  1.
         21    1    1    2  503  502  0.87467674390E+01 -0.12474873407E+03  0.14487472319E+04  0.14541345517E+04  0.00000000000E+00 0.  1.
         21    1    1    2  504  506 -0.74844528364E+02  0.17236031987E+01 -0.17162792591E+03  0.18724534490E+03  0.00000000000E+00 0.  1.
         21    1    1    2  505  501 -0.25044976061E+01  0.30093725527E+02  0.52513982250E+02  0.60577414571E+02  0.00000000000E+00 0.  1.
         21    1    1    2  506  505  0.68602258531E+02  0.92931405348E+02  0.69709695026E+02  0.13491463062E+03  0.00000000000E+00 0.  1.
<scales pt_clust_3="14000.00000" pt_clust_4="74.88051" pt_clust_5="30.19776" pt_clust_6="96.60075"></scales>
<clustering>
<clus scale="   30.198">  1  5  2 -1</clus>
<clus scale="   74.881">  2  4  1 -1</clus>
<clus scale="   96.601">  2  6  1 -1</clus>
<clus scale="   30.198">  1  3  2 -1</clus>
</clustering>
</event>
<event>
 6    0  0.8641190E+002  0.1092145E+03  0.7546771E-02  0.1262031E+00
         21   -1    0    0  505  501  0.00000000000E+00  0.00000000000E+00  0.81472637141E+02  0.81472637141E+02  0.00000000000E+00 0.  1.
         21   -1    0    0  503  502 -0.00000000000E+00 -0.00000000000E+00 -0.58010669564E+03  0.58010669564E+03  0.00000000000E+00 0. -1.
         21    1    1    2  503  504  0.13484130749E+02  0.79102547129E+02 -0.16004709729E+03  0.17903661105E+03  0.00000000000E+00 0. -1.
         21    1    1    2  504  506 -0.50942065566E+02  0.57211981147E+02 -0.11171886696E+03  0.13545999434E+03  0.00000000000E+00 0. -1.
         21    1    1    2  505  502  0.49286667994E+02 -0.58987464424E+02 -0.25314696514E+03  0.26456016813E+03  0.00000000000E+00 0. -1.
         21    1    1    2  506  501 -0.11828733177E+02 -0.77327063852E+02  0.26278870892E+02  0.82522559267E+02  0.00000000000E+00 0.  1.
<scales pt_clust_3="69.54765" pt_clust_4="69.54765" pt_clust_5="76.86805" pt_clust_6="82.83225"></scales>
<clustering>
<clus scale="   69.548">  3  4 -1 -1</clus>
<clus scale="   76.868">  2  5  1 -1</clus>
<clus scale="   82.832">  1  6  2 -1</clus>
<clus scale="   82.832">  1  3  2 -1</clus>
</clustering>
</event>
<event>
 6    0  0.8641190E+002  0.1353148E+03  0.7546771E-02  0.1219776E+00
         21   -1    0    0  506  501  0.00000000000E+00  0.00000000000E+00  0.55209839911E+02  0.55209839911E+02  0.00000000000E+00 0.  1.
         21   -1    0    0  504  502 -0.00000000000E+00 -0.00000000000E+00 -0.10366787830E+04  0.10366787830E+04  0.00000000000E+00 0.  1.
         21    1    1    2  503  505 -0.42953464032E+02 -0.20967740953E+02 -0.55339782224E+02  0.73124125496E+02  0.00000000000E+00 0.  1.
         21    1    1    2  504  503  0.14896204116E+03  0.85986199551E+02 -0.27492287141E+03  0.32429292537E+03  0.00000000000E+00 0.  1.
         21    1    1    2  505  501 -0.70373872083E+02  0.18263326833E+02 -0.54334260311E+02  0.90764766416E+02  0.00000000000E+00 0.  1.
         21    1    1    2  506  502 -0.35634705049E+02 -0.83281785430E+02 -0.59687202917E+03  0.60370680565E+03  0.00000000000E+00 0.  1.
<scales pt_clust_3="36.08609" pt_clust_4="127.78625" pt_clust_5="36.08609" pt_clust_6="90.58525"></scales>
<clustering>
<clus scale="   36.086">  3  5 -1 -1</clus>
<clus scale="   90.585">  2  6  1 -1</clus>
<clus scale="  127.786">  2  4  1 -1</clus>
<clus scale="  135.315">  1  3  2 -1</clus>
</clustering>
</event>
<event>
 6    0  0.8641190E+002  0.2010833E+03  0.7546771E-02  0.1148828E+00
         21   -1    0    0  506  501  0.00000000000E+00  0.00000000000E+00  0.68312912722E+02  0.68312912722E+02  0.00000000000E+00 0.  1.
         21   -1    0    0  503  502 -0.00000000000E+00 -0.00000000000E+00 -0.11968523021E+04  0.11968523021E+04  0.00000000000E+00 0.  1.
         21    1    1    2  503  504  0.10368345030E+02  0.44110388484E+02 -0.21154465554E+03  0.21634317701E+03  0.00000000000E+00 0.  1.
         21    1    1    2  504  505  0.72049072536E+02  0.84572944689E+02 -0.21619961621E+03  0.24307596730E+03  0.00000000000E+00 0.  1.
         21    1    1    2  505  501  0.62124128153E+02  0.55131781988E+02 -0.19332589479E+02  0.85279948991E+02  0.00000000000E+00 0.  1.
         21    1    1    2  506  502 -0.14454154572E+03 -0.18381511516E+03 -0.68146252816E+03  0.72046612154E+03  0.00000000000E+00 0.  1.
<scales pt_clust_3="44.00869" pt_clust_4="44.00869" pt_clust_5="83.05974" pt_clust_6="188.90667"></scales>
<clustering>
<clus scale="   44.009">  3  4 -1 -1</clus>
<clus scale="   83.060">  1  5  2 -1</clus>
<clus scale="  188.907">  1  6  2 -1</clus>
<clus scale="   83.060">  1  3  2 -1</clus>
</clustering>
</event>
<event>
 6    0  0.8641190E+002  0.1880935E+03  0.7546771E-02  0.1160192E+00
         21   -1    0    0  506  501  0.00000000000E+00  0.00000000000E+00  0.69084011658E+03  0.69084011658E+03  0.00000000000E+00 0.  1.
         21   -1    0    0  501  502 -0.00000000000E+00 -0.00000000000E+00 -0.51314179098E+02  0.51314179098E+02  0.00000000000E+00 0.  1.
         21    1    1    2  503  505  0.18999667260E+02  0.45585211806E+02  0.76860429119E+02  0.91359315101E+02  0.00000000000E+00 0.  1.
         21    1    1    2  504  503  0.50179956581E+02 -0.63644449576E+02  0.12842524140E+03  0.15186074751E+03  0.00000000000E+00 0.  1.
         21    1    1    2  505  502 -0.56590465710E+02  0.12044419519E+03  0.17445078095E+03  0.21941367309E+03  0.00000000000E+00 0.  1.
         21    1    1    2  506  504 -0.12589158131E+02 -0.10238495742E+03  0.25978948601E+03  0.27952055998E+03  0.00000000000E+00 0.  1.
<scales pt_clust_3="40.60923" pt_clust_4="70.91248" pt_clust_5="182.81829" pt_clust_6="70.91248"></scales>
<clustering>
<clus scale="   40.609">  3  5 -1 -1</clus>
<clus scale="   70.912">  4  6 -1 -1</clus>
<clus scale="  182.818">  2  3  1 -1</clus>
<clus scale="  188.093">  1  3  2 -1</clus>
</clustering>
</event>
<event>
 6    0  0.8641190E+002  0.8787537E+02  0.7546771E-02  0.1308080E+00
         21   -1    0    0  505  501  0.00000000000E+00  0.00000000000E+00  0.32779526592E+03  0.32779526592E+03  0.00000000000E+00 0. -1.
         21   -1    0    0  504  502 -0.00000000000E+00 -0.00000000000E+00 -0.53722711750E+03  0.53722711750E+03  0.00000000000E+00 0.  1.
         21    1    1    2  503  502  0.14484791151E+03  0.40285045328E+02 -0.30322163040E+03  0.33844816367E+03  0.00000000000E+00 0.  1.
         21    1    1    2  504  506 -0.63707707784E+02 -0.21637303045E+02 -0.18866743770E+03  0.20030538426E+03  0.00000000000E+00 0.  1.
         21    1    1    2  505  503 -0.30169418799E+02 -0.21737966293E+02  0.27150956462E+03  0.27404411449E+03  0.00000000000E+00 0. -1.
         21    1    1    2  506  501 -0.50970784931E+02  0.30902240102E+01  0.10947651906E+02  0.52224720997E+02  0.00000000000E+00 0. -1.
<scales pt_clust_3="14000.00000" pt_clust_4="87.87537" pt_clust_5="37.18512" pt_clust_6="68.93359"></scales>
<clustering>
<clus scale="   37.185">  1  5  2 -1</clus>
<clus scale="   68.934">  1  6  2 -1</clus>
<clus scale="   87.875">  2  4  1 -1</clus>
<clus scale="   37.185">  1  3  2 -1</clus>
</clustering>
</event>
<event>
 6    0  0.8641190E+002  0.1178143E+03  0.7546771E-02  0.1246747E+00
         21   -1    0    0  504  501  0.00000000000E+00  0.00000000000E+00  0.10480406339E+03  0.10480406339E+03  0.00000000000E+00 0. -1.
         21   -1    0    0  501  502 -0.00000000000E+00 -0.00000000000E+00 -0.11903326348E+04  0.11903326348E+04  0.00000000000E+00 0. -1.
         21    1    1    2  503  506 -0.11931246369E+03  0.12057683950E+02 -0.11203877216E+03  0.16411440583E+03  0.00000000000E+00 0. -1.
         21    1    1    2  504  503 -0.10483715295E+02 -0.77729419726E+02  0.49741394706E+02  0.92876139695E+02  0.00000000000E+00 0. -1.
         21    1    1    2  505  502  0.41797724230E+02  0.23013097177E+02 -0.66793764639E+03  0.66963971795E+03  0.00000000000E+00 0. -1.
         21    1    1    2  506  505  0.87998454759E+02  0.42658638599E+02 -0.35529354758E+03  0.36850643473E+03  0.00000000000E+00 0. -1.
<scales pt_clust_3="117.81435" pt_clust_4="77.27535" pt_clust_5="47.71428" pt_clust_6="14000.00000"></scales>
<clustering>
<clus scale="   47.714">  2  5  1 -1</clus>
<clus scale="   77.275">  1  4  2 -1</clus>
<clus scale="  117.814">  1  3  2 -1</clus>
<clus scale="   77.275">  1  3  2 -1</clus>
</clustering>
</event>
<event>
 6    0  0.8641190E+002  0.1379967E+03  0.7546771E-02  0.1216050E+00
         21   -1    0    0  505  501  0.00000000000E+00  0.00000000000E+00  0.25783698120E+04  0.25783698120E+04  0.00000000000E+00 0.  1.
         21   -1    0    0  504  502 -0.00000000000E+00 -0.00000000000E+00 -0.73584227218E+02  0.73584227218E+02  0.00000000000E+00 0.  1.
         21    1    1    2  503  506  0.19449148214E+02  0.34456399291E+02  0.64029495548E+03  0.64151628415E+03  0.00000000000E+00 0.  1.
         21    1    1    2  504  501  0.39108493567E+02 -0.13076369577E+02  0.12254971783E+03  0.12930158178E+03  0.00000000000E+00 0. -1.
         21    1    1    2  505  503  0.66334917294E+02  0.13906532233E+02  0.17498043156E+04  0.17511164598E+04  0.00000000000E+00 0.  1.
         21    1    1    2  506  502 -0.12489255907E+03 -0.35286561947E+02 -0.78634041453E+01  0.13001971347E+03  0.00000000000E+00 0.  1.
<scales pt_clust_3="37.57898" pt_clust_4="41.23670" pt_clust_5="37.57898" pt_clust_6="128.93425"></scales>
<clustering>
<clus scale="   37.579">  3  5 -1 -1</clus>
<clus scale="   41.237">  1  4  2 -1</clus>
<clus scale="  128.934">  2  6  1 -1</clus>
<clus scale="   41.237">  1  3  2 -1</clus>
</clustering>
</event>
<event>
 6    0  0.8641190E+002  0.1012640E+03  0.7546771E-02  0.1277660E+00
         21   -1    0    0  505  501  0.00000000000E+00  0.00000000000E+00  0.12176014137E+04  0.12176014137E+04  0.00000000000E+00 0. -1.
         21   -1    0    0  503  502 -0.00000000000E+00 -0.00000000000E+00 -0.42495718181E+03  0.42495718181E+03  0.00000000000E+00 0.  1.
         21    1    1    2  503  506 -0.68911091640E+01 -0.70871222744E+02 -0.38971290576E+03  0.39616456999E+03  0.00000000000E+00 0.  1.
         21    1    1    2  504  502 -0.79822822577E+02  0.52034596580E+01  0.70592772497E+02  0.10668691825E+03  0.00000000000E+00 0. -1.
         21    1    1    2  505  504 -0.29493508663E+02 -0.67599111869E+02  0.30435850247E+03  0.31316705607E+03  0.00000000000E+00 0.  1.
         21    1    1    2  506  501  0.11620744040E+03  0.13326687495E+03  0.80740586272E+03  0.82654005125E+03  0.00000000000E+00 0. -1.
<scales pt_clust_3="71.20546" pt_clust_4="101.26399" pt_clust_5="83.12253" pt_clust_6="14000.00000"></scales>
<clustering>
<clus scale="   71.205">  2  3  1 -1</clus>
<clus scale="   83.123">  1  5  2 -1</clus>
<clus scale="  101.264">  2  4  1 -1</clus>
<clus scale="   83.123">  1  3  2 -1</clus>
</clustering>
</event>
<event>
 6    0  0.8641190E+002  0.1184060E+03  0.7546771E-02  0.1245750E+00
         21   -1    0    0  503  501  0.00000000000E+00  0.00000000000E+00  0.22481461126E+03  0.22481461126E+03  0.00000000000E+00 0. -1.
         21   -1    0    0  504  502 -0.00000000000E+00 -0.00000000000E+00 -0.14337229805E+03  0.14337229805E+03  0.00000000000E+00 0. -1.
         21    1    1    2  503  506  0.75198584124E+02 -0.25621135696E+02  0.72846720152E+02  0.10778642904E+03  0.00000000000E+00 0. -1.
         21    1    1    2  504  505 -0.11187097940E+03 -0.84282864147E+01 -0.56368542879E+02  0.12555303529E+03  0.00000000000E+00 0. -1.
         21    1    1    2  505  501  0.22512568324E+02  0.72713886091E+02  0.34204716858E+02  0.83451109150E+02  0.00000000000E+00 0. -1.
         21    1    1    2  506  502  0.14159826950E+02 -0.38664463980E+02  0.30759419078E+02  0.51396335824E+02  0.00000000000E+00 0. -1.
<scales pt_clust_3="35.90546" pt_clust_4="107.39009" pt_clust_5="76.11915" pt_clust_6="35.90546"></scales>
<clustering>
<clus scale="   35.905">  3  6 -1 -1</clus>
<clus scale="   76.119">  1  5  2 -1</clus>
<clus scale="  107.390">  2  4  1 -1</clus>
<clus scale="   76.119">  1  3  2 -1</clus>
</clustering>
</event>
<event>
 6    0  0.8641190E+002  0.8412568E+02  0.7546771E-02  0.1317735E+00
         21   -1    0    0  506  501  0.00000000000E+00  0.00000000000E+00  0.85370021537E+03  0.85370021537E+03  0.00000000000E+00 0.  1.
         21   -1    0    0  504  502 -0.00000000000E+00 -0.00000000000E+00 -0.16927706895E+03  0.16927706895E+03  0.00000000000E+00 0.  1.
         21    1    1    2  503  501  0.40072107302E+02  0.18327105278E+02  0.74792678020E+03  0.74922368163E+03  0.00000000000E+00 0.  1.
         21    1    1    2  504  505  0.89609760900E+02 -0.14279328487E+02 -0.79264765852E+02  0.12048531685E+03  0.00000000000E+00 0.  1.
         21    1    1    2  505  503 -0.93580976262E+02 -0.25706640797E+02 -0.18736535697E+02  0.98839709981E+02  0.00000000000E+00 0.  1.
         21    1    1    2  506  502 -0.36100891940E+02  0.21658864006E+02  0.34497667774E+02  0.54428575866E+02  0.00000000000E+00 0.  1.
<scales pt_clust_3="43.96750" pt_clust_4="84.12568" pt_clust_5="14000.00000" pt_clust_6="42.09965"></scales>
<clustering>
<clus scale="   42.100">  2  6  1 -1</clus>
<clus scale="   43.967">  1  3  2 -1</clus>
<clus scale="   84.126">  2  4  1 -1</clus>
<clus scale="   43.967">  1  3  2 -1</clus>
</clustering>
</event>
<event>
 6    0  0.8641190E+002  0.1437738E+03  0.7546771E-02  0.1208339E+00
         21   -1    0    0  505  501  0.00000000000E+00  0.00000000000E+00  0.87252181877E+03  0.87252181877E+03  0.00000000000E+00 0. -1.
         21   -1    0    0  503  502 -0.00000000000E+00 -0.00000000000E+00 -0.32049939826E+02  0.32049939826E+02  0.00000000000E+00 0. -1.
         21    1    1    2  503  501  0.10376156057E+03 -0.95693155253E+02  0.24125830874E+03  0.27951603344E+03  0.00000000000E+00 0. -1.
         21    1    1    2  504  502  0.10557032746E+02  0.31983723392E+02  0.77249077245E+02  0.84272352748E+02  0.00000000000E+00 0. -1.
         21    1    1    2  505  506 -0.38829148386E+02  0.16381722491E+02  0.85555968112E+02  0.95372361173E+02  0.00000000000E+00 0.  1.
         21    1    1    2  506  504 -0.75489444931E+02  0.47327709370E+02  0.43640852485E+03  0.44541101124E+03  0.00000000000E+00 0. -1.
<scales pt_clust_3="133.41216" pt_clust_4="33.68100" pt_clust_5="36.93726" pt_clust_6="36.93726"></scales>
<clustering>
<clus scale="   33.681">  2  4  1 -1</clus>
<clus scale="   36.937">  5  6 -1 -1</clus>
<clus scale="  133.412">  2  3  1 -1</clus>
<clus scale="  143.774">  1  3  2 -1</clus>
</clustering>
</event>
<event>
 6    0  0.8641190E+002  0.1392379E+03  0.7546771E-02  0.1214358E+00
         21   -1    0    0  506  501  0.00000000000E+00  0.00000000000E+00  0.26850182771E+03  0.26850182771E+03  0.00000000000E+00 0. -1.
         21   -1    0    0  503  502 -0.00000000000E+00 -0.00000000000E+00 -0.22810849343E+03  0.22810849343E+03  0.00000000000E+00 0. -1.
         21    1    1    2  503  505  0.74879560884E+01  0.46652167771E+02 -0.33369064007E+02  0.57844521580E+02  0.00000000000E+00 0. -1.
         21    1    1    2  504  501  0.85176524222E+01  0.74365446378E+02  0.86754468939E+02  0.11458231931E+03  0.00000000000E+00 0. -1.
         21    1    1    2  505  504 -0.14482563865E+03 -0.38072565157E+02  0.50929387944E+02  0.15817012481E+03  0.00000000000E+00 0. -1.
         21    1    1    2  506  502  0.12882003014E+03 -0.82945048992E+02 -0.63921458595E+02  0.16601335544E+03  0.00000000000E+00 0. -1.
<scales pt_clust_3="47.24928" pt_clust_4="78.45044" pt_clust_5="14000.00000" pt_clust_6="139.23788"></scales>
<clustering>
<clus scale="   47.249">  2  3  1 -1</clus>
<clus scale="   78.450">  1  4  2 -1</clus>
<clus scale="  139.238">  2  6  1 -1</clus>
<clus scale="   78.450">  1  3  2 -1</clus>
</clustering>
</event>
<event>
 6    0  0.8641190E+002  0.1038431E+03  0.7546771E-02  0.1272416E+00
         21   -1    0    0  504  501  0.00000000000E+00  0.00000000000E+00  0.31149431155E+03  0.31149431155E+03  0.00000000000E+00 0.  1.
         21   -1    0    0  506  502 -0.00000000000E+00 -0.00000000000E+00 -0.75043040448E+03  0.75043040448E+03  0.00000000000E+00 0.  1.
         21    1    1    2  503  505 -0.10118366170E+03 -0.44278500497E+02 -0.15446251257E+03  0.18988782686E+03  0.00000000000E+00 0. -1.
         21    1    1    2  504  502  0.51949798347E+02  0.15745758276E+02  0.53839064554E+02  0.76454923478E+02  0.00000000000E+00 0.  1.
         21    1    1    2  505  501  0.55551516156E+02 -0.45222769216E+01  0.22472804785E+03  0.23153642786E+03  0.00000000000E+00 0.  1.
         21    1    1    2  506  503 -0.63176528023E+01  0.33055019143E+02 -0.56304069277E+03  0.56404553783E+03  0.00000000000E+00 0.  1.
<scales pt_clust_3="14000.00000" pt_clust_4="54.53554" pt_clust_5="103.84310" pt_clust_6="33.65334"></scales>
<clustering>
<clus scale="   33.653">  2  6  1 -1</clus>
<clus scale="   54.536">  1  4  2 -1</clus>
<clus scale="  103.843">  1  5  2 -1</clus>
<clus scale="   54.536">  1  3  2 -1</clus>
</clustering>
</event>
<event>
 6    0  0.8641190E+002  0.8755590E+02  0.7546771E-02  0.1308881E+00
         21   -1    0    0  506  501  0.00000000000E+00  0.00000000000E+00  0.45479882676E+03  0.45479882676E+03  0.00000000000E+00 0.  1.
         21   -1    0    0  503  502 -0.00000000000E+00 -0.00000000000E+00 -0.52567211074E+02  0.52567211074E+02  0.00000000000E+00 0.  1.
         21    1    1    2  503  501  0.39356025117E+02 -0.38805899562E+01  0.11419787701E+03  0.12085160655E+03  0.00000000000E+00 0.  1.
         21    1    1    2  504  502 -0.36221291712E+02 -0.53246776995E+02  0.53324550856E+02  0.83610459619E+02  0.00000000000E+00 0.  1.
         21    1    1    2  505  504  0.31946650731E+02 -0.52128337436E+02  0.29713325753E+02  0.67976715014E+02  0.00000000000E+00 0.  1.
         21    1    1    2  506  505 -0.35081384136E+02  0.10925570439E+03  0.20499586206E+03  0.23492725665E+03  0.00000000000E+00 0.  1.
<scales pt_clust_3="39.54688" pt_clust_4="60.96535" pt_clust_5="87.55590" pt_clust_6="14000.00000"></scales>
<clustering>
<clus scale="   39.547">  1  3  2 -1</clus>
<clus scale="   60.965">  2  4  1 -1</clus>
<clus scale="   87.556">  2  5  1 -1</clus>
<clus scale="   39.547">  1  3  2 -1</clus>
</clustering>
</event>
<event>
 6    0  0.8641190E+002  0.2218283E+03  0.7546771E-02  0.1132527E+00
         21   -1    0    0  506  501  0.00000000000E+00  0.00000000000E+00  0.61895300405E+03  0.61895300405E+03  0.00000000000E+00 0.  1.
         21   -1    0    0  504  502 -0.00000000000E+00 -0.00000000000E+00 -0.17202012778E+04  0.17202012778E+04  0.00000000000E+00 0.  1.
         21    1    1    2  503  501 -0.13358663257E+03 -0.10701464293E+03 -0.94345152743E+02  0.19544444236E+03  0.00000000000E+00 0.  1.
         21    1    1    2  504  503 -0.29996374658E+01 -0.37608108167E+02 -0.14057476587E+03  0.14554941575E+03  0.00000000000E+00 0. -1.
         21    1    1    2  505  502  0.18718098738E+03  0.17591955584E+03 -0.14191178275E+04  0.14421788448E+04  0.00000000000E+00 0.  1.
         21    1    1    2  506  505 -0.50594717343E+02 -0.31296804744E+02  0.55278947233E+03  0.55598157894E+03  0.00000000000E+00 0.  1.
<scales pt_clust_3="221.82828" pt_clust_4="37.72754" pt_clust_5="14000.00000" pt_clust_6="59.51476"></scales>
<clustering>
<clus scale="   37.728">  2  4  1 -1</clus>
<clus scale="   59.515">  1  6  2 -1</clus>
<clus scale="  221.828">  1  3  2 -1</clus>
<clus scale="   59.515">  1  3  2 -1</clus>
</clustering>
</event>
<event>
 6    0  0.8641190E+002  0.8102931E+02  0.7546771E-02  0.1326156E+00
         21   -1    0    0  503  501  0.00000000000E+00  0.00000000000E+00  0.11438652601E+03  0.11438652601E+03  0.00000000000E+00 0.  1.
         21   -1    0    0  506  502 -0.00000000000E+00 -0.00000000000E+00 -0.26980331798E+03  0.26980331798E+03  0.00000000000E+00 0.  1.
         21    1    1    2  503  502 -0.52446920273E+02 -0.98410492079E+02  0.52417738440E+02  0.12321900706E+03  0.00000000000E+00 0.  1.
         21    1    1    2  504  501  0.33409845752E+02  0.64317986235E+01 -0.10515943265E+02  0.35611387076E+02  0.00000000000E+00 0.  1.
         21    1    1    2  505  504 -0.15387857805E+02  0.52916716397E+02 -0.81586823363E+02  0.98454937858E+02  0.00000000000E+00 0.  1.
         21    1    1    2  506  505  0.34424932327E+02  0.39061977058E+02 -0.11573176378E+03  0.12690451200E+03  0.00000000000E+00 0.  1.
<scales pt_clust_3="81.02931" pt_clust_4="34.02331" pt_clust_5="14000.00000" pt_clust_6="53.55504"></scales>
<clustering>
<clus scale="   34.023">  1  4  2 -1</clus>
<clus scale="   53.555">  2  6  1 -1</clus>
<clus scale="   81.029">  1  3  2 -1</clus>
<clus scale="   34.023">  1  3  2 -1</clus>
</clustering>
</event>
<event>
 6    0  0.8641190E+002  0.1034611E+03  0.7546771E-02  0.1273182E+00
         21   -1    0    0  505  501  0.00000000000E+00  0.00000000000E+00  0.63957305811E+03  0.63957305811E+03  0.00000000000E+00 0. -1.
         21   -1    0    0  504  502 -0.00000000000E+00 -0.00000000000E+00 -0.15970032478E+03  0.15970032478E+03  0.00000000000E+00 0.  1.
         21    1    1    2  503  502 -0.97203978775E+02  0.41736567679E+01 -0.12222410122E+03  0.15622024139E+03  0.00000000000E+00 0.  1.
         21    1    1    2  504  501 -0.82622343631E+01  0.71869136850E+02  0.35094653575E+03  0.35832514328E+03  0.00000000000E+00 0. -1.
         21    1    1    2  505  506  0.44647477854E+02 -0.41680883091E+02  0.14842997576E+03  0.16050592200E+03  0.00000000000E+00 0. -1.
         21    1    1    2  506  503  0.60818735284E+02 -0.34361910527E+02  0.10272032303E+03  0.12422207622E+03  0.00000000000E+00 0. -1.
<scales pt_clust_3="98.06257" pt_clust_4="72.34250" pt_clust_5="30.84259" pt_clust_6="30.84259"></scales>
<clustering>
<clus scale="   30.843">  5  6 -1 -1</clus>
<clus scale="   72.343">  1  4  2 -1</clus>
<clus scale="   98.063">  2  3  1 -1</clus>
<clus scale="   72.343">  1  3  2 -1</clus>
</clustering>
</event>
<event>
 6    0  0.8641190E+002  0.1087888E+03  0.7546771E-02  0.1262829E+00
         21   -1    0    0  505  501  0.00000000000E+00  0.00000000000E+00  0.17499597945E+03  0.17499597945E+03  0.00000000000E+00 0. -1.
         21   -1    0    0  506  502 -0.00000000000E+00 -0.00000000000E+00 -0.18576879307E+03  0.18576879307E+03  0.00000000000E+00 0.  1.
         21    1    1    2  503  502 -0.49185348455E+02 -0.40827753036E+02 -0.10583645677E+03  0.12364246642E+03  0.00000000000E+00 0.  1.
         21    1    1    2  504  503 -0.35796381695E+02  0.49633243482E+02  0.22156609963E+02  0.65082679463E+02  0.00000000000E+00 0. -1.
         21    1    1    2  505  504  0.12293066340E+02  0.56443595467E+02  0.21319334736E+02  0.61575262751E+02  0.00000000000E+00 0. -1.
         21    1    1    2  506  501  0.72688663809E+02 -0.65249085913E+02  0.51587698444E+02  0.11046436389E+03  0.00000000000E+00 0. -1.
<scales pt_clust_3="63.92264" pt_clust_4="47.07301" pt_clust_5="47.07301" pt_clust_6="97.40444"></scales>
<clustering>
<clus scale="   47.073">  4  5 -1 -1</clus>
<clus scale="   63.923">  2  3  1 -1</clus>
<clus scale="   97.404">  1  6  2 -1</clus>
<clus scale="   97.404">  1  3  2 -1</clus>
</clustering>
</event>
<event>
 6    0  0.8641190E+002  0.1061768E+03  0.7546771E-02  0.1267818E+00
         21   -1    0    0  505  501  0.00000000000E+00  0.00000000000E+00  0.26861035249E+03  0.26861035249E+03  0.00000000000E+00 0.  1.
         21   -1    0    0  503  502 -0.00000000000E+00 -0.00000000000E+00 -0.29731030138E+04  0.29731030138E+04  0.00000000000E+00 0. -1.
         21    1    1    2  503  501  0.25011638367E+02  0.11640694157E+03  0.19910065898E+01  0.11908031830E+03  0.00000000000E+00 0. -1.
         21    1    1    2  504  506 -0.60681904690E+02  0.63806399981E+01 -0.53082657605E+03  0.53432186926E+03  0.00000000000E+00 0. -1.
         21    1    1    2  505  504  0.68527137775E+02 -0.88248461438E+02  0.19094320808E+03  0.22123080316E+03  0.00000000000E+00 0.  1.
         21    1    1    2  506  502 -0.32856871452E+02 -0.34539120129E+02 -0.23666002999E+04  0.23670803755E+04  0.00000000000E+00 0. -1.
<scales pt_clust_3="14000.00000" pt_clust_4="92.69541" pt_clust_5="106.17682" pt_clust_6="47.67101"></scales>
<clustering>
<clus scale="   47.671">  2  6  1 -1</clus>
<clus scale="   92.695">  2  4  1 -1</clus>
<clus scale="  106.177">  1  5  2 -1</clus>
<clus scale="  106.177">  1  3  2 -1</clus>
</clustering>
</event>
<event>
 6    0  0.8641190E+002  0.6223308E+02  0.7546771E-02  0.1388692E+00
         21   -1    0    0  506  501  0.00000000000E+00  0.00000000000E+00  0.48282715272E+03  0.48282715272E+03  0.00000000000E+00 0. -1.
         21   -1    0    0  505  502 -0.00000000000E+00 -0.00000000000E+00 -0.25186870125E+03  0.25186870125E+03  0.00000000000E+00 0.  1.
         21    1    1    2  503  502  0.56142877551E+02  0.19854740689E+02 -0.18874793299E+03  0.19791921492E+03  0.00000000000E+00 0.  1.
         21    1    1    2  504  503 -0.74296663526E+02 -0.64849338960E+02  0.48407775417E+01  0.98736336280E+02  0.00000000000E+00 0.  1.
         21    1    1    2  505  501  0.23326808180E+02  0.76997916255E+02  0.38705216772E+03  0.39532543509E+03  0.00000000000E+00 0. -1.
         21    1    1    2  506  504 -0.51730222048E+01 -0.32003317984E+02  0.27813439194E+02  0.42714867675E+02  0.00000000000E+00 0.  1.
<scales pt_clust_3="14000.00000" pt_clust_4="62.23308" pt_clust_5="52.50866" pt_clust_6="32.41871"></scales>
<clustering>
<clus scale="   32.419">  1  6  2 -1</clus>
<clus scale="   52.509">  1  5  2 -1</clus>
<clus scale="   62.233">  1  4  2 -1</clus>
<clus scale="   32.419">  1  3  2 -1</clus>
</clustering>
</event>
<event>
 6    0  0.8641190E+002  0.1350357E+03  0.7546771E-02  0.1220169E+00
         21   -1    0    0  504  501  0.00000000000E+00  0.00000000000E+00  0.18570724573E+03  0.18570724573E+03  0.00000000000E+00 0.  1.
         21   -1    0    0  506  502 -0.00000000000E+00 -0.00000000000E+00 -0.13269401113E+04  0.13269401113E+04  0.00000000000E+00 0. -1.
         21    1    1    2  503  502  0.92717614180E+00  0.74175633534E+02 -0.82370847475E+03  0.82704203983E+03  0.00000000000E+00 0. -1.
         21    1    1    2  504  505 -0.36819507142E+02 -0.13604025330E+03  0.14896660511E+03  0.20506992969E+03  0.00000000000E+00 0.  1.
         21    1    1    2  505  503  0.28595514822E+01  0.77275239100E+02 -0.27811435709E+03  0.28866457218E+03  0.00000000000E+00 0. -1.
         21    1    1    2  506  501  0.33032779518E+02 -0.15410619332E+02 -0.18837663884E+03  0.19187081532E+03  0.00000000000E+00 0. -1.
<scales pt_clust_3="67.73384" pt_clust_4="135.03567" pt_clust_5="14000.00000" pt_clust_6="36.45068"></scales>
<clustering>
<clus scale="   36.451">  2  6  1 -1</clus>
<clus scale="   67.734">  2  3  1 -1</clus>
<clus scale="  135.036">  1  4  2 -1</clus>
<clus scale="  135.036">  1  3  2 -1</clus>
</clustering>
</event>
<event>
 6    0  0.8641190E+002  0.1211911E+03  0.7546771E-02  0.1241145E+00
         21   -1    0    0  503  501  0.00000000000E+00  0.00000000000E+00  0.99356678358E+03  0.99356678358E+03  0.00000000000E+00 0. -1.
         21   -1    0    0  506  502 -0.00000000000E+00 -0.00000000000E+00 -0.15616276005E+03  0.15616276005E+03  0.00000000000E+00 0. -1.
         21    1    1    2  503  505  0.11457812605E+01 -0.56556086154E+02  0.16678034429E+03  0.17611242698E+03  0.00000000000E+00 0. -1.
         21    1    1    2  504  502 -0.37693276858E+02  0.17419100475E+03  0.23972687390E+03  0.29871769838E+03  0.00000000000E+00 0. -1.
         21    1    1    2  505  504  0.63458541446E+02 -0.50917152361E+02  0.53896736623E+03  0.54507372414E+03  0.00000000000E+00 0. -1.
         21    1    1    2  506  501 -0.26911045848E+02 -0.66717766240E+02 -0.10807056089E+03  0.12982569412E+03  0.00000000000E+00 0. -1.
<scales pt_clust_3="56.56769" pt_clust_4="14000.00000" pt_clust_5="121.19114" pt_clust_6="72.62960"></scales>
<clustering>
<clus scale="   56.568">  1  3  2 -1</clus>
<clus scale="   72.630">  2  6  1 -1</clus>
<clus scale="  121.191">  1  5  2 -1</clus>
<clus scale="   56.568">  1  3  2 -1</clus>
</clustering>
</event>
<event>
 6    0  0.8641190E+002  0.1229248E+03  0.7546771E-02  0.1238349E+00
         21   -1    0    0  504  501  0.00000000000E+00  0.00000000000E+00  0.86638223492E+03  0.86638223492E+03  0.00000000000E+00 0.  1.
         21   -1    0    0  506  502 -0.00000000000E+00 -0.00000000000E+00 -0.85468429141E+02  0.85468429141E+02  0.00000000000E+00 0.  1.
         21    1    1    2  503  505  0.12732986378E+03  0.10743409894E+03  0.13055186387E+03  0.21165719687E+03  0.00000000000E+00 0.  1.
         21    1    1    2  504  502 -0.11984365628E+03 -0.70249930501E+02  0.33282789750E+03  0.36065490991E+03  0.00000000000E+00 0.  1.
         21    1    1    2  505  501  0.29300039567E+02  0.54751629417E+02  0.25493416833E+03  0.26238838279E+03  0.00000000000E+00 0. -1.
         21    1    1    2  506  503 -0.36786247063E+02 -0.91935797854E+02  0.62599876080E+02  0.11715017450E+03  0.00000000000E+00 0.  1.
<scales pt_clust_3="14000.00000" pt_clust_4="122.92480" pt_clust_5="62.09858" pt_clust_6="89.90063"></scales>
<clustering>
<clus scale="   62.099">  1  5  2 -1</clus>
<clus scale="   89.901">  2  6  1 -1</clus>
<clus scale="  122.925">  1  4  2 -1</clus>
<clus scale="   62.099">  1  3  2 -1</clus>
</clustering>
</event>
<event>
 6    0  0.8641190E+002  0.8468092E+02  0.7546771E-02  0.1316269E+00
         21   -1    0    0  503  501  0.00000000000E+00  0.00000000000E+00  0.98855903714E+03  0.98855903714E+03  0.00000000000E+00 0.  1.
         21   -1    0    0  506  502 -0.00000000000E+00 -0.00000000000E+00 -0.62899795981E+02  0.62899795981E+02  0.00000000000E+00 0. -1.
         21    1    1    2  503  505  0.45256347888E+02 -0.73318099629E+01  0.18018019444E+03  0.18592147518E+03  0.00000000000E+00 0.  1.
         21    1    1    2  504  501 -0.29498650432E+02  0.87626543727E+02  0.65454253649E+03  0.66104047804E+03  0.00000000000E+00 0.  1.
         21    1    1    2  505  502  0.47064758814E+02  0.20236111078E+02  0.65668015010E+02  0.83287933754E+02  0.00000000000E+00 0. -1.
         21    1    1    2  506  504 -0.62822456270E+02 -0.10053084484E+03  0.25268495223E+02  0.12120894615E+03  0.00000000000E+00 0. -1.
<scales pt_clust_3="45.84640" pt_clust_4="84.68092" pt_clust_5="54.85439" pt_clust_6="14000.00000"></scales>
<clustering>
<clus scale="   45.846">  1  3  2 -1</clus>
<clus scale="   54.854">  2  5  1 -1</clus>
<clus scale="   84.681">  1  4  2 -1</clus>
<clus scale="   45.846">  1  3  2 -1</clus>
</clustering>
</event>
<event>
 6    0  0.8641190E+002  0.2606526E+03  0.7546771E-02  0.1106752E+00
         21   -1    0    0  505  501  0.00000000000E+00  0.00000000000E+00  0.86853509139E+03  0.86853509139E+03  0.00000000000E+00 0.  1.
         21   -1    0    0  506  502 -0.00000000000E+00 -0.00000000000E+00 -0.17707459374E+03  0.17707459374E+03  0.00000000000E+00 0. -1.
         21    1    1    2  503  504  0.11867272174E+03 -0.22066107115E+03  0.18832098072E+03  0.31343151562E+03  0.00000000000E+00 0.  1.
         21    1    1    2  504  502  0.54863712658E+02 -0.31547179850E+02  0.22333187133E+02  0.67112016589E+02  0.00000000000E+00 0.  1.
         21    1    1    2  505  503 -0.18678857689E+02  0.94745667955E+02  0.42696074509E+03  0.43774549588E+03  0.00000000000E+00 0.  1.
         21    1    1    2  506  501 -0.15485757670E+03  0.15746258304E+03  0.53845584705E+02  0.22732065703E+03  0.00000000000E+00 0. -1.
<scales pt_clust_3="41.18245" pt_clust_4="41.18245" pt_clust_5="96.56936" pt_clust_6="247.43784"></scales>
<clustering>
<clus scale="   41.182">  3  4 -1 -1</clus>
<clus scale="   96.569">  1  5  2 -1</clus>
<clus scale="  247.438">  2  6  1 -1</clus>
<clus scale="   96.569">  1  3  2 -1</clus>
</clustering>
</event>
<event>
 6    0  0.8641190E+002  0.3166343E+03  0.7546771E-02  0.1077209E+00
         21   -1    0    0  506  501  0.00000000000E+00  0.00000000000E+00  0.98564045085E+03  0.98564045085E+03  0.00000000000E+00 0. -1.
         21   -1    0    0  505  502 -0.00000000000E+00 -0.00000000000E+00 -0.58971445044E+03  0.58971445044E+03  0.00000000000E+00 0. -1.
         21    1    1    2  503  504 -0.15883722591E+03  0.26693847374E+02  0.15165980118E+03  0.22122956655E+03  0.00000000000E+00 0. -1.
         21    1    1    2  504  501 -0.49175074493E+02 -0.42363912461E+02  0.68295142488E+03  0.68602881702E+03  0.00000000000E+00 0. -1.
         21    1    1    2  505  503 -0.79240320312E+02  0.86088230438E+02  0.23538386490E+02  0.11934935032E+03  0.00000000000E+00 0. -1.
         21    1    1    2  506  502  0.28725262071E+03 -0.70418165351E+02 -0.46222361214E+03  0.54874716740E+03  0.00000000000E+00 0. -1.
<scales pt_clust_3="99.77329" pt_clust_4="64.90677" pt_clust_5="99.77329" pt_clust_6="290.44514"></scales>
<clustering>
<clus scale="   64.907">  1  4  2 -1</clus>
<clus scale="   99.773">  3  5 -1 -1</clus>
<clus scale="  290.445">  2  6  1 -1</clus>
<clus scale="   64.907">  1  3  2 -1</clus>
</clustering>
</event>
<event>
 6    0  0.8641190E+002  0.9225486E+02  0.7546771E-02  0.1297481E+00
         21   -1    0    0  504  501  0.00000000000E+00  0.00000000000E+00  0.59876395738E+03  0.59876395738E+03  0.00000000000E+00 0. -1.
         21   -1    0    0  506  502 -0.00000000000E+00 -0.00000000000E+00 -0.19516043357E+03  0.19516043357E+03  0.00000000000E+00 0. -1.
         21    1    1    2  503  502  0.25285859310E+02  0.58561740282E+02 -0.11943286968E+03  0.13539963983E+03  0.00000000000E+00 0. -1.
         21    1    1    2  504  505  0.48128871420E+02  0.78212327876E+02  0.45606631801E+03  0.46522042401E+03  0.00000000000E+00 0. -1.
         21    1    1    2  505  503 -0.12313522786E+02 -0.10459403985E+03  0.13940243030E+02  0.10623495842E+03  0.00000000000E+00 0. -1.
         21    1    1    2  506  501 -0.61101207944E+02 -0.32180028308E+02  0.53029832453E+02  0.87069368690E+02  0.00000000000E+00 0. -1.
<scales pt_clust_3="63.78755" pt_clust_4="14000.00000" pt_clust_5="92.25486" pt_clust_6="57.46739"></scales>
<clustering>
<clus scale="   63.788">  2  3  1 -1</clus>
<clus scale="   57.467">  2  6  1 -1</clus>
<clus scale="   92.255">  2  5  1 -1</clus>
<clus scale="   92.255">  1  3  2 -1</clus>
</clustering>
</event>
<event>
 6    0  0.8641190E+002  0.1282755E+03  0.7546771E-02  0.1230037E+00
         21   -1    0    0  504  501  0.00000000000E+00  0.00000000000E+00  0.55297334123E+03  0.55297334123E+03  0.00000000000E+00 0. -1.
         21   -1    0    0  503  502 -0.00000000000E+00 -0.00000000000E+00 -0.10904718665E+04  0.10904718665E+04  0.00000000000E+00 0.  1.
         21    1    1    2  503  506  0.26172558619E+02  0.35316569725E+02 -0.85319239674E+03  0.85432401861E+03  0.00000000000E+00 0.  1.
         21    1    1    2  504  505  0.53754564271E+02 -0.32851883660E+02 -0.80950835711E+02  0.10257600715E+03  0.00000000000E+00 0. -1.
         21    1    1    2  505  502  0.41231045128E+02 -0.20959437714E+02 -0.13408991583E+03  0.14184288011E+03  0.00000000000E+00 0. -1.
         21    1    1    2  506  501 -0.12115816802E+03  0.18494751649E+02  0.53073462305E+03  0.54470230183E+03  0.00000000000E+00 0. -1.
<scales pt_clust_3="43.95751" pt_clust_4="34.06052" pt_clust_5="34.06052" pt_clust_6="121.96094"></scales>
<clustering>
<clus scale="   34.061">  4  5 -1 -1</clus>
<clus scale="   43.958">  2  3  1 -1</clus>
<clus scale="  121.961">  1  6  2 -1</clus>
<clus scale="  121.961">  1  3  2 -1</clus>
</clustering>
</event>
<event>
 6    0  0.8641190E+002  0.8486243E+02  0.7546771E-02  0.1315793E+00
         21   -1    0    0  505  501  0.00000000000E+00  0.00000000000E+00  0.15671260670E+03  0.15671260670E+03  0.00000000000E+00 0.  1.
         21   -1    0    0  504  502 -0.00000000000E+00 -0.00000000000E+00 -0.33363065003E+03  0.33363065003E+03  0.00000000000E+00 0.  1.
         21    1    1    2  503  506 -0.20196174294E+02 -0.58554029769E+02 -0.31209049089E+02  0.69357512955E+02  0.00000000000E+00 0.  1.
         21    1    1    2  504  501  0.83951027289E+02 -0.56740829921E+02  0.32275617802E+02  0.10634383982E+03  0.00000000000E+00 0.  1.
         21    1    1    2  505  503 -0.51054487283E+01  0.56170837455E+02  0.47835060003E+02  0.73955537674E+02  0.00000000000E+00 0.  1.
         21    1    1    2  506  502 -0.58649404267E+02  0.59124022235E+02 -0.22581967205E+03  0.24068636627E+03  0.00000000000E+00 0.  1.
<scales pt_clust_3="51.90465" pt_clust_4="14000.00000" pt_clust_5="56.40238" pt_clust_6="84.86243"></scales>
<clustering>
<clus scale="   56.402">  1  5  2 -1</clus>
<clus scale="   51.905">  1  3  2 -1</clus>
<clus scale="   84.862">  2  6  1 -1</clus>
<clus scale="   56.402">  1  3  2 -1</clus>
</clustering>
</event>
<event>
 6    0  0.8641190E+002  0.1362609E+03  0.7546771E-02  0.1218451E+00
         21   -1    0    0  502  501  0.00000000000E+00  0.00000000000E+00  0.34853238460E+03  0.34853238460E+03  0.00000000000E+00 0. -1.
         21   -1    0    0  505  502 -0.00000000000E+00 -0.00000000000E+00 -0.17564100630E+03  0.17564100630E+03  0.00000000000E+00 0. -1.
         21    1    1    2  503  504 -0.74685660414E+02 -0.67500055182E+02  0.32625963456E+01  0.10072164542E+03  0.00000000000E+00 0. -1.
         21    1    1    2  504  501 -0.29692719864E+02 -0.25288858595E+02  0.24841317287E+03  0.25145633505E+03  0.00000000000E+00 0. -1.
         21    1    1    2  505  506  0.65000415603E+02  0.89398049688E+02 -0.71948298649E+02  0.13188488539E+03  0.00000000000E+00 0. -1.
         21    1    1    2  506  503  0.39377964676E+02  0.33908640888E+01 -0.68360922599E+01  0.40110525036E+02  0.00000000000E+00 0. -1.
<scales pt_clust_3="121.22797" pt_clust_4="39.00236" pt_clust_5="37.20387" pt_clust_6="37.20387"></scales>
<clustering>
<clus scale="   37.204">  5  6 -1 -1</clus>
<clus scale="   39.002">  1  4  2 -1</clus>
<clus scale="  121.228">  1  3  2 -1</clus>
<clus scale="   39.002">  1  3  2 -1</clus>
</clustering>
</event>
<event>
 6    0  0.8641190E+002  0.5418326E+02  0.7546771E-02  0.1424001E+00
         21   -1    0    0  504  501  0.00000000000E+00  0.00000000000E+00  0.61272399475E+03  0.61272399475E+03  0.00000000000E+00 0.  1.
         21   -1    0    0  505  502 -0.00000000000E+00 -0.00000000000E+00 -0.26267633298E+03  0.26267633298E+03  0.00000000000E+00 0. -1.
         21    1    1    2  503  501  0.26879489141E+02  0.45891937088E+02  0.50181596644E+03  0.50462643708E+03  0.00000000000E+00 0.  1.
         21    1    1    2  504  506 -0.44880654843E+02 -0.72779567580E+02 -0.25255681502E+01  0.85542487284E+02  0.00000000000E+00 0. -1.
         21    1    1    2  505  503  0.61272269662E+02 -0.28737534088E+01  0.50029449848E+02  0.79154881973E+02  0.00000000000E+00 0. -1.
         21    1    1    2  506  502 -0.43271103960E+02  0.29761383901E+02 -0.19927218636E+03  0.20607652139E+03  0.00000000000E+00 0. -1.
<scales pt_clust_3="54.18326" pt_clust_4="14000.00000" pt_clust_5="50.95617" pt_clust_6="52.51789"></scales>
<clustering>
<clus scale="   52.518">  2  6  1 -1</clus>
<clus scale="   50.956">  2  5  1 -1</clus>
<clus scale="   54.183">  1  3  2 -1</clus>
<clus scale="   54.183">  1  3  2 -1</clus>
</clustering>
</event>
<event>
 6    0  0.8641190E+002  0.1082781E+03  0.7546771E-02  0.1263792E+00
         21   -1    0    0  505  501  0.00000000000E+00  0.00000000000E+00  0.27896320461E+03  0.27896320461E+03  0.00000000000E+00 0.  1.
         21   -1    0    0  504  502 -0.00000000000E+00 -0.00000000000E+00 -0.31648131680E+03  0.31648131680E+03  0.00000000000E+00 0.  1.
         21    1    1    2  503  501  0.34486930862E+02  0.22622716797E+02  0.24781071479E+01  0.41319205348E+02  0.00000000000E+00 0.  1.
         21    1    1    2  504  503  0.99875844698E+02 -0.34569620919E+02 -0.24850099611E+03  0.27004256722E+03  0.00000000000E+00 0.  1.
         21    1    1    2  505  506  0.21960272821E+02 -0.23307290770E+02  0.26339895136E+02  0.41464122578E+02  0.00000000000E+00 0. -1.
         21    1    1    2  506  502 -0.15632304838E+03  0.35254194892E+02  0.18216488163E+03  0.24261862627E+03  0.00000000000E+00 0.  1.
<scales pt_clust_3="41.83829" pt_clust_4="14000.00000" pt_clust_5="32.02317" pt_clust_6="108.27812"></scales>
<clustering>
<clus scale="   32.023">  1  5  2 -1</clus>
<clus scale="   41.838">  1  3  2 -1</clus>
<clus scale="  108.278">  1  6  2 -1</clus>
<clus scale="   32.023">  1  3  2 -1</clus>
</clustering>
</event>
<event>
 6    0  0.8641190E+002  0.9373778E+02  0.7546771E-02  0.1294044E+00
         21   -1    0    0  506  501  0.00000000000E+00  0.00000000000E+00  0.31728749803E+03  0.31728749803E+03  0.00000000000E+00 0. -1.
         21   -1    0    0  505  502 -0.00000000000E+00 -0.00000000000E+00 -0.14354431315E+04  0.14354431315E+04  0.00000000000E+00 0. -1.
         21    1    1    2  503  501  0.97866716066E+02 -0.11119131285E+02 -0.42925336004E+03  0.44040887400E+03  0.00000000000E+00 0. -1.
         21    1    1    2  504  502 -0.74266069400E+02 -0.20735674104E+02 -0.88788501044E+03  0.89122679998E+03  0.00000000000E+00 0. -1.
         21    1    1    2  505  503 -0.45556753513E+02 -0.16770855958E+02 -0.10330082893E+03  0.11413912852E+03  0.00000000000E+00 0. -1.
         21    1    1    2  506  504  0.21956106847E+02  0.48625661348E+02  0.30228356589E+03  0.30695582708E+03  0.00000000000E+00 0. -1.
<scales pt_clust_3="93.73778" pt_clust_4="14000.00000" pt_clust_5="48.54564" pt_clust_6="53.29295"></scales>
<clustering>
<clus scale="   48.546">  2  5  1 -1</clus>
<clus scale="   53.293">  1  6  2 -1</clus>
<clus scale="   93.738">  1  3  2 -1</clus>
<clus scale="   53.293">  1  3  2 -1</clus>
</clustering>
</event>
<event>
 6    0  0.8641190E+002  0.1363339E+03  0.7546771E-02  0.1218349E+00
         21   -1    0    0  503  501  0.00000000000E+00  0.00000000000E+00  0.16754897958E+04  0.16754897958E+04  0.00000000000E+00 0.  1.
         21   -1    0    0  505  502 -0.00000000000E+00 -0.00000000000E+00 -0.15410201888E+03  0.15410201888E+03  0.00000000000E+00 0. -1.
         21    1    1    2  503  506 -0.10203409549E+03  0.36164647854E+02  0.15257780059E+04  0.15296134680E+04  0.00000000000E+00 0.  1.
         21    1    1    2  504  501 -0.24632645460E+02  0.22613576906E+02  0.84834379609E+02  0.91186693363E+02  0.00000000000E+00 0. -1.
         21    1    1    2  505  504  0.57874785563E+02  0.19629034763E+02  0.13289588697E+02  0.62541210233E+02  0.00000000000E+00 0. -1.
         21    1    1    2  506  502  0.68791955389E+02 -0.78407259523E+02 -0.10251419721E+03  0.14625044308E+03  0.00000000000E+00 0. -1.
<scales pt_clust_3="14000.00000" pt_clust_4="33.43862" pt_clust_5="60.73329" pt_clust_6="136.33387"></scales>
<clustering>
<clus scale="   33.439">  1  4  2 -1</clus>
<clus scale="   60.733">  2  5  1 -1</clus>
<clus scale="  136.334">  2  6  1 -1</clus>
<clus scale="   33.439">  1  3  2 -1</clus>
</clustering>
</event>
<event>
 6    0  0.8641190E+002  0.9041647E+02  0.7546771E-02  0.1301846E+00
         21   -1    0    0  503  501  0.00000000000E+00  0.00000000000E+00  0.11789394031E+04  0.11789394031E+04  0.00000000000E+00 0.  1.
         21   -1    0    0  504  502 -0.00000000000E+00 -0.00000000000E+00 -0.21887769828E+04  0.21887769828E+04  0.00000000000E+00 0.  1.
         21    1    1    2  503  506  0.53939948813E+02  0.24717906771E+02  0.60656194746E+03  0.60945704451E+03  0.00000000000E+00 0.  1.
         21    1    1    2  504  501 -0.28336660865E+02  0.27475993269E+02  0.10290394784E+02  0.40789567048E+02  0.00000000000E+00 0.  1.
         21    1    1    2  505  502  0.59182116430E+02 -0.68408430051E+02 -0.21677150291E+04  0.21696015034E+04  0.00000000000E+00 0.  1.
         21    1    1    2  506  505 -0.84785404378E+02  0.16214530011E+02  0.54102510712E+03  0.54786827095E+03  0.00000000000E+00 0.  1.
<scales pt_clust_3="55.29887" pt_clust_4="39.47020" pt_clust_5="14000.00000" pt_clust_6="90.41647"></scales>
<clustering>
<clus scale="   39.470">  1  4  2 -1</clus>
<clus scale="   55.299">  1  3  2 -1</clus>
<clus scale="   90.416">  1  6  2 -1</clus>
<clus scale="   39.470">  1  3  2 -1</clus>
</clustering>
</event>
<event>
 6    0  0.8641190E+002  0.8924992E+02  0.7546771E-02  0.1304678E+00
         21   -1    0    0  506  501  0.00000000000E+00  0.00000000000E+00  0.50338935890E+02  0.50338935890E+02  0.00000000000E+00 0. -1.
         21   -1    0    0  504  502 -0.00000000000E+00 -0.00000000000E+00 -0.81974613464E+03  0.81974613464E+03  0.00000000000E+00 0. -1.
         21    1    1    2  503  502 -0.12194419029E+02  0.57816999315E+02 -0.10388468534E+03  0.11951375282E+03  0.00000000000E+00 0. -1.
         21    1    1    2  504  505 -0.85930077092E+02 -0.30525256376E+02 -0.61718767791E+03  0.62388813035E+03  0.00000000000E+00 0. -1.
         21    1    1    2  505  501  0.79704641679E+02  0.14481179237E+01 -0.46956304060E+02  0.92519303076E+02  0.00000000000E+00 0. -1.
         21    1    1    2  506  503  0.18419854443E+02 -0.28739860863E+02 -0.13785314336E+01  0.34163884279E+02  0.00000000000E+00 0. -1.
<scales pt_clust_3="51.81515" pt_clust_4="89.24992" pt_clust_5="14000.00000" pt_clust_6="34.13606"></scales>
<clustering>
<clus scale="   34.136">  1  6  2 -1</clus>
<clus scale="   51.815">  1  3  2 -1</clus>
<clus scale="   89.250">  2  4  1 -1</clus>
<clus scale="   34.136">  1  3  2 -1</clus>
</clustering>
</event>
<event>
 6    0  0.8641190E+002  0.7503790E+02  0.7546771E-02  0.1343754E+00
         21   -1    0    0  503  501  0.00000000000E+00  0.00000000000E+00  0.25079504943E+03  0.25079504943E+03  0.00000000000E+00 0.  1.
         21   -1    0    0  504  502 -0.00000000000E+00 -0.00000000000E+00 -0.31930389968E+04  0.31930389968E+04  0.00000000000E+00 0.  1.
         21    1    1    2  503  502 -0.71408075122E+02 -0.46080065518E+02 -0.29820231336E+04  0.29832338921E+04  0.00000000000E+00 0.  1.
         21    1    1    2  504  505  0.43539540535E+02  0.37207124689E+01 -0.97258141563E+02  0.10662401883E+03  0.00000000000E+00 0. -1.
         21    1    1    2  505  506  0.99169460592E+02  0.57698618040E+02 -0.70045938536E+02  0.13442524295E+03  0.00000000000E+00 0. -1.
         21    1    1    2  506  501 -0.71300926005E+02 -0.15339264991E+02  0.20708326637E+03  0.21955089230E+03  0.00000000000E+00 0.  1.
<scales pt_clust_3="51.66759" pt_clust_4="43.69823" pt_clust_5="75.03790" pt_clust_6="14000.00000"></scales>
<clustering>
<clus scale="   43.698">  2  4  1 -1</clus>
<clus scale="   51.668">  2  3  1 -1</clus>
<clus scale="   75.038">  2  5  1 -1</clus>
<clus scale="   75.038">  1  3  2 -1</clus>
</clustering>
</event>
<event>
 6    0  0.8641190E+002  0.2297854E+03  0.7546771E-02  0.1126791E+00
         21   -1    0    0  503  501  0.00000000000E+00  0.00000000000E+00  0.34364760383E+04  0.34364760383E+04  0.00000000000E+00 0. -1.
         21   -1    0    0  506  502 -0.00000000000E+00 -0.00000000000E+00 -0.34672353522E+02  0.34672353522E+02  0.00000000000E+00 0. -1.
         21    1    1    2  503  505  0.63302802611E+02  0.16423019965E+03  0.17957741630E+04  0.18043790200E+04  0.00000000000E+00 0. -1.
         21    1    1    2  504  501 -0.16640878196E+02 -0.84796910837E+02  0.44456096115E+03  0.45288175398E+03  0.00000000000E+00 0. -1.
         21    1    1    2  505  502  0.11553764599E+03  0.55085200867E+02  0.61543132546E+03  0.62860086172E+03  0.00000000000E+00 0. -1.
         21    1    1    2  506  504 -0.16219957041E+03 -0.13451848968E+03  0.54603723518E+03  0.58528675613E+03  0.00000000000E+00 0. -1.
<scales pt_clust_3="190.72334" pt_clust_4="82.07339" pt_clust_5="127.99737" pt_clust_6="82.07339"></scales>
<clustering>
<clus scale="   82.073">  4  6 -1 -1</clus>
<clus scale="  127.997">  2  5  1 -1</clus>
<clus scale="  190.723">  1  3  2 -1</clus>
<clus scale="  190.723">  1  3  2 -1</clus>
</clustering>
</event>
<event>
 6    0  0.8641190E+002  0.1295532E+03  0.7546771E-02  0.1228120E+00
         21   -1    0    0  504  501  0.00000000000E+00  0.00000000000E+00  0.25287923862E+04  0.25287923862E+04  0.00000000000E+00 0.  1.
         21   -1    0    0  503  502 -0.00000000000E+00 -0.00000000000E+00 -0.22272477725E+02  0.22272477725E+02  0.00000000000E+00 0.  1.
         21    1    1    2  503  505 -0.17960074734E+02  0.12024764648E+03  0.26241580635E+03  0.28921292535E+03  0.00000000000E+00 0.  1.
         21    1    1    2  504  502  0.13219581862E+03 -0.68244171898E+02  0.13814165827E+04  0.13894044683E+04  0.00000000000E+00 0.  1.
         21    1    1    2  505  506 -0.61742256141E+02 -0.10103365524E+02  0.45050935894E+03  0.45483278980E+03  0.00000000000E+00 0.  1.
         21    1    1    2  506  501 -0.52493487749E+02 -0.41900109060E+02  0.41217816047E+03  0.41761468050E+03  0.00000000000E+00 0.  1.
<scales pt_clust_3="121.58150" pt_clust_4="124.91343" pt_clust_5="33.16279" pt_clust_6="33.16279"></scales>
<clustering>
<clus scale="   33.163">  5  6 -1 -1</clus>
<clus scale="  121.581">  2  3  1 -1</clus>
<clus scale="  124.913">  1  4  2 -1</clus>
<clus scale="  124.913">  1  3  2 -1</clus>
</clustering>
</event>
<event>
 6    0  0.8641190E+002  0.1274226E+03  0.7546771E-02  0.1231331E+00
         21   -1    0    0  506  501  0.00000000000E+00  0.00000000000E+00  0.10549828365E+04  0.10549828365E+04  0.00000000000E+00 0. -1.
         21   -1    0    0  505  502 -0.00000000000E+00 -0.00000000000E+00 -0.66703052291E+03  0.66703052291E+03  0.00000000000E+00 0.  1.
         21    1    1    2  503  502  0.10715337250E+03  0.62571547954E+02  0.13015232004E+02  0.12476554057E+03  0.00000000000E+00 0.  1.
         21    1    1    2  504  501  0.17372245621E+02 -0.41020826553E+02  0.65202519628E+02  0.78967535702E+02  0.00000000000E+00 0.  1.
         21    1    1    2  505  504  0.42987999916E+01 -0.35229239030E+02 -0.59915466397E+03  0.60020487362E+03  0.00000000000E+00 0.  1.
         21    1    1    2  506  503 -0.12882441811E+03  0.13678517630E+02  0.90888922592E+03  0.91807540951E+03  0.00000000000E+00 0. -1.
<scales pt_clust_3="127.42261" pt_clust_4="48.04449" pt_clust_5="35.49055" pt_clust_6="14000.00000"></scales>
<clustering>
<clus scale="   35.491">  2  5  1 -1</clus>
<clus scale="   48.044">  2  4  1 -1</clus>
<clus scale="  127.423">  2  3  1 -1</clus>
<clus scale="  127.423">  1  3  2 -1</clus>
</clustering>
</event>
<event>
 6    0  0.8641190E+002  0.2805243E+03  0.7546771E-02  0.1095403E+00
         21   -1    0    0  502  501  0.00000000000E+00  0.00000000000E+00  0.80026333898E+02  0.80026333898E+02  0.00000000000E+00 0. -1.
         21   -1    0    0  504  502 -0.00000000000E+00 -0.00000000000E+00 -0.12934603769E+04  0.12934603769E+04  0.00000000000E+00 0. -1.
         21    1    1    2  503  501  0.13729774373E+03  0.48973291430E+02 -0.12328916218E+03  0.19091692229E+03  0.00000000000E+00 0. -1.
         21    1    1    2  504  505 -0.98786055912E+02 -0.55137406205E+02 -0.53223257776E+03  0.54412345588E+03  0.00000000000E+00 0. -1.
         21    1    1    2  505  506 -0.13744658919E+03 -0.77365383027E+02 -0.42301832840E+03  0.45146591625E+03  0.00000000000E+00 0. -1.
         21    1    1    2  506  503  0.98934901369E+02  0.83529497803E+02 -0.13489397468E+03  0.18698041640E+03  0.00000000000E+00 0. -1.
<scales pt_clust_3="275.94903" pt_clust_4="61.83717" pt_clust_5="61.83717" pt_clust_6="49.73723"></scales>
<clustering>
<clus scale="   49.737">  3  6 -1 -1</clus>
<clus scale="   61.837">  4  5 -1 -1</clus>
<clus scale="  275.949">  1  3  2 -1</clus>
<clus scale="  275.949">  1  3  2 -1</clus>
</clustering>
</event>
<event>
 6    0  0.8641190E+002  0.1534551E+03  0.7546771E-02  0.1196291E+00
         21   -1    0    0  504  501  0.00000000000E+00  0.00000000000E+00  0.95108578334E+03  0.95108578334E+03  0.00000000000E+00 0. -1.
         21   -1    0    0  506  502 -0.00000000000E+00 -0.00000000000E+00 -0.12707998100E+03  0.12707998100E+03  0.00000000000E+00 0. -1.
         21    1    1    2  503  505  0.88540091900E+02 -0.87359123589E+02  0.38603201684E+03  0.40557574185E+03  0.00000000000E+00 0. -1.
         21    1    1    2  504  502 -0.35881187627E+02  0.54638001208E+02  0.79263288967E+02  0.10273966994E+03  0.00000000000E+00 0.  1.
         21    1    1    2  505  501  0.67608283786E+02 -0.26375652933E+02  0.41732603359E+03  0.42358892032E+03  0.00000000000E+00 0. -1.
         21    1    1    2  506  503 -0.12026718806E+03  0.59096775313E+02 -0.58615537056E+02  0.14626143224E+03  0.00000000000E+00 0. -1.
<scales pt_clust_3="52.98629" pt_clust_4="65.36643" pt_clust_5="52.98629" pt_clust_6="136.88136"></scales>
<clustering>
<clus scale="   52.986">  3  5 -1 -1</clus>
<clus scale="   65.366">  1  4  2 -1</clus>
<clus scale="  136.881">  2  6  1 -1</clus>
<clus scale="   65.366">  1  3  2 -1</clus>
</clustering>
</event>
<event>
 6    0  0.8641190E+002  0.5984494E+02  0.7546771E-02  0.1398484E+00
         21   -1    0    0  505  501  0.00000000000E+00  0.00000000000E+00  0.52502703886E+02  0.52502703886E+02  0.00000000000E+00 0.  1.
         21   -1    0    0  504  502 -0.00000000000E+00 -0.00000000000E+00 -0.23413610129E+04  0.23413610129E+04  0.00000000000E+00 0. -1.
         21    1    1    2  503  501  0.61149989438E+02  0.29932778303E+02 -0.20625917457E+03  0.21720529349E+03  0.00000000000E+00 0.  1.
         21    1    1    2  504  506  0.36496793336E+02  0.46331638153E+02 -0.19491606086E+04  0.19500527467E+04  0.00000000000E+00 0. -1.
         21    1    1    2  505  502 -0.48666663269E+02 -0.15558043324E+02  0.19689380256E+02  0.54755534156E+02  0.00000000000E+00 0.  1.
         21    1    1    2  506  503 -0.48980119505E+02 -0.60706373131E+02 -0.15312790609E+03  0.17185014248E+03  0.00000000000E+00 0.  1.
<scales pt_clust_3="50.04736" pt_clust_4="14000.00000" pt_clust_5="51.09302" pt_clust_6="59.84494"></scales>
<clustering>
<clus scale="   51.093">  1  5  2 -1</clus>
<clus scale="   50.047">  1  3  2 -1</clus>
<clus scale="   59.845">  1  6  2 -1</clus>
<clus scale="   51.093">  1  3  2 -1</clus>
</clustering>
</event>
<event>
 6    0  0.8641190E+002  0.8820806E+02  0.7546771E-02  0.1307250E+00
         21   -1    0    0  503  501  0.00000000000E+00  0.00000000000E+00  0.18374172820E+04  0.18374172820E+04  0.00000000000E+00 0.  1.
         21   -1    0    0  505  502 -0.00000000000E+00 -0.00000000000E+00 -0.69193235100E+02  0.69193235100E+02  0.00000000000E+00 0. -1.
         21    1    1    2  503  502  0.49694668330E+02  0.65161032914E+02  0.12730468226E+04  0.12756816738E+04  0.00000000000E+00 0.  1.
         21    1    1    2  504  501  0.31784416451E+02 -0.43365759954E+02  0.30380290949E+03  0.30852397975E+03  0.00000000000E+00 0.  1.
         21    1    1    2  505  506  0.22508463468E+02  0.20447054774E+02 -0.48685470582E+02  0.57401986224E+02  0.00000000000E+00 0. -1.
         21    1    1    2  506  504 -0.10398754825E+03 -0.42242327734E+02  0.24005978540E+03  0.26500287736E+03  0.00000000000E+00 0.  1.
<scales pt_clust_3="88.20806" pt_clust_4="53.48385" pt_clust_5="30.40909" pt_clust_6="14000.00000"></scales>
<clustering>
<clus scale="   30.409">  2  5  1 -1</clus>
<clus scale="   53.484">  1  4  2 -1</clus>
<clus scale="   88.208">  1  3  2 -1</clus>
<clus scale="   53.484">  1  3  2 -1</clus>
</clustering>
</event>
<event>
 6    0  0.8641190E+002  0.1595439E+03  0.7546771E-02  0.1189213E+00
         21   -1    0    0  505  501  0.00000000000E+00  0.00000000000E+00  0.39919242926E+03  0.39919242926E+03  0.00000000000E+00 0. -1.
         21   -1    0    0  506  502 -0.00000000000E+00 -0.00000000000E+00 -0.87967030058E+02  0.87967030058E+02  0.00000000000E+00 0. -1.
         21    1    1    2  503  501  0.39835179734E+02 -0.14025858127E+01  0.75109232803E+02  0.85030615920E+02  0.00000000000E+00 0. -1.
         21    1    1    2  504  503 -0.98161702118E+02 -0.69726607367E+02  0.10328136958E+03  0.15863341653E+03  0.00000000000E+00 0. -1.
         21    1    1    2  505  502  0.79566854104E+02  0.12054629190E+03  0.69157383357E+02  0.16014067702E+03  0.00000000000E+00 0. -1.
         21    1    1    2  506  504 -0.21240331720E+02 -0.49417098720E+02  0.63677413468E+02  0.83354749855E+02  0.00000000000E+00 0. -1.
<scales pt_clust_3="39.85986" pt_clust_4="31.56952" pt_clust_5="152.39189" pt_clust_6="31.56952"></scales>
<clustering>
<clus scale="   31.570">  4  6 -1 -1</clus>
<clus scale="   39.860">  1  3  2 -1</clus>
<clus scale="  152.392">  2  5  1 -1</clus>
<clus scale="   39.860">  1  3  2 -1</clus>
</clustering>
</event>
<event>
 6    0  0.8641190E+002  0.1060987E+03  0.7546771E-02  0.1267970E+00
         21   -1    0    0  502  501  0.00000000000E+00  0.00000000000E+00  0.13267094719E+03  0.13267094719E+03  0.00000000000E+00 0. -1.
         21   -1    0    0  506  502 -0.00000000000E+00 -0.00000000000E+00 -0.35971290954E+03  0.35971290954E+03  0.00000000000E+00 0.  1.
         21    1    1    2  503  504 -0.79343139770E+02  0.54542784717E+01  0.76888554076E+01  0.79901198237E+02  0.00000000000E+00 0. -1.
         21    1    1    2  504  505 -0.19360566242E+02 -0.55444424266E+02  0.15696464377E+01  0.58748442510E+02  0.00000000000E+00 0. -1.
         21    1    1    2  505  501  0.97514265366E+01 -0.29590809824E+02  0.41200241659E+02  0.51654295642E+02  0.00000000000E+00 0. -1.
         21    1    1    2  506  503  0.88952279476E+02  0.79580955618E+02 -0.27750070586E+03  0.30207992034E+03  0.00000000000E+00 0.  1.
<scales pt_clust_3="14000.00000" pt_clust_4="67.69811" pt_clust_5="31.15616" pt_clust_6="106.09874"></scales>
<clustering>
<clus scale="   31.156">  1  5  2 -1</clus>
<clus scale="   67.698">  1  4  2 -1</clus>
<clus scale="  106.099">  2  6  1 -1</clus>
<clus scale="   31.156">  1  3  2 -1</clus>
</clustering>
</event>
<event>
 6    0  0.8641190E+002  0.8169249E+02  0.7546771E-02  0.1324316E+00
         21   -1    0    0  503  501  0.00000000000E+00  0.00000000000E+00  0.26659741409E+03  0.26659741409E+03  0.00000000000E+00 0.  1.
         21   -1    0    0  504  502 -0.00000000000E+00 -0.00000000000E+00 -0.30496981304E+03  0.30496981304E+03  0.00000000000E+00 0. -1.
         21    1    1    2  503  505  0.48387052505E+02  0.77205013478E+02 -0.59131985931E+02  0.10862095892E+03  0.00000000000E+00 0. -1.
         21    1    1    2  504  506 -0.77179750686E+01  0.29894201046E+02 -0.48149747724E+02  0.57198152079E+02  0.00000000000E+00 0. -1.
         21    1    1    2  505  502 -0.44381497113E+02 -0.25020907038E+02 -0.15715957560E+03  0.16521166811E+03  0.00000000000E+00 0. -1.
         21    1    1    2  506  501  0.37124196764E+01 -0.82078307485E+02  0.22606891031E+03  0.24053644802E+03  0.00000000000E+00 0.  1.
<scales pt_clust_3="14000.00000" pt_clust_4="30.87443" pt_clust_5="49.66667" pt_clust_6="81.69249"></scales>
<clustering>
<clus scale="   30.874">  2  4  1 -1</clus>
<clus scale="   49.667">  2  5  1 -1</clus>
<clus scale="   81.692">  1  6  2 -1</clus>
<clus scale="   81.692">  1  3  2 -1</clus>
</clustering>
</event>
<event>
 6    0  0.8641190E+002  0.8074975E+02  0.7546771E-02  0.1326937E+00
         21   -1    0    0  503  501  0.00000000000E+00  0.00000000000E+00  0.38891016975E+03  0.38891016975E+03  0.00000000000E+00 0. -1.
         21   -1    0    0  505  502 -0.00000000000E+00 -0.00000000000E+00 -0.18061076256E+03  0.18061076256E+03  0.00000000000E+00 0.  1.
         21    1    1    2  503  506 -0.18897569272E+02  0.31286265712E+02  0.64309063735E+02  0.73970292855E+02  0.00000000000E+00 0.  1.
         21    1    1    2  504  501 -0.46250361620E+02  0.18331303758E+02  0.26954024023E+03  0.27409318443E+03  0.00000000000E+00 0. -1.
         21    1    1    2  505  504 -0.44731070122E+02  0.22159902338E+02 -0.23332126781E+02  0.55102795265E+02  0.00000000000E+00 0. -1.
         21    1    1    2  506  502  0.10987900101E+03 -0.71777471807E+02 -0.10221776999E+03  0.16635465976E+03  0.00000000000E+00 0.  1.
<scales pt_clust_3="36.55063" pt_clust_4="80.74975" pt_clust_5="51.45964" pt_clust_6="14000.00000"></scales>
<clustering>
<clus scale="   36.551">  1  3  2 -1</clus>
<clus scale="   51.460">  2  5  1 -1</clus>
<clus scale="   80.750">  1  4  2 -1</clus>
<clus scale="   36.551">  1  3  2 -1</clus>
</clustering>
</event>
<event>
 6    0  0.8641190E+002  0.1071460E+03  0.7546771E-02  0.1265948E+00
         21   -1    0    0  505  501  0.00000000000E+00  0.00000000000E+00  0.14869085207E+03  0.14869085207E+03  0.00000000000E+00 0. -1.
         21   -1    0    0  506  502 -0.00000000000E+00 -0.00000000000E+00 -0.56724286917E+03  0.56724286917E+03  0.00000000000E+00 0.  1.
         21    1    1    2  503  504 -0.86846934343E+02 -0.18394313363E+01  0.29383286563E+02  0.91701423335E+02  0.00000000000E+00 0. -1.
         21    1    1    2  504  502 -0.29662237102E+02 -0.41952991616E+02  0.23581254893E+01  0.51434060419E+02  0.00000000000E+00 0. -1.
         21    1    1    2  505  503  0.31221398877E+02  0.47306882581E+02  0.43645548042E+02  0.71537757522E+02  0.00000000000E+00 0. -1.
         21    1    1    2  506  501  0.85287772569E+02 -0.35144596291E+01 -0.49393897720E+03  0.50126047997E+03  0.00000000000E+00 0.  1.
<scales pt_clust_3="48.56834" pt_clust_4="48.56834" pt_clust_5="56.68083" pt_clust_6="86.55742"></scales>
<clustering>
<clus scale="   48.568">  3  4 -1 -1</clus>
<clus scale="   56.681">  1  5  2 -1</clus>
<clus scale="   86.557">  2  6  1 -1</clus>
<clus scale="   56.681">  1  3  2 -1</clus>
</clustering>
</event>
<event>
 6    0  0.8641190E+002  0.2337599E+03  0.7546771E-02  0.1124021E+00
         21   -1    0    0  503  501  0.00000000000E+00  0.00000000000E+00  0.20692382875E+03  0.20692382875E+03  0.00000000000E+00 0.  1.
         21   -1    0    0  506  502 -0.00000000000E+00 -0.00000000000E+00 -0.25942657615E+03  0.25942657615E+03  0.00000000000E+00 0.  1.
         21    1    1    2  503  505  0.16359635766E+03  0.51725918805E+02 -0.18951880993E+02  0.17262245714E+03  0.00000000000E+00 0.  1.
         21    1    1    2  504  501 -0.16803156782E+03 -0.59986952713E+02  0.33568656701E+02  0.18154860779E+03  0.00000000000E+00 0.  1.
         21    1    1    2  505  502  0.38508878606E+02  0.30495040025E+02 -0.34396191405E+02  0.59966483812E+02  0.00000000000E+00 0. -1.
         21    1    1    2  506  504 -0.34073668447E+02 -0.22234006116E+02 -0.32723331702E+02  0.52212856148E+02  0.00000000000E+00 0.  1.
<scales pt_clust_3="226.38816" pt_clust_4="40.05848" pt_clust_5="32.30264" pt_clust_6="40.05848"></scales>
<clustering>
<clus scale="   32.303">  3  5 -1 -1</clus>
<clus scale="   40.058">  4  6 -1 -1</clus>
<clus scale="  226.388">  2  3  1 -1</clus>
<clus scale="  233.760">  1  3  2 -1</clus>
</clustering>
</event>
<event>
 6    0  0.8641190E+002  0.2059306E+03  0.7546771E-02  0.1144830E+00
         21   -1    0    0  503  501  0.00000000000E+00  0.00000000000E+00  0.55109179765E+03  0.55109179765E+03  0.00000000000E+00 0. -1.
         21   -1    0    0  506  502 -0.00000000000E+00 -0.00000000000E+00 -0.59416122817E+03  0.59416122817E+03  0.00000000000E+00 0.  1.
         21    1    1    2  503  504  0.52335949733E+02  0.21232725477E+03  0.22761770837E+03  0.31564495231E+03  0.00000000000E+00 0. -1.
         21    1    1    2  504  502 -0.20416319191E+02  0.26844313003E+02 -0.16224543766E+02  0.37425646960E+02  0.00000000000E+00 0.  1.
         21    1    1    2  505  501  0.31622388027E+02 -0.27067368877E+02  0.24359481694E+03  0.24712558087E+03  0.00000000000E+00 0. -1.
         21    1    1    2  506  505 -0.63542018569E+02 -0.21210419889E+03 -0.49805741207E+03  0.54505684569E+03  0.00000000000E+00 0.  1.
<scales pt_clust_3="14000.00000" pt_clust_4="33.72600" pt_clust_5="41.52215" pt_clust_6="205.93056"></scales>
<clustering>
<clus scale="   33.726">  2  4  1 -1</clus>
<clus scale="   41.522">  1  5  2 -1</clus>
<clus scale="  205.931">  2  6  1 -1</clus>
<clus scale="   41.522">  1  3  2 -1</clus>
</clustering>
</event>
<event>
 6    0  0.8641190E+002  0.7555595E+02  0.7546771E-02  0.1342158E+00
         21   -1    0    0  503  501  0.00000000000E+00  0.00000000000E+00  0.85377373492E+03  0.85377373492E+03  0.00000000000E+00 0.  1.
         21   -1    0    0  505  502 -0.00000000000E+00 -0.00000000000E+00 -0.93614410323E+02  0.93614410323E+02  0.00000000000E+00 0.  1.
         21    1    1    2  503  504 -0.50132553630E+02 -0.51971268958E+02  0.33286664657E+03  0.34060899890E+03  0.00000000000E+00 0.  1.
         21    1    1    2  504  502 -0.45343279530E+01  0.12711594338E+03  0.92213684451E+02  0.15710629138E+03  0.00000000000E+00 0.  1.
         21    1    1    2  505  506  0.25318780067E+02 -0.59443799213E+02 -0.38102914590E+02  0.75009585982E+02  0.00000000000E+00 0.  1.
         21    1    1    2  506  501  0.29348101516E+02 -0.15700875207E+02  0.37318190816E+03  0.37466326898E+03  0.00000000000E+00 0.  1.
<scales pt_clust_3="75.55595" pt_clust_4="14000.00000" pt_clust_5="65.61386" pt_clust_6="33.28406"></scales>
<clustering>
<clus scale="   33.284">  1  6  2 -1</clus>
<clus scale="   65.614">  2  5  1 -1</clus>
<clus scale="   75.556">  1  3  2 -1</clus>
<clus scale="   33.284">  1  3  2 -1</clus>
</clustering>
</event>
<event>
 6    0  0.8641190E+002  0.7627277E+02  0.7546771E-02  0.1339974E+00
         21   -1    0    0  505  501  0.00000000000E+00  0.00000000000E+00  0.37467979628E+03  0.37467979628E+03  0.00000000000E+00 0. -1.
         21   -1    0    0  506  502 -0.00000000000E+00 -0.00000000000E+00 -0.56515180358E+02  0.56515180358E+02  0.00000000000E+00 0. -1.
         21    1    1    2  503  502 -0.13059790613E+02 -0.59901835986E+02  0.16284876492E+02  0.63434890145E+02  0.00000000000E+00 0. -1.
         21    1    1    2  504  501  0.68140245615E+02  0.36387392510E+02  0.16339546395E+03  0.18073520145E+03  0.00000000000E+00 0. -1.
         21    1    1    2  505  503 -0.86628297411E+02  0.24090090125E+02  0.12161673137E+03  0.15124623534E+03  0.00000000000E+00 0. -1.
         21    1    1    2  506  504  0.31547842410E+02 -0.57564664864E+00  0.16867544104E+02  0.35778649693E+02  0.00000000000E+00 0. -1.
<scales pt_clust_3="60.25275" pt_clust_4="14000.00000" pt_clust_5="76.27277" pt_clust_6="31.55309"></scales>
<clustering>
<clus scale="   31.553">  2  6  1 -1</clus>
<clus scale="   60.253">  2  3  1 -1</clus>
<clus scale="   76.273">  2  5  1 -1</clus>
<clus scale="   76.273">  1  3  2 -1</clus>
</clustering>
</event>
<event>
 6    0  0.8641190E+002  0.1292444E+03  0.7546771E-02  0.1228581E+00
         21   -1    0    0  505  501  0.00000000000E+00  0.00000000000E+00  0.12340058196E+03  0.12340058196E+03  0.00000000000E+00 0. -1.
         21   -1    0    0  503  502 -0.00000000000E+00 -0.00000000000E+00 -0.84121713529E+03  0.84121713529E+03  0.00000000000E+00 0. -1.
         21    1    1    2  503  504 -0.53376438177E+02 -0.77957205943E+02 -0.46795429533E+02  0.10543330753E+03  0.00000000000E+00 0. -1.
         21    1    1    2  504  501  0.23751292215E+02 -0.51433826884E+02  0.78776820405E+02  0.97032725731E+02  0.00000000000E+00 0. -1.
         21    1    1    2  505  506  0.30418950800E+02  0.60439879131E+02 -0.38161275770E+03  0.38756494733E+03  0.00000000000E+00 0. -1.
         21    1    1    2  506  502 -0.79380483724E+00  0.68951153696E+02 -0.36818518651E+03  0.37458673667E+03  0.00000000000E+00 0. -1.
<scales pt_clust_3="125.08228" pt_clust_4="56.65300" pt_clust_5="32.22887" pt_clust_6="32.22887"></scales>
<clustering>
<clus scale="   32.229">  5  6 -1 -1</clus>
<clus scale="   56.653">  1  4  2 -1</clus>
<clus scale="  125.082">  1  3  2 -1</clus>
<clus scale="   56.653">  1  3  2 -1</clus>
</clustering>
</event>
<event>
 6    0  0.8641190E+002  0.6598317E+02  0.7546771E-02  0.1374311E+00
         21   -1    0    0  505  501  0.00000000000E+00  0.00000000000E+00  0.14446814597E+03  0.14446814597E+03  0.00000000000E+00 0.  1.
         21   -1    0    0  504  502 -0.00000000000E+00 -0.00000000000E+00 -0.40893680840E+03  0.40893680840E+03  0.00000000000E+00 0.  1.
         21    1    1    2  503  506 -0.88090308836E+02  0.40050120824E+02 -0.48467656727E+02  0.10822674548E+03  0.00000000000E+00 0. -1.
         21    1    1    2  504  503  0.40694647375E+02 -0.58238676563E+01 -0.29804254050E+03  0.30086430115E+03  0.00000000000E+00 0.  1.
         21    1    1    2  505  502  0.11348971533E+02 -0.66265138001E+02  0.64002767594E+02  0.92823606528E+02  0.00000000000E+00 0.  1.
         21    1    1    2  506  501  0.36046689928E+02  0.32038884833E+02  0.18038767208E+02  0.51490301208E+02  0.00000000000E+00 0.  1.
<scales pt_clust_3="14000.00000" pt_clust_4="41.10927" pt_clust_5="65.98317" pt_clust_6="52.50222"></scales>
<clustering>
<clus scale="   41.109">  2  4  1 -1</clus>
<clus scale="   52.502">  1  6  2 -1</clus>
<clus scale="   65.983">  1  5  2 -1</clus>
<clus scale="   52.502">  1  3  2 -1</clus>
</clustering>
</event>
<event>
 6    0  0.8641190E+002  0.3386481E+03  0.7546771E-02  0.1067373E+00
         21   -1    0    0  503  501  0.00000000000E+00  0.00000000000E+00  0.26115548276E+03  0.26115548276E+03  0.00000000000E+00 0. -1.
         21   -1    0    0  504  502 -0.00000000000E+00 -0.00000000000E+00 -0.68112343651E+03  0.68112343651E+03  0.00000000000E+00 0. -1.
         21    1    1    2  503  505 -0.48855301609E+00  0.63726111730E+02  0.20284211986E+02  0.66878286881E+02  0.00000000000E+00 0. -1.
         21    1    1    2  504  501 -0.20332454285E+03 -0.20499016160E+03 -0.51511991521E+03  0.59051703034E+03  0.00000000000E+00 0. -1.
         21    1    1    2  505  506  0.59437109524E+02  0.71139181576E+02  0.82641766367E+02  0.12419023590E+03  0.00000000000E+00 0. -1.
         21    1    1    2  506  502  0.14437598634E+03  0.70124868293E+02 -0.77740168985E+01  0.16069336615E+03  0.00000000000E+00 0. -1.
<scales pt_clust_3="54.05158" pt_clust_4="288.72450" pt_clust_5="148.98938" pt_clust_6="148.98938"></scales>
<clustering>
<clus scale="   54.052">  3  5 -1 -1</clus>
<clus scale="  148.989">  3  6 -1 -1</clus>
<clus scale="  288.724">  2  4  1 -1</clus>
<clus scale="  338.648">  1  3  2 -1</clus>
</clustering>
</event>
<event>
 6    0  0.8641190E+002  0.2269976E+03  0.7546771E-02  0.1128771E+00
         21   -1    0    0  503  501  0.00000000000E+00  0.00000000000E+00  0.14896430577E+03  0.14896430577E+03  0.00000000000E+00 0.  1.
         21   -1    0    0  505  502 -0.00000000000E+00 -0.00000000000E+00 -0.47817724821E+03  0.47817724821E+03  0.00000000000E+00 0.  1.
         21    1    1    2  503  502  0.18580830581E+03 -0.72920192811E+02 -0.95551646411E+02  0.22129662935E+03  0.00000000000E+00 0.  1.
         21    1    1    2  504  501 -0.53704585171E+01 -0.30715557157E+02  0.38251701949E+02  0.49350582348E+02  0.00000000000E+00 0.  1.
         21    1    1    2  505  506 -0.25101024602E+02  0.58513957174E+02 -0.11319792015E+03  0.12987576274E+03  0.00000000000E+00 0.  1.
         21    1    1    2  506  504 -0.15533682269E+03  0.45121792795E+02 -0.15871507782E+03  0.22661857955E+03  0.00000000000E+00 0.  1.
<scales pt_clust_3="204.14351" pt_clust_4="31.18152" pt_clust_5="61.41376" pt_clust_6="61.41376"></scales>
<clustering>
<clus scale="   31.182">  1  4  2 -1</clus>
<clus scale="   61.414">  5  6 -1 -1</clus>
<clus scale="  204.144">  1  3  2 -1</clus>
<clus scale="   31.182">  1  3  2 -1</clus>
</clustering>
</event>
<event>
 6    0  0.8641190E+002  0.9866191E+02  0.7546771E-02  0.1283135E+00
         21   -1    0    0  506  501  0.00000000000E+00  0.00000000000E+00  0.18694265317E+03  0.18694265317E+03  0.00000000000E+00 0. -1.
         21   -1    0    0  504  502 -0.00000000000E+00 -0.00000000000E+00 -0.15596255039E+03  0.15596255039E+03  0.00000000000E+00 0. -1.
         21    1    1    2  503  501  0.45503266922E+02 -0.47899799368E+02  0.41686890840E+02  0.78120003507E+02  0.00000000000E+00 0. -1.
         21    1    1    2  504  503  0.74376577113E+02 -0.15646606039E+02  0.17672252553E+02  0.78032044789E+02  0.00000000000E+00 0. -1.
         21    1    1    2  505  502 -0.69724411094E+02  0.34614446605E+02 -0.78220348940E+02  0.11035432209E+03  0.00000000000E+00 0. -1.
         21    1    1    2  506  505 -0.50155432941E+02  0.28931958802E+02  0.49841308333E+02  0.76398833172E+02  0.00000000000E+00 0. -1.
<scales pt_clust_3="46.15447" pt_clust_4="46.15447" pt_clust_5="85.34367" pt_clust_6="57.90186"></scales>
<clustering>
<clus scale="   46.154">  3  4 -1 -1</clus>
<clus scale="   57.902">  1  6  2 -1</clus>
<clus scale="   85.344">  2  5  1 -1</clus>
<clus scale="   57.902">  1  3  2 -1</clus>
</clustering>
</event>
<event>
 6    0  0.8641190E+002  0.2149807E+03  0.7546771E-02  0.1137681E+00
         21   -1    0    0  504  501  0.00000000000E+00  0.00000000000E+00  0.36131229389E+03  0.36131229389E+03  0.00000000000E+00 0.  1.
         21   -1    0    0  503  502 -0.00000000000E+00 -0.00000000000E+00 -0.65968464188E+03  0.65968464188E+03  0.00000000000E+00 0.  1.
         21    1    1    2  503  506 -0.22237022557E+02  0.25951954567E+02 -0.11006542340E+03  0.11524923664E+03  0.00000000000E+00 0. -1.
         21    1    1    2  504  505  0.16455323274E+02  0.27103060344E+02  0.27181162924E+03  0.27365473746E+03  0.00000000000E+00 0.  1.
         21    1    1    2  505  502  0.21387746169E+03  0.13087490618E+02 -0.20913717431E+03  0.29942145666E+03  0.00000000000E+00 0.  1.
         21    1    1    2  506  501 -0.20809576241E+03 -0.66142505530E+02 -0.25098137953E+03  0.33267150500E+03  0.00000000000E+00 0.  1.
<scales pt_clust_3="34.47606" pt_clust_4="31.70731" pt_clust_5="214.98070" pt_clust_6="14000.00000"></scales>
<clustering>
<clus scale="   31.707">  1  4  2 -1</clus>
<clus scale="   34.476">  2  3  1 -1</clus>
<clus scale="  214.981">  2  5  1 -1</clus>
<clus scale="   31.707">  1  3  2 -1</clus>
</clustering>
</event>
<event>
 6    0  0.8641190E+002  0.1363984E+03  0.7546771E-02  0.1218259E+00
         21   -1    0    0  505  501  0.00000000000E+00  0.00000000000E+00  0.19159343098E+03  0.19159343098E+03  0.00000000000E+00 0.  1.
         21   -1    0    0  501  502 -0.00000000000E+00 -0.00000000000E+00 -0.19741303347E+03  0.19741303347E+03  0.00000000000E+00 0.  1.
         21    1    1    2  503  504 -0.29688298097E+02  0.12338843989E+03 -0.66101193882E+02  0.14309252243E+03  0.00000000000E+00 0.  1.
         21    1    1    2  504  502  0.33404336864E+02  0.23474121061E+02 -0.19534927587E+02  0.45260330055E+02  0.00000000000E+00 0.  1.
         21    1    1    2  505  506  0.37797935247E+02 -0.77736033486E+01  0.11777868246E+02  0.40346387674E+02  0.00000000000E+00 0.  1.
         21    1    1    2  506  503 -0.41513974013E+02 -0.13908895760E+03  0.68038650739E+02  0.16030722429E+03  0.00000000000E+00 0.  1.
<scales pt_clust_3="136.39840" pt_clust_4="42.93880" pt_clust_5="38.58902" pt_clust_6="14000.00000"></scales>
<clustering>
<clus scale="   38.589">  1  5  2 -1</clus>
<clus scale="   42.939">  2  4  1 -1</clus>
<clus scale="  136.398">  2  3  1 -1</clus>
<clus scale="   38.589">  1  3  2 -1</clus>
</clustering>
</event>
<event>
 6    0  0.8641190E+002  0.1864682E+03  0.7546771E-02  0.1161686E+00
         21   -1    0    0  506  501  0.00000000000E+00  0.00000000000E+00  0.86250029073E+03  0.86250029073E+03  0.00000000000E+00 0. -1.
         21   -1    0    0  505  502 -0.00000000000E+00 -0.00000000000E+00 -0.21392614025E+03  0.21392614025E+03  0.00000000000E+00 0.  1.
         21    1    1    2  503  502 -0.47475142454E+02 -0.13149599327E+02  0.18955580832E+03  0.19585250976E+03  0.00000000000E+00 0.  1.
         21    1    1    2  504  503 -0.74671381672E+02 -0.91803263185E+02  0.49807164315E+03  0.51193653521E+03  0.00000000000E+00 0. -1.
         21    1    1    2  505  501  0.16145528381E+03  0.83720134396E+02 -0.15841461384E+03  0.24118884604E+03  0.00000000000E+00 0.  1.
         21    1    1    2  506  504 -0.39308759687E+02  0.21232728116E+02  0.11936131286E+03  0.12744853997E+03  0.00000000000E+00 0. -1.
<scales pt_clust_3="30.25556" pt_clust_4="30.25556" pt_clust_5="180.47556" pt_clust_6="44.67670"></scales>
<clustering>
<clus scale="   30.256">  3  4 -1 -1</clus>
<clus scale="   44.677">  1  6  2 -1</clus>
<clus scale="  180.476">  2  5  1 -1</clus>
<clus scale="   44.677">  1  3  2 -1</clus>
</clustering>
</event>
<event>
 6    0  0.8641190E+002  0.1165770E+03  0.7546771E-02  0.1248853E+00
         21   -1    0    0  506  501  0.00000000000E+00  0.00000000000E+00  0.14548097094E+03  0.14548097094E+03  0.00000000000E+00 0. -1.
         21   -1    0    0  504  502 -0.00000000000E+00 -0.00000000000E+00 -0.99734463654E+03  0.99734463654E+03  0.00000000000E+00 0. -1.
         21    1    1    2  503  505  0.72692770075E+02 -0.57820818157E+02 -0.40711793388E+03  0.41757933129E+03  0.00000000000E+00 0. -1.
         21    1    1    2  504  501 -0.61467066195E+02  0.16266652688E+02 -0.10463919309E+03  0.12244249649E+03  0.00000000000E+00 0.  1.
         21    1    1    2  505  502  0.77232770991E+02 -0.18793917049E+02 -0.44551181646E+03  0.45254711450E+03  0.00000000000E+00 0. -1.
         21    1    1    2  506  503 -0.88458474871E+02  0.60348082519E+02  0.10540527784E+03  0.15025666520E+03  0.00000000000E+00 0. -1.
<scales pt_clust_3="39.19355" pt_clust_4="63.58305" pt_clust_5="39.19355" pt_clust_6="108.60546"></scales>
<clustering>
<clus scale="   39.194">  3  5 -1 -1</clus>
<clus scale="   63.583">  2  4  1 -1</clus>
<clus scale="  108.605">  1  6  2 -1</clus>
<clus scale="  108.605">  1  3  2 -1</clus>
</clustering>
</event>
<event>
 6    0  0.8641190E+002  0.9508986E+02  0.7546771E-02  0.1290974E+00
         21   -1    0    0  505  501  0.00000000000E+00  0.00000000000E+00  0.16951972224E+03  0.16951972224E+03  0.00000000000E+00 0.  1.
         21   -1    0    0  503  502 -0.00000000000E+00 -0.00000000000E+00 -0.19319324547E+03  0.19319324547E+03  0.00000000000E+00 0.  1.
         21    1    1    2  503  504 -0.53258649130E+02  0.85000226711E+01 -0.54838904424E+02  0.76915795068E+02  0.00000000000E+00 0.  1.
         21    1    1    2  504  506  0.29990454879E+02  0.77513218418E+02 -0.25843758527E+02  0.87038073670E+02  0.00000000000E+00 0.  1.
         21    1    1    2  505  502  0.34210900522E+02 -0.11946459357E+03 -0.83280791044E+01  0.12454529993E+03  0.00000000000E+00 0.  1.
         21    1    1    2  506  501 -0.10942706271E+02  0.33451352484E+02  0.65337218831E+02  0.74213799041E+02  0.00000000000E+00 0.  1.
<scales pt_clust_3="55.81964" pt_clust_4="95.08986" pt_clust_5="14000.00000" pt_clust_6="35.19568"></scales>
<clustering>
<clus scale="   35.196">  1  6  2 -1</clus>
<clus scale="   55.820">  2  3  1 -1</clus>
<clus scale="   95.090">  2  4  1 -1</clus>
<clus scale="   35.196">  1  3  2 -1</clus>
</clustering>
</event>
<event>
 6    0  0.8641190E+002  0.2555451E+03  0.7546771E-02  0.1109850E+00
         21   -1    0    0  505  501  0.00000000000E+00  0.00000000000E+00  0.28063207388E+03  0.28063207388E+03  0.00000000000E+00 0.  1.
         21   -1    0    0  506  502 -0.00000000000E+00 -0.00000000000E+00 -0.39986474191E+03  0.39986474191E+03  0.00000000000E+00 0.  1.
         21    1    1    2  503  501  0.22661411216E+03  0.64110393997E+02  0.88425139794E+02  0.25156133208E+03  0.00000000000E+00 0.  1.
         21    1    1    2  504  502 -0.17403985058E+03 -0.10583854221E+02 -0.74682119621E+02  0.18968211975E+03  0.00000000000E+00 0.  1.
         21    1    1    2  505  504 -0.12143201614E+03 -0.32024517977E+02 -0.96756892145E+02  0.15853454031E+03  0.00000000000E+00 0.  1.
         21    1    1    2  506  503  0.68857754559E+02 -0.21502021798E+02 -0.36218796056E+02  0.80718823654E+02  0.00000000000E+00 0. -1.
<scales pt_clust_3="250.11773" pt_clust_4="44.45967" pt_clust_5="44.45967" pt_clust_6="72.13687"></scales>
<clustering>
<clus scale="   44.460">  4  5 -1 -1</clus>
<clus scale="   72.137">  2  6  1 -1</clus>
<clus scale="  250.118">  1  3  2 -1</clus>
<clus scale="  250.118">  1  3  2 -1</clus>
</clustering>
</event>
<event>
 6    0  0.3305533E+003  0.1275166E+03  0.7546771E-02  0.1231188E+00
         21   -1    0    0  504  501  0.00000000000E+00  0.00000000000E+00  0.12748726283E+04  0.12748726283E+04  0.00000000000E+00 0. -1.
         21   -1    0    0  505  502 -0.00000000000E+00 -0.00000000000E+00 -0.26435700887E+03  0.26435700887E+03  0.00000000000E+00 0.  1.
         21    1    1    2  503  502  0.78487557172E+02 -0.35404495738E+01  0.30503091014E+03  0.31498680537E+03  0.00000000000E+00 0. -1.
         21    1    1    2  504  503  0.50807705039E+02 -0.40425398232E+02  0.88906901665E+03  0.89143667867E+03  0.00000000000E+00 0. -1.
         21    1    1    2  505  506 -0.12948415760E+03  0.13194247972E+02 -0.23744349178E+03  0.27077600897E+03  0.00000000000E+00 0.  1.
         21    1    1    2  506  501  0.18889539182E+00  0.30771599834E+02  0.53859184371E+02  0.62030144115E+02  0.00000000000E+00 0. -1.
<scales pt_clust_3="14000.00000" pt_clust_4="54.00373" pt_clust_5="127.51660" pt_clust_6="30.77218"></scales>
<clustering>
<clus scale="   30.772">  1  6  2 -1</clus>
<clus scale="   54.004">  1  4  2 -1</clus>
<clus scale="  127.517">  2  5  1 -1</clus>
<clus scale="   30.772">  1  3  2 -1</clus>
</clustering>
</event>
<event>
 6    0  0.8641190E+002  0.1569610E+03  0.7546771E-02  0.1192171E+00
         21   -1    0    0  504  501  0.00000000000E+00  0.00000000000E+00  0.10512351863E+04  0.10512351863E+04  0.00000000000E+00 0.  1.
         21   -1    0    0  501  502 -0.00000000000E+00 -0.00000000000E+00 -0.42862923073E+02  0.42862923073E+02  0.00000000000E+00 0.  1.
         21    1    1    2  503  502  0.50036873325E+02  0.15062339221E+03  0.16899569087E+03  0.23184183942E+03  0.00000000000E+00 0.  1.
         21    1    1    2  504  505 -0.47667623569E+02 -0.23294536345E+02  0.35083201968E+03  0.35482100247E+03  0.00000000000E+00 0.  1.
         21    1    1    2  505  506 -0.50637764354E+01 -0.56574368762E+02  0.31364719627E+03  0.31874890550E+03  0.00000000000E+00 0.  1.
         21    1    1    2  506  503  0.26945266804E+01 -0.70754487102E+02  0.17489735641E+03  0.18868636198E+03  0.00000000000E+00 0.  1.
<scales pt_clust_3="148.45957" pt_clust_4="53.05504" pt_clust_5="45.63917" pt_clust_6="45.63917"></scales>
<clustering>
<clus scale="   45.639">  5  6 -1 -1</clus>
<clus scale="   53.055">  1  4  2 -1</clus>
<clus scale="  148.460">  2  3  1 -1</clus>
<clus scale="   53.055">  1  3  2 -1</clus>
</clustering>
</event>
<event>
 6    0  0.8641190E+002  0.3137303E+03  0.7546771E-02  0.1078572E+00
         21   -1    0    0  503  501  0.00000000000E+00  0.00000000000E+00  0.26387284728E+03  0.26387284728E+03  0.00000000000E+00 0.  1.
         21   -1    0    0  506  502 -0.00000000000E+00 -0.00000000000E+00 -0.10179038168E+04  0.10179038168E+04  0.00000000000E+00 0.  1.
         21    1    1    2  503  504  0.24279844803E+03  0.18009767122E+03  0.10184023979E+03  0.31899481498E+03  0.00000000000E+00 0.  1.
         21    1    1    2  504  502 -0.12733754679E+02  0.81168606134E+02 -0.22688812202E+03  0.24130625986E+03  0.00000000000E+00 0.  1.
         21    1    1    2  505  501 -0.78229921253E+02 -0.12071397147E+03 -0.21523197383E+03  0.25887561887E+03  0.00000000000E+00 0.  1.
         21    1    1    2  506  505 -0.15183477210E+03 -0.14055230588E+03 -0.41375111342E+03  0.46259997035E+03  0.00000000000E+00 0.  1.
<scales pt_clust_3="307.74866" pt_clust_4="82.16137" pt_clust_5="50.83820" pt_clust_6="50.83820"></scales>
<clustering>
<clus scale="   50.838">  5  6 -1 -1</clus>
<clus scale="   82.161">  2  4  1 -1</clus>
<clus scale="  307.749">  1  3  2 -1</clus>
<clus scale="  307.749">  1  3  2 -1</clus>
</clustering>
</event>
<event>
 6    0  0.8641190E+002  0.1780433E+03  0.7546771E-02  0.1169710E+00
         21   -1    0    0  504  501  0.00000000000E+00  0.00000000000E+00  0.25631231481E+03  0.25631231481E+03  0.00000000000E+00 0. -1.
         21   -1    0    0  503  502 -0.00000000000E+00 -0.00000000000E+00 -0.96197649508E+03  0.96197649508E+03  0.00000000000E+00 0. -1.
         21    1    1    2  503  506  0.52182223564E+01  0.60030578938E+02 -0.32698739529E+03  0.33249309305E+03  0.00000000000E+00 0. -1.
         21    1    1    2  504  502 -0.69208153564E+02 -0.38101411951E+02  0.21606627006E+03  0.23005677380E+03  0.00000000000E+00 0. -1.
         21    1    1    2  505  501  0.10502533187E+03 -0.12554671203E+03 -0.32539400557E+03  0.36424381409E+03  0.00000000000E+00 0. -1.
         21    1    1    2  506  505 -0.41035400667E+02  0.10361754504E+03 -0.26934904947E+03  0.29149512895E+03  0.00000000000E+00 0. -1.
<scales pt_clust_3="55.41976" pt_clust_4="79.00308" pt_clust_5="161.30358" pt_clust_6="55.41976"></scales>
<clustering>
<clus scale="   55.420">  3  6 -1 -1</clus>
<clus scale="   79.003">  1  4  2 -1</clus>
<clus scale="  161.304">  1  5  2 -1</clus>
<clus scale="   79.003">  1  3  2 -1</clus>
</clustering>
</event>
<event>
 6    0  0.8641190E+002  0.1063689E+03  0.7546771E-02  0.1267446E+00
         21   -1    0    0  504  501  0.00000000000E+00  0.00000000000E+00  0.33728357791E+03  0.33728357791E+03  0.00000000000E+00 0.  1.
         21   -1    0    0  503  502 -0.00000000000E+00 -0.00000000000E+00 -0.16838187907E+04  0.16838187907E+04  0.00000000000E+00 0. -1.
         21    1    1    2  503  505  0.23442884332E+02  0.45435255508E+02 -0.32114408363E+03  0.32518833577E+03  0.00000000000E+00 0. -1.
         21    1    1    2  504  506 -0.57864292169E+02 -0.89412853394E+02  0.32317936889E+03  0.34027612190E+03  0.00000000000E+00 0.  1.
         21    1    1    2  505  501  0.45241050491E+02  0.74632612751E+02 -0.12164536744E+04  0.12195803875E+04  0.00000000000E+00 0. -1.
         21    1    1    2  506  502 -0.10819642655E+02 -0.30655014866E+02 -0.13211682364E+03  0.13605752346E+03  0.00000000000E+00 0.  1.
<scales pt_clust_3="44.42084" pt_clust_4="14000.00000" pt_clust_5="106.36894" pt_clust_6="32.50838"></scales>
<clustering>
<clus scale="   32.508">  2  6  1 -1</clus>
<clus scale="   44.421">  2  3  1 -1</clus>
<clus scale="  106.369">  2  5  1 -1</clus>
<clus scale="  106.369">  1  3  2 -1</clus>
</clustering>
</event>
<event>
 6    0  0.8641190E+002  0.1768821E+03  0.7546771E-02  0.1170855E+00
         21   -1    0    0  506  501  0.00000000000E+00  0.00000000000E+00  0.26514577784E+03  0.26514577784E+03  0.00000000000E+00 0.  1.
         21   -1    0    0  505  502 -0.00000000000E+00 -0.00000000000E+00 -0.20932696017E+03  0.20932696017E+03  0.00000000000E+00 0.  1.
         21    1    1    2  503  502 -0.16913360453E+03 -0.29530904006E+00 -0.11394817565E+03  0.20393736814E+03  0.00000000000E+00 0.  1.
         21    1    1    2  504  501  0.82500018372E+02 -0.38789776559E+02  0.52478669550E+02  0.10518987857E+03  0.00000000000E+00 0.  1.
         21    1    1    2  505  504  0.40387209750E+02  0.39308618848E+02  0.24065426604E+02  0.61281636603E+02  0.00000000000E+00 0. -1.
         21    1    1    2  506  503  0.46246376412E+02 -0.22353324905E+00  0.93222897164E+02  0.10406385470E+03  0.00000000000E+00 0.  1.
<scales pt_clust_3="156.63667" pt_clust_4="62.93123" pt_clust_5="62.93123" pt_clust_6="46.24692"></scales>
<clustering>
<clus scale="   46.247">  1  6  2 -1</clus>
<clus scale="   62.931">  4  5 -1 -1</clus>
<clus scale="  156.637">  2  3  1 -1</clus>
<clus scale="   46.247">  1  3  2 -1</clus>
</clustering>
</event>
<event>
 6    0  0.8641190E+002  0.1507248E+03  0.7546771E-02  0.1199585E+00
         21   -1    0    0  505  501  0.00000000000E+00  0.00000000000E+00  0.97871296959E+03  0.97871296959E+03  0.00000000000E+00 0.  1.
         21   -1    0    0  504  502 -0.00000000000E+00 -0.00000000000E+00 -0.37757664962E+03  0.37757664962E+03  0.00000000000E+00 0. -1.
         21    1    1    2  503  502 -0.17919742493E+02 -0.41356023365E+02 -0.33154788429E+03  0.33459742590E+03  0.00000000000E+00 0. -1.
         21    1    1    2  504  506 -0.12508689786E+03 -0.34494138911E+02  0.13273044233E+03  0.18561774688E+03  0.00000000000E+00 0. -1.
         21    1    1    2  505  503  0.10321094145E+02 -0.33551947142E+02  0.27178095157E+02  0.44394898330E+02  0.00000000000E+00 0. -1.
         21    1    1    2  506  501  0.13268554621E+03  0.10940210942E+03  0.77277566678E+03  0.79167954810E+03  0.00000000000E+00 0.  1.
<scales pt_clust_3="45.11464" pt_clust_4="150.72483" pt_clust_5="35.10353" pt_clust_6="14000.00000"></scales>
<clustering>
<clus scale="   35.104">  1  5  2 -1</clus>
<clus scale="   45.115">  2  3  1 -1</clus>
<clus scale="  150.725">  2  4  1 -1</clus>
<clus scale="   35.104">  1  3  2 -1</clus>
</clustering>
</event>
<event>
 6    0  0.8641190E+002  0.1378533E+03  0.7546771E-02  0.1216247E+00
         21   -1    0    0  504  501  0.00000000000E+00  0.00000000000E+00  0.32887910499E+03  0.32887910499E+03  0.00000000000E+00 0. -1.
         21   -1    0    0  505  502 -0.00000000000E+00 -0.00000000000E+00 -0.14986945449E+03  0.14986945449E+03  0.00000000000E+00 0.  1.
         21    1    1    2  503  506  0.67479546324E+02  0.89496670789E+01 -0.35504955539E+02  0.76773612529E+02  0.00000000000E+00 0.  1.
         21    1    1    2  504  503 -0.28192072358E+02 -0.48387069803E+02  0.19924196805E+03  0.20696246833E+03  0.00000000000E+00 0. -1.
         21    1    1    2  505  501 -0.94911368741E+02 -0.28517129741E+02  0.34827564361E+02  0.10504453267E+03  0.00000000000E+00 0. -1.
         21    1    1    2  506  502  0.55623894775E+02  0.67954532465E+02 -0.19554926363E+02  0.89967945945E+02  0.00000000000E+00 0.  1.
<scales pt_clust_3="53.57153" pt_clust_4="56.00091" pt_clust_5="123.69758" pt_clust_6="53.57153"></scales>
<clustering>
<clus scale="   53.572">  3  6 -1 -1</clus>
<clus scale="   56.001">  1  4  2 -1</clus>
<clus scale="  123.698">  1  5  2 -1</clus>
<clus scale="   56.001">  1  3  2 -1</clus>
</clustering>
</event>
<event>
 6    0  0.8641190E+002  0.1230841E+03  0.7546771E-02  0.1238094E+00
         21   -1    0    0  504  501  0.00000000000E+00  0.00000000000E+00  0.32804372815E+03  0.32804372815E+03  0.00000000000E+00 0. -1.
         21   -1    0    0  505  502 -0.00000000000E+00 -0.00000000000E+00 -0.15239233024E+04  0.15239233024E+04  0.00000000000E+00 0. -1.
         21    1    1    2  503  502  0.11477348373E+02 -0.50699138844E+02 -0.15431459822E+03  0.16283466286E+03  0.00000000000E+00 0. -1.
         21    1    1    2  504  503  0.29325915739E+02 -0.99523196934E+01 -0.84407573879E+02  0.89909379540E+02  0.00000000000E+00 0. -1.
         21    1    1    2  505  506  0.73920374306E+02  0.27713804641E+02 -0.12658236620E+04  0.12682830205E+04  0.00000000000E+00 0. -1.
         21    1    1    2  506  501 -0.11472363842E+03  0.32937653895E+02  0.30866625984E+03  0.33093996770E+03  0.00000000000E+00 0. -1.
<scales pt_clust_3="30.36601" pt_clust_4="30.36601" pt_clust_5="78.94477" pt_clust_6="116.62726"></scales>
<clustering>
<clus scale="   30.366">  3  4 -1 -1</clus>
<clus scale="   78.945">  2  5  1 -1</clus>
<clus scale="  116.627">  1  6  2 -1</clus>
<clus scale="  116.627">  1  3  2 -1</clus>
</clustering>
</event>
<event>
 6    0  0.8641190E+002  0.7145446E+02  0.7546771E-02  0.1355216E+00
         21   -1    0    0  503  501  0.00000000000E+00  0.00000000000E+00  0.23847672734E+04  0.23847672734E+04  0.00000000000E+00 0. -1.
         21   -1    0    0  505  502 -0.00000000000E+00 -0.00000000000E+00 -0.32616353632E+03  0.32616353632E+03  0.00000000000E+00 0.  1.
         21    1    1    2  503  502  0.62168201912E+02  0.29363084737E+02 -0.22755207716E+03  0.23771206089E+03  0.00000000000E+00 0.  1.
         21    1    1    2  504  501 -0.45548928538E+02  0.13129361666E+02  0.23187860488E+04  0.23192705373E+04  0.00000000000E+00 0. -1.
         21    1    1    2  505  506 -0.26203091276E+02  0.50439589131E+02 -0.16061770744E+02  0.59065511287E+02  0.00000000000E+00 0. -1.
         21    1    1    2  506  504  0.95838179023E+01 -0.92932035535E+02 -0.16568463898E+02  0.94882700163E+02  0.00000000000E+00 0. -1.
<scales pt_clust_3="66.04875" pt_clust_4="47.40343" pt_clust_5="71.45446" pt_clust_6="14000.00000"></scales>
<clustering>
<clus scale="   47.403">  1  4  2 -1</clus>
<clus scale="   66.049">  2  3  1 -1</clus>
<clus scale="   71.454">  2  5  1 -1</clus>
<clus scale="   47.403">  1  3  2 -1</clus>
</clustering>
</event>
<event>
 6    0  0.8641190E+002  0.7452040E+02  0.7546771E-02  0.1345363E+00
         21   -1    0    0  505  501  0.00000000000E+00  0.00000000000E+00  0.13960105619E+04  0.13960105619E+04  0.00000000000E+00 0.  1.
         21   -1    0    0  501  502 -0.00000000000E+00 -0.00000000000E+00 -0.29865321434E+03  0.29865321434E+03  0.00000000000E+00 0. -1.
         21    1    1    2  503  506 -0.10925858083E+02  0.41671352551E+02  0.26079408866E+02  0.50358828075E+02  0.00000000000E+00 0.  1.
         21    1    1    2  504  502 -0.73899851494E+02 -0.47060265797E+01 -0.20813190966E+03  0.22091225986E+03  0.00000000000E+00 0. -1.
         21    1    1    2  505  503  0.83080700659E+01  0.39240936951E+02  0.13104219588E+04  0.13110356918E+04  0.00000000000E+00 0.  1.
         21    1    1    2  506  504  0.76517639511E+02 -0.76206262922E+02 -0.31012110441E+02  0.11235699648E+03  0.00000000000E+00 0.  1.
<scales pt_clust_3="59.69335" pt_clust_4="14000.00000" pt_clust_5="40.11079" pt_clust_6="74.52040"></scales>
<clustering>
<clus scale="   40.111">  1  5  2 -1</clus>
<clus scale="   59.693">  1  3  2 -1</clus>
<clus scale="   74.520">  1  6  2 -1</clus>
<clus scale="   40.111">  1  3  2 -1</clus>
</clustering>
</event>
<event>
 6    0  0.8641190E+002  0.1486348E+03  0.7546771E-02  0.1202161E+00
         21   -1    0    0  503  501  0.00000000000E+00  0.00000000000E+00  0.37464625974E+03  0.37464625974E+03  0.00000000000E+00 0.  1.
         21   -1    0    0  504  502 -0.00000000000E+00 -0.00000000000E+00 -0.62679350197E+03  0.62679350197E+03  0.00000000000E+00 0. -1.
         21    1    1    2  503  505 -0.28794835641E+02  0.34056669392E+02  0.33943985144E+03  0.34235714106E+03  0.00000000000E+00 0.  1.
         21    1    1    2  504  501  0.76691563827E+02 -0.14039587484E+03 -0.36476346903E+03  0.39830263114E+03  0.00000000000E+00 0. -1.
         21    1    1    2  505  506 -0.42576951744E+02  0.37489908522E+02 -0.75437806711E+02  0.94388308291E+02  0.00000000000E+00 0. -1.
         21    1    1    2  506  502 -0.53197764414E+01  0.68849296925E+02 -0.15138581793E+03  0.16639168122E+03  0.00000000000E+00 0. -1.
<scales pt_clust_3="44.59820" pt_clust_4="138.33722" pt_clust_5="51.40730" pt_clust_6="51.40730"></scales>
<clustering>
<clus scale="   44.598">  1  3  2 -1</clus>
<clus scale="   51.407">  5  6 -1 -1</clus>
<clus scale="  138.337">  1  4  2 -1</clus>
<clus scale="   44.598">  1  3  2 -1</clus>
</clustering>
</event>
<event>
 6    0  0.8641190E+002  0.1311125E+03  0.7546771E-02  0.1225814E+00
         21   -1    0    0  502  501  0.00000000000E+00  0.00000000000E+00  0.10395496067E+04  0.10395496067E+04  0.00000000000E+00 0. -1.
         21   -1    0    0  503  502 -0.00000000000E+00 -0.00000000000E+00 -0.11470911832E+03  0.11470911832E+03  0.00000000000E+00 0.  1.
         21    1    1    2  503  504 -0.29948465617E+02 -0.92191642040E+01 -0.17726386090E+02  0.36001782529E+02  0.00000000000E+00 0. -1.
         21    1    1    2  504  506 -0.13393507240E+02 -0.54432925400E+02 -0.53258367612E+02  0.77322591295E+02  0.00000000000E+00 0.  1.
         21    1    1    2  505  501  0.57616884017E+02  0.10609326442E+03  0.98815724990E+03  0.99550501586E+03  0.00000000000E+00 0. -1.
         21    1    1    2  506  505 -0.14274911161E+02 -0.42441174812E+02  0.76679922336E+01  0.45429335379E+02  0.00000000000E+00 0.  1.
<scales pt_clust_3="31.33534" pt_clust_4="44.30447" pt_clust_5="119.79591" pt_clust_6="44.30447"></scales>
<clustering>
<clus scale="   31.335">  2  3  1 -1</clus>
<clus scale="   44.304">  4  6 -1 -1</clus>
<clus scale="  119.796">  1  5  2 -1</clus>
<clus scale="  119.796">  1  3  2 -1</clus>
</clustering>
</event>
<event>
 6    0  0.8641190E+002  0.1099708E+03  0.7546771E-02  0.1260624E+00
         21   -1    0    0  506  501  0.00000000000E+00  0.00000000000E+00  0.17443418527E+03  0.17443418527E+03  0.00000000000E+00 0.  1.
         21   -1    0    0  505  502 -0.00000000000E+00 -0.00000000000E+00 -0.20280654828E+03  0.20280654828E+03  0.00000000000E+00 0.  1.
         21    1    1    2  503  502  0.55186517620E+02  0.11003761379E+03 -0.53303590214E+02  0.13414581956E+03  0.00000000000E+00 0.  1.
         21    1    1    2  504  501  0.23923211629E+02 -0.39265049886E+02  0.65856262009E+02  0.80318811265E+02  0.00000000000E+00 0.  1.
         21    1    1    2  505  504 -0.35321068223E+02 -0.93800954083E+02 -0.50732372369E+02  0.11233864185E+03  0.00000000000E+00 0.  1.
         21    1    1    2  506  503 -0.43788661026E+02  0.23028390175E+02  0.98073375690E+01  0.50437460867E+02  0.00000000000E+00 0.  1.
<scales pt_clust_3="14000.00000" pt_clust_4="45.97895" pt_clust_5="109.97084" pt_clust_6="38.39651"></scales>
<clustering>
<clus scale="   45.979">  1  4  2 -1</clus>
<clus scale="   38.397">  1  6  2 -1</clus>
<clus scale="  109.971">  2  5  1 -1</clus>
<clus scale="   45.979">  1  3  2 -1</clus>
</clustering>
</event>
<event>
 6    0  0.8641190E+002  0.1062376E+03  0.7546771E-02  0.1267700E+00
         21   -1    0    0  506  501  0.00000000000E+00  0.00000000000E+00  0.33602572917E+02  0.33602572917E+02  0.00000000000E+00 0.  1.
         21   -1    0    0  503  502 -0.00000000000E+00 -0.00000000000E+00 -0.14316396004E+04  0.14316396004E+04  0.00000000000E+00 0. -1.
         21    1    1    2  503  501 -0.27827080760E+02 -0.16660221560E+02 -0.19896365608E+02  0.38049635615E+02  0.00000000000E+00 0.  1.
         21    1    1    2  504  502 -0.39918984311E+02 -0.11273148414E+03 -0.10979896044E+04  0.11044831752E+04  0.00000000000E+00 0. -1.
         21    1    1    2  505  504  0.24549335034E+02  0.73433677779E+02 -0.20688680269E+03  0.22090116344E+03  0.00000000000E+00 0. -1.
         21    1    1    2  506  505  0.43196730038E+02  0.55958027919E+02 -0.73264254756E+02  0.10180819908E+03  0.00000000000E+00 0.  1.
<scales pt_clust_3="32.43315" pt_clust_4="14000.00000" pt_clust_5="106.23757" pt_clust_6="53.56762"></scales>
<clustering>
<clus scale="   32.433">  1  3  2 -1</clus>
<clus scale="   53.568">  1  6  2 -1</clus>
<clus scale="  106.238">  1  5  2 -1</clus>
<clus scale="   32.433">  1  3  2 -1</clus>
</clustering>
</event>
<event>
 6    0  0.8641190E+002  0.9808235E+02  0.7546771E-02  0.1284381E+00
         21   -1    0    0  506  501  0.00000000000E+00  0.00000000000E+00  0.11804295590E+04  0.11804295590E+04  0.00000000000E+00 0.  1.
         21   -1    0    0  504  502 -0.00000000000E+00 -0.00000000000E+00 -0.15144621396E+03  0.15144621396E+03  0.00000000000E+00 0. -1.
         21    1    1    2  503  505 -0.43190846131E+02  0.47613287755E+02  0.76908365631E+02  0.10023657548E+03  0.00000000000E+00 0.  1.
         21    1    1    2  504  503 -0.22554938127E+02 -0.29594775835E+02 -0.10010000874E+02  0.38532792634E+02  0.00000000000E+00 0. -1.
         21    1    1    2  505  501  0.97226431945E+02  0.20132001009E+02  0.10698946136E+04  0.10744918617E+04  0.00000000000E+00 0.  1.
         21    1    1    2  506  502 -0.31480647687E+02 -0.38150512929E+02 -0.10780963334E+03  0.11861454319E+03  0.00000000000E+00 0. -1.
<scales pt_clust_3="63.75217" pt_clust_4="37.20989" pt_clust_5="98.08235" pt_clust_6="14000.00000"></scales>
<clustering>
<clus scale="   37.210">  2  4  1 -1</clus>
<clus scale="   63.752">  2  3  1 -1</clus>
<clus scale="   98.082">  1  5  2 -1</clus>
<clus scale="   98.082">  1  3  2 -1</clus>
</clustering>
</event>
<event>
 6    0  0.8641190E+002  0.9348985E+02  0.7546771E-02  0.1294614E+00
         21   -1    0    0  503  501  0.00000000000E+00  0.00000000000E+00  0.54978970612E+03  0.54978970612E+03  0.00000000000E+00 0. -1.
         21   -1    0    0  506  502 -0.00000000000E+00 -0.00000000000E+00 -0.14405545669E+03  0.14405545669E+03  0.00000000000E+00 0.  1.
         21    1    1    2  503  505  0.83428636636E+02  0.41269762201E+02  0.47759142071E+03  0.48657691665E+03  0.00000000000E+00 0. -1.
         21    1    1    2  504  501 -0.81233083289E+02 -0.59545293423E+02 -0.23738350583E+02  0.10347929782E+03  0.00000000000E+00 0.  1.
         21    1    1    2  505  502  0.23219644520E+02 -0.21160803988E+02  0.61918376409E+01  0.32019843385E+02  0.00000000000E+00 0. -1.
         21    1    1    2  506  504 -0.25415197867E+02  0.39436335210E+02 -0.54310658335E+02  0.71769104956E+02  0.00000000000E+00 0.  1.
<scales pt_clust_3="14000.00000" pt_clust_4="93.48985" pt_clust_5="31.41547" pt_clust_6="32.55090"></scales>
<clustering>
<clus scale="   31.415">  2  5  1 -1</clus>
<clus scale="   32.551">  2  6  1 -1</clus>
<clus scale="   93.490">  2  4  1 -1</clus>
<clus scale="   93.490">  1  3  2 -1</clus>
</clustering>
</event>
<event>
 6    0  0.8641190E+002  0.1458903E+03  0.7546771E-02  0.1205616E+00
         21   -1    0    0  504  501  0.00000000000E+00  0.00000000000E+00  0.28516770225E+04  0.28516770225E+04  0.00000000000E+00 0.  1.
         21   -1    0    0  503  502 -0.00000000000E+00 -0.00000000000E+00 -0.11737800762E+03  0.11737800762E+03  0.00000000000E+00 0.  1.
         21    1    1    2  503  506 -0.42357318283E+02  0.52345271309E+02  0.49305208660E+02  0.83457614641E+02  0.00000000000E+00 0.  1.
         21    1    1    2  504  502  0.74509596590E+02  0.10895889474E+03  0.46069265916E+03  0.47923005637E+03  0.00000000000E+00 0.  1.
         21    1    1    2  505  501  0.31325235213E+02 -0.43027170469E+01  0.22363662890E+04  0.22365898065E+04  0.00000000000E+00 0.  1.
         21    1    1    2  506  505 -0.63477513520E+02 -0.15700144900E+03 -0.12065141999E+02  0.16977755259E+03  0.00000000000E+00 0.  1.
<scales pt_clust_3="64.89117" pt_clust_4="145.89028" pt_clust_5="31.61936" pt_clust_6="14000.00000"></scales>
<clustering>
<clus scale="   31.619">  1  5  2 -1</clus>
<clus scale="   64.891">  2  3  1 -1</clus>
<clus scale="  145.890">  1  4  2 -1</clus>
<clus scale="   31.619">  1  3  2 -1</clus>
</clustering>
</event>
<event>
 6    0  0.8641190E+002  0.1036388E+03  0.7546771E-02  0.1272825E+00
         21   -1    0    0  504  501  0.00000000000E+00  0.00000000000E+00  0.13625722542E+04  0.13625722542E+04  0.00000000000E+00 0.  1.
         21   -1    0    0  505  502 -0.00000000000E+00 -0.00000000000E+00 -0.24579787645E+02  0.24579787645E+02  0.00000000000E+00 0.  1.
         21    1    1    2  503  506 -0.45328530786E+02  0.80306537584E+02  0.31100834073E+03  0.32439174417E+03  0.00000000000E+00 0.  1.
         21    1    1    2  504  502  0.29793714797E+02 -0.16298544166E+02  0.19299792219E+03  0.19596302190E+03  0.00000000000E+00 0.  1.
         21    1    1    2  505  503  0.56738383093E+02 -0.95203166301E+02  0.18428484010E+03  0.21504369156E+03  0.00000000000E+00 0.  1.
         21    1    1    2  506  501 -0.41203567105E+02  0.31195172883E+02  0.64970136351E+03  0.65175358419E+03  0.00000000000E+00 0.  1.
<scales pt_clust_3="103.63881" pt_clust_4="33.96039" pt_clust_5="14000.00000" pt_clust_6="33.08391"></scales>
<clustering>
<clus scale="   33.960">  1  4  2 -1</clus>
<clus scale="   33.084">  1  6  2 -1</clus>
<clus scale="  103.639">  1  3  2 -1</clus>
<clus scale="   33.960">  1  3  2 -1</clus>
</clustering>
</event>
<event>
 6    0  0.8641190E+002  0.1134587E+03  0.7546771E-02  0.1254296E+00
         21   -1    0    0  503  501  0.00000000000E+00  0.00000000000E+00  0.26070755469E+03  0.26070755469E+03  0.00000000000E+00 0.  1.
         21   -1    0    0  504  502 -0.00000000000E+00 -0.00000000000E+00 -0.27643884118E+03  0.27643884118E+03  0.00000000000E+00 0.  1.
         21    1    1    2  503  505 -0.44744349852E+02  0.46345920863E+02  0.67151034134E+02  0.93055158963E+02  0.00000000000E+00 0.  1.
         21    1    1    2  504  506  0.15660969701E+02 -0.32311402672E+02 -0.18274178526E+03  0.18623601368E+03  0.00000000000E+00 0.  1.
         21    1    1    2  505  502  0.26662472300E+02  0.93666046480E+02  0.11317491513E+03  0.14930765924E+03  0.00000000000E+00 0.  1.
         21    1    1    2  506  501  0.24209078514E+01 -0.10770056467E+03 -0.13315450494E+02  0.10854756399E+03  0.00000000000E+00 0.  1.
<scales pt_clust_3="59.63467" pt_clust_4="35.90672" pt_clust_5="14000.00000" pt_clust_6="113.45873"></scales>
<clustering>
<clus scale="   35.907">  2  4  1 -1</clus>
<clus scale="   59.635">  1  3  2 -1</clus>
<clus scale="  113.459">  2  6  1 -1</clus>
<clus scale="   59.635">  1  3  2 -1</clus>
</clustering>
</event>
<event>
 6    0  0.8641190E+002  0.8627337E+02  0.7546771E-02  0.1312136E+00
         21   -1    0    0  506  501  0.00000000000E+00  0.00000000000E+00  0.15748341252E+03  0.15748341252E+03  0.00000000000E+00 0. -1.
         21   -1    0    0  505  502 -0.00000000000E+00 -0.00000000000E+00 -0.68657921225E+03  0.68657921225E+03  0.00000000000E+00 0. -1.
         21    1    1    2  503  501  0.60922419798E+02  0.13046371951E+02 -0.32542367415E+02  0.70290502432E+02  0.00000000000E+00 0. -1.
         21    1    1    2  504  503 -0.29186903628E+02 -0.61784658140E+02  0.48525046511E+02  0.83808707565E+02  0.00000000000E+00 0. -1.
         21    1    1    2  505  504 -0.47152889320E+02 -0.23675248346E+02  0.60271095368E+02  0.80103166556E+02  0.00000000000E+00 0. -1.
         21    1    1    2  506  502  0.15417373151E+02  0.72413534535E+02 -0.60534957420E+03  0.60986024822E+03  0.00000000000E+00 0. -1.
<scales pt_clust_3="62.30368" pt_clust_4="38.29609" pt_clust_5="38.29609" pt_clust_6="74.45638"></scales>
<clustering>
<clus scale="   38.296">  4  5 -1 -1</clus>
<clus scale="   62.304">  1  3  2 -1</clus>
<clus scale="   74.456">  2  6  1 -1</clus>
<clus scale="   62.304">  1  3  2 -1</clus>
</clustering>
</event>
<event>
 6    0  0.8641190E+002  0.8705272E+02  0.7546771E-02  0.1310150E+00
         21   -1    0    0  504  501  0.00000000000E+00  0.00000000000E+00  0.94929943088E+03  0.94929943088E+03  0.00000000000E+00 0.  1.
         21   -1    0    0  506  502 -0.00000000000E+00 -0.00000000000E+00 -0.24941908970E+03  0.24941908970E+03  0.00000000000E+00 0.  1.
         21    1    1    2  503  505  0.30818300405E+02  0.53038463519E+02  0.96281182240E+01  0.62093050439E+02  0.00000000000E+00 0.  1.
         21    1    1    2  504  503 -0.49174261270E+01 -0.12724471907E+03  0.63678059170E+03  0.64938811321E+03  0.00000000000E+00 0.  1.
         21    1    1    2  505  502  0.65694584855E+00  0.32337530104E+02 -0.21338062094E+03  0.21581806417E+03  0.00000000000E+00 0.  1.
         21    1    1    2  506  501 -0.26557820127E+02  0.41868725443E+02  0.26685225220E+03  0.27141929276E+03  0.00000000000E+00 0.  1.
<scales pt_clust_3="14000.00000" pt_clust_4="87.05272" pt_clust_5="32.34420" pt_clust_6="51.36247"></scales>
<clustering>
<clus scale="   32.344">  2  5  1 -1</clus>
<clus scale="   51.362">  1  6  2 -1</clus>
<clus scale="   87.053">  1  4  2 -1</clus>
<clus scale="   51.362">  1  3  2 -1</clus>
</clustering>
</event>
<event>
 6    0  0.8641190E+002  0.2497565E+03  0.7546771E-02  0.1113459E+00
         21   -1    0    0  503  501  0.00000000000E+00  0.00000000000E+00  0.17595084533E+04  0.17595084533E+04  0.00000000000E+00 0. -1.
         21   -1    0    0  506  502 -0.00000000000E+00 -0.00000000000E+00 -0.58423648428E+02  0.58423648428E+02  0.00000000000E+00 0. -1.
         21    1    1    2  503  502  0.13647584554E+02  0.30723136459E+02  0.27035510750E+03  0.27243724384E+03  0.00000000000E+00 0. -1.
         21    1    1    2  504  501 -0.12517463472E+03  0.17065655672E+03  0.11402497360E+04  0.11597248855E+04  0.00000000000E+00 0. -1.
         21    1    1    2  505  504  0.12507279291E+03 -0.12881998096E+03  0.19475268237E+03  0.26488940770E+03  0.00000000000E+00 0. -1.
         21    1    1    2  506  505 -0.13545742735E+02 -0.72559712217E+02  0.95727278994E+02  0.12088056472E+03  0.00000000000E+00 0. -1.
<scales pt_clust_3="33.61797" pt_clust_4="225.67787" pt_clust_5="67.84223" pt_clust_6="67.84223"></scales>
<clustering>
<clus scale="   33.618">  1  3  2 -1</clus>
<clus scale="   67.842">  5  6 -1 -1</clus>
<clus scale="  225.678">  1  4  2 -1</clus>
<clus scale="   33.618">  1  3  2 -1</clus>
</clustering>
</event>
<event>
 6    0  0.8641190E+002  0.7215124E+02  0.7546771E-02  0.1352927E+00
         21   -1    0    0  504  501  0.00000000000E+00  0.00000000000E+00  0.63667426338E+03  0.63667426338E+03  0.00000000000E+00 0.  1.
         21   -1    0    0  503  502 -0.00000000000E+00 -0.00000000000E+00 -0.77621260693E+02  0.77621260693E+02  0.00000000000E+00 0.  1.
         21    1    1    2  503  505  0.33160633080E+02  0.76808908318E+01 -0.11804066932E+02  0.36027207308E+02  0.00000000000E+00 0.  1.
         21    1    1    2  504  506 -0.43731131879E+02  0.11381455965E+03  0.77719122808E+02  0.14459055271E+03  0.00000000000E+00 0.  1.
         21    1    1    2  505  501  0.10177531560E+02 -0.67875766986E+02  0.47049016197E+03  0.47546997214E+03  0.00000000000E+00 0.  1.
         21    1    1    2  506  502  0.39296723886E+00 -0.53619683496E+02  0.22647784841E+02  0.58207791915E+02  0.00000000000E+00 0.  1.
<scales pt_clust_3="34.03856" pt_clust_4="14000.00000" pt_clust_5="72.15124" pt_clust_6="52.32730"></scales>
<clustering>
<clus scale="   34.039">  2  3  1 -1</clus>
<clus scale="   52.327">  2  6  1 -1</clus>
<clus scale="   72.151">  1  5  2 -1</clus>
<clus scale="   72.151">  1  3  2 -1</clus>
</clustering>
</event>
<event>
 6    0  0.8641190E+002  0.1203526E+03  0.7546771E-02  0.1242517E+00
         21   -1    0    0  506  501  0.00000000000E+00  0.00000000000E+00  0.20738196795E+04  0.20738196795E+04  0.00000000000E+00 0. -1.
         21   -1    0    0  503  502 -0.00000000000E+00 -0.00000000000E+00 -0.82768544553E+03  0.82768544553E+03  0.00000000000E+00 0. -1.
         21    1    1    2  503  504 -0.51809450719E+02  0.32249218097E+02 -0.50861200241E+02  0.79442387563E+02  0.00000000000E+00 0. -1.
         21    1    1    2  504  505 -0.14047740730E+03 -0.77400435663E+02 -0.51401738680E+03  0.53845947232E+03  0.00000000000E+00 0. -1.
         21    1    1    2  505  501  0.10795058787E+03  0.52906845607E+02  0.20378905284E+04  0.20414333860E+04  0.00000000000E+00 0. -1.
         21    1    1    2  506  502  0.84336270153E+02 -0.77556280409E+01 -0.22687770742E+03  0.24216987912E+03  0.00000000000E+00 0. -1.
<scales pt_clust_3="61.02648" pt_clust_4="14000.00000" pt_clust_5="120.35256" pt_clust_6="68.43601"></scales>
<clustering>
<clus scale="   61.026">  2  3  1 -1</clus>
<clus scale="   68.436">  2  6  1 -1</clus>
<clus scale="  120.353">  1  5  2 -1</clus>
<clus scale="  120.353">  1  3  2 -1</clus>
</clustering>
</event>
<event>
 6    0  0.8641190E+002  0.9746248E+02  0.7546771E-02  0.1285724E+00
         21   -1    0    0  504  501  0.00000000000E+00  0.00000000000E+00  0.41129778374E+03  0.41129778374E+03  0.00000000000E+00 0. -1.
         21   -1    0    0  503  502 -0.00000000000E+00 -0.00000000000E+00 -0.15239724906E+03  0.15239724906E+03  0.00000000000E+00 0. -1.
         21    1    1    2  503  505 -0.67765523259E+02  0.80669073858E+02 -0.98035786140E+02  0.14391205990E+03  0.00000000000E+00 0. -1.
         21    1    1    2  504  502  0.14558581255E+02 -0.35563463861E+02  0.19502688865E+03  0.19877675806E+03  0.00000000000E+00 0. -1.
         21    1    1    2  505  506  0.80957613411E+02 -0.25964627432E+02  0.38964020039E+02  0.93522681230E+02  0.00000000000E+00 0. -1.
         21    1    1    2  506  501 -0.27750671406E+02 -0.19140982565E+02  0.12294541213E+03  0.12748353361E+03  0.00000000000E+00 0. -1.
<scales pt_clust_3="14000.00000" pt_clust_4="48.94870" pt_clust_5="97.46248" pt_clust_6="33.71167"></scales>
<clustering>
<clus scale="   33.712">  1  6  2 -1</clus>
<clus scale="   48.949">  1  4  2 -1</clus>
<clus scale="   97.462">  1  5  2 -1</clus>
<clus scale="   33.712">  1  3  2 -1</clus>
</clustering>
</event>
<event>
 6    0  0.8641190E+002  0.1433274E+03  0.7546771E-02  0.1208920E+00
         21   -1    0    0  502  501  0.00000000000E+00  0.00000000000E+00  0.65378518958E+03  0.65378518958E+03  0.00000000000E+00 0.  1.
         21   -1    0    0  505  502 -0.00000000000E+00 -0.00000000000E+00 -0.51373635534E+03  0.51373635534E+03  0.00000000000E+00 0.  1.
         21    1    1    2  503  506  0.54961540007E+02 -0.83148883348E+02  0.52950708622E+02  0.11286401209E+03  0.00000000000E+00 0.  1.
         21    1    1    2  504  503 -0.52498394263E+00  0.56721300907E+02 -0.23634199841E+03  0.24305374261E+03  0.00000000000E+00 0.  1.
         21    1    1    2  505  504 -0.37375045101E+02  0.80533179033E+02 -0.23452198739E+03  0.25076492875E+03  0.00000000000E+00 0.  1.
         21    1    1    2  506  501 -0.17061510963E+02 -0.54105596592E+02  0.55796211143E+03  0.56083886146E+03  0.00000000000E+00 0.  1.
<scales pt_clust_3="136.65275" pt_clust_4="34.55381" pt_clust_5="34.55381" pt_clust_6="56.73192"></scales>
<clustering>
<clus scale="   34.554">  4  5 -1 -1</clus>
<clus scale="   56.732">  1  6  2 -1</clus>
<clus scale="  136.653">  1  3  2 -1</clus>
<clus scale="   56.732">  1  3  2 -1</clus>
</clustering>
</event>
<event>
 6    0  0.8641190E+002  0.9842762E+02  0.7546771E-02  0.1283638E+00
         21   -1    0    0  505  501  0.00000000000E+00  0.00000000000E+00  0.35664518253E+02  0.35664518253E+02  0.00000000000E+00 0.  1.
         21   -1    0    0  504  502 -0.00000000000E+00 -0.00000000000E+00 -0.17166390148E+04  0.17166390148E+04  0.00000000000E+00 0. -1.
         21    1    1    2  503  502 -0.47689756203E+02  0.13032366912E+02 -0.56888814809E+03  0.57103229372E+03  0.00000000000E+00 0. -1.
         21    1    1    2  504  501 -0.33043359495E+02 -0.36075824232E+02 -0.11780425520E+03  0.12755850126E+03  0.00000000000E+00 0.  1.
         21    1    1    2  505  506  0.10890051583E+03 -0.11391341641E+02 -0.73544531706E+02  0.13190103547E+03  0.00000000000E+00 0.  1.
         21    1    1    2  506  503 -0.28167400135E+02  0.34434798962E+02 -0.92073756156E+03  0.92181170261E+03  0.00000000000E+00 0. -1.
<scales pt_clust_3="37.83758" pt_clust_4="48.92166" pt_clust_5="89.98330" pt_clust_6="37.83758"></scales>
<clustering>
<clus scale="   37.838">  3  6 -1 -1</clus>
<clus scale="   48.922">  1  4  2 -1</clus>
<clus scale="   89.983">  1  5  2 -1</clus>
<clus scale="   48.922">  1  3  2 -1</clus>
</clustering>
</event>
<event>
 6    0  0.8641190E+002  0.1272788E+03  0.7546771E-02  0.1231550E+00
         21   -1    0    0  505  501  0.00000000000E+00  0.00000000000E+00  0.46232726129E+02  0.46232726129E+02  0.00000000000E+00 0.  1.
         21   -1    0    0  503  502 -0.00000000000E+00 -0.00000000000E+00 -0.78185209622E+03  0.78185209622E+03  0.00000000000E+00 0.  1.
         21    1    1    2  503  506 -0.71082674303E+02  0.96709800951E+02 -0.56264913915E+03  0.57530825301E+03  0.00000000000E+00 0.  1.
         21    1    1    2  504  501  0.41121735422E+02 -0.64784372501E+02 -0.55887516280E+02  0.94928533753E+02  0.00000000000E+00 0.  1.
         21    1    1    2  505  502  0.20516570338E+02  0.33662662860E+02 -0.48166426820E+02  0.62242342516E+02  0.00000000000E+00 0.  1.
         21    1    1    2  506  504  0.94443685430E+01 -0.65588091310E+02 -0.68916287836E+02  0.95605693073E+02  0.00000000000E+00 0.  1.
<scales pt_clust_3="122.58263" pt_clust_4="31.83245" pt_clust_5="39.42213" pt_clust_6="31.83245"></scales>
<clustering>
<clus scale="   31.832">  4  6 -1 -1</clus>
<clus scale="   39.422">  1  5  2 -1</clus>
<clus scale="  122.583">  2  3  1 -1</clus>
<clus scale="   39.422">  1  3  2 -1</clus>
</clustering>
</event>
<event>
 6    0  0.8641190E+002  0.9608500E+02  0.7546771E-02  0.1288751E+00
         21   -1    0    0  506  501  0.00000000000E+00  0.00000000000E+00  0.10078896690E+04  0.10078896690E+04  0.00000000000E+00 0. -1.
         21   -1    0    0  503  502 -0.00000000000E+00 -0.00000000000E+00 -0.92176905098E+02  0.92176905098E+02  0.00000000000E+00 0.  1.
         21    1    1    2  503  504  0.79070056988E+02  0.59516103877E+02 -0.48756087805E+02  0.11032405282E+03  0.00000000000E+00 0.  1.
         21    1    1    2  504  501  0.48977477561E+00 -0.47185655919E+02  0.72365460212E+03  0.72519149827E+03  0.00000000000E+00 0. -1.
         21    1    1    2  505  502 -0.65637144003E+02  0.23886293488E+02  0.13825474451E+03  0.15489726941E+03  0.00000000000E+00 0. -1.
         21    1    1    2  506  505 -0.13922687761E+02 -0.36216741446E+02  0.10255950504E+03  0.10965375356E+03  0.00000000000E+00 0. -1.
<scales pt_clust_3="96.08500" pt_clust_4="14000.00000" pt_clust_5="70.24539" pt_clust_6="38.80069"></scales>
<clustering>
<clus scale="   38.801">  1  6  2 -1</clus>
<clus scale="   70.245">  1  5  2 -1</clus>
<clus scale="   96.085">  2  3  1 -1</clus>
<clus scale="   38.801">  1  3  2 -1</clus>
</clustering>
</event>
<event>
 6    0  0.8641190E+002  0.1535620E+03  0.7546771E-02  0.1196163E+00
         21   -1    0    0  505  501  0.00000000000E+00  0.00000000000E+00  0.62521790910E+03  0.62521790910E+03  0.00000000000E+00 0. -1.
         21   -1    0    0  506  502 -0.00000000000E+00 -0.00000000000E+00 -0.12637358163E+03  0.12637358163E+03  0.00000000000E+00 0. -1.
         21    1    1    2  503  504 -0.16447226809E+03  0.64066905094E+02  0.27255940763E+03  0.32472192102E+03  0.00000000000E+00 0. -1.
         21    1    1    2  504  502  0.88023723420E+02  0.35544088943E+02 -0.34300676834E+02  0.10093609154E+03  0.00000000000E+00 0. -1.
         21    1    1    2  505  503 -0.45304224726E+02 -0.34835787802E+02  0.64068766745E+02  0.85853431860E+02  0.00000000000E+00 0. -1.
         21    1    1    2  506  501  0.12175276940E+03 -0.64775206235E+02  0.19651682992E+03  0.24008004632E+03  0.00000000000E+00 0.  1.
<scales pt_clust_3="153.56195" pt_clust_4="91.60057" pt_clust_5="57.14897" pt_clust_6="14000.00000"></scales>
<clustering>
<clus scale="   57.149">  1  5  2 -1</clus>
<clus scale="   91.601">  2  4  1 -1</clus>
<clus scale="  153.562">  2  3  1 -1</clus>
<clus scale="   57.149">  1  3  2 -1</clus>
</clustering>
</event>
<event>
 6    0  0.8641190E+002  0.1383419E+03  0.7546771E-02  0.1215578E+00
         21   -1    0    0  503  501  0.00000000000E+00  0.00000000000E+00  0.43800791923E+02  0.43800791923E+02  0.00000000000E+00 0. -1.
         21   -1    0    0  501  502 -0.00000000000E+00 -0.00000000000E+00 -0.18660689646E+04  0.18660689646E+04  0.00000000000E+00 0.  1.
         21    1    1    2  503  504  0.76508680560E+02 -0.28978652124E+02 -0.31429012268E+02  0.87642017846E+02  0.00000000000E+00 0. -1.
         21    1    1    2  504  506  0.56219596746E+02 -0.97140983433E+01 -0.69528063867E+02  0.89939748888E+02  0.00000000000E+00 0. -1.
         21    1    1    2  505  502 -0.41551059123E+02 -0.61511034239E+01 -0.12231043454E+04  0.12238253823E+04  0.00000000000E+00 0.  1.
         21    1    1    2  506  505 -0.91177218183E+02  0.44843853892E+02 -0.49820675111E+03  0.50846260747E+03  0.00000000000E+00 0.  1.
<scales pt_clust_3="39.42621" pt_clust_4="39.42621" pt_clust_5="42.00389" pt_clust_6="130.03639"></scales>
<clustering>
<clus scale="   39.426">  3  4 -1 -1</clus>
<clus scale="   42.004">  2  5  1 -1</clus>
<clus scale="  130.036">  2  6  1 -1</clus>
<clus scale="  138.342">  1  3  2 -1</clus>
</clustering>
</event>
<event>
 6    0  0.8641190E+002  0.1357431E+03  0.7546771E-02  0.1219174E+00
         21   -1    0    0  505  501  0.00000000000E+00  0.00000000000E+00  0.27559444222E+03  0.27559444222E+03  0.00000000000E+00 0. -1.
         21   -1    0    0  506  502 -0.00000000000E+00 -0.00000000000E+00 -0.20211771009E+03  0.20211771009E+03  0.00000000000E+00 0. -1.
         21    1    1    2  503  502 -0.30766472101E+02 -0.25924640369E+01 -0.32591506920E+02  0.44894353750E+02  0.00000000000E+00 0. -1.
         21    1    1    2  504  501 -0.25568944809E+01  0.95430545931E+02  0.10773884208E+03  0.14394854949E+03  0.00000000000E+00 0. -1.
         21    1    1    2  505  503 -0.63407127970E+02 -0.15231007006E+03 -0.38651864726E+02  0.16944848175E+03  0.00000000000E+00 0. -1.
         21    1    1    2  506  504  0.96730494552E+02  0.59471988169E+02  0.36981261685E+02  0.11942076733E+03  0.00000000000E+00 0. -1.
<scales pt_clust_3="30.87550" pt_clust_4="95.33014" pt_clust_5="14000.00000" pt_clust_6="135.74311"></scales>
<clustering>
<clus scale="   30.876">  2  3  1 -1</clus>
<clus scale="   95.330">  1  4  2 -1</clus>
<clus scale="  135.743">  2  6  1 -1</clus>
<clus scale="   95.330">  1  3  2 -1</clus>
</clustering>
</event>
<event>
 6    0  0.8641190E+002  0.1061549E+03  0.7546771E-02  0.1267861E+00
         21   -1    0    0  503  501  0.00000000000E+00  0.00000000000E+00  0.29700355025E+03  0.29700355025E+03  0.00000000000E+00 0. -1.
         21   -1    0    0  506  502 -0.00000000000E+00 -0.00000000000E+00 -0.28445524199E+03  0.28445524199E+03  0.00000000000E+00 0. -1.
         21    1    1    2  503  505 -0.71646218124E+02 -0.13099256568E+02  0.16979684020E+03  0.18475859395E+03  0.00000000000E+00 0. -1.
         21    1    1    2  504  501 -0.46991452179E+02  0.59214688424E+02  0.79289164915E+02  0.10955066214E+03  0.00000000000E+00 0. -1.
         21    1    1    2  505  502  0.60971272994E+02  0.69001262072E+01 -0.34356619326E+02  0.70324143534E+02  0.00000000000E+00 0. -1.
         21    1    1    2  506  504  0.57666397309E+02 -0.53015558064E+02 -0.20218107753E+03  0.21682539262E+03  0.00000000000E+00 0. -1.
<scales pt_clust_3="70.86098" pt_clust_4="14000.00000" pt_clust_5="61.36047" pt_clust_6="106.15489"></scales>
<clustering>
<clus scale="   61.360">  2  5  1 -1</clus>
<clus scale="   70.861">  1  3  2 -1</clus>
<clus scale="  106.155">  2  6  1 -1</clus>
<clus scale="   70.861">  1  3  2 -1</clus>
</clustering>
</event>
<event>
 6    0  0.8641190E+002  0.1420799E+03  0.7546771E-02  0.1210557E+00
         21   -1    0    0  504  501  0.00000000000E+00  0.00000000000E+00  0.51572653373E+03  0.51572653373E+03  0.00000000000E+00 0. -1.
         21   -1    0    0  505  502 -0.00000000000E+00 -0.00000000000E+00 -0.73111732577E+02  0.73111732577E+02  0.00000000000E+00 0. -1.
         21    1    1    2  503  502  0.75119061345E+01 -0.60548834972E+02  0.24022046033E+02  0.65571707663E+02  0.00000000000E+00 0. -1.
         21    1    1    2  504  506 -0.32645013873E+02  0.12589622743E+03  0.33652172875E+03  0.36078030840E+03  0.00000000000E+00 0. -1.
         21    1    1    2  505  501 -0.22501448425E+02  0.23226169852E+02 -0.53049564104E+00  0.32342720554E+02  0.00000000000E+00 0. -1.
         21    1    1    2  506  503  0.47634556163E+02 -0.88573562310E+02  0.82601522018E+02  0.13014352969E+03  0.00000000000E+00 0. -1.
<scales pt_clust_3="31.70814" pt_clust_4="136.12296" pt_clust_5="32.33837" pt_clust_6="31.70814"></scales>
<clustering>
<clus scale="   31.708">  3  6 -1 -1</clus>
<clus scale="   32.338">  2  5  1 -1</clus>
<clus scale="  136.123">  1  4  2 -1</clus>
<clus scale="  136.123">  1  3  2 -1</clus>
</clustering>
</event>
<event>
 6    0  0.8641190E+002  0.1017791E+03  0.7546771E-02  0.1276599E+00
         21   -1    0    0  503  501  0.00000000000E+00  0.00000000000E+00  0.19906328031E+04  0.19906328031E+04  0.00000000000E+00 0. -1.
         21   -1    0    0  504  502 -0.00000000000E+00 -0.00000000000E+00 -0.76251506154E+02  0.76251506154E+02  0.00000000000E+00 0. -1.
         21    1    1    2  503  505 -0.38787224651E+02 -0.20222049635E+02  0.16044977888E+03  0.16630547685E+03  0.00000000000E+00 0. -1.
         21    1    1    2  504  501 -0.25922251904E+02  0.11821028519E+03  0.13114409553E+04  0.13170129134E+04  0.00000000000E+00 0. -1.
         21    1    1    2  505  506  0.93276070763E+02 -0.38937623741E+02  0.49143442276E+03  0.50172139260E+03  0.00000000000E+00 0. -1.
         21    1    1    2  506  502 -0.28566594208E+02 -0.59050611817E+02 -0.48943860071E+02  0.81844526386E+02  0.00000000000E+00 0. -1.
<scales pt_clust_3="43.74220" pt_clust_4="101.77908" pt_clust_5="14000.00000" pt_clust_6="65.91382"></scales>
<clustering>
<clus scale="   43.742">  1  3  2 -1</clus>
<clus scale="   65.914">  2  6  1 -1</clus>
<clus scale="  101.779">  1  4  2 -1</clus>
<clus scale="   43.742">  1  3  2 -1</clus>
</clustering>
</event>
<event>
 6    0  0.8641190E+002  0.1220360E+03  0.7546771E-02  0.1239776E+00
         21   -1    0    0  503  501  0.00000000000E+00  0.00000000000E+00  0.26105651344E+02  0.26105651344E+02  0.00000000000E+00 0. -1.
         21   -1    0    0  504  502 -0.00000000000E+00 -0.00000000000E+00 -0.27531509548E+04  0.27531509548E+04  0.00000000000E+00 0. -1.
         21    1    1    2  503  505  0.29945219088E+02 -0.94239761914E+01  0.82989180334E+01  0.32471518505E+02  0.00000000000E+00 0. -1.
         21    1    1    2  504  501  0.89349236566E+02 -0.24493615019E+02 -0.57762760826E+03  0.58501015126E+03  0.00000000000E+00 0. -1.
         21    1    1    2  505  506 -0.81030779907E+02  0.18567755445E+01 -0.11758915419E+04  0.11786816166E+04  0.00000000000E+00 0. -1.
         21    1    1    2  506  502 -0.38263675747E+02  0.32060815666E+02 -0.98182507130E+03  0.98309331979E+03  0.00000000000E+00 0. -1.
<scales pt_clust_3="31.39311" pt_clust_4="112.89140" pt_clust_5="36.89756" pt_clust_6="36.89756"></scales>
<clustering>
<clus scale="   31.393">  1  3  2 -1</clus>
<clus scale="   36.898">  5  6 -1 -1</clus>
<clus scale="  112.891">  1  4  2 -1</clus>
<clus scale="   31.393">  1  3  2 -1</clus>
</clustering>
</event>
<event>
 6    0  0.8641190E+002  0.1528035E+03  0.7546771E-02  0.1197070E+00
         21   -1    0    0  506  501  0.00000000000E+00  0.00000000000E+00  0.89211956475E+03  0.89211956475E+03  0.00000000000E+00 0.  1.
         21   -1    0    0  503  502 -0.00000000000E+00 -0.00000000000E+00 -0.54933942456E+03  0.54933942456E+03  0.00000000000E+00 0.  1.
         21    1    1    2  503  504  0.27987971402E+02 -0.16401951967E+02 -0.42095589787E+03  0.42220400107E+03  0.00000000000E+00 0.  1.
         21    1    1    2  504  501 -0.40463027413E+02  0.54145470284E+02  0.65961987875E+02  0.94445605425E+02  0.00000000000E+00 0.  1.
         21    1    1    2  505  502  0.11373831760E+03 -0.14883670559E+03 -0.22818855376E+02  0.18870471637E+03  0.00000000000E+00 0. -1.
         21    1    1    2  506  505 -0.10126326159E+03  0.11109318727E+03  0.72059290556E+03  0.73610466644E+03  0.00000000000E+00 0.  1.
<scales pt_clust_3="32.43995" pt_clust_4="64.27741" pt_clust_5="152.80349" pt_clust_6="14000.00000"></scales>
<clustering>
<clus scale="   32.440">  2  3  1 -1</clus>
<clus scale="   64.277">  2  4  1 -1</clus>
<clus scale="  152.803">  2  5  1 -1</clus>
<clus scale="  152.803">  1  3  2 -1</clus>
</clustering>
</event>
<event>
 6    0  0.8641190E+002  0.1346142E+03  0.7546771E-02  0.1220765E+00
         21   -1    0    0  506  501  0.00000000000E+00  0.00000000000E+00  0.61776020251E+02  0.61776020251E+02  0.00000000000E+00 0.  1.
         21   -1    0    0  505  502 -0.00000000000E+00 -0.00000000000E+00 -0.53967495865E+03  0.53967495865E+03  0.00000000000E+00 0. -1.
         21    1    1    2  503  504 -0.39092262817E+02  0.33677102502E+02 -0.45206884043E+02  0.68600398031E+02  0.00000000000E+00 0.  1.
         21    1    1    2  504  502 -0.16032139903E+02  0.10786127919E+03 -0.10212268281E+03  0.14939922156E+03  0.00000000000E+00 0.  1.
         21    1    1    2  505  501  0.56774349902E+02 -0.10146756168E+03 -0.32212556168E+03  0.34246732744E+03  0.00000000000E+00 0. -1.
         21    1    1    2  506  503 -0.16499471818E+01 -0.40070820016E+02 -0.84438098608E+01  0.40984031859E+02  0.00000000000E+00 0. -1.
<scales pt_clust_3="36.04648" pt_clust_4="36.04648" pt_clust_5="123.99587" pt_clust_6="40.10477"></scales>
<clustering>
<clus scale="   36.046">  3  4 -1 -1</clus>
<clus scale="   40.105">  1  6  2 -1</clus>
<clus scale="  123.996">  2  5  1 -1</clus>
<clus scale="   40.105">  1  3  2 -1</clus>
</clustering>
</event>
<event>
 6    0  0.8641190E+002  0.1183944E+03  0.7546771E-02  0.1245770E+00
         21   -1    0    0  504  501  0.00000000000E+00  0.00000000000E+00  0.10671915302E+03  0.10671915302E+03  0.00000000000E+00 0. -1.
         21   -1    0    0  506  502 -0.00000000000E+00 -0.00000000000E+00 -0.93473320402E+03  0.93473320402E+03  0.00000000000E+00 0. -1.
         21    1    1    2  503  502 -0.74197282437E+02 -0.34607931192E+02 -0.17878860551E+03  0.19664259733E+03  0.00000000000E+00 0. -1.
         21    1    1    2  504  503 -0.65719573544E+02 -0.80401941907E+02  0.34681290123E+01  0.10390169646E+03  0.00000000000E+00 0. -1.
         21    1    1    2  505  501  0.73244649350E+02  0.16992781546E+03 -0.17239370399E+03  0.25290280801E+03  0.00000000000E+00 0. -1.
         21    1    1    2  506  505  0.66672206631E+02 -0.54917942360E+02 -0.48029987051E+03  0.48800525524E+03  0.00000000000E+00 0. -1.
<scales pt_clust_3="81.87152" pt_clust_4="14000.00000" pt_clust_5="118.39441" pt_clust_6="79.54903"></scales>
<clustering>
<clus scale="   81.872">  2  3  1 -1</clus>
<clus scale="   79.549">  2  6  1 -1</clus>
<clus scale="  118.394">  2  5  1 -1</clus>
<clus scale="  118.394">  1  3  2 -1</clus>
</clustering>
</event>
<event>
 6    0  0.8641190E+002  0.1609638E+03  0.7546771E-02  0.1187613E+00
         21   -1    0    0  505  501  0.00000000000E+00  0.00000000000E+00  0.10157395732E+04  0.10157395732E+04  0.00000000000E+00 0. -1.
         21   -1    0    0  506  502 -0.00000000000E+00 -0.00000000000E+00 -0.91406785277E+02  0.91406785277E+02  0.00000000000E+00 0. -1.
         21    1    1    2  503  501  0.10378178374E+02 -0.83279486377E+02  0.25455890614E+03  0.26803622168E+03  0.00000000000E+00 0. -1.
         21    1    1    2  504  502 -0.37767288810E+01  0.15357631218E+03  0.78362178186E+01  0.15382247447E+03  0.00000000000E+00 0. -1.
         21    1    1    2  505  504 -0.35528194456E+02  0.17418047788E+02  0.47631802475E+03  0.47795868200E+03  0.00000000000E+00 0. -1.
         21    1    1    2  506  503  0.28926744963E+02 -0.87714873587E+02  0.18561963917E+03  0.20732898029E+03  0.00000000000E+00 0. -1.
<scales pt_clust_3="36.05892" pt_clust_4="156.45565" pt_clust_5="39.56818" pt_clust_6="36.05892"></scales>
<clustering>
<clus scale="   36.059">  3  6 -1 -1</clus>
<clus scale="   39.568">  1  5  2 -1</clus>
<clus scale="  156.456">  2  4  1 -1</clus>
<clus scale="   39.568">  1  3  2 -1</clus>
</clustering>
</event>
<event>
 6    0  0.8641190E+002  0.1361032E+03  0.7546771E-02  0.1218671E+00
         21   -1    0    0  505  501  0.00000000000E+00  0.00000000000E+00  0.75938392854E+03  0.75938392854E+03  0.00000000000E+00 0.  1.
         21   -1    0    0  503  502 -0.00000000000E+00 -0.00000000000E+00 -0.47410349217E+02  0.47410349217E+02  0.00000000000E+00 0.  1.
         21    1    1    2  503  506  0.25584887776E+02  0.19512474356E+02  0.32877715628E+02  0.46002905592E+02  0.00000000000E+00 0. -1.
         21    1    1    2  504  501  0.43291381067E+02 -0.16106385006E+02  0.17334262160E+03  0.17939125891E+03  0.00000000000E+00 0.  1.
         21    1    1    2  505  502 -0.96907607393E+02  0.12278022831E+03  0.30200749444E+03  0.34010968162E+03  0.00000000000E+00 0.  1.
         21    1    1    2  506  504  0.28031338550E+02 -0.12618631767E+03  0.20374574766E+03  0.24129043163E+03  0.00000000000E+00 0.  1.
<scales pt_clust_3="32.17644" pt_clust_4="47.50483" pt_clust_5="14000.00000" pt_clust_6="136.10317"></scales>
<clustering>
<clus scale="   32.176">  2  3  1 -1</clus>
<clus scale="   47.505">  1  4  2 -1</clus>
<clus scale="  136.103">  2  6  1 -1</clus>
<clus scale="   47.505">  1  3  2 -1</clus>
</clustering>
</event>
<event>
 6    0  0.8641190E+002  0.8235585E+02  0.7546771E-02  0.1322496E+00
         21   -1    0    0  506  501  0.00000000000E+00  0.00000000000E+00  0.17206265192E+04  0.17206265192E+04  0.00000000000E+00 0.  1.
         21   -1    0    0  503  502 -0.00000000000E+00 -0.00000000000E+00 -0.35022962915E+02  0.35022962915E+02  0.00000000000E+00 0. -1.
         21    1    1    2  503  505  0.36449509761E+02 -0.17027207946E+02  0.90606802413E+02  0.99136699641E+02  0.00000000000E+00 0.  1.
         21    1    1    2  504  501 -0.78483315184E+01 -0.79528416308E+02  0.13503512130E+04  0.13527138514E+04  0.00000000000E+00 0.  1.
         21    1    1    2  505  504 -0.25975122757E+02 -0.36364823183E+02  0.85118111138E+02  0.96136362585E+02  0.00000000000E+00 0. -1.
         21    1    1    2  506  502 -0.26260554852E+01  0.13292044744E+03  0.15952742973E+03  0.20766256848E+03  0.00000000000E+00 0. -1.
<scales pt_clust_3="40.23049" pt_clust_4="14000.00000" pt_clust_5="43.95088" pt_clust_6="82.35585"></scales>
<clustering>
<clus scale="   40.230">  2  3  1 -1</clus>
<clus scale="   43.951">  2  5  1 -1</clus>
<clus scale="   82.356">  2  6  1 -1</clus>
<clus scale="   82.356">  1  3  2 -1</clus>
</clustering>
</event>
<event>
 6    0  0.8641190E+002  0.9116355E+02  0.7546771E-02  0.1300058E+00
         21   -1    0    0  503  501  0.00000000000E+00  0.00000000000E+00  0.37217984624E+03  0.37217984624E+03  0.00000000000E+00 0. -1.
         21   -1    0    0  506  502 -0.00000000000E+00 -0.00000000000E+00 -0.28609899475E+03  0.28609899475E+03  0.00000000000E+00 0. -1.
         21    1    1    2  503  504 -0.70604314735E+02 -0.62486267591E+02  0.23556031433E+03  0.25372852537E+03  0.00000000000E+00 0. -1.
         21    1    1    2  504  502  0.91473254374E+02  0.61968722208E+01 -0.25537093420E+03  0.27133018912E+03  0.00000000000E+00 0. -1.
         21    1    1    2  505  501  0.14716125229E+02  0.37052463844E+02  0.45044009329E+02  0.60153239273E+02  0.00000000000E+00 0. -1.
         21    1    1    2  506  505 -0.35585064867E+02  0.19236931526E+02  0.60847462030E+02  0.73066887245E+02  0.00000000000E+00 0. -1.
<scales pt_clust_3="14000.00000" pt_clust_4="91.16355" pt_clust_5="39.86790" pt_clust_6="42.25361"></scales>
<clustering>
<clus scale="   39.868">  1  5  2 -1</clus>
<clus scale="   42.254">  1  6  2 -1</clus>
<clus scale="   91.164">  2  4  1 -1</clus>
<clus scale="   39.868">  1  3  2 -1</clus>
</clustering>
</event>
<event>
 6    0  0.8641190E+002  0.7881953E+02  0.7546771E-02  0.1332435E+00
         21   -1    0    0  504  501  0.00000000000E+00  0.00000000000E+00  0.75992747806E+03  0.75992747806E+03  0.00000000000E+00 0. -1.
         21   -1    0    0  503  502 -0.00000000000E+00 -0.00000000000E+00 -0.24890600108E+03  0.24890600108E+03  0.00000000000E+00 0. -1.
         21    1    1    2  503  505 -0.41335366619E+01  0.49442178073E+02 -0.21832551608E+03  0.22389204110E+03  0.00000000000E+00 0. -1.
         21    1    1    2  504  506  0.27348013671E+02  0.30411474627E+02  0.43272523671E+03  0.43465377271E+03  0.00000000000E+00 0. -1.
         21    1    1    2  505  501  0.38177499433E+02 -0.95890342853E+02  0.25312524376E+03  0.27335849785E+03  0.00000000000E+00 0. -1.
         21    1    1    2  506  502 -0.61391976442E+02  0.16036690153E+02  0.43496512580E+02  0.76929167480E+02  0.00000000000E+00 0. -1.
<scales pt_clust_3="49.85443" pt_clust_4="40.89953" pt_clust_5="14000.00000" pt_clust_6="78.81953"></scales>
<clustering>
<clus scale="   40.900">  1  4  2 -1</clus>
<clus scale="   49.854">  2  3  1 -1</clus>
<clus scale="   78.820">  2  6  1 -1</clus>
<clus scale="   40.900">  1  3  2 -1</clus>
</clustering>
</event>
<event>
 6    0  0.8641190E+002  0.6878636E+02  0.7546771E-02  0.1364269E+00
         21   -1    0    0  503  501  0.00000000000E+00  0.00000000000E+00  0.17745171592E+03  0.17745171592E+03  0.00000000000E+00 0.  1.
         21   -1    0    0  504  502 -0.00000000000E+00 -0.00000000000E+00 -0.14725920868E+03  0.14725920868E+03  0.00000000000E+00 0.  1.
         21    1    1    2  503  505  0.20576431029E+02 -0.61435132625E+02  0.89547633472E+02  0.11052802222E+03  0.00000000000E+00 0.  1.
         21    1    1    2  504  501 -0.34966319157E+02  0.82468013293E+02 -0.16850843769E+02  0.91145859080E+02  0.00000000000E+00 0.  1.
         21    1    1    2  505  506 -0.36373212499E+02 -0.42344234469E+02 -0.42232587770E+01  0.55981074436E+02  0.00000000000E+00 0.  1.
         21    1    1    2  506  502  0.50763100626E+02  0.21311353801E+02 -0.38281023691E+02  0.67055968868E+02  0.00000000000E+00 0.  1.
<scales pt_clust_3="68.78636" pt_clust_4="14000.00000" pt_clust_5="40.90795" pt_clust_6="55.05512"></scales>
<clustering>
<clus scale="   55.055">  2  6  1 -1</clus>
<clus scale="   40.908">  2  5  1 -1</clus>
<clus scale="   68.786">  1  3  2 -1</clus>
<clus scale="   68.786">  1  3  2 -1</clus>
</clustering>
</event>
<event>
 6    0  0.8641190E+002  0.1487097E+03  0.7546771E-02  0.1202068E+00
         21   -1    0    0  506  501  0.00000000000E+00  0.00000000000E+00  0.21969492115E+03  0.21969492115E+03  0.00000000000E+00 0. -1.
         21   -1    0    0  504  502 -0.00000000000E+00 -0.00000000000E+00 -0.27492069863E+03  0.27492069863E+03  0.00000000000E+00 0. -1.
         21    1    1    2  503  502  0.37243052536E+02 -0.11092091192E+03  0.42016541775E+02  0.12432169338E+03  0.00000000000E+00 0. -1.
         21    1    1    2  504  505 -0.15115840822E+03  0.90834168759E+02 -0.13570908588E+03  0.22252340682E+03  0.00000000000E+00 0. -1.
         21    1    1    2  505  501  0.18831465181E+02  0.34555274786E+02  0.33133542954E+02  0.51444365727E+02  0.00000000000E+00 0. -1.
         21    1    1    2  506  503  0.95083890507E+02 -0.14468531626E+02  0.53332236648E+01  0.96326153853E+02  0.00000000000E+00 0. -1.
<scales pt_clust_3="14000.00000" pt_clust_4="148.70966" pt_clust_5="39.35341" pt_clust_6="100.58319"></scales>
<clustering>
<clus scale="   39.353">  1  5  2 -1</clus>
<clus scale="  100.583">  1  6  2 -1</clus>
<clus scale="  148.710">  2  4  1 -1</clus>
<clus scale="   39.353">  1  3  2 -1</clus>
</clustering>
</event>
<event>
 6    0  0.8641190E+002  0.1231325E+03  0.7546771E-02  0.1238017E+00
         21   -1    0    0  506  501  0.00000000000E+00  0.00000000000E+00  0.16643411432E+03  0.16643411432E+03  0.00000000000E+00 0. -1.
         21   -1    0    0  504  502 -0.00000000000E+00 -0.00000000000E+00 -0.16869010175E+04  0.16869010175E+04  0.00000000000E+00 0. -1.
         21    1    1    2  503  502 -0.33809106761E+02  0.15282551904E+02 -0.21654957978E+03  0.21970510371E+03  0.00000000000E+00 0. -1.
         21    1    1    2  504  505 -0.80268710219E+02 -0.66076575562E+02 -0.13745751596E+04  0.13785013780E+04  0.00000000000E+00 0. -1.
         21    1    1    2  505  501  0.28098229229E+02 -0.40193245931E+02 -0.57773009703E+02  0.75780790141E+02  0.00000000000E+00 0. -1.
         21    1    1    2  506  503  0.85979587752E+02  0.90987269590E+02  0.12843084586E+03  0.17934786005E+03  0.00000000000E+00 0. -1.
<scales pt_clust_3="37.10272" pt_clust_4="123.13252" pt_clust_5="47.59852" pt_clust_6="14000.00000"></scales>
<clustering>
<clus scale="   37.103">  2  3  1 -1</clus>
<clus scale="   47.599">  1  5  2 -1</clus>
<clus scale="  123.133">  2  4  1 -1</clus>
<clus scale="   47.599">  1  3  2 -1</clus>
</clustering>
</event>
<event>
 6    0  0.8641190E+002  0.1383001E+03  0.7546771E-02  0.1215635E+00
         21   -1    0    0  504  501  0.00000000000E+00  0.00000000000E+00  0.14338590903E+03  0.14338590903E+03  0.00000000000E+00 0. -1.
         21   -1    0    0  503  502 -0.00000000000E+00 -0.00000000000E+00 -0.16989619965E+04  0.16989619965E+04  0.00000000000E+00 0.  1.
         21    1    1    2  503  505  0.47673330481E+02  0.53053744424E+02 -0.14972944463E+04  0.14989923633E+04  0.00000000000E+00 0.  1.
         21    1    1    2  504  502  0.11616560963E+03 -0.28585172911E+02 -0.95081664930E+02  0.15281388673E+03  0.00000000000E+00 0. -1.
         21    1    1    2  505  506 -0.13537233778E+03 -0.47264300293E+02  0.49855288106E+02  0.15180623726E+03  0.00000000000E+00 0. -1.
         21    1    1    2  506  501 -0.28466602329E+02  0.22795728780E+02 -0.13055264296E+02  0.38735418219E+02  0.00000000000E+00 0. -1.
<scales pt_clust_3="71.31326" pt_clust_4="138.30006" pt_clust_5="14000.00000" pt_clust_6="36.46906"></scales>
<clustering>
<clus scale="   36.469">  1  6  2 -1</clus>
<clus scale="   71.313">  2  3  1 -1</clus>
<clus scale="  138.300">  2  4  1 -1</clus>
<clus scale="   36.469">  1  3  2 -1</clus>
</clustering>
</event>
<event>
 6    0  0.8641190E+002  0.1019997E+03  0.7546771E-02  0.1276146E+00
         21   -1    0    0  504  501  0.00000000000E+00  0.00000000000E+00  0.18241503647E+03  0.18241503647E+03  0.00000000000E+00 0. -1.
         21   -1    0    0  506  502 -0.00000000000E+00 -0.00000000000E+00 -0.15886471690E+03  0.15886471690E+03  0.00000000000E+00 0. -1.
         21    1    1    2  503  505  0.66334709662E+02 -0.71937316816E+01  0.71169722638E+00  0.66727430599E+02  0.00000000000E+00 0. -1.
         21    1    1    2  504  503  0.61175038638E+02 -0.13287965860E+02  0.30991548904E+02  0.69852927588E+02  0.00000000000E+00 0. -1.
         21    1    1    2  505  502 -0.42040725054E+02  0.24618875023E+02 -0.79531988722E+02  0.93267619250E+02  0.00000000000E+00 0. -1.
         21    1    1    2  506  501 -0.85469023247E+02 -0.41371774807E+01  0.71379062164E+02  0.11143177593E+03  0.00000000000E+00 0. -1.
<scales pt_clust_3="30.18086" pt_clust_4="30.18086" pt_clust_5="48.71870" pt_clust_6="97.12398"></scales>
<clustering>
<clus scale="   30.181">  3  4 -1 -1</clus>
<clus scale="   48.719">  2  5  1 -1</clus>
<clus scale="   97.124">  1  6  2 -1</clus>
<clus scale="   97.124">  1  3  2 -1</clus>
</clustering>
</event>
<event>
 6    0  0.8641190E+002  0.1100155E+03  0.7546771E-02  0.1260541E+00
         21   -1    0    0  503  501  0.00000000000E+00  0.00000000000E+00  0.83621531814E+03  0.83621531814E+03  0.00000000000E+00 0.  1.
         21   -1    0    0  504  502 -0.00000000000E+00 -0.00000000000E+00 -0.50715550945E+03  0.50715550945E+03  0.00000000000E+00 0.  1.
         21    1    1    2  503  502 -0.43025455591E+02 -0.91659213625E+02 -0.23057452724E+03  0.25182774645E+03  0.00000000000E+00 0.  1.
         21    1    1    2  504  506  0.33721726447E+02 -0.16474986992E+01 -0.24236427687E+03  0.24470453978E+03  0.00000000000E+00 0.  1.
         21    1    1    2  505  501  0.66732086368E+02  0.87688653080E+02  0.77559202035E+03  0.78338078433E+03  0.00000000000E+00 0.  1.
         21    1    1    2  506  505 -0.57428357224E+02  0.56180592443E+01  0.26406592449E+02  0.63457757035E+02  0.00000000000E+00 0.  1.
<scales pt_clust_3="14000.00000" pt_clust_4="33.76195" pt_clust_5="110.01549" pt_clust_6="55.33287"></scales>
<clustering>
<clus scale="   33.762">  2  4  1 -1</clus>
<clus scale="   55.333">  2  6  1 -1</clus>
<clus scale="  110.015">  1  5  2 -1</clus>
<clus scale="  110.015">  1  3  2 -1</clus>
</clustering>
</event>
<event>
 6    0  0.8641190E+002  0.1471505E+03  0.7546771E-02  0.1204019E+00
         21   -1    0    0  506  501  0.00000000000E+00  0.00000000000E+00  0.70883851464E+03  0.70883851464E+03  0.00000000000E+00 0.  1.
         21   -1    0    0  505  502 -0.00000000000E+00 -0.00000000000E+00 -0.98581604527E+02  0.98581604527E+02  0.00000000000E+00 0.  1.
         21    1    1    2  503  502  0.13251775085E+02 -0.56047900699E+02  0.23266309570E+03  0.23968540385E+03  0.00000000000E+00 0.  1.
         21    1    1    2  504  503 -0.25494053282E+02 -0.55019626050E+02  0.19434039534E+03  0.20358117610E+03  0.00000000000E+00 0.  1.
         21    1    1    2  505  501  0.91903777857E+02  0.11630579258E+03 -0.16392322835E+02  0.14913768813E+03  0.00000000000E+00 0.  1.
         21    1    1    2  506  504 -0.79661499661E+02 -0.52382658324E+01  0.19964574190E+03  0.21501585108E+03  0.00000000000E+00 0.  1.
<scales pt_clust_3="39.79517" pt_clust_4="39.79517" pt_clust_5="141.37131" pt_clust_6="79.83354"></scales>
<clustering>
<clus scale="   39.795">  3  4 -1 -1</clus>
<clus scale="   79.834">  1  6  2 -1</clus>
<clus scale="  141.371">  2  5  1 -1</clus>
<clus scale="   79.834">  1  3  2 -1</clus>
</clustering>
</event>
<event>
 6    0  0.8641190E+002  0.1415171E+03  0.7546771E-02  0.1211302E+00
         21   -1    0    0  503  501  0.00000000000E+00  0.00000000000E+00  0.27206536153E+03  0.27206536153E+03  0.00000000000E+00 0. -1.
         21   -1    0    0  504  502 -0.00000000000E+00 -0.00000000000E+00 -0.97665928089E+03  0.97665928089E+03  0.00000000000E+00 0. -1.
         21    1    1    2  503  505 -0.11713880628E+03  0.11910043250E+03  0.12914430729E+03  0.21115081119E+03  0.00000000000E+00 0. -1.
         21    1    1    2  504  506  0.29418440816E+02  0.41465052896E+02 -0.38415523528E+03  0.38750489037E+03  0.00000000000E+00 0. -1.
         21    1    1    2  505  502  0.57330816118E+02 -0.14972493184E+03 -0.53513456378E+03  0.55863528267E+03  0.00000000000E+00 0. -1.
         21    1    1    2  506  501  0.30389549348E+02 -0.10840553565E+02  0.85551572397E+02  0.91433658194E+02  0.00000000000E+00 0. -1.
<scales pt_clust_3="141.51705" pt_clust_4="50.92144" pt_clust_5="14000.00000" pt_clust_6="32.26519"></scales>
<clustering>
<clus scale="   32.265">  1  6  2 -1</clus>
<clus scale="   50.921">  2  4  1 -1</clus>
<clus scale="  141.517">  1  3  2 -1</clus>
<clus scale="   32.265">  1  3  2 -1</clus>
</clustering>
</event>
<event>
 6    0  0.8641190E+002  0.2162382E+03  0.7546771E-02  0.1136719E+00
         21   -1    0    0  506  501  0.00000000000E+00  0.00000000000E+00  0.17271863661E+04  0.17271863661E+04  0.00000000000E+00 0. -1.
         21   -1    0    0  505  502 -0.00000000000E+00 -0.00000000000E+00 -0.27470644265E+04  0.27470644265E+04  0.00000000000E+00 0. -1.
         21    1    1    2  503  504  0.12199015627E+03  0.13663985641E+03 -0.15605119481E+04  0.15712255054E+04  0.00000000000E+00 0. -1.
         21    1    1    2  504  502  0.63929263824E+02 -0.63043036599E+01 -0.59045217839E+03  0.59393641914E+03  0.00000000000E+00 0.  1.
         21    1    1    2  505  501  0.13419353698E+01 -0.86196123120E+02 -0.58042815601E+03  0.58679503809E+03  0.00000000000E+00 0. -1.
         21    1    1    2  506  503 -0.18726135546E+03 -0.44139429629E+02  0.17115142221E+04  0.17222938300E+04  0.00000000000E+00 0. -1.
<scales pt_clust_3="58.40367" pt_clust_4="58.40367" pt_clust_5="86.20657" pt_clust_6="192.43923"></scales>
<clustering>
<clus scale="   58.404">  3  4 -1 -1</clus>
<clus scale="   86.207">  2  5  1 -1</clus>
<clus scale="  192.439">  1  6  2 -1</clus>
<clus scale="  192.439">  1  3  2 -1</clus>
</clustering>
</event>
<event>
 6    0  0.8641190E+002  0.9555596E+02  0.7546771E-02  0.1289929E+00
         21   -1    0    0  503  501  0.00000000000E+00  0.00000000000E+00  0.18145417872E+03  0.18145417872E+03  0.00000000000E+00 0. -1.
         21   -1    0    0  505  502 -0.00000000000E+00 -0.00000000000E+00 -0.20654215313E+03  0.20654215313E+03  0.00000000000E+00 0. -1.
         21    1    1    2  503  506 -0.20235928742E+02  0.10394016535E+03  0.74021271647E+02  0.12919829504E+03  0.00000000000E+00 0. -1.
         21    1    1    2  504  501  0.31932429209E+02 -0.71182943274E+02 -0.20718822920E+02  0.80721503155E+02  0.00000000000E+00 0. -1.
         21    1    1    2  505  504  0.52183748535E+02 -0.34873228466E+02 -0.93299029071E+02  0.11244551792E+03  0.00000000000E+00 0. -1.
         21    1    1    2  506  502 -0.63880249002E+02  0.21160063866E+01  0.14908605938E+02  0.65631015737E+02  0.00000000000E+00 0. -1.
<scales pt_clust_3="14000.00000" pt_clust_4="95.55596" pt_clust_5="62.76373" pt_clust_6="51.51532"></scales>
<clustering>
<clus scale="   62.764">  2  5  1 -1</clus>
<clus scale="   51.515">  2  6  1 -1</clus>
<clus scale="   95.556">  2  4  1 -1</clus>
<clus scale="   95.556">  1  3  2 -1</clus>
</clustering>
</event>
<event>
 6    0  0.8641190E+002  0.8963047E+02  0.7546771E-02  0.1303749E+00
         21   -1    0    0  503  501  0.00000000000E+00  0.00000000000E+00  0.29097278805E+02  0.29097278805E+02  0.00000000000E+00 0. -1.
         21   -1    0    0  506  502 -0.00000000000E+00 -0.00000000000E+00 -0.73117021717E+03  0.73117021717E+03  0.00000000000E+00 0. -1.
         21    1    1    2  503  502 -0.53392247389E+02  0.11376838096E+03 -0.41992182714E+03  0.43832444319E+03  0.00000000000E+00 0. -1.
         21    1    1    2  504  505  0.33978853329E+02 -0.19504289524E+02 -0.37394928165E+02  0.54160506237E+02  0.00000000000E+00 0.  1.
         21    1    1    2  505  501 -0.78501159199E+01 -0.31791933804E+02 -0.38435007996E+02  0.50493575974E+02  0.00000000000E+00 0.  1.
         21    1    1    2  506  504  0.27263509980E+02 -0.62472157628E+02 -0.20632117506E+03  0.21728897057E+03  0.00000000000E+00 0. -1.
<scales pt_clust_3="14000.00000" pt_clust_4="43.97038" pt_clust_5="32.74678" pt_clust_6="89.63047"></scales>
<clustering>
<clus scale="   32.747">  1  5  2 -1</clus>
<clus scale="   43.970">  1  4  2 -1</clus>
<clus scale="   89.630">  2  6  1 -1</clus>
<clus scale="   32.747">  1  3  2 -1</clus>
</clustering>
</event>
<event>
 6    0  0.8641190E+002  0.2896262E+03  0.7546771E-02  0.1090544E+00
         21   -1    0    0  503  501  0.00000000000E+00  0.00000000000E+00  0.27127990506E+03  0.27127990506E+03  0.00000000000E+00 0.  1.
         21   -1    0    0  505  502 -0.00000000000E+00 -0.00000000000E+00 -0.66862504012E+03  0.66862504012E+03  0.00000000000E+00 0.  1.
         21    1    1    2  503  506 -0.13002991758E+03 -0.11440865218E+03  0.67438512121E+02  0.18586304656E+03  0.00000000000E+00 0.  1.
         21    1    1    2  504  501  0.40641284264E+02 -0.16313950848E+02  0.33058403291E+02  0.54870000975E+02  0.00000000000E+00 0.  1.
         21    1    1    2  505  504  0.14907801076E+03  0.23716061301E+03 -0.50439829720E+03  0.57696364866E+03  0.00000000000E+00 0.  1.
         21    1    1    2  506  502 -0.59689377445E+02 -0.10643800998E+03  0.65562467296E+01  0.12220824898E+03  0.00000000000E+00 0.  1.
<scales pt_clust_3="58.74959" pt_clust_4="43.79337" pt_clust_5="281.45565" pt_clust_6="58.74959"></scales>
<clustering>
<clus scale="   43.793">  1  4  2 -1</clus>
<clus scale="   58.750">  3  6 -1 -1</clus>
<clus scale="  281.456">  2  5  1 -1</clus>
<clus scale="   43.793">  1  3  2 -1</clus>
</clustering>
</event>
<event>
 6    0  0.8641190E+002  0.7382638E+02  0.7546771E-02  0.1347544E+00
         21   -1    0    0  506  501  0.00000000000E+00  0.00000000000E+00  0.62033226377E+03  0.62033226377E+03  0.00000000000E+00 0.  1.
         21   -1    0    0  503  502 -0.00000000000E+00 -0.00000000000E+00 -0.14127729301E+04  0.14127729301E+04  0.00000000000E+00 0.  1.
         21    1    1    2  503  501  0.15648021843E+01 -0.81764251468E+02 -0.80214807356E+03  0.80630600478E+03  0.00000000000E+00 0.  1.
         21    1    1    2  504  502 -0.63734044767E+02 -0.13181405140E+02 -0.47168408960E+03  0.47615297782E+03  0.00000000000E+00 0.  1.
         21    1    1    2  505  504  0.74094701960E+02  0.22109020972E+02 -0.12108391376E+03  0.14366679449E+03  0.00000000000E+00 0.  1.
         21    1    1    2  506  505 -0.11925459377E+02  0.72836635636E+02  0.60247541057E+03  0.60697941680E+03  0.00000000000E+00 0.  1.
<scales pt_clust_3="14000.00000" pt_clust_4="65.08285" pt_clust_5="68.18495" pt_clust_6="73.82638"></scales>
<clustering>
<clus scale="   65.083">  2  4  1 -1</clus>
<clus scale="   68.185">  2  5  1 -1</clus>
<clus scale="   73.826">  1  6  2 -1</clus>
<clus scale="   73.826">  1  3  2 -1</clus>
</clustering>
</event>
<event>
 6    0  0.8641190E+002  0.1361328E+03  0.7546771E-02  0.1218629E+00
         21   -1    0    0  505  501  0.00000000000E+00  0.00000000000E+00  0.74670932775E+02  0.74670932775E+02  0.00000000000E+00 0.  1.
         21   -1    0    0  504  502 -0.00000000000E+00 -0.00000000000E+00 -0.82571592634E+03  0.82571592634E+03  0.00000000000E+00 0.  1.
         21    1    1    2  503  506  0.66643990312E+02  0.38815682054E+02 -0.33083082919E+03  0.33970151039E+03  0.00000000000E+00 0.  1.
         21    1    1    2  504  503  0.52941476951E+02 -0.15846924790E+02 -0.27935036239E+03  0.28476402507E+03  0.00000000000E+00 0.  1.
         21    1    1    2  505  502 -0.22184099949E+02  0.59029759684E+02 -0.13437309285E+03  0.14843441279E+03  0.00000000000E+00 0. -1.
         21    1    1    2  506  501 -0.97401367315E+02 -0.81998516947E+02 -0.64907091338E+01  0.12748691086E+03  0.00000000000E+00 0.  1.
<scales pt_clust_3="44.85480" pt_clust_4="44.85480" pt_clust_5="63.06066" pt_clust_6="125.39645"></scales>
<clustering>
<clus scale="   44.855">  3  4 -1 -1</clus>
<clus scale="   63.061">  2  5  1 -1</clus>
<clus scale="  125.396">  1  6  2 -1</clus>
<clus scale="  125.396">  1  3  2 -1</clus>
</clustering>
</event>
<event>
 6    0  0.8641190E+002  0.1192251E+03  0.7546771E-02  0.1244381E+00
         21   -1    0    0  505  501  0.00000000000E+00  0.00000000000E+00  0.15581493397E+03  0.15581493397E+03  0.00000000000E+00 0.  1.
         21   -1    0    0  503  502 -0.00000000000E+00 -0.00000000000E+00 -0.28842088818E+03  0.28842088818E+03  0.00000000000E+00 0.  1.
         21    1    1    2  503  504  0.38043377541E+02 -0.21603683254E+02 -0.77321603448E+02  0.88840576679E+02  0.00000000000E+00 0.  1.
         21    1    1    2  504  501  0.80800396688E+02  0.11066393395E+03 -0.55079779703E+02  0.14767867996E+03  0.00000000000E+00 0.  1.
         21    1    1    2  505  506 -0.89556151440E+02  0.13873349197E+02  0.31755650608E+02  0.96027055688E+02  0.00000000000E+00 0.  1.
         21    1    1    2  506  502 -0.29287622789E+02 -0.10293359989E+03 -0.31960221667E+02  0.11168950982E+03  0.00000000000E+00 0.  1.
<scales pt_clust_3="43.74949" pt_clust_4="14000.00000" pt_clust_5="84.25820" pt_clust_6="119.22514"></scales>
<clustering>
<clus scale="   43.749">  2  3  1 -1</clus>
<clus scale="   84.258">  1  5  2 -1</clus>
<clus scale="  119.225">  2  6  1 -1</clus>
<clus scale="   84.258">  1  3  2 -1</clus>
</clustering>
</event>
<event>
 6    0  0.8641190E+002  0.7531810E+02  0.7546771E-02  0.1342889E+00
         21   -1    0    0  506  501  0.00000000000E+00  0.00000000000E+00  0.36570751521E+03  0.36570751521E+03  0.00000000000E+00 0.  1.
         21   -1    0    0  504  502 -0.00000000000E+00 -0.00000000000E+00 -0.16594742514E+03  0.16594742514E+03  0.00000000000E+00 0. -1.
         21    1    1    2  503  501 -0.52333827749E+02  0.65661008971E+01  0.45122636985E+02  0.69411782690E+02  0.00000000000E+00 0.  1.
         21    1    1    2  504  503 -0.52702761542E+02 -0.25745180171E+02 -0.11477833791E+03  0.12889709938E+03  0.00000000000E+00 0. -1.
         21    1    1    2  505  502 -0.21045757305E+02  0.31427622535E+02  0.25121911587E+01  0.37906865647E+02  0.00000000000E+00 0.  1.
         21    1    1    2  506  505  0.12608234660E+03 -0.12248543262E+02  0.26690359984E+03  0.29543919263E+03  0.00000000000E+00 0.  1.
<scales pt_clust_3="54.82523" pt_clust_4="14000.00000" pt_clust_5="37.82353" pt_clust_6="75.31810"></scales>
<clustering>
<clus scale="   37.824">  2  5  1 -1</clus>
<clus scale="   54.825">  1  3  2 -1</clus>
<clus scale="   75.318">  1  6  2 -1</clus>
<clus scale="   54.825">  1  3  2 -1</clus>
</clustering>
</event>
<event>
 6    0  0.8641190E+002  0.2164656E+03  0.7546771E-02  0.1136546E+00
         21   -1    0    0  503  501  0.00000000000E+00  0.00000000000E+00  0.16186652317E+04  0.16186652317E+04  0.00000000000E+00 0. -1.
         21   -1    0    0  505  502 -0.00000000000E+00 -0.00000000000E+00 -0.42921450318E+03  0.42921450318E+03  0.00000000000E+00 0.  1.
         21    1    1    2  503  506 -0.41893821999E+02  0.13977494590E+03  0.14000556425E+04  0.14076391334E+04  0.00000000000E+00 0. -1.
         21    1    1    2  504  501  0.54314683646E+02  0.80855524518E+02  0.15919845066E+03  0.18663292153E+03  0.00000000000E+00 0. -1.
         21    1    1    2  505  504  0.10705372277E+02 -0.38567425674E+02  0.81961593215E+00  0.40034024142E+02  0.00000000000E+00 0. -1.
         21    1    1    2  506  502 -0.23126233924E+02 -0.18206304474E+03 -0.37062298062E+03  0.41357365574E+03  0.00000000000E+00 0.  1.
<scales pt_clust_3="14000.00000" pt_clust_4="96.53797" pt_clust_5="40.02563" pt_clust_6="216.46562"></scales>
<clustering>
<clus scale="   40.026">  2  5  1 -1</clus>
<clus scale="   96.538">  1  4  2 -1</clus>
<clus scale="  216.466">  2  6  1 -1</clus>
<clus scale="   96.538">  1  3  2 -1</clus>
</clustering>
</event>
<event>
 6    0  0.8641190E+002  0.1191796E+03  0.7546771E-02  0.1244457E+00
         21   -1    0    0  503  501  0.00000000000E+00  0.00000000000E+00  0.18542373924E+03  0.18542373924E+03  0.00000000000E+00 0. -1.
         21   -1    0    0  505  502 -0.00000000000E+00 -0.00000000000E+00 -0.26459725652E+04  0.26459725652E+04  0.00000000000E+00 0. -1.
         21    1    1    2  503  502 -0.92563374619E+02 -0.73142621582E+02 -0.11444096405E+03  0.16436105276E+03  0.00000000000E+00 0. -1.
         21    1    1    2  504  506  0.10420586383E+03  0.21408500138E+02  0.39007637516E+02  0.11330834796E+03  0.00000000000E+00 0. -1.
         21    1    1    2  505  504 -0.30936548323E+02  0.28540400817E+02 -0.24665367542E+04  0.24668958601E+04  0.00000000000E+00 0. -1.
         21    1    1    2  506  501  0.19294059116E+02  0.23193720627E+02  0.81421254840E+02  0.86831043605E+02  0.00000000000E+00 0. -1.
<scales pt_clust_3="14000.00000" pt_clust_4="119.17960" pt_clust_5="42.09344" pt_clust_6="30.16968"></scales>
<clustering>
<clus scale="   30.170">  1  6  2 -1</clus>
<clus scale="   42.093">  2  5  1 -1</clus>
<clus scale="  119.180">  1  4  2 -1</clus>
<clus scale="   30.170">  1  3  2 -1</clus>
</clustering>
</event>
<event>
 6    0  0.8641190E+002  0.1063215E+03  0.7546771E-02  0.1267538E+00
         21   -1    0    0  504  501  0.00000000000E+00  0.00000000000E+00  0.11373127845E+03  0.11373127845E+03  0.00000000000E+00 0. -1.
         21   -1    0    0  506  502 -0.00000000000E+00 -0.00000000000E+00 -0.14976853993E+04  0.14976853993E+04  0.00000000000E+00 0. -1.
         21    1    1    2  503  505 -0.28482588465E+02  0.49511835741E+02 -0.13257855446E+03  0.14435980337E+03  0.00000000000E+00 0. -1.
         21    1    1    2  504  503  0.69313541133E+02  0.28381599117E+02 -0.53247520615E+02  0.91897663760E+02  0.00000000000E+00 0. -1.
         21    1    1    2  505  502  0.29993640469E+02  0.40180488794E+02 -0.12322805611E+04  0.12333002358E+04  0.00000000000E+00 0. -1.
         21    1    1    2  506  501 -0.70824593138E+02 -0.11807392365E+03  0.34152515379E+02  0.14185897485E+03  0.00000000000E+00 0. -1.
<scales pt_clust_3="71.66850" pt_clust_4="14000.00000" pt_clust_5="50.14070" pt_clust_6="106.32146"></scales>
<clustering>
<clus scale="   50.141">  2  5  1 -1</clus>
<clus scale="   71.668">  2  3  1 -1</clus>
<clus scale="  106.321">  1  6  2 -1</clus>
<clus scale="  106.321">  1  3  2 -1</clus>
</clustering>
</event>
<event>
 6    0  0.8641190E+002  0.9408912E+02  0.7546771E-02  0.1293241E+00
         21   -1    0    0  506  501  0.00000000000E+00  0.00000000000E+00  0.54873409297E+03  0.54873409297E+03  0.00000000000E+00 0. -1.
         21   -1    0    0  503  502 -0.00000000000E+00 -0.00000000000E+00 -0.93759251280E+02  0.93759251280E+02  0.00000000000E+00 0. -1.
         21    1    1    2  503  504 -0.58492067098E+02 -0.30062562506E+02 -0.42055472537E+02  0.78062425968E+02  0.00000000000E+00 0. -1.
         21    1    1    2  504  501 -0.66238137349E+02 -0.20964696651E+02  0.98654653984E+02  0.12066378951E+03  0.00000000000E+00 0. -1.
         21    1    1    2  505  502  0.29731496352E+02 -0.10025894537E+02  0.18012813047E+01  0.31428093339E+02  0.00000000000E+00 0. -1.
         21    1    1    2  506  505  0.94998708094E+02  0.61053153693E+02  0.39657437894E+03  0.41233903544E+03  0.00000000000E+00 0. -1.
<scales pt_clust_3="52.03301" pt_clust_4="94.08912" pt_clust_5="31.37643" pt_clust_6="14000.00000"></scales>
<clustering>
<clus scale="   31.376">  2  5  1 -1</clus>
<clus scale="   52.033">  2  3  1 -1</clus>
<clus scale="   94.089">  2  4  1 -1</clus>
<clus scale="   94.089">  1  3  2 -1</clus>
</clustering>
</event>
<event>
 6    0  0.8641190E+002  0.7117932E+02  0.7546771E-02  0.1356128E+00
         21   -1    0    0  505  501  0.00000000000E+00  0.00000000000E+00  0.66986727862E+02  0.66986727862E+02  0.00000000000E+00 0.  1.
         21   -1    0    0  503  502 -0.00000000000E+00 -0.00000000000E+00 -0.42485759633E+03  0.42485759633E+03  0.00000000000E+00 0. -1.
         21    1    1    2  503  506  0.49096843897E+02 -0.59420893149E+02 -0.20579950901E+03  0.21976073473E+03  0.00000000000E+00 0. -1.
         21    1    1    2  504  502 -0.17417781179E+02  0.44640840443E+02 -0.10933695093E+03  0.11937651601E+03  0.00000000000E+00 0.  1.
         21    1    1    2  505  504 -0.60071182907E+02  0.63477272849E+02 -0.11181863310E+02  0.88107577718E+02  0.00000000000E+00 0.  1.
         21    1    1    2  506  501  0.28392120189E+02 -0.48697220143E+02 -0.31552545223E+02  0.64599495730E+02  0.00000000000E+00 0. -1.
<scales pt_clust_3="47.03252" pt_clust_4="47.91851" pt_clust_5="71.17932" pt_clust_6="14000.00000"></scales>
<clustering>
<clus scale="   47.919">  2  4  1 -1</clus>
<clus scale="   47.033">  2  3  1 -1</clus>
<clus scale="   71.179">  2  5  1 -1</clus>
<clus scale="   71.179">  1  3  2 -1</clus>
</clustering>
</event>
<event>
 6    0  0.8641190E+002  0.1277652E+03  0.7546771E-02  0.1230810E+00
         21   -1    0    0  503  501  0.00000000000E+00  0.00000000000E+00  0.10386535644E+04  0.10386535644E+04  0.00000000000E+00 0. -1.
         21   -1    0    0  505  502 -0.00000000000E+00 -0.00000000000E+00 -0.43408703595E+03  0.43408703595E+03  0.00000000000E+00 0.  1.
         21    1    1    2  503  502  0.51206604093E+02  0.23268173559E+02  0.24254584285E+03  0.24898194731E+03  0.00000000000E+00 0. -1.
         21    1    1    2  504  506 -0.93786063104E+02 -0.24416113869E+02  0.35015388918E+03  0.36331765489E+03  0.00000000000E+00 0. -1.
         21    1    1    2  505  504  0.11345450466E+03 -0.14489883059E+02 -0.41344849295E+03  0.42897731602E+03  0.00000000000E+00 0.  1.
         21    1    1    2  506  501 -0.70875045646E+02  0.15637823369E+02  0.42531528937E+03  0.43146368212E+03  0.00000000000E+00 0. -1.
<scales pt_clust_3="56.24521" pt_clust_4="48.45165" pt_clust_5="114.84495" pt_clust_6="48.45165"></scales>
<clustering>
<clus scale="   48.452">  4  6 -1 -1</clus>
<clus scale="   56.245">  1  3  2 -1</clus>
<clus scale="  114.845">  2  5  1 -1</clus>
<clus scale="   56.245">  1  3  2 -1</clus>
</clustering>
</event>
<event>
 6    0  0.8641190E+002  0.1018204E+03  0.7546771E-02  0.1276514E+00
         21   -1    0    0  504  501  0.00000000000E+00  0.00000000000E+00  0.87560114456E+03  0.87560114456E+03  0.00000000000E+00 0. -1.
         21   -1    0    0  506  502 -0.00000000000E+00 -0.00000000000E+00 -0.52154556895E+02  0.52154556895E+02  0.00000000000E+00 0. -1.
         21    1    1    2  503  501 -0.62731168877E+02  0.13234030760E+02  0.17927582697E+03  0.19039475112E+03  0.00000000000E+00 0. -1.
         21    1    1    2  504  505 -0.62419795343E+02  0.24046933859E+02  0.53112863806E+03  0.53532430922E+03  0.00000000000E+00 0. -1.
         21    1    1    2  505  502  0.73178696502E+02  0.11836522802E+02  0.10713817291E+03  0.13028358680E+03  0.00000000000E+00 0. -1.
         21    1    1    2  506  503  0.51972267718E+02 -0.49117487421E+02  0.59039497350E+01  0.71753054324E+02  0.00000000000E+00 0. -1.
<scales pt_clust_3="64.11193" pt_clust_4="101.82044" pt_clust_5="63.97373" pt_clust_6="14000.00000"></scales>
<clustering>
<clus scale="   64.112">  1  3  2 -1</clus>
<clus scale="   63.974">  2  5  1 -1</clus>
<clus scale="  101.820">  1  4  2 -1</clus>
<clus scale="   64.112">  1  3  2 -1</clus>
</clustering>
</event>
<event>
 6    0  0.8641190E+002  0.9522684E+02  0.7546771E-02  0.1290666E+00
         21   -1    0    0  506  501  0.00000000000E+00  0.00000000000E+00  0.10897774753E+04  0.10897774753E+04  0.00000000000E+00 0. -1.
         21   -1    0    0  503  502 -0.00000000000E+00 -0.00000000000E+00 -0.77501806419E+03  0.77501806419E+03  0.00000000000E+00 0. -1.
         21    1    1    2  503  504 -0.27716529916E+02  0.15871631430E+02 -0.39182654325E+03  0.39312613079E+03  0.00000000000E+00 0. -1.
         21    1    1    2  504  505 -0.33974865761E+01 -0.60783916584E+02 -0.97789770343E+02  0.11519143464E+03  0.00000000000E+00 0. -1.
         21    1    1    2  505  501 -0.72380688013E+02  0.61944739900E+02  0.10682668661E+04  0.10725065091E+04  0.00000000000E+00 0. -1.
         21    1    1    2  506  502  0.10349470450E+03 -0.17032454747E+02 -0.26389114144E+03  0.28397146495E+03  0.00000000000E+00 0. -1.
<scales pt_clust_3="31.93923" pt_clust_4="57.45072" pt_clust_5="95.22684" pt_clust_6="14000.00000"></scales>
<clustering>
<clus scale="   31.939">  2  3  1 -1</clus>
<clus scale="   57.451">  2  4  1 -1</clus>
<clus scale="   95.227">  1  5  2 -1</clus>
<clus scale="   95.227">  1  3  2 -1</clus>
</clustering>
</event>
<event>
 6    0  0.8641190E+002  0.9294683E+02  0.7546771E-02  0.1295868E+00
         21   -1    0    0  503  501  0.00000000000E+00  0.00000000000E+00  0.16167936112E+03  0.16167936112E+03  0.00000000000E+00 0. -1.
         21   -1    0    0  506  502 -0.00000000000E+00 -0.00000000000E+00 -0.15131125589E+04  0.15131125589E+04  0.00000000000E+00 0. -1.
         21    1    1    2  503  502 -0.42044465470E+02  0.19830950052E+02 -0.13485013812E+03  0.14263787508E+03  0.00000000000E+00 0. -1.
         21    1    1    2  504  501  0.17068599655E+02  0.89698287232E+02  0.12996016872E+03  0.15882935900E+03  0.00000000000E+00 0. -1.
         21    1    1    2  505  504  0.95262964981E+01 -0.13885911624E+03 -0.35621528270E+03  0.38244206374E+03  0.00000000000E+00 0. -1.
         21    1    1    2  506  505  0.15449569317E+02  0.29329878960E+02 -0.99032794564E+03  0.99088262216E+03  0.00000000000E+00 0. -1.
<scales pt_clust_3="46.92987" pt_clust_4="14000.00000" pt_clust_5="92.94683" pt_clust_6="33.15013"></scales>
<clustering>
<clus scale="   33.150">  2  6  1 -1</clus>
<clus scale="   46.930">  2  3  1 -1</clus>
<clus scale="   92.947">  2  5  1 -1</clus>
<clus scale="   92.947">  1  3  2 -1</clus>
</clustering>
</event>
<event>
 6    0  0.8641190E+002  0.1275483E+03  0.7546771E-02  0.1231140E+00
         21   -1    0    0  506  501  0.00000000000E+00  0.00000000000E+00  0.32562483350E+03  0.32562483350E+03  0.00000000000E+00 0. -1.
         21   -1    0    0  501  502 -0.00000000000E+00 -0.00000000000E+00 -0.13624657925E+03  0.13624657925E+03  0.00000000000E+00 0. -1.
         21    1    1    2  503  504  0.14222420195E+02  0.11155136005E+03  0.70866083914E+02  0.13292097282E+03  0.00000000000E+00 0. -1.
         21    1    1    2  504  505  0.22258157697E+02 -0.57144191918E+02 -0.12638246589E+02  0.62614770868E+02  0.00000000000E+00 0. -1.
         21    1    1    2  505  502  0.53161410389E+00 -0.68408356956E+02 -0.47545887653E+02  0.83310247555E+02  0.00000000000E+00 0. -1.
         21    1    1    2  506  503 -0.37012191996E+02  0.14001188820E+02  0.17869630458E+03  0.18302542150E+03  0.00000000000E+00 0. -1.
<scales pt_clust_3="121.98114" pt_clust_4="35.28891" pt_clust_5="35.28891" pt_clust_6="39.57190"></scales>
<clustering>
<clus scale="   35.289">  4  5 -1 -1</clus>
<clus scale="   39.572">  1  6  2 -1</clus>
<clus scale="  121.981">  1  3  2 -1</clus>
<clus scale="   39.572">  1  3  2 -1</clus>
</clustering>
</event>
<event>
 6    0  0.8641190E+002  0.1856955E+03  0.7546771E-02  0.1162402E+00
         21   -1    0    0  502  501  0.00000000000E+00  0.00000000000E+00  0.68499219377E+03  0.68499219377E+03  0.00000000000E+00 0. -1.
         21   -1    0    0  503  502 -0.00000000000E+00 -0.00000000000E+00 -0.30165231036E+03  0.30165231036E+03  0.00000000000E+00 0. -1.
         21    1    1    2  503  506  0.13163598113E+03 -0.13313292850E+03 -0.21810551430E+03  0.28744116537E+03  0.00000000000E+00 0. -1.
         21    1    1    2  504  501  0.17705353011E+02 -0.53888969502E+02  0.19792028353E+03  0.20588817157E+03  0.00000000000E+00 0.  1.
         21    1    1    2  505  504 -0.90232640021E+02  0.77335472242E+01  0.92293409528E+02  0.12930510632E+03  0.00000000000E+00 0.  1.
         21    1    1    2  506  505 -0.59108694117E+02  0.17928835077E+03  0.31123170466E+03  0.36401006089E+03  0.00000000000E+00 0. -1.
<scales pt_clust_3="185.69552" pt_clust_4="56.72302" pt_clust_5="86.29590" pt_clust_6="14000.00000"></scales>
<clustering>
<clus scale="   56.723">  1  4  2 -1</clus>
<clus scale="   86.296">  1  5  2 -1</clus>
<clus scale="  185.696">  2  3  1 -1</clus>
<clus scale="   56.723">  1  3  2 -1</clus>
</clustering>
</event>
<event>
 6    0  0.8641190E+002  0.1162040E+03  0.7546771E-02  0.1249494E+00
         21   -1    0    0  503  501  0.00000000000E+00  0.00000000000E+00  0.75008385630E+02  0.75008385630E+02  0.00000000000E+00 0. -1.
         21   -1    0    0  506  502 -0.00000000000E+00 -0.00000000000E+00 -0.48323083741E+03  0.48323083741E+03  0.00000000000E+00 0. -1.
         21    1    1    2  503  504  0.49873454613E+01  0.36191973533E+02 -0.10167842938E+02  0.37922520921E+02  0.00000000000E+00 0. -1.
         21    1    1    2  504  502 -0.38563316421E+02  0.87200573626E+02 -0.18348034196E+03  0.20677549492E+03  0.00000000000E+00 0. -1.
         21    1    1    2  505  501 -0.10018364011E+02 -0.15260446438E+03 -0.87821723985E+02  0.17635516826E+03  0.00000000000E+00 0. -1.
         21    1    1    2  506  505  0.43594334971E+02  0.29211917225E+02 -0.12675254291E+03  0.13718603895E+03  0.00000000000E+00 0. -1.
<scales pt_clust_3="36.53399" pt_clust_4="116.20401" pt_clust_5="14000.00000" pt_clust_6="54.59921"></scales>
<clustering>
<clus scale="   36.534">  1  3  2 -1</clus>
<clus scale="   54.599">  2  6  1 -1</clus>
<clus scale="  116.204">  2  4  1 -1</clus>
<clus scale="   36.534">  1  3  2 -1</clus>
</clustering>
</event>
<event>
 6    0  0.8641190E+002  0.8729816E+02  0.7546771E-02  0.1309530E+00
         21   -1    0    0  506  501  0.00000000000E+00  0.00000000000E+00  0.46242528659E+03  0.46242528659E+03  0.00000000000E+00 0. -1.
         21   -1    0    0  505  502 -0.00000000000E+00 -0.00000000000E+00 -0.55491024190E+02  0.55491024190E+02  0.00000000000E+00 0. -1.
         21    1    1    2  503  504 -0.58089223935E+02  0.48715729438E+02  0.11859456386E+03  0.14075599742E+03  0.00000000000E+00 0. -1.
         21    1    1    2  504  502  0.81259771887E+02 -0.45918215703E+02  0.28658506297E+02  0.97636791445E+02  0.00000000000E+00 0. -1.
         21    1    1    2  505  501  0.36758916711E+02  0.95029930598E+00  0.54563412772E+02  0.65797317877E+02  0.00000000000E+00 0.  1.
         21    1    1    2  506  503 -0.59929464663E+02 -0.37478130413E+01  0.20511777947E+03  0.21372620403E+03  0.00000000000E+00 0. -1.
<scales pt_clust_3="87.29816" pt_clust_4="14000.00000" pt_clust_5="36.77120" pt_clust_6="40.92107"></scales>
<clustering>
<clus scale="   36.771">  1  5  2 -1</clus>
<clus scale="   40.921">  1  6  2 -1</clus>
<clus scale="   87.298">  1  3  2 -1</clus>
<clus scale="   36.771">  1  3  2 -1</clus>
</clustering>
</event>
<event>
 6    0  0.8641190E+002  0.9210034E+02  0.7546771E-02  0.1297844E+00
         21   -1    0    0  505  501  0.00000000000E+00  0.00000000000E+00  0.33200140699E+03  0.33200140699E+03  0.00000000000E+00 0. -1.
         21   -1    0    0  506  502 -0.00000000000E+00 -0.00000000000E+00 -0.24102802949E+03  0.24102802949E+03  0.00000000000E+00 0. -1.
         21    1    1    2  503  502  0.58524149917E+02  0.24129467742E+02 -0.18611201254E+03  0.19658328655E+03  0.00000000000E+00 0. -1.
         21    1    1    2  504  503 -0.22226297040E+02 -0.66391150597E+02  0.47307101737E+02  0.84497071148E+02  0.00000000000E+00 0. -1.
         21    1    1    2  505  504 -0.31889504293E+02 -0.32606523883E+02 -0.46229995663E+01  0.45842098652E+02  0.00000000000E+00 0.  1.
         21    1    1    2  506  501 -0.44083485833E+01  0.74868206738E+02  0.23440128786E+03  0.24610698013E+03  0.00000000000E+00 0. -1.
<scales pt_clust_3="63.30330" pt_clust_4="39.84637" pt_clust_5="39.84637" pt_clust_6="77.75067"></scales>
<clustering>
<clus scale="   39.846">  4  5 -1 -1</clus>
<clus scale="   63.303">  2  3  1 -1</clus>
<clus scale="   77.751">  1  6  2 -1</clus>
<clus scale="   77.751">  1  3  2 -1</clus>
</clustering>
</event>
<event>
 6    0  0.8641190E+002  0.1105120E+03  0.7546771E-02  0.1259625E+00
         21   -1    0    0  504  501  0.00000000000E+00  0.00000000000E+00  0.61033761688E+02  0.61033761688E+02  0.00000000000E+00 0.  1.
         21   -1    0    0  506  502 -0.00000000000E+00 -0.00000000000E+00 -0.49510611411E+03  0.49510611411E+03  0.00000000000E+00 0.  1.
         21    1    1    2  503  501 -0.40268601774E+02  0.97593571374E+02 -0.17322045893E+02  0.10698653530E+03  0.00000000000E+00 0.  1.
         21    1    1    2  504  505  0.32000188507E+02  0.13740892959E+01 -0.62200981710E+02  0.69963292601E+02  0.00000000000E+00 0.  1.
         21    1    1    2  505  502  0.48487576722E+02 -0.51907503887E+02 -0.21757904747E+03  0.22888004709E+03  0.00000000000E+00 0.  1.
         21    1    1    2  506  503 -0.40219163455E+02 -0.47060156783E+02 -0.13697027734E+03  0.15031000080E+03  0.00000000000E+00 0.  1.
<scales pt_clust_3="101.06599" pt_clust_4="30.02005" pt_clust_5="30.02005" pt_clust_6="61.90508"></scales>
<clustering>
<clus scale="   30.020">  4  5 -1 -1</clus>
<clus scale="   61.905">  2  6  1 -1</clus>
<clus scale="  101.066">  1  3  2 -1</clus>
<clus scale="  101.066">  1  3  2 -1</clus>
</clustering>
</event>
<event>
 6    0  0.8641190E+002  0.8776771E+02  0.7546771E-02  0.1308349E+00
         21   -1    0    0  506  501  0.00000000000E+00  0.00000000000E+00  0.12335145337E+03  0.12335145337E+03  0.00000000000E+00 0. -1.
         21   -1    0    0  504  502 -0.00000000000E+00 -0.00000000000E+00 -0.44320757420E+03  0.44320757420E+03  0.00000000000E+00 0.  1.
         21    1    1    2  503  501 -0.66379335782E+02 -0.48179603083E+02 -0.79071042593E+02  0.11392857477E+03  0.00000000000E+00 0. -1.
         21    1    1    2  504  503 -0.31727590653E+02  0.14301117744E+02 -0.28829306494E+02  0.45191712629E+02  0.00000000000E+00 0.  1.
         21    1    1    2  505  502  0.52646218426E+01  0.47697298908E+02 -0.28468090304E+03  0.28869701267E+03  0.00000000000E+00 0.  1.
         21    1    1    2  506  505  0.92842304593E+02 -0.13818813569E+02  0.72725131300E+02  0.11874172751E+03  0.00000000000E+00 0. -1.
<scales pt_clust_3="87.76771" pt_clust_4="34.80175" pt_clust_5="60.27572" pt_clust_6="14000.00000"></scales>
<clustering>
<clus scale="   34.802">  2  4  1 -1</clus>
<clus scale="   60.276">  2  5  1 -1</clus>
<clus scale="   87.768">  2  3  1 -1</clus>
<clus scale="   87.768">  1  3  2 -1</clus>
</clustering>
</event>
<event>
 6    0  0.8641190E+002  0.1172389E+03  0.7546771E-02  0.1247723E+00
         21   -1    0    0  506  501  0.00000000000E+00  0.00000000000E+00  0.23958567685E+03  0.23958567685E+03  0.00000000000E+00 0.  1.
         21   -1    0    0  504  502 -0.00000000000E+00 -0.00000000000E+00 -0.60016221505E+03  0.60016221505E+03  0.00000000000E+00 0. -1.
         21    1    1    2  503  502 -0.50238959840E+02  0.11439777404E+02 -0.99727984681E+02  0.11225191545E+03  0.00000000000E+00 0. -1.
         21    1    1    2  504  505 -0.55934387265E+02 -0.63056837542E+02 -0.39056834858E+03  0.39956032755E+03  0.00000000000E+00 0. -1.
         21    1    1    2  505  501 -0.37488929861E+02 -0.31551619015E+01  0.16579574740E+03  0.17001060192E+03  0.00000000000E+00 0.  1.
         21    1    1    2  506  503  0.14366227697E+03  0.54772222040E+02 -0.36075952337E+02  0.15792504699E+03  0.00000000000E+00 0.  1.
<scales pt_clust_3="54.66602" pt_clust_4="117.23887" pt_clust_5="37.62147" pt_clust_6="14000.00000"></scales>
<clustering>
<clus scale="   37.621">  1  5  2 -1</clus>
<clus scale="   54.666">  2  3  1 -1</clus>
<clus scale="  117.239">  2  4  1 -1</clus>
<clus scale="   37.621">  1  3  2 -1</clus>
</clustering>
</event>
<event>
 6    0  0.8641190E+002  0.1482316E+03  0.7546771E-02  0.1202663E+00
         21   -1    0    0  506  501  0.00000000000E+00  0.00000000000E+00  0.47004801846E+03  0.47004801846E+03  0.00000000000E+00 0. -1.
         21   -1    0    0  505  502 -0.00000000000E+00 -0.00000000000E+00 -0.31158791070E+03  0.31158791070E+03  0.00000000000E+00 0.  1.
         21    1    1    2  503  501  0.41922353373E+02  0.60250471219E+02  0.19082343440E+03  0.20445338371E+03  0.00000000000E+00 0. -1.
         21    1    1    2  504  502  0.26575963258E+02 -0.20067685387E+02 -0.24595540723E+03  0.24819962966E+03  0.00000000000E+00 0.  1.
         21    1    1    2  505  503  0.34295313874E+01  0.76503157790E+02  0.16782328363E+03  0.18446991453E+03  0.00000000000E+00 0. -1.
         21    1    1    2  506  504 -0.71927848019E+02 -0.11668594362E+03  0.45768796960E+02  0.14451300127E+03  0.00000000000E+00 0. -1.
<scales pt_clust_3="43.04870" pt_clust_4="33.30156" pt_clust_5="43.04870" pt_clust_6="141.76422"></scales>
<clustering>
<clus scale="   33.302">  2  4  1 -1</clus>
<clus scale="   43.049">  3  5 -1 -1</clus>
<clus scale="  141.764">  2  6  1 -1</clus>
<clus scale="  148.232">  1  3  2 -1</clus>
</clustering>
</event>
<event>
 6    0  0.8641190E+002  0.1238994E+03  0.7546771E-02  0.1236799E+00
         21   -1    0    0  503  501  0.00000000000E+00  0.00000000000E+00  0.79510022520E+02  0.79510022520E+02  0.00000000000E+00 0.  1.
         21   -1    0    0  505  502 -0.00000000000E+00 -0.00000000000E+00 -0.21174928867E+04  0.21174928867E+04  0.00000000000E+00 0. -1.
         21    1    1    2  503  506 -0.12877539197E+03  0.59474106178E+01  0.43126346813E+01  0.12898477463E+03  0.00000000000E+00 0.  1.
         21    1    1    2  504  502  0.17131174391E+02 -0.47923344421E+02 -0.11314084190E+04  0.11325524865E+04  0.00000000000E+00 0. -1.
         21    1    1    2  505  501  0.23609467375E+02  0.10135910758E+03 -0.52607510556E+03  0.53627054024E+03  0.00000000000E+00 0. -1.
         21    1    1    2  506  504  0.88034750200E+02 -0.59383173777E+02 -0.38481197432E+03  0.39919510788E+03  0.00000000000E+00 0. -1.
<scales pt_clust_3="14000.00000" pt_clust_4="50.89326" pt_clust_5="82.36098" pt_clust_6="123.89935"></scales>
<clustering>
<clus scale="   50.893">  2  4  1 -1</clus>
<clus scale="   82.361">  2  5  1 -1</clus>
<clus scale="  123.899">  2  6  1 -1</clus>
<clus scale="  123.899">  1  3  2 -1</clus>
</clustering>
</event>
<event>
 6    0  0.8641190E+002  0.1312387E+03  0.7546771E-02  0.1225629E+00
         21   -1    0    0  506  501  0.00000000000E+00  0.00000000000E+00  0.34234875987E+03  0.34234875987E+03  0.00000000000E+00 0. -1.
         21   -1    0    0  505  502 -0.00000000000E+00 -0.00000000000E+00 -0.56253362971E+03  0.56253362971E+03  0.00000000000E+00 0. -1.
         21    1    1    2  503  502  0.92167070792E+02  0.99483218316E+00  0.26448963985E+03  0.28009021443E+03  0.00000000000E+00 0. -1.
         21    1    1    2  504  501 -0.12203316204E+03  0.57653243781E+02 -0.13271513552E+03  0.18928628147E+03  0.00000000000E+00 0. -1.
         21    1    1    2  505  504 -0.12732948867E+02 -0.34549820659E+02 -0.37818917719E+03  0.37997746228E+03  0.00000000000E+00 0. -1.
         21    1    1    2  506  503  0.42599040119E+02 -0.24098255305E+02  0.26229803022E+02  0.55528431406E+02  0.00000000000E+00 0. -1.
<scales pt_clust_3="14000.00000" pt_clust_4="131.23867" pt_clust_5="36.82144" pt_clust_6="49.50145"></scales>
<clustering>
<clus scale="   36.821">  2  5  1 -1</clus>
<clus scale="   49.501">  1  6  2 -1</clus>
<clus scale="  131.239">  2  4  1 -1</clus>
<clus scale="   49.501">  1  3  2 -1</clus>
</clustering>
</event>
<event>
 6    0  0.8641190E+002  0.1880604E+03  0.7546771E-02  0.1160222E+00
         21   -1    0    0  506  501  0.00000000000E+00  0.00000000000E+00  0.15198779352E+03  0.15198779352E+03  0.00000000000E+00 0.  1.
         21   -1    0    0  505  502 -0.00000000000E+00 -0.00000000000E+00 -0.40526559704E+03  0.40526559704E+03  0.00000000000E+00 0.  1.
         21    1    1    2  503  501  0.64889294527E+02 -0.17002800792E+02 -0.25878907261E+02  0.71898773425E+02  0.00000000000E+00 0. -1.
         21    1    1    2  504  502 -0.22655303245E+02  0.25991322195E+02 -0.39749047288E+02  0.52619372430E+02  0.00000000000E+00 0.  1.
         21    1    1    2  505  503 -0.88898556628E+02 -0.18065504153E+03 -0.14954383006E+03  0.25080381678E+03  0.00000000000E+00 0.  1.
         21    1    1    2  506  504  0.46664565346E+02  0.17166652013E+03 -0.38106018910E+02  0.18193142793E+03  0.00000000000E+00 0.  1.
<scales pt_clust_3="63.25435" pt_clust_4="34.47915" pt_clust_5="188.06036" pt_clust_6="14000.00000"></scales>
<clustering>
<clus scale="   34.479">  2  4  1 -1</clus>
<clus scale="   63.254">  1  3  2 -1</clus>
<clus scale="  188.060">  2  5  1 -1</clus>
<clus scale="   63.254">  1  3  2 -1</clus>
</clustering>
</event>
<event>
 6    0  0.8641190E+002  0.2221829E+03  0.7546771E-02  0.1132266E+00
         21   -1    0    0  505  501  0.00000000000E+00  0.00000000000E+00  0.84012075997E+03  0.84012075997E+03  0.00000000000E+00 0.  1.
         21   -1    0    0  504  502 -0.00000000000E+00 -0.00000000000E+00 -0.22262466492E+03  0.22262466492E+03  0.00000000000E+00 0.  1.
         21    1    1    2  503  502  0.18075383981E+03  0.35783217080E+02  0.76642549082E+02  0.19956570236E+03  0.00000000000E+00 0.  1.
         21    1    1    2  504  501 -0.23225776217E+03 -0.10752201721E+03 -0.31593294533E+02  0.25788134584E+03  0.00000000000E+00 0.  1.
         21    1    1    2  505  506  0.44793391895E+02  0.47888187837E+01  0.51459155905E+03  0.51655963197E+03  0.00000000000E+00 0.  1.
         21    1    1    2  506  503  0.67105304648E+01  0.66949981343E+02  0.57855281454E+02  0.88738744712E+02  0.00000000000E+00 0.  1.
<scales pt_clust_3="14000.00000" pt_clust_4="222.18294" pt_clust_5="45.04865" pt_clust_6="70.08161"></scales>
<clustering>
<clus scale="   45.049">  1  5  2 -1</clus>
<clus scale="   70.082">  1  6  2 -1</clus>
<clus scale="  222.183">  2  4  1 -1</clus>
<clus scale="   45.049">  1  3  2 -1</clus>
</clustering>
</event>
<event>
 6    0  0.8641190E+002  0.1071252E+03  0.7546771E-02  0.1265988E+00
         21   -1    0    0  504  501  0.00000000000E+00  0.00000000000E+00  0.34949053755E+03  0.34949053755E+03  0.00000000000E+00 0. -1.
         21   -1    0    0  505  502 -0.00000000000E+00 -0.00000000000E+00 -0.79153196086E+03  0.79153196086E+03  0.00000000000E+00 0. -1.
         21    1    1    2  503  502  0.29902235312E+02  0.10205860089E+03 -0.71937847496E+03  0.72719701040E+03  0.00000000000E+00 0. -1.
         21    1    1    2  504  503  0.77215923439E+01  0.90725601723E+02  0.70410346607E+02  0.11510158429E+03  0.00000000000E+00 0. -1.
         21    1    1    2  505  506 -0.24741698460E+02 -0.15195732215E+03  0.20432261686E+03  0.25583375688E+03  0.00000000000E+00 0. -1.
         21    1    1    2  506  501 -0.12882129196E+02 -0.40826880462E+02  0.26040881839E+01  0.42890146842E+02  0.00000000000E+00 0. -1.
<scales pt_clust_3="107.12522" pt_clust_4="79.23998" pt_clust_5="14000.00000" pt_clust_6="42.81102"></scales>
<clustering>
<clus scale="   42.811">  1  6  2 -1</clus>
<clus scale="   79.240">  1  4  2 -1</clus>
<clus scale="  107.125">  2  3  1 -1</clus>
<clus scale="   42.811">  1  3  2 -1</clus>
</clustering>
</event>
<event>
 6    0  0.8641190E+002  0.4308850E+03  0.7546771E-02  0.1033581E+00
         21   -1    0    0  505  501  0.00000000000E+00  0.00000000000E+00  0.25329849097E+04  0.25329849097E+04  0.00000000000E+00 0. -1.
         21   -1    0    0  504  502 -0.00000000000E+00 -0.00000000000E+00 -0.13587033960E+04  0.13587033960E+04  0.00000000000E+00 0.  1.
         21    1    1    2  503  506  0.47192378664E+03  0.78712399902E+02  0.55934817490E+03  0.73605576083E+03  0.00000000000E+00 0. -1.
         21    1    1    2  504  503 -0.50159462840E+02  0.39192119603E+02 -0.12304183533E+04  0.12320638450E+04  0.00000000000E+00 0.  1.
         21    1    1    2  505  502 -0.32600115143E+02 -0.14441164879E+03  0.62972802707E+03  0.64689634401E+03  0.00000000000E+00 0.  1.
         21    1    1    2  506  501 -0.38916420865E+03  0.26507129290E+02  0.12156236651E+04  0.12766723559E+04  0.00000000000E+00 0. -1.
<scales pt_clust_3="430.88497" pt_clust_4="63.65527" pt_clust_5="146.26614" pt_clust_6="14000.00000"></scales>
<clustering>
<clus scale="   63.655">  2  4  1 -1</clus>
<clus scale="  146.266">  1  5  2 -1</clus>
<clus scale="  430.885">  2  3  1 -1</clus>
<clus scale="  146.266">  1  3  2 -1</clus>
</clustering>
</event>
<event>
 6    0  0.8641190E+002  0.1540238E+03  0.7546771E-02  0.1195614E+00
         21   -1    0    0  504  501  0.00000000000E+00  0.00000000000E+00  0.70817640401E+03  0.70817640401E+03  0.00000000000E+00 0. -1.
         21   -1    0    0  503  502 -0.00000000000E+00 -0.00000000000E+00 -0.46969958892E+03  0.46969958892E+03  0.00000000000E+00 0. -1.
         21    1    1    2  503  501 -0.14384343732E+03 -0.75715365738E+02 -0.87063751680E+02  0.18440132300E+03  0.00000000000E+00 0. -1.
         21    1    1    2  504  506  0.57025207433E+02 -0.40441748775E+02  0.59159834640E+03  0.59571470754E+03  0.00000000000E+00 0. -1.
         21    1    1    2  505  502 -0.65954166966E+02  0.97699164995E+02 -0.19591720167E+03  0.22864520308E+03  0.00000000000E+00 0. -1.
         21    1    1    2  506  505  0.15277239685E+03  0.18457949518E+02 -0.70140577960E+02  0.16911475931E+03  0.00000000000E+00 0. -1.
<scales pt_clust_3="14000.00000" pt_clust_4="69.91001" pt_clust_5="108.58569" pt_clust_6="154.02380"></scales>
<clustering>
<clus scale="   69.910">  1  4  2 -1</clus>
<clus scale="  108.586">  2  5  1 -1</clus>
<clus scale="  154.024">  2  6  1 -1</clus>
<clus scale="   69.910">  1  3  2 -1</clus>
</clustering>
</event>
<event>
 6    0  0.8641190E+002  0.9812909E+02  0.7546771E-02  0.1284280E+00
         21   -1    0    0  506  501  0.00000000000E+00  0.00000000000E+00  0.67378354291E+03  0.67378354291E+03  0.00000000000E+00 0. -1.
         21   -1    0    0  504  502 -0.00000000000E+00 -0.00000000000E+00 -0.31560029628E+03  0.31560029628E+03  0.00000000000E+00 0. -1.
         21    1    1    2  503  502 -0.32825652611E+01  0.32340635283E+02 -0.24432644697E+03  0.24647942027E+03  0.00000000000E+00 0. -1.
         21    1    1    2  504  505 -0.65019213207E+02 -0.88791569400E+02  0.27483085922E+02  0.11343174553E+03  0.00000000000E+00 0.  1.
         21    1    1    2  505  501 -0.25338740700E+02  0.19298190328E+02  0.50680495183E+03  0.50780481598E+03  0.00000000000E+00 0. -1.
         21    1    1    2  506  503  0.93640519169E+02  0.37152743789E+02  0.68221655840E+02  0.12166785741E+03  0.00000000000E+00 0.  1.
<scales pt_clust_3="32.64784" pt_clust_4="14000.00000" pt_clust_5="31.85078" pt_clust_6="98.12909"></scales>
<clustering>
<clus scale="   31.851">  1  5  2 -1</clus>
<clus scale="   32.648">  2  3  1 -1</clus>
<clus scale="   98.129">  1  6  2 -1</clus>
<clus scale="   31.851">  1  3  2 -1</clus>
</clustering>
</event>
<event>
 6    0  0.8641190E+002  0.1435517E+03  0.7546771E-02  0.1208628E+00
         21   -1    0    0  505  501  0.00000000000E+00  0.00000000000E+00  0.27573097652E+03  0.27573097652E+03  0.00000000000E+00 0. -1.
         21   -1    0    0  504  502 -0.00000000000E+00 -0.00000000000E+00 -0.35184225145E+03  0.35184225145E+03  0.00000000000E+00 0. -1.
         21    1    1    2  503  501 -0.12735171458E+02 -0.32250712025E+02  0.16459408464E+03  0.16820673505E+03  0.00000000000E+00 0. -1.
         21    1    1    2  504  503  0.13464055233E+03  0.88237206622E+02  0.21380941472E+02  0.16239158729E+03  0.00000000000E+00 0. -1.
         21    1    1    2  505  506 -0.68395034979E+02 -0.10417946635E+02 -0.12223239102E+03  0.14045345078E+03  0.00000000000E+00 0. -1.
         21    1    1    2  506  502 -0.53510345894E+02 -0.45568547961E+02 -0.13985391002E+03  0.15652145485E+03  0.00000000000E+00 0. -1.
<scales pt_clust_3="34.67410" pt_clust_4="138.19414" pt_clust_5="38.32775" pt_clust_6="38.32775"></scales>
<clustering>
<clus scale="   34.674">  1  3  2 -1</clus>
<clus scale="   38.328">  5  6 -1 -1</clus>
<clus scale="  138.194">  1  4  2 -1</clus>
<clus scale="   34.674">  1  3  2 -1</clus>
</clustering>
</event>
<event>
 6    0  0.8641190E+002  0.8576094E+02  0.7546771E-02  0.1313455E+00
         21   -1    0    0  503  501  0.00000000000E+00  0.00000000000E+00  0.59231860592E+03  0.59231860592E+03  0.00000000000E+00 0. -1.
         21   -1    0    0  504  502 -0.00000000000E+00 -0.00000000000E+00 -0.41162241397E+02  0.41162241397E+02  0.00000000000E+00 0. -1.
         21    1    1    2  503  502 -0.89659355760E+02  0.73873326527E+02  0.13632205383E+03  0.17910826561E+03  0.00000000000E+00 0. -1.
         21    1    1    2  504  505  0.33040782065E+02 -0.13204188921E+02  0.14614732133E+02  0.38466014608E+02  0.00000000000E+00 0. -1.
         21    1    1    2  505  506  0.25533211911E+02 -0.67297953605E+02  0.18778444593E+03  0.20110683132E+03  0.00000000000E+00 0. -1.
         21    1    1    2  506  501  0.31085361784E+02  0.66288159989E+01  0.21243513262E+03  0.21479973578E+03  0.00000000000E+00 0. -1.
<scales pt_clust_3="14000.00000" pt_clust_4="37.45262" pt_clust_5="85.76094" pt_clust_6="31.78429"></scales>
<clustering>
<clus scale="   31.784">  1  6  2 -1</clus>
<clus scale="   37.453">  2  4  1 -1</clus>
<clus scale="   85.761">  1  5  2 -1</clus>
<clus scale="   31.784">  1  3  2 -1</clus>
</clustering>
</event>
<event>
 6    0  0.8641190E+002  0.1471147E+03  0.7546771E-02  0.1204064E+00
         21   -1    0    0  506  501  0.00000000000E+00  0.00000000000E+00  0.14477875233E+03  0.14477875233E+03  0.00000000000E+00 0. -1.
         21   -1    0    0  504  502 -0.00000000000E+00 -0.00000000000E+00 -0.19347214826E+03  0.19347214826E+03  0.00000000000E+00 0. -1.
         21    1    1    2  503  505 -0.59096281335E+02  0.29231361582E+02 -0.24245202106E+02  0.70247226228E+02  0.00000000000E+00 0. -1.
         21    1    1    2  504  503  0.10141823448E+03 -0.10526463583E+03 -0.47840693317E+02  0.15380193035E+03  0.00000000000E+00 0. -1.
         21    1    1    2  505  501 -0.59199191978E+02  0.48497661200E+02  0.42225614852E+01  0.76644618195E+02  0.00000000000E+00 0. -1.
         21    1    1    2  506  502  0.16877238830E+02  0.27535613045E+02  0.19169938017E+02  0.37557125820E+02  0.00000000000E+00 0. -1.
<scales pt_clust_3="31.34845" pt_clust_4="143.18536" pt_clust_5="31.34845" pt_clust_6="32.29630"></scales>
<clustering>
<clus scale="   31.348">  3  5 -1 -1</clus>
<clus scale="   32.296">  1  6  2 -1</clus>
<clus scale="  143.185">  2  4  1 -1</clus>
<clus scale="   32.296">  1  3  2 -1</clus>
</clustering>
</event>
<event>
 6    0  0.8641190E+002  0.1082330E+03  0.7546771E-02  0.1263877E+00
         21   -1    0    0  504  501  0.00000000000E+00  0.00000000000E+00  0.13008726779E+04  0.13008726779E+04  0.00000000000E+00 0.  1.
         21   -1    0    0  503  502 -0.00000000000E+00 -0.00000000000E+00 -0.25784858374E+02  0.25784858374E+02  0.00000000000E+00 0.  1.
         21    1    1    2  503  506 -0.34594094154E+02  0.10863510775E+02  0.71745573136E+02  0.80387775696E+02  0.00000000000E+00 0.  1.
         21    1    1    2  504  505  0.75081115903E+02  0.50164889664E+02  0.25365830856E+03  0.26925123513E+03  0.00000000000E+00 0.  1.
         21    1    1    2  505  502  0.36789289410E+02  0.28497245378E+02  0.45329089538E+02  0.64963614183E+02  0.00000000000E+00 0.  1.
         21    1    1    2  506  501 -0.77276311158E+02 -0.89525645817E+02  0.90435484827E+03  0.91205491123E+03  0.00000000000E+00 0.  1.
<scales pt_clust_3="36.25972" pt_clust_4="108.23304" pt_clust_5="39.49136" pt_clust_6="14000.00000"></scales>
<clustering>
<clus scale="   36.260">  2  3  1 -1</clus>
<clus scale="   39.491">  2  5  1 -1</clus>
<clus scale="  108.233">  2  4  1 -1</clus>
<clus scale="  108.233">  1  3  2 -1</clus>
</clustering>
</event>
<event>
 6    0  0.8641190E+002  0.9565447E+02  0.7546771E-02  0.1289709E+00
         21   -1    0    0  504  501  0.00000000000E+00  0.00000000000E+00  0.11558107564E+04  0.11558107564E+04  0.00000000000E+00 0.  1.
         21   -1    0    0  505  502 -0.00000000000E+00 -0.00000000000E+00 -0.37077881330E+02  0.37077881330E+02  0.00000000000E+00 0.  1.
         21    1    1    2  503  501  0.10383914954E+03  0.22997739031E+02  0.93870675068E+02  0.14185615466E+03  0.00000000000E+00 0.  1.
         21    1    1    2  504  506 -0.91286498270E+02 -0.24663437430E+02  0.89954153246E+03  0.90449791516E+03  0.00000000000E+00 0.  1.
         21    1    1    2  505  503 -0.15433930834E+01  0.37350848142E+02  0.49643023833E+02  0.62144168949E+02  0.00000000000E+00 0.  1.
         21    1    1    2  506  502 -0.11009258187E+02 -0.35685149742E+02  0.75677643668E+02  0.84390398915E+02  0.00000000000E+00 0.  1.
<scales pt_clust_3="14000.00000" pt_clust_4="95.65447" pt_clust_5="30.75111" pt_clust_6="37.34479"></scales>
<clustering>
<clus scale="   37.345">  2  6  1 -1</clus>
<clus scale="   30.751">  2  5  1 -1</clus>
<clus scale="   95.654">  1  4  2 -1</clus>
<clus scale="   95.654">  1  3  2 -1</clus>
</clustering>
</event>
<event>
 6    0  0.8641190E+002  0.8934924E+02  0.7546771E-02  0.1304435E+00
         21   -1    0    0  506  501  0.00000000000E+00  0.00000000000E+00  0.46049547997E+03  0.46049547997E+03  0.00000000000E+00 0.  1.
         21   -1    0    0  505  502 -0.00000000000E+00 -0.00000000000E+00 -0.70090364746E+02  0.70090364746E+02  0.00000000000E+00 0.  1.
         21    1    1    2  503  501  0.10252139636E+03  0.78266340543E+00  0.29648153105E+03  0.31370774222E+03  0.00000000000E+00 0.  1.
         21    1    1    2  504  502  0.35483753014E+01  0.36179142801E+02 -0.19252345166E+02  0.41136044238E+02  0.00000000000E+00 0.  1.
         21    1    1    2  505  503 -0.46651304554E+02  0.17512219656E+02  0.23287275725E+02  0.55002902328E+02  0.00000000000E+00 0.  1.
         21    1    1    2  506  504 -0.59418467105E+02 -0.54474025862E+02  0.89888653617E+02  0.12073915593E+03  0.00000000000E+00 0.  1.
<scales pt_clust_3="89.34924" pt_clust_4="36.35273" pt_clust_5="55.35230" pt_clust_6="14000.00000"></scales>
<clustering>
<clus scale="   36.353">  2  4  1 -1</clus>
<clus scale="   55.352">  2  5  1 -1</clus>
<clus scale="   89.349">  1  3  2 -1</clus>
<clus scale="   89.349">  1  3  2 -1</clus>
</clustering>
</event>
<event>
 6    0  0.8641190E+002  0.1220160E+03  0.7546771E-02  0.1239808E+00
         21   -1    0    0  504  501  0.00000000000E+00  0.00000000000E+00  0.53812983197E+03  0.53812983197E+03  0.00000000000E+00 0. -1.
         21   -1    0    0  503  502 -0.00000000000E+00 -0.00000000000E+00 -0.96972024561E+03  0.96972024561E+03  0.00000000000E+00 0. -1.
         21    1    1    2  503  506 -0.68691246704E+02  0.17263049172E+02 -0.89724825311E+03  0.90003940356E+03  0.00000000000E+00 0. -1.
         21    1    1    2  504  505 -0.89840484519E+02  0.62591082442E+02  0.23278062844E+03  0.25724653008E+03  0.00000000000E+00 0. -1.
         21    1    1    2  505  502 -0.10391590840E+02 -0.74601717777E+02  0.18464332124E+02  0.77552130959E+02  0.00000000000E+00 0. -1.
         21    1    1    2  506  501  0.16892332206E+03 -0.52524138363E+01  0.21441287892E+03  0.27301201298E+03  0.00000000000E+00 0. -1.
<scales pt_clust_3="70.82726" pt_clust_4="122.01603" pt_clust_5="77.86474" pt_clust_6="14000.00000"></scales>
<clustering>
<clus scale="   70.827">  2  3  1 -1</clus>
<clus scale="   77.865">  2  5  1 -1</clus>
<clus scale="  122.016">  1  4  2 -1</clus>
<clus scale="  122.016">  1  3  2 -1</clus>
</clustering>
</event>
<event>
 6    0  0.8641190E+002  0.1045608E+03  0.7546771E-02  0.1270987E+00
         21   -1    0    0  503  501  0.00000000000E+00  0.00000000000E+00  0.14746746803E+04  0.14746746803E+04  0.00000000000E+00 0.  1.
         21   -1    0    0  506  502 -0.00000000000E+00 -0.00000000000E+00 -0.15996653372E+03  0.15996653372E+03  0.00000000000E+00 0.  1.
         21    1    1    2  503  505 -0.90902642962E+02  0.50921325610E+02  0.15337857539E+03  0.18542184145E+03  0.00000000000E+00 0.  1.
         21    1    1    2  504  501 -0.61361694610E+02  0.81295890799E+02  0.10959122874E+04  0.11006352807E+04  0.00000000000E+00 0.  1.
         21    1    1    2  505  502 -0.79852183210E+00 -0.69186243782E+02 -0.95364113714E+02  0.11782057609E+03  0.00000000000E+00 0.  1.
         21    1    1    2  506  504  0.15306285940E+03 -0.63030972627E+02  0.16078139755E+03  0.23076351583E+03  0.00000000000E+00 0.  1.
<scales pt_clust_3="96.00077" pt_clust_4="104.56081" pt_clust_5="69.19085" pt_clust_6="14000.00000"></scales>
<clustering>
<clus scale="   69.191">  2  5  1 -1</clus>
<clus scale="   96.001">  2  3  1 -1</clus>
<clus scale="  104.561">  1  4  2 -1</clus>
<clus scale="  104.561">  1  3  2 -1</clus>
</clustering>
</event>
<event>
 6    0  0.8641190E+002  0.7319444E+02  0.7546771E-02  0.1349555E+00
         21   -1    0    0  504  501  0.00000000000E+00  0.00000000000E+00  0.45615931400E+03  0.45615931400E+03  0.00000000000E+00 0. -1.
         21   -1    0    0  503  502 -0.00000000000E+00 -0.00000000000E+00 -0.10914279514E+03  0.10914279514E+03  0.00000000000E+00 0. -1.
         21    1    1    2  503  505 -0.23824184603E+02  0.28192187841E+02 -0.21973610872E+01  0.36975933024E+02  0.00000000000E+00 0.  1.
         21    1    1    2  504  506 -0.28051671844E+02 -0.43271820846E+02  0.86230635590E+02  0.10047422200E+03  0.00000000000E+00 0.  1.
         21    1    1    2  505  501 -0.42983985509E+02  0.53693720399E+02  0.30828351167E+03  0.31586288510E+03  0.00000000000E+00 0. -1.
         21    1    1    2  506  502  0.94859841956E+02 -0.38614087394E+02 -0.45300267307E+02  0.11198906902E+03  0.00000000000E+00 0. -1.
<scales pt_clust_3="36.91058" pt_clust_4="50.79596" pt_clust_5="14000.00000" pt_clust_6="73.19444"></scales>
<clustering>
<clus scale="   36.911">  2  3  1 -1</clus>
<clus scale="   50.796">  1  4  2 -1</clus>
<clus scale="   73.194">  2  6  1 -1</clus>
<clus scale="   50.796">  1  3  2 -1</clus>
</clustering>
</event>
<event>
 6    0  0.8641190E+002  0.1193721E+03  0.7546771E-02  0.1244136E+00
         21   -1    0    0  504  501  0.00000000000E+00  0.00000000000E+00  0.80597609523E+03  0.80597609523E+03  0.00000000000E+00 0. -1.
         21   -1    0    0  506  502 -0.00000000000E+00 -0.00000000000E+00 -0.36401800211E+03  0.36401800211E+03  0.00000000000E+00 0.  1.
         21    1    1    2  503  505  0.16545051532E+02  0.85803279577E+02  0.31069108812E+03  0.32274586559E+03  0.00000000000E+00 0. -1.
         21    1    1    2  504  503 -0.43811116016E+02  0.12029865795E+02  0.22728835441E+03  0.23178465783E+03  0.00000000000E+00 0. -1.
         21    1    1    2  505  502 -0.47844709074E+02 -0.11057892577E+03 -0.33955181297E+03  0.36029466926E+03  0.00000000000E+00 0.  1.
         21    1    1    2  506  501  0.75110773558E+02  0.12745780395E+02  0.24353046356E+03  0.25516890466E+03  0.00000000000E+00 0. -1.
<scales pt_clust_3="14000.00000" pt_clust_4="45.43271" pt_clust_5="119.37215" pt_clust_6="58.95821"></scales>
<clustering>
<clus scale="   45.433">  1  4  2 -1</clus>
<clus scale="   58.958">  1  6  2 -1</clus>
<clus scale="  119.372">  2  5  1 -1</clus>
<clus scale="   45.433">  1  3  2 -1</clus>
</clustering>
</event>
<event>
 6    0  0.8641190E+002  0.1260446E+03  0.7546771E-02  0.1233446E+00
         21   -1    0    0  506  501  0.00000000000E+00  0.00000000000E+00  0.37427464946E+03  0.37427464946E+03  0.00000000000E+00 0.  1.
         21   -1    0    0  505  502 -0.00000000000E+00 -0.00000000000E+00 -0.23670265763E+03  0.23670265763E+03  0.00000000000E+00 0.  1.
         21    1    1    2  503  501 -0.72309832462E+02  0.28406732808E+02  0.46058627553E+02  0.90316396693E+02  0.00000000000E+00 0.  1.
         21    1    1    2  504  502 -0.92792698396E+01 -0.38362269483E+02 -0.19300156912E+03  0.19699587370E+03  0.00000000000E+00 0.  1.
         21    1    1    2  505  503 -0.35351540663E+02  0.10588955894E+02  0.79365673681E+02  0.87525810896E+02  0.00000000000E+00 0. -1.
         21    1    1    2  506  504  0.11694064297E+03 -0.63341921958E+00  0.20514925972E+03  0.23613922580E+03  0.00000000000E+00 0.  1.
<scales pt_clust_3="36.37151" pt_clust_4="39.46858" pt_clust_5="36.37151" pt_clust_6="114.46514"></scales>
<clustering>
<clus scale="   36.372">  3  5 -1 -1</clus>
<clus scale="   39.469">  2  4  1 -1</clus>
<clus scale="  114.465">  1  6  2 -1</clus>
<clus scale="  114.465">  1  3  2 -1</clus>
</clustering>
</event>
<event>
 6    0  0.8641190E+002  0.8105688E+02  0.7546771E-02  0.1326079E+00
         21   -1    0    0  504  501  0.00000000000E+00  0.00000000000E+00  0.76714660361E+03  0.76714660361E+03  0.00000000000E+00 0. -1.
         21   -1    0    0  505  502 -0.00000000000E+00 -0.00000000000E+00 -0.10125548417E+03  0.10125548417E+03  0.00000000000E+00 0.  1.
         21    1    1    2  503  502  0.32286848404E+02 -0.81261416497E+01 -0.32404038441E+02  0.46459621880E+02  0.00000000000E+00 0.  1.
         21    1    1    2  504  503 -0.41601409482E+02 -0.19008114651E+02  0.62825289008E+03  0.62991561307E+03  0.00000000000E+00 0. -1.
         21    1    1    2  505  506 -0.48402203891E+02  0.81455254409E+02  0.15988521012E+02  0.96090398149E+02  0.00000000000E+00 0.  1.
         21    1    1    2  506  501  0.57716764970E+02 -0.54320998109E+02  0.54053746790E+02  0.95936454678E+02  0.00000000000E+00 0.  1.
<scales pt_clust_3="33.29376" pt_clust_4="45.38960" pt_clust_5="81.05688" pt_clust_6="14000.00000"></scales>
<clustering>
<clus scale="   33.294">  2  3  1 -1</clus>
<clus scale="   45.390">  1  4  2 -1</clus>
<clus scale="   81.057">  2  5  1 -1</clus>
<clus scale="   45.390">  1  3  2 -1</clus>
</clustering>
</event>
<event>
 6    0  0.8641190E+002  0.1565149E+03  0.7546771E-02  0.1192689E+00
         21   -1    0    0  506  501  0.00000000000E+00  0.00000000000E+00  0.23052022128E+03  0.23052022128E+03  0.00000000000E+00 0. -1.
         21   -1    0    0  503  502 -0.00000000000E+00 -0.00000000000E+00 -0.76636022447E+03  0.76636022447E+03  0.00000000000E+00 0.  1.
         21    1    1    2  503  504  0.78926264877E+02  0.55356737889E+01 -0.63342761549E+03  0.63834985943E+03  0.00000000000E+00 0.  1.
         21    1    1    2  504  505 -0.90437626628E+02  0.34719580251E+01  0.72864887119E+02  0.11619083689E+03  0.00000000000E+00 0. -1.
         21    1    1    2  505  501 -0.51762922130E+02 -0.31791367918E+02  0.11482710500E+03  0.12990517782E+03  0.00000000000E+00 0. -1.
         21    1    1    2  506  502  0.63274283882E+02  0.22783736104E+02 -0.90104379821E+02  0.11243457162E+03  0.00000000000E+00 0.  1.
<scales pt_clust_3="142.07368" pt_clust_4="53.79763" pt_clust_5="53.79763" pt_clust_6="67.25127"></scales>
<clustering>
<clus scale="   53.798">  4  5 -1 -1</clus>
<clus scale="   67.251">  2  6  1 -1</clus>
<clus scale="  142.074">  2  3  1 -1</clus>
<clus scale="  156.515">  1  3  2 -1</clus>
</clustering>
</event>
<event>
 6    0  0.8641190E+002  0.8261438E+02  0.7546771E-02  0.1321792E+00
         21   -1    0    0  504  501  0.00000000000E+00  0.00000000000E+00  0.18323519214E+04  0.18323519214E+04  0.00000000000E+00 0.  1.
         21   -1    0    0  503  502 -0.00000000000E+00 -0.00000000000E+00 -0.56815349106E+02  0.56815349106E+02  0.00000000000E+00 0.  1.
         21    1    1    2  503  506  0.16146656703E+02 -0.54849238035E+02 -0.33034937907E+02  0.66033783462E+02  0.00000000000E+00 0.  1.
         21    1    1    2  504  505 -0.30930142498E+02  0.37456664023E+02  0.19519992607E+03  0.20115339056E+03  0.00000000000E+00 0. -1.
         21    1    1    2  505  502 -0.64131538144E+02 -0.33792595298E+02  0.75368992104E+03  0.75716794092E+03  0.00000000000E+00 0.  1.
         21    1    1    2  506  501  0.78915023939E+02  0.51185169310E+02  0.85968166313E+03  0.86481215560E+03  0.00000000000E+00 0.  1.
<scales pt_clust_3="56.72586" pt_clust_4="48.57649" pt_clust_5="82.61438" pt_clust_6="14000.00000"></scales>
<clustering>
<clus scale="   48.576">  1  4  2 -1</clus>
<clus scale="   56.726">  2  3  1 -1</clus>
<clus scale="   82.614">  1  5  2 -1</clus>
<clus scale="   48.576">  1  3  2 -1</clus>
</clustering>
</event>
<event>
 6    0  0.8641190E+002  0.1479268E+03  0.7546771E-02  0.1203044E+00
         21   -1    0    0  505  501  0.00000000000E+00  0.00000000000E+00  0.18455845688E+04  0.18455845688E+04  0.00000000000E+00 0. -1.
         21   -1    0    0  504  502 -0.00000000000E+00 -0.00000000000E+00 -0.10110372930E+04  0.10110372930E+04  0.00000000000E+00 0.  1.
         21    1    1    2  503  501  0.10805613831E+03  0.10732960895E+03  0.12231879910E+04  0.12326332120E+04  0.00000000000E+00 0. -1.
         21    1    1    2  504  503  0.36248278871E+02 -0.88781729384E+02 -0.99482530921E+03  0.99943660581E+03  0.00000000000E+00 0.  1.
         21    1    1    2  505  506 -0.80816728926E+02 -0.20066023747E+02  0.40909206798E+03  0.41748090862E+03  0.00000000000E+00 0. -1.
         21    1    1    2  506  502 -0.63487688252E+02  0.15181441778E+01  0.19709252591E+03  0.20707113534E+03  0.00000000000E+00 0. -1.
<scales pt_clust_3="142.98472" pt_clust_4="95.89647" pt_clust_5="33.11280" pt_clust_6="33.11280"></scales>
<clustering>
<clus scale="   33.113">  5  6 -1 -1</clus>
<clus scale="   95.896">  2  4  1 -1</clus>
<clus scale="  142.985">  1  3  2 -1</clus>
<clus scale="  142.985">  1  3  2 -1</clus>
</clustering>
</event>
<event>
 6    0  0.8641190E+002  0.1656349E+03  0.7546771E-02  0.1182478E+00
         21   -1    0    0  504  501  0.00000000000E+00  0.00000000000E+00  0.34687380810E+04  0.34687380810E+04  0.00000000000E+00 0.  1.
         21   -1    0    0  506  502 -0.00000000000E+00 -0.00000000000E+00 -0.96063431129E+03  0.96063431129E+03  0.00000000000E+00 0. -1.
         21    1    1    2  503  505 -0.19515992363E+02  0.54067255324E+02  0.12123392560E+04  0.12137012045E+04  0.00000000000E+00 0.  1.
         21    1    1    2  504  502 -0.34143499904E+02 -0.77615957502E+01 -0.93948185223E+03  0.94013412427E+03  0.00000000000E+00 0. -1.
         21    1    1    2  505  501  0.51025897144E+02  0.96436675524E+02  0.19805801532E+04  0.19835829748E+04  0.00000000000E+00 0.  1.
         21    1    1    2  506  503  0.26335951232E+01 -0.14274233510E+03  0.25466621280E+03  0.29195408884E+03  0.00000000000E+00 0. -1.
<scales pt_clust_3="47.72511" pt_clust_4="35.01458" pt_clust_5="47.72511" pt_clust_6="152.27433"></scales>
<clustering>
<clus scale="   35.015">  2  4  1 -1</clus>
<clus scale="   47.725">  3  5 -1 -1</clus>
<clus scale="  152.274">  2  6  1 -1</clus>
<clus scale="  165.635">  1  3  2 -1</clus>
</clustering>
</event>
<event>
 6    0  0.8641190E+002  0.1022907E+03  0.7546771E-02  0.1275551E+00
         21   -1    0    0  504  501  0.00000000000E+00  0.00000000000E+00  0.58931750363E+03  0.58931750363E+03  0.00000000000E+00 0.  1.
         21   -1    0    0  503  502 -0.00000000000E+00 -0.00000000000E+00 -0.82855277406E+02  0.82855277406E+02  0.00000000000E+00 0.  1.
         21    1    1    2  503  505 -0.67160623380E+02  0.10117316096E+03  0.28592886625E+02  0.12475620624E+03  0.00000000000E+00 0.  1.
         21    1    1    2  504  506  0.38837744164E+02 -0.10386991438E+02  0.31796654028E+03  0.32049801981E+03  0.00000000000E+00 0.  1.
         21    1    1    2  505  501 -0.72525084848E+01 -0.91276783772E+02  0.16717115930E+03  0.19060494914E+03  0.00000000000E+00 0.  1.
         21    1    1    2  506  502  0.35575387701E+02  0.49061425356E+00 -0.72683599845E+01  0.36313605843E+02  0.00000000000E+00 0.  1.
<scales pt_clust_3="14000.00000" pt_clust_4="40.91297" pt_clust_5="102.29066" pt_clust_6="35.57877"></scales>
<clustering>
<clus scale="   35.579">  2  6  1 -1</clus>
<clus scale="   40.913">  1  4  2 -1</clus>
<clus scale="  102.291">  1  5  2 -1</clus>
<clus scale="   40.913">  1  3  2 -1</clus>
</clustering>
</event>
<event>
 6    0  0.8641190E+002  0.1293375E+03  0.7546771E-02  0.1228442E+00
         21   -1    0    0  504  501  0.00000000000E+00  0.00000000000E+00  0.20554041837E+03  0.20554041837E+03  0.00000000000E+00 0.  1.
         21   -1    0    0  506  502 -0.00000000000E+00 -0.00000000000E+00 -0.12922243519E+03  0.12922243519E+03  0.00000000000E+00 0.  1.
         21    1    1    2  503  505 -0.49321972067E+02  0.70534860251E+02  0.70979327055E+02  0.11156114157E+03  0.00000000000E+00 0.  1.
         21    1    1    2  504  502 -0.13594628463E+02 -0.48523443557E+02  0.16387804229E+02  0.52989608652E+02  0.00000000000E+00 0. -1.
         21    1    1    2  505  501 -0.47178779277E+02  0.16003952841E+02  0.12540511017E+02  0.51373418586E+02  0.00000000000E+00 0. -1.
         21    1    1    2  506  503  0.11009537981E+03 -0.38015369534E+02 -0.23589659122E+02  0.11883868475E+03  0.00000000000E+00 0.  1.
<scales pt_clust_3="40.04742" pt_clust_4="50.39185" pt_clust_5="40.04742" pt_clust_6="118.14160"></scales>
<clustering>
<clus scale="   40.047">  3  5 -1 -1</clus>
<clus scale="   50.392">  1  4  2 -1</clus>
<clus scale="  118.142">  2  6  1 -1</clus>
<clus scale="   50.392">  1  3  2 -1</clus>
</clustering>
</event>
<event>
 6    0  0.8641190E+002  0.9368602E+02  0.7546771E-02  0.1294163E+00
         21   -1    0    0  503  501  0.00000000000E+00  0.00000000000E+00  0.10092815772E+03  0.10092815772E+03  0.00000000000E+00 0.  1.
         21   -1    0    0  505  502 -0.00000000000E+00 -0.00000000000E+00 -0.37734603602E+03  0.37734603602E+03  0.00000000000E+00 0.  1.
         21    1    1    2  503  502 -0.31056423488E+02  0.11200268791E+03 -0.14603765001E+03  0.18664431082E+03  0.00000000000E+00 0.  1.
         21    1    1    2  504  506  0.41473466670E+02  0.15352017624E+02 -0.51789669790E+02  0.68102149597E+02  0.00000000000E+00 0.  1.
         21    1    1    2  505  504 -0.79950029961E+00 -0.37007231313E+02 -0.11860627069E+03  0.12424822662E+03  0.00000000000E+00 0.  1.
         21    1    1    2  506  501 -0.96175428824E+01 -0.90347474223E+02  0.40015712194E+02  0.99279506706E+02  0.00000000000E+00 0.  1.
<scales pt_clust_3="14000.00000" pt_clust_4="41.82367" pt_clust_5="37.01587" pt_clust_6="93.68602"></scales>
<clustering>
<clus scale="   37.016">  2  5  1 -1</clus>
<clus scale="   41.824">  2  4  1 -1</clus>
<clus scale="   93.686">  1  6  2 -1</clus>
<clus scale="   93.686">  1  3  2 -1</clus>
</clustering>
</event>
<event>
 6    0  0.8641190E+002  0.6843625E+02  0.7546771E-02  0.1365493E+00
         21   -1    0    0  505  501  0.00000000000E+00  0.00000000000E+00  0.43545600193E+03  0.43545600193E+03  0.00000000000E+00 0.  1.
         21   -1    0    0  504  502 -0.00000000000E+00 -0.00000000000E+00 -0.75865901885E+03  0.75865901885E+03  0.00000000000E+00 0. -1.
         21    1    1    2  503  506  0.78559374419E+02  0.14500333926E+02 -0.74038173163E+02  0.10891963128E+03  0.00000000000E+00 0. -1.
         21    1    1    2  504  501 -0.30411580410E+02 -0.35956652346E+02 -0.54891725150E+02  0.72324591675E+02  0.00000000000E+00 0. -1.
         21    1    1    2  505  503 -0.48123977102E+02 -0.48767331911E+02  0.40436481521E+03  0.41012811854E+03  0.00000000000E+00 0.  1.
         21    1    1    2  506  502 -0.23816906418E-01  0.70223650331E+02 -0.59863793381E+03  0.60274267929E+03  0.00000000000E+00 0. -1.
<scales pt_clust_3="68.43625" pt_clust_4="47.09294" pt_clust_5="14000.00000" pt_clust_6="47.16617"></scales>
<clustering>
<clus scale="   47.093">  2  4  1 -1</clus>
<clus scale="   47.166">  2  6  1 -1</clus>
<clus scale="   68.436">  2  3  1 -1</clus>
<clus scale="   68.436">  1  3  2 -1</clus>
</clustering>
</event>
<event>
 6    0  0.8641190E+002  0.3287629E+03  0.7546771E-02  0.1071686E+00
         21   -1    0    0  505  501  0.00000000000E+00  0.00000000000E+00  0.11284627974E+04  0.11284627974E+04  0.00000000000E+00 0. -1.
         21   -1    0    0  503  502 -0.00000000000E+00 -0.00000000000E+00 -0.22787084795E+03  0.22787084795E+03  0.00000000000E+00 0. -1.
         21    1    1    2  503  501 -0.21805001935E+03  0.34122004932E+03  0.60815927396E+03  0.73063988086E+03  0.00000000000E+00 0. -1.
         21    1    1    2  504  506  0.13719966529E+03 -0.22340960162E+03  0.27210470124E+03  0.37785786573E+03  0.00000000000E+00 0. -1.
         21    1    1    2  505  504  0.46908996447E+02  0.38729767305E+02  0.57165902247E+02  0.83476878253E+02  0.00000000000E+00 0. -1.
         21    1    1    2  506  502  0.33941357612E+02 -0.15654021500E+03 -0.36837928043E+02  0.16435902047E+03  0.00000000000E+00 0.  1.
<scales pt_clust_3="328.76287" pt_clust_4="14000.00000" pt_clust_5="60.83131" pt_clust_6="158.52924"></scales>
<clustering>
<clus scale="   60.831">  1  5  2 -1</clus>
<clus scale="  158.529">  2  6  1 -1</clus>
<clus scale="  328.763">  2  3  1 -1</clus>
<clus scale="   60.831">  1  3  2 -1</clus>
</clustering>
</event>
<event>
 6    0  0.8641190E+002  0.1237522E+03  0.7546771E-02  0.1237032E+00
         21   -1    0    0  505  501  0.00000000000E+00  0.00000000000E+00  0.21317694652E+03  0.21317694652E+03  0.00000000000E+00 0.  1.
         21   -1    0    0  503  502 -0.00000000000E+00 -0.00000000000E+00 -0.14362638985E+03  0.14362638985E+03  0.00000000000E+00 0.  1.
         21    1    1    2  503  506 -0.24477375942E+02 -0.71492040153E+02  0.96642389685E+01  0.76181698938E+02  0.00000000000E+00 0.  1.
         21    1    1    2  504  501 -0.49392428815E+02  0.59420574199E+02  0.39019455957E+02  0.86561738693E+02  0.00000000000E+00 0.  1.
         21    1    1    2  505  502  0.93958401208E+02  0.69337796363E+02 -0.23207033761E+02  0.11905661501E+03  0.00000000000E+00 0.  1.
         21    1    1    2  506  504 -0.20088596451E+02 -0.57266330410E+02  0.44073895503E+02  0.75003283733E+02  0.00000000000E+00 0.  1.
<scales pt_clust_3="33.58235" pt_clust_4="77.26847" pt_clust_5="117.94211" pt_clust_6="33.58235"></scales>
<clustering>
<clus scale="   33.582">  3  6 -1 -1</clus>
<clus scale="   77.268">  1  4  2 -1</clus>
<clus scale="  117.942">  2  5  1 -1</clus>
<clus scale="   77.268">  1  3  2 -1</clus>
</clustering>
</event>
<event>
 6    0  0.8641190E+002  0.1014772E+03  0.7546771E-02  0.1277220E+00
         21   -1    0    0  504  501  0.00000000000E+00  0.00000000000E+00  0.12967562703E+04  0.12967562703E+04  0.00000000000E+00 0. -1.
         21   -1    0    0  503  502 -0.00000000000E+00 -0.00000000000E+00 -0.26959525334E+02  0.26959525334E+02  0.00000000000E+00 0. -1.
         21    1    1    2  503  505 -0.11228996258E+03  0.18306343739E+02  0.20746153136E+03  0.23661032292E+03  0.00000000000E+00 0. -1.
         21    1    1    2  504  506  0.60930654771E+02  0.25677298108E+02  0.32771130862E+03  0.33431507612E+03  0.00000000000E+00 0. -1.
         21    1    1    2  505  501 -0.35379599474E+02 -0.28306403511E+02  0.50177329183E+03  0.50381485184E+03  0.00000000000E+00 0. -1.
         21    1    1    2  506  502  0.86738907281E+02 -0.15677238335E+02  0.23285061319E+03  0.24897554479E+03  0.00000000000E+00 0. -1.
<scales pt_clust_3="101.47719" pt_clust_4="48.22008" pt_clust_5="45.30970" pt_clust_6="14000.00000"></scales>
<clustering>
<clus scale="   45.310">  1  5  2 -1</clus>
<clus scale="   48.220">  1  4  2 -1</clus>
<clus scale="  101.477">  2  3  1 -1</clus>
<clus scale="   45.310">  1  3  2 -1</clus>
</clustering>
</event>
<event>
 6    0  0.8641190E+002  0.1566878E+03  0.7546771E-02  0.1192488E+00
         21   -1    0    0  503  501  0.00000000000E+00  0.00000000000E+00  0.24660407358E+03  0.24660407358E+03  0.00000000000E+00 0. -1.
         21   -1    0    0  505  502 -0.00000000000E+00 -0.00000000000E+00 -0.31568139348E+03  0.31568139348E+03  0.00000000000E+00 0. -1.
         21    1    1    2  503  502 -0.56601723990E+02 -0.14873721580E+02 -0.23910033499E+01  0.58572174701E+02  0.00000000000E+00 0. -1.
         21    1    1    2  504  501 -0.91512076490E+02  0.10753205455E+01  0.18369611993E+03  0.20523128644E+03  0.00000000000E+00 0. -1.
         21    1    1    2  505  506  0.81827230336E+02 -0.24485028418E+02 -0.12006809699E+03  0.14734843113E+03  0.00000000000E+00 0. -1.
         21    1    1    2  506  504  0.66286570143E+02  0.38283429452E+02 -0.13031433948E+03  0.15113357478E+03  0.00000000000E+00 0. -1.
<scales pt_clust_3="58.52335" pt_clust_4="142.40441" pt_clust_5="61.91391" pt_clust_6="61.91391"></scales>
<clustering>
<clus scale="   58.523">  1  3  2 -1</clus>
<clus scale="   61.914">  5  6 -1 -1</clus>
<clus scale="  142.404">  1  4  2 -1</clus>
<clus scale="   58.523">  1  3  2 -1</clus>
</clustering>
</event>
<event>
 6    0  0.8641190E+002  0.1367885E+03  0.7546771E-02  0.1217717E+00
         21   -1    0    0  506  501  0.00000000000E+00  0.00000000000E+00  0.70909070165E+03  0.70909070165E+03  0.00000000000E+00 0. -1.
         21   -1    0    0  503  502 -0.00000000000E+00 -0.00000000000E+00 -0.12991771752E+03  0.12991771752E+03  0.00000000000E+00 0.  1.
         21    1    1    2  503  505 -0.18260872545E+02 -0.28339634293E+02 -0.49912860887E+02  0.60231951819E+02  0.00000000000E+00 0.  1.
         21    1    1    2  504  501  0.53496257246E+02  0.28392914155E+02  0.11495334793E+03  0.12993182563E+03  0.00000000000E+00 0. -1.
         21    1    1    2  505  504 -0.79241140822E+02 -0.85720961197E+02 -0.88476074740E+01  0.11707058446E+03  0.00000000000E+00 0.  1.
         21    1    1    2  506  502  0.44005756120E+02  0.85667681336E+02  0.52298010457E+03  0.53177405726E+03  0.00000000000E+00 0. -1.
<scales pt_clust_3="33.71341" pt_clust_4="57.64422" pt_clust_5="136.78850" pt_clust_6="14000.00000"></scales>
<clustering>
<clus scale="   33.713">  2  3  1 -1</clus>
<clus scale="   57.644">  1  4  2 -1</clus>
<clus scale="  136.789">  2  5  1 -1</clus>
<clus scale="   57.644">  1  3  2 -1</clus>
</clustering>
</event>
<event>
 6    0  0.8641190E+002  0.1763423E+03  0.7546771E-02  0.1171391E+00
         21   -1    0    0  503  501  0.00000000000E+00  0.00000000000E+00  0.35440867331E+03  0.35440867331E+03  0.00000000000E+00 0.  1.
         21   -1    0    0  506  502 -0.00000000000E+00 -0.00000000000E+00 -0.37333654683E+03  0.37333654683E+03  0.00000000000E+00 0. -1.
         21    1    1    2  503  504  0.14346730869E+02  0.50327825163E+02  0.20490822041E+03  0.21148545450E+03  0.00000000000E+00 0.  1.
         21    1    1    2  504  505  0.12869535029E+03  0.78921721214E+02  0.59514129968E+02  0.16227465277E+03  0.00000000000E+00 0.  1.
         21    1    1    2  505  502 -0.10734427788E+03 -0.12668350451E+03 -0.26749292724E+03  0.31483959477E+03  0.00000000000E+00 0. -1.
         21    1    1    2  506  501 -0.35697803282E+02 -0.25660418655E+01 -0.15857296663E+02  0.39145518102E+02  0.00000000000E+00 0.  1.
<scales pt_clust_3="52.21722" pt_clust_4="176.34235" pt_clust_5="14000.00000" pt_clust_6="35.78991"></scales>
<clustering>
<clus scale="   35.790">  2  6  1 -1</clus>
<clus scale="   52.217">  1  3  2 -1</clus>
<clus scale="  176.342">  1  4  2 -1</clus>
<clus scale="   52.217">  1  3  2 -1</clus>
</clustering>
</event>
<event>
 6    0  0.8641190E+002  0.8647663E+02  0.7546771E-02  0.1311616E+00
         21   -1    0    0  506  501  0.00000000000E+00  0.00000000000E+00  0.43279303047E+02  0.43279303047E+02  0.00000000000E+00 0. -1.
         21   -1    0    0  503  502 -0.00000000000E+00 -0.00000000000E+00 -0.10661286163E+04  0.10661286163E+04  0.00000000000E+00 0. -1.
         21    1    1    2  503  504 -0.27175206612E+02  0.50073376910E+02 -0.66294252695E+03  0.66538607512E+03  0.00000000000E+00 0.  1.
         21    1    1    2  504  505 -0.86137037542E+02 -0.12047797601E+01 -0.21582909530E+03  0.23238597012E+03  0.00000000000E+00 0. -1.
         21    1    1    2  505  501  0.30518103849E+02 -0.13410354084E+02  0.85509442734E+01  0.34413818549E+02  0.00000000000E+00 0. -1.
         21    1    1    2  506  502  0.82794140306E+02 -0.35458243066E+02 -0.15262863532E+03  0.17722205559E+03  0.00000000000E+00 0. -1.
<scales pt_clust_3="55.50743" pt_clust_4="86.47663" pt_clust_5="33.33455" pt_clust_6="14000.00000"></scales>
<clustering>
<clus scale="   33.335">  1  5  2 -1</clus>
<clus scale="   55.507">  2  3  1 -1</clus>
<clus scale="   86.477">  1  4  2 -1</clus>
<clus scale="   33.335">  1  3  2 -1</clus>
</clustering>
</event>
<event>
 6    0  0.8641190E+002  0.1915759E+03  0.7546771E-02  0.1157048E+00
         21   -1    0    0  505  501  0.00000000000E+00  0.00000000000E+00  0.64209948034E+03  0.64209948034E+03  0.00000000000E+00 0. -1.
         21   -1    0    0  503  502 -0.00000000000E+00 -0.00000000000E+00 -0.72775923983E+03  0.72775923983E+03  0.00000000000E+00 0.  1.
         21    1    1    2  503  504  0.14459694802E+03 -0.12376850951E+03 -0.62267648140E+03  0.65111667296E+03  0.00000000000E+00 0.  1.
         21    1    1    2  504  501  0.12906007074E+03  0.11535737940E+03  0.27169351935E+03  0.32215088902E+03  0.00000000000E+00 0.  1.
         21    1    1    2  505  506 -0.24101125722E+02 -0.31561979442E+02  0.20384099598E+02  0.44637812713E+02  0.00000000000E+00 0.  1.
         21    1    1    2  506  502 -0.24955589303E+03  0.39973109550E+02  0.24493910297E+03  0.35195334548E+03  0.00000000000E+00 0. -1.
<scales pt_clust_3="191.57594" pt_clust_4="154.14588" pt_clust_5="39.71175" pt_clust_6="14000.00000"></scales>
<clustering>
<clus scale="   39.712">  1  5  2 -1</clus>
<clus scale="  154.146">  1  4  2 -1</clus>
<clus scale="  191.576">  2  3  1 -1</clus>
<clus scale="   39.712">  1  3  2 -1</clus>
</clustering>
</event>
<event>
 6    0  0.8641190E+002  0.1142441E+03  0.7546771E-02  0.1252906E+00
         21   -1    0    0  504  501  0.00000000000E+00  0.00000000000E+00  0.10125909551E+04  0.10125909551E+04  0.00000000000E+00 0. -1.
         21   -1    0    0  505  502 -0.00000000000E+00 -0.00000000000E+00 -0.12258535105E+03  0.12258535105E+03  0.00000000000E+00 0.  1.
         21    1    1    2  503  502 -0.63254744611E+02  0.96473818918E+02 -0.82027652800E+02  0.14155174417E+03  0.00000000000E+00 0.  1.
         21    1    1    2  504  506  0.13404042159E+02 -0.36002205279E+02  0.96499543043E+02  0.10386524413E+03  0.00000000000E+00 0. -1.
         21    1    1    2  505  501  0.15775643610E+02 -0.92102596018E+02  0.75169202841E+03  0.75747783116E+03  0.00000000000E+00 0. -1.
         21    1    1    2  506  503  0.34075058842E+02  0.31630982379E+02  0.12384168544E+03  0.13228148674E+03  0.00000000000E+00 0.  1.
<scales pt_clust_3="114.24409" pt_clust_4="38.41650" pt_clust_5="14000.00000" pt_clust_6="44.71292"></scales>
<clustering>
<clus scale="   38.416">  1  4  2 -1</clus>
<clus scale="   44.713">  1  6  2 -1</clus>
<clus scale="  114.244">  2  3  1 -1</clus>
<clus scale="   38.416">  1  3  2 -1</clus>
</clustering>
</event>
<event>
 6    0  0.8641190E+002  0.1194674E+03  0.7546771E-02  0.1243978E+00
         21   -1    0    0  503  501  0.00000000000E+00  0.00000000000E+00  0.76542319076E+02  0.76542319076E+02  0.00000000000E+00 0.  1.
         21   -1    0    0  505  502 -0.00000000000E+00 -0.00000000000E+00 -0.23481658097E+04  0.23481658097E+04  0.00000000000E+00 0.  1.
         21    1    1    2  503  504 -0.67077560926E+02 -0.95644545028E+02 -0.20470856387E+01  0.11683949988E+03  0.00000000000E+00 0.  1.
         21    1    1    2  504  502  0.67571422644E+02  0.64882221585E+02 -0.15815777153E+03  0.18381915170E+03  0.00000000000E+00 0. -1.
         21    1    1    2  505  506  0.23362641685E+02  0.53204072431E+02 -0.20719328653E+04  0.20727475207E+04  0.00000000000E+00 0.  1.
         21    1    1    2  506  501 -0.23856503402E+02 -0.22441748988E+02 -0.39485768212E+02  0.51301956527E+02  0.00000000000E+00 0. -1.
<scales pt_clust_3="14000.00000" pt_clust_4="119.46744" pt_clust_5="57.93378" pt_clust_6="32.75309"></scales>
<clustering>
<clus scale="   32.753">  1  6  2 -1</clus>
<clus scale="   57.934">  2  5  1 -1</clus>
<clus scale="  119.467">  2  4  1 -1</clus>
<clus scale="   32.753">  1  3  2 -1</clus>
</clustering>
</event>
<event>
 6    0  0.8641190E+002  0.9048598E+02  0.7546771E-02  0.1301679E+00
         21   -1    0    0  502  501  0.00000000000E+00  0.00000000000E+00  0.93694430529E+02  0.93694430529E+02  0.00000000000E+00 0. -1.
         21   -1    0    0  503  502 -0.00000000000E+00 -0.00000000000E+00 -0.13227087344E+04  0.13227087344E+04  0.00000000000E+00 0. -1.
         21    1    1    2  503  504  0.37501922942E+02 -0.80937897360E+02 -0.86051888238E+03  0.86513009680E+03  0.00000000000E+00 0. -1.
         21    1    1    2  504  505 -0.74917451306E+02  0.65956469096E+02 -0.40811750636E+03  0.42014614044E+03  0.00000000000E+00 0. -1.
         21    1    1    2  505  506  0.70252004358E+02  0.33822911907E+02  0.49046401865E+02  0.92113424766E+02  0.00000000000E+00 0. -1.
         21    1    1    2  506  501 -0.32836475994E+02 -0.18841483643E+02 -0.94243170230E+01  0.39013502956E+02  0.00000000000E+00 0. -1.
<scales pt_clust_3="90.48598" pt_clust_4="14000.00000" pt_clust_5="44.25993" pt_clust_6="37.85810"></scales>
<clustering>
<clus scale="   37.858">  1  6  2 -1</clus>
<clus scale="   44.260">  1  5  2 -1</clus>
<clus scale="   90.486">  2  3  1 -1</clus>
<clus scale="   37.858">  1  3  2 -1</clus>
</clustering>
</event>
<event>
 6    0  0.8641190E+002  0.1113956E+03  0.7546771E-02  0.1258007E+00
         21   -1    0    0  506  501  0.00000000000E+00  0.00000000000E+00  0.90043203485E+02  0.90043203485E+02  0.00000000000E+00 0. -1.
         21   -1    0    0  505  502 -0.00000000000E+00 -0.00000000000E+00 -0.69073433885E+03  0.69073433885E+03  0.00000000000E+00 0.  1.
         21    1    1    2  503  501 -0.20454844078E+02  0.24580128023E+02  0.56458386731E+02  0.64885535924E+02  0.00000000000E+00 0. -1.
         21    1    1    2  504  502  0.12110325241E+03 -0.95711455616E+01 -0.43686815179E+03  0.45344391783E+03  0.00000000000E+00 0.  1.
         21    1    1    2  505  503 -0.78329601504E+01  0.34895642904E+02 -0.40262531851E+02  0.53852879491E+02  0.00000000000E+00 0. -1.
         21    1    1    2  506  504 -0.92815448184E+02 -0.49904625366E+02 -0.18001883845E+03  0.20859520908E+03  0.00000000000E+00 0. -1.
<scales pt_clust_3="31.97786" pt_clust_4="14000.00000" pt_clust_5="42.48312" pt_clust_6="111.39558"></scales>
<clustering>
<clus scale="   31.978">  1  3  2 -1</clus>
<clus scale="   42.483">  1  5  2 -1</clus>
<clus scale="  111.396">  1  6  2 -1</clus>
<clus scale="   31.978">  1  3  2 -1</clus>
</clustering>
</event>
<event>
 6    0  0.8641190E+002  0.1006618E+03  0.7546771E-02  0.1278910E+00
         21   -1    0    0  504  501  0.00000000000E+00  0.00000000000E+00  0.26229987855E+03  0.26229987855E+03  0.00000000000E+00 0.  1.
         21   -1    0    0  503  502 -0.00000000000E+00 -0.00000000000E+00 -0.90162397391E+03  0.90162397391E+03  0.00000000000E+00 0. -1.
         21    1    1    2  503  505 -0.28506104936E+01  0.13388464401E+03 -0.16569218655E+03  0.21304254168E+03  0.00000000000E+00 0. -1.
         21    1    1    2  504  506 -0.60967883236E+02 -0.31503444720E+02 -0.22357123760E+03  0.23386673149E+03  0.00000000000E+00 0.  1.
         21    1    1    2  505  501  0.16582151741E+02 -0.97488319813E+02  0.22176029246E+03  0.24280973532E+03  0.00000000000E+00 0.  1.
         21    1    1    2  506  502  0.47236341988E+02 -0.48928794800E+01 -0.47182096367E+03  0.47420484396E+03  0.00000000000E+00 0. -1.
<scales pt_clust_3="100.66181" pt_clust_4="49.42327" pt_clust_5="14000.00000" pt_clust_6="47.48908"></scales>
<clustering>
<clus scale="   47.489">  2  6  1 -1</clus>
<clus scale="   49.423">  2  4  1 -1</clus>
<clus scale="  100.662">  2  3  1 -1</clus>
<clus scale="  100.662">  1  3  2 -1</clus>
</clustering>
</event>
<event>
 6    0  0.8641190E+002  0.7847662E+02  0.7546771E-02  0.1333431E+00
         21   -1    0    0  504  501  0.00000000000E+00  0.00000000000E+00  0.99389424045E+02  0.99389424045E+02  0.00000000000E+00 0.  1.
         21   -1    0    0  505  502 -0.00000000000E+00 -0.00000000000E+00 -0.60042547222E+03  0.60042547222E+03  0.00000000000E+00 0. -1.
         21    1    1    2  503  501  0.19572313445E+02 -0.34321488192E+02  0.31341112214E+02  0.50431193919E+02  0.00000000000E+00 0. -1.
         21    1    1    2  504  506 -0.51074182920E+02 -0.53508498227E+02 -0.22878454341E+02  0.77428387666E+02  0.00000000000E+00 0.  1.
         21    1    1    2  505  503  0.72580642638E+02  0.43677361155E+02 -0.31825838800E+02  0.90490582817E+02  0.00000000000E+00 0.  1.
         21    1    1    2  506  502 -0.41078773163E+02  0.44152625264E+02 -0.47767286725E+03  0.48146473186E+03  0.00000000000E+00 0. -1.
<scales pt_clust_3="39.51000" pt_clust_4="78.47662" pt_clust_5="14000.00000" pt_clust_6="59.06123"></scales>
<clustering>
<clus scale="   39.510">  1  3  2 -1</clus>
<clus scale="   59.061">  2  6  1 -1</clus>
<clus scale="   78.477">  1  4  2 -1</clus>
<clus scale="   39.510">  1  3  2 -1</clus>
</clustering>
</event>
<event>
 6    0  0.8641190E+002  0.8316213E+02  0.7546771E-02  0.1320310E+00
         21   -1    0    0  503  501  0.00000000000E+00  0.00000000000E+00  0.18580859225E+03  0.18580859225E+03  0.00000000000E+00 0. -1.
         21   -1    0    0  505  502 -0.00000000000E+00 -0.00000000000E+00 -0.64620117164E+03  0.64620117164E+03  0.00000000000E+00 0. -1.
         21    1    1    2  503  506  0.38068757848E+02  0.76743932192E+02  0.63428167715E+02  0.10659265412E+03  0.00000000000E+00 0. -1.
         21    1    1    2  504  501 -0.98855515990E+02 -0.23803030173E+02  0.26644328437E+02  0.10511383127E+03  0.00000000000E+00 0. -1.
         21    1    1    2  505  504  0.22505828862E+02 -0.48667401997E+02  0.13283595505E+02  0.55240223203E+02  0.00000000000E+00 0. -1.
         21    1    1    2  506  502  0.38280929279E+02 -0.42735000219E+01 -0.56374867105E+03  0.56506305529E+03  0.00000000000E+00 0. -1.
<scales pt_clust_3="14000.00000" pt_clust_4="83.16213" pt_clust_5="59.33997" pt_clust_6="38.51873"></scales>
<clustering>
<clus scale="   38.519">  2  6  1 -1</clus>
<clus scale="   59.340">  2  5  1 -1</clus>
<clus scale="   83.162">  2  4  1 -1</clus>
<clus scale="   83.162">  1  3  2 -1</clus>
</clustering>
</event>
<event>
 6    0  0.8641190E+002  0.9882286E+02  0.7546771E-02  0.1282791E+00
         21   -1    0    0  504  501  0.00000000000E+00  0.00000000000E+00  0.81081463312E+03  0.81081463312E+03  0.00000000000E+00 0.  1.
         21   -1    0    0  503  502 -0.00000000000E+00 -0.00000000000E+00 -0.13523788066E+03  0.13523788066E+03  0.00000000000E+00 0. -1.
         21    1    1    2  503  506  0.46456139714E+02  0.24070628002E+02  0.13963663605E+02  0.54153041935E+02  0.00000000000E+00 0. -1.
         21    1    1    2  504  505 -0.93283616233E+02 -0.10422518890E+02  0.65952548319E+03  0.66617139306E+03  0.00000000000E+00 0.  1.
         21    1    1    2  505  502  0.47017456244E+02 -0.69141645557E+02 -0.87066525320E+02  0.12071366192E+03  0.00000000000E+00 0. -1.
         21    1    1    2  506  501 -0.18997972379E+00  0.55493536446E+02  0.89154130974E+02  0.10501441686E+03  0.00000000000E+00 0. -1.
<scales pt_clust_3="52.32177" pt_clust_4="14000.00000" pt_clust_5="98.82286" pt_clust_6="57.23051"></scales>
<clustering>
<clus scale="   52.322">  2  3  1 -1</clus>
<clus scale="   57.231">  1  6  2 -1</clus>
<clus scale="   98.823">  2  5  1 -1</clus>
<clus scale="   57.231">  1  3  2 -1</clus>
</clustering>
</event>
<event>
 6    0  0.8641190E+002  0.8464368E+02  0.7546771E-02  0.1316367E+00
         21   -1    0    0  503  501  0.00000000000E+00  0.00000000000E+00  0.28303230296E+03  0.28303230296E+03  0.00000000000E+00 0. -1.
         21   -1    0    0  504  502 -0.00000000000E+00 -0.00000000000E+00 -0.59106467881E+03  0.59106467881E+03  0.00000000000E+00 0.  1.
         21    1    1    2  503  502  0.84073843796E+02 -0.14526105070E+02 -0.74139514321E+02  0.11303135195E+03  0.00000000000E+00 0.  1.
         21    1    1    2  504  506 -0.55711144821E+02 -0.21558180078E+02 -0.32110049189E+03  0.32660987842E+03  0.00000000000E+00 0.  1.
         21    1    1    2  505  501  0.42341075581E+02  0.15463562344E+02  0.25092161890E+03  0.25493832053E+03  0.00000000000E+00 0. -1.
         21    1    1    2  506  505 -0.70703774557E+02  0.20620722804E+02 -0.16371398854E+03  0.17951743088E+03  0.00000000000E+00 0. -1.
<scales pt_clust_3="84.64368" pt_clust_4="55.61263" pt_clust_5="45.07647" pt_clust_6="14000.00000"></scales>
<clustering>
<clus scale="   45.076">  1  5  2 -1</clus>
<clus scale="   55.613">  2  4  1 -1</clus>
<clus scale="   84.644">  2  3  1 -1</clus>
<clus scale="   45.076">  1  3  2 -1</clus>
</clustering>
</event>
<event>
 6    0  0.8641190E+002  0.8275992E+02  0.7546771E-02  0.1321397E+00
         21   -1    0    0  504  501  0.00000000000E+00  0.00000000000E+00  0.64525669622E+03  0.64525669622E+03  0.00000000000E+00 0.  1.
         21   -1    0    0  506  502 -0.00000000000E+00 -0.00000000000E+00 -0.28984536471E+03  0.28984536471E+03  0.00000000000E+00 0. -1.
         21    1    1    2  503  502 -0.26400069593E+02 -0.32302743437E+02 -0.25085936453E+03  0.25430464345E+03  0.00000000000E+00 0. -1.
         21    1    1    2  504  505  0.35359961111E+02  0.28878464254E+02  0.11637412373E+03  0.12500891657E+03  0.00000000000E+00 0.  1.
         21    1    1    2  505  503  0.25886707636E+02  0.10172701124E+03  0.77689420964E+02  0.13059154864E+03  0.00000000000E+00 0.  1.
         21    1    1    2  506  501 -0.34846599154E+02 -0.98302732055E+02  0.41220715135E+03  0.42519695228E+03  0.00000000000E+00 0.  1.
<scales pt_clust_3="41.71847" pt_clust_4="40.92892" pt_clust_5="82.75992" pt_clust_6="14000.00000"></scales>
<clustering>
<clus scale="   41.718">  2  3  1 -1</clus>
<clus scale="   40.929">  1  4  2 -1</clus>
<clus scale="   82.760">  2  5  1 -1</clus>
<clus scale="   40.929">  1  3  2 -1</clus>
</clustering>
</event>
<event>
 6    0  0.8641190E+002  0.8720503E+02  0.7546771E-02  0.1309765E+00
         21   -1    0    0  504  501  0.00000000000E+00  0.00000000000E+00  0.11431686198E+04  0.11431686198E+04  0.00000000000E+00 0.  1.
         21   -1    0    0  505  502 -0.00000000000E+00 -0.00000000000E+00 -0.60774631018E+02  0.60774631018E+02  0.00000000000E+00 0.  1.
         21    1    1    2  503  501 -0.39064332581E+01  0.45508458812E+02  0.86503229116E+03  0.86623734899E+03  0.00000000000E+00 0.  1.
         21    1    1    2  504  506  0.51085214938E+02 -0.96365128799E+02  0.14652289054E+03  0.18266059971E+03  0.00000000000E+00 0.  1.
         21    1    1    2  505  503  0.38132426612E+02  0.94962056302E+01  0.38123302769E+02  0.54750763417E+02  0.00000000000E+00 0.  1.
         21    1    1    2  506  502 -0.85311208292E+02  0.41360464357E+02  0.32715504326E+02  0.10029453871E+03  0.00000000000E+00 0.  1.
<scales pt_clust_3="45.74920" pt_clust_4="87.20503" pt_clust_5="39.29707" pt_clust_6="14000.00000"></scales>
<clustering>
<clus scale="   39.297">  2  5  1 -1</clus>
<clus scale="   45.749">  1  3  2 -1</clus>
<clus scale="   87.205">  1  4  2 -1</clus>
<clus scale="   45.749">  1  3  2 -1</clus>
</clustering>
</event>
<event>
 6    0  0.8641190E+002  0.1195231E+03  0.7546771E-02  0.1243886E+00
         21   -1    0    0  503  501  0.00000000000E+00  0.00000000000E+00  0.20547637287E+03  0.20547637287E+03  0.00000000000E+00 0. -1.
         21   -1    0    0  504  502 -0.00000000000E+00 -0.00000000000E+00 -0.44613250208E+03  0.44613250208E+03  0.00000000000E+00 0. -1.
         21    1    1    2  503  505  0.27647369834E+02 -0.21645656417E+02  0.59456557830E+02  0.69050660891E+02  0.00000000000E+00 0. -1.
         21    1    1    2  504  501  0.71732867197E+02  0.84092673750E+02  0.54664052552E+02  0.12330993738E+03  0.00000000000E+00 0. -1.
         21    1    1    2  505  506 -0.14501649428E+03 -0.32079973101E+02 -0.61265718790E+02  0.16066236830E+03  0.00000000000E+00 0. -1.
         21    1    1    2  506  502  0.45636257251E+02 -0.30367044233E+02 -0.29351102081E+03  0.29858590838E+03  0.00000000000E+00 0. -1.
<scales pt_clust_3="35.11284" pt_clust_4="119.52310" pt_clust_5="14000.00000" pt_clust_6="55.44533"></scales>
<clustering>
<clus scale="   35.113">  1  3  2 -1</clus>
<clus scale="   55.445">  2  6  1 -1</clus>
<clus scale="  119.523">  1  4  2 -1</clus>
<clus scale="   35.113">  1  3  2 -1</clus>
</clustering>
</event>
<event>
 6    0  0.8641190E+002  0.8943017E+02  0.7546771E-02  0.1304238E+00
         21   -1    0    0  503  501  0.00000000000E+00  0.00000000000E+00  0.76804715941E+03  0.76804715941E+03  0.00000000000E+00 0.  1.
         21   -1    0    0  504  502 -0.00000000000E+00 -0.00000000000E+00 -0.14261696220E+04  0.14261696220E+04  0.00000000000E+00 0. -1.
         21    1    1    2  503  502  0.58696757579E+01  0.36113387917E+02 -0.57870692949E+02  0.68466393090E+02  0.00000000000E+00 0.  1.
         21    1    1    2  504  505  0.39278655325E+02 -0.22019111113E+02 -0.12110663547E+04  0.12119032014E+04  0.00000000000E+00 0. -1.
         21    1    1    2  505  506  0.38263615211E+00 -0.91284021929E+02 -0.13483615764E+03  0.16283030577E+03  0.00000000000E+00 0. -1.
         21    1    1    2  506  501 -0.45530967235E+02  0.77189745125E+02  0.74565074270E+03  0.75101688118E+03  0.00000000000E+00 0.  1.
<scales pt_clust_3="36.58729" pt_clust_4="45.62325" pt_clust_5="14000.00000" pt_clust_6="89.43017"></scales>
<clustering>
<clus scale="   36.587">  2  3  1 -1</clus>
<clus scale="   45.623">  2  4  1 -1</clus>
<clus scale="   89.430">  1  6  2 -1</clus>
<clus scale="   89.430">  1  3  2 -1</clus>
</clustering>
</event>
<event>
 6    0  0.8641190E+002  0.1084399E+03  0.7546771E-02  0.1263486E+00
         21   -1    0    0  506  501  0.00000000000E+00  0.00000000000E+00  0.95850400162E+02  0.95850400162E+02  0.00000000000E+00 0.  1.
         21   -1    0    0  504  502 -0.00000000000E+00 -0.00000000000E+00 -0.41173825556E+03  0.41173825556E+03  0.00000000000E+00 0.  1.
         21    1    1    2  503  501  0.29133506780E+02 -0.24377540659E+02 -0.27182799778E+02  0.46711136891E+02  0.00000000000E+00 0.  1.
         21    1    1    2  504  503 -0.11948768157E+03 -0.12188276629E+01 -0.32014594175E+03  0.34171949843E+03  0.00000000000E+00 0.  1.
         21    1    1    2  505  502  0.64775658738E+02  0.42593092006E+02  0.34438203071E+01  0.77601013846E+02  0.00000000000E+00 0.  1.
         21    1    1    2  506  505  0.25578516055E+02 -0.16996723684E+02  0.27997065820E+02  0.41557006558E+02  0.00000000000E+00 0.  1.
<scales pt_clust_3="42.87068" pt_clust_4="108.43994" pt_clust_5="14000.00000" pt_clust_6="30.71073"></scales>
<clustering>
<clus scale="   30.711">  1  6  2 -1</clus>
<clus scale="   42.871">  1  3  2 -1</clus>
<clus scale="  108.440">  2  4  1 -1</clus>
<clus scale="   30.711">  1  3  2 -1</clus>
</clustering>
</event>
<event>
 6    0  0.8641190E+002  0.1205005E+03  0.7546771E-02  0.1242274E+00
         21   -1    0    0  505  501  0.00000000000E+00  0.00000000000E+00  0.29424747567E+02  0.29424747567E+02  0.00000000000E+00 0.  1.
         21   -1    0    0  503  502 -0.00000000000E+00 -0.00000000000E+00 -0.16096340023E+04  0.16096340023E+04  0.00000000000E+00 0.  1.
         21    1    1    2  503  506 -0.15204179232E+02 -0.32485861939E+02 -0.45659246242E+03  0.45799909938E+03  0.00000000000E+00 0.  1.
         21    1    1    2  504  501 -0.64586085870E+02  0.82674775084E+02 -0.64186496891E+03  0.65038228699E+03  0.00000000000E+00 0.  1.
         21    1    1    2  505  502  0.12435639379E+03 -0.36417323134E+02 -0.16155519630E+03  0.20710097912E+03  0.00000000000E+00 0.  1.
         21    1    1    2  506  504 -0.44566128684E+02 -0.13771590011E+02 -0.32019662710E+03  0.32357638437E+03  0.00000000000E+00 0.  1.
<scales pt_clust_3="35.86779" pt_clust_4="120.50055" pt_clust_5="14000.00000" pt_clust_6="53.89493"></scales>
<clustering>
<clus scale="   35.868">  2  3  1 -1</clus>
<clus scale="   53.895">  2  6  1 -1</clus>
<clus scale="  120.501">  2  4  1 -1</clus>
<clus scale="  120.501">  1  3  2 -1</clus>
</clustering>
</event>
<event>
 6    0  0.8641190E+002  0.2154371E+03  0.7546771E-02  0.1137331E+00
         21   -1    0    0  505  501  0.00000000000E+00  0.00000000000E+00  0.29913015244E+02  0.29913015244E+02  0.00000000000E+00 0.  1.
         21   -1    0    0  504  502 -0.00000000000E+00 -0.00000000000E+00 -0.17885690844E+04  0.17885690844E+04  0.00000000000E+00 0. -1.
         21    1    1    2  503  502 -0.72468151099E+02  0.88477394520E+02 -0.23667793760E+03  0.26286180478E+03  0.00000000000E+00 0.  1.
         21    1    1    2  504  506  0.51630560408E+02 -0.82544169653E+02 -0.44459599689E+03  0.45513168991E+03  0.00000000000E+00 0. -1.
         21    1    1    2  505  503 -0.63521629107E+02  0.70475605792E+02 -0.29529756402E+03  0.31016521354E+03  0.00000000000E+00 0.  1.
         21    1    1    2  506  501  0.84359219798E+02 -0.76408830660E+02 -0.78208457064E+03  0.79032339141E+03  0.00000000000E+00 0. -1.
<scales pt_clust_3="212.98364" pt_clust_4="47.64591" pt_clust_5="36.46404" pt_clust_6="47.64591"></scales>
<clustering>
<clus scale="   36.464">  3  5 -1 -1</clus>
<clus scale="   47.646">  4  6 -1 -1</clus>
<clus scale="  212.984">  1  3  2 -1</clus>
<clus scale="  212.984">  1  3  2 -1</clus>
</clustering>
</event>
<event>
 6    0  0.8641190E+002  0.1222529E+03  0.7546771E-02  0.1239426E+00
         21   -1    0    0  506  501  0.00000000000E+00  0.00000000000E+00  0.12943839064E+03  0.12943839064E+03  0.00000000000E+00 0.  1.
         21   -1    0    0  505  502 -0.00000000000E+00 -0.00000000000E+00 -0.27002859540E+03  0.27002859540E+03  0.00000000000E+00 0. -1.
         21    1    1    2  503  504 -0.58221392508E+02  0.85555780653E+01 -0.47002690900E+02  0.75313885927E+02  0.00000000000E+00 0. -1.
         21    1    1    2  504  501  0.14891700711E+03 -0.15291862223E+02 -0.65658837391E+02  0.16346620135E+03  0.00000000000E+00 0.  1.
         21    1    1    2  505  503 -0.27153256272E+02  0.41500440997E+02 -0.63027621147E+02  0.80200168058E+02  0.00000000000E+00 0. -1.
         21    1    1    2  506  502 -0.63542358327E+02 -0.34764156839E+02  0.35098944674E+02  0.80486730706E+02  0.00000000000E+00 0.  1.
<scales pt_clust_3="43.86889" pt_clust_4="112.52673" pt_clust_5="43.86889" pt_clust_6="72.43050"></scales>
<clustering>
<clus scale="   43.869">  3  5 -1 -1</clus>
<clus scale="   72.431">  1  6  2 -1</clus>
<clus scale="  112.527">  1  4  2 -1</clus>
<clus scale="   72.431">  1  3  2 -1</clus>
</clustering>
</event>
<event>
 6    0  0.8641190E+002  0.1187337E+03  0.7546771E-02  0.1245201E+00
         21   -1    0    0  505  501  0.00000000000E+00  0.00000000000E+00  0.25308776746E+03  0.25308776746E+03  0.00000000000E+00 0.  1.
         21   -1    0    0  504  502 -0.00000000000E+00 -0.00000000000E+00 -0.64977169224E+03  0.64977169224E+03  0.00000000000E+00 0. -1.
         21    1    1    2  503  502 -0.72302759951E+01  0.12349103302E+03 -0.49846288949E+03  0.51358306468E+03  0.00000000000E+00 0. -1.
         21    1    1    2  504  501 -0.56481084860E+02 -0.98980883404E+02 -0.76462480582E+02  0.13723643526E+03  0.00000000000E+00 0. -1.
         21    1    1    2  505  506 -0.73006517487E+01 -0.48026951728E+02  0.16997412568E+03  0.17677978111E+03  0.00000000000E+00 0.  1.
         21    1    1    2  506  503  0.71012012604E+02  0.23516802111E+02  0.82673196219E+01  0.75260178643E+02  0.00000000000E+00 0.  1.
<scales pt_clust_3="118.73368" pt_clust_4="14000.00000" pt_clust_5="48.57867" pt_clust_6="67.20707"></scales>
<clustering>
<clus scale="   48.579">  1  5  2 -1</clus>
<clus scale="   67.207">  1  6  2 -1</clus>
<clus scale="  118.734">  2  3  1 -1</clus>
<clus scale="   48.579">  1  3  2 -1</clus>
</clustering>
</event>
<event>
 6    0  0.8641190E+002  0.1009977E+03  0.7546771E-02  0.1278212E+00
         21   -1    0    0  506  501  0.00000000000E+00  0.00000000000E+00  0.61633726349E+03  0.61633726349E+03  0.00000000000E+00 0. -1.
         21   -1    0    0  505  502 -0.00000000000E+00 -0.00000000000E+00 -0.11017970915E+04  0.11017970915E+04  0.00000000000E+00 0.  1.
         21    1    1    2  503  504 -0.11617823546E+03 -0.92318461277E+02 -0.50187760399E+03  0.52335572040E+03  0.00000000000E+00 0.  1.
         21    1    1    2  504  501  0.63799281310E+02 -0.10663168668E+02  0.59501668034E+03  0.59852226470E+03  0.00000000000E+00 0. -1.
         21    1    1    2  505  503  0.16318664793E+02  0.66571868858E+02 -0.48253612885E+03  0.48737996285E+03  0.00000000000E+00 0.  1.
         21    1    1    2  506  502  0.36060289362E+02  0.36409761087E+02 -0.96062775465E+02  0.10887640700E+03  0.00000000000E+00 0.  1.
<scales pt_clust_3="14000.00000" pt_clust_4="64.73614" pt_clust_5="100.99767" pt_clust_6="51.24466"></scales>
<clustering>
<clus scale="   51.245">  2  6  1 -1</clus>
<clus scale="   64.736">  1  4  2 -1</clus>
<clus scale="  100.998">  2  5  1 -1</clus>
<clus scale="   64.736">  1  3  2 -1</clus>
</clustering>
</event>
<event>
 6    0  0.8641190E+002  0.1548059E+03  0.7546771E-02  0.1194689E+00
         21   -1    0    0  503  501  0.00000000000E+00  0.00000000000E+00  0.11463920590E+03  0.11463920590E+03  0.00000000000E+00 0. -1.
         21   -1    0    0  504  502 -0.00000000000E+00 -0.00000000000E+00 -0.35023322909E+03  0.35023322909E+03  0.00000000000E+00 0. -1.
         21    1    1    2  503  506  0.10173558843E+03  0.62627742802E+02 -0.65417191687E+02  0.13620489378E+03  0.00000000000E+00 0. -1.
         21    1    1    2  504  505 -0.12780616615E+03  0.13063530934E+02 -0.16649758414E+03  0.21030101633E+03  0.00000000000E+00 0. -1.
         21    1    1    2  505  501 -0.22729456736E+02 -0.52944640595E+02  0.17942166764E+02  0.60346371220E+02  0.00000000000E+00 0. -1.
         21    1    1    2  506  502  0.48800034454E+02 -0.22746633141E+02 -0.21621414116E+02  0.58020153656E+02  0.00000000000E+00 0. -1.
<scales pt_clust_3="51.54870" pt_clust_4="134.41979" pt_clust_5="57.61739" pt_clust_6="51.54870"></scales>
<clustering>
<clus scale="   51.549">  3  6 -1 -1</clus>
<clus scale="   57.617">  1  5  2 -1</clus>
<clus scale="  134.420">  2  4  1 -1</clus>
<clus scale="   57.617">  1  3  2 -1</clus>
</clustering>
</event>
<event>
 6    0  0.8641190E+002  0.1915367E+03  0.7546771E-02  0.1157083E+00
         21   -1    0    0  503  501  0.00000000000E+00  0.00000000000E+00  0.27458511388E+03  0.27458511388E+03  0.00000000000E+00 0. -1.
         21   -1    0    0  505  502 -0.00000000000E+00 -0.00000000000E+00 -0.11767344374E+04  0.11767344374E+04  0.00000000000E+00 0. -1.
         21    1    1    2  503  502 -0.62136876405E+02  0.13233403892E+02 -0.31663124071E+03  0.32294187864E+03  0.00000000000E+00 0. -1.
         21    1    1    2  504  506 -0.68249652088E+02 -0.13703271439E+03  0.84091374234E+02  0.17466350233E+03  0.00000000000E+00 0. -1.
         21    1    1    2  505  504  0.17012290643E+03  0.14891640206E+03 -0.79145472083E+03  0.82311510327E+03  0.00000000000E+00 0. -1.
         21    1    1    2  506  501 -0.39736377937E+02 -0.25117091555E+02  0.12184526376E+03  0.13059906707E+03  0.00000000000E+00 0. -1.
<scales pt_clust_3="64.24951" pt_clust_4="191.53668" pt_clust_5="14000.00000" pt_clust_6="47.00902"></scales>
<clustering>
<clus scale="   47.009">  1  6  2 -1</clus>
<clus scale="   64.250">  2  3  1 -1</clus>
<clus scale="  191.537">  1  4  2 -1</clus>
<clus scale="   47.009">  1  3  2 -1</clus>
</clustering>
</event>
<event>
 6    0  0.8641190E+002  0.1627368E+03  0.7546771E-02  0.1185641E+00
         21   -1    0    0  503  501  0.00000000000E+00  0.00000000000E+00  0.81504720808E+03  0.81504720808E+03  0.00000000000E+00 0. -1.
         21   -1    0    0  505  502 -0.00000000000E+00 -0.00000000000E+00 -0.10111010422E+04  0.10111010422E+04  0.00000000000E+00 0.  1.
         21    1    1    2  503  502  0.18912433122E+02 -0.15958682723E+03 -0.86534580977E+03  0.88014146933E+03  0.00000000000E+00 0.  1.
         21    1    1    2  504  501 -0.58737146014E+02  0.75083752164E+02  0.75814954579E+03  0.76411933357E+03  0.00000000000E+00 0. -1.
         21    1    1    2  505  506  0.26641673345E+02 -0.18801112810E+02 -0.68372342554E+02  0.75749837148E+02  0.00000000000E+00 0. -1.
         21    1    1    2  506  504  0.13183039547E+02  0.10330418788E+03 -0.20485227637E+02  0.10613761028E+03  0.00000000000E+00 0. -1.
<scales pt_clust_3="162.73676" pt_clust_4="95.22978" pt_clust_5="32.60768" pt_clust_6="14000.00000"></scales>
<clustering>
<clus scale="   32.608">  2  5  1 -1</clus>
<clus scale="   95.230">  1  4  2 -1</clus>
<clus scale="  162.737">  2  3  1 -1</clus>
<clus scale="   95.230">  1  3  2 -1</clus>
</clustering>
</event>
<event>
 6    0  0.8641190E+002  0.1342070E+03  0.7546771E-02  0.1221344E+00
         21   -1    0    0  504  501  0.00000000000E+00  0.00000000000E+00  0.11465709182E+04  0.11465709182E+04  0.00000000000E+00 0.  1.
         21   -1    0    0  501  502 -0.00000000000E+00 -0.00000000000E+00 -0.28499504381E+02  0.28499504381E+02  0.00000000000E+00 0.  1.
         21    1    1    2  503  502  0.52918726817E+02  0.39444975327E+02  0.11251475858E+03  0.13044488730E+03  0.00000000000E+00 0. -1.
         21    1    1    2  504  506 -0.19821876666E+02  0.10897972164E+03  0.54115923988E+03  0.55237922610E+03  0.00000000000E+00 0.  1.
         21    1    1    2  505  503  0.16652879147E+02 -0.44638673843E+02  0.11927179292E+03  0.12843554871E+03  0.00000000000E+00 0.  1.
         21    1    1    2  506  505 -0.49749729298E+02 -0.10378602312E+03  0.34512562242E+03  0.36381076044E+03  0.00000000000E+00 0.  1.
<scales pt_clust_3="66.00226" pt_clust_4="120.39656" pt_clust_5="38.15159" pt_clust_6="38.15159"></scales>
<clustering>
<clus scale="   38.152">  5  6 -1 -1</clus>
<clus scale="   66.002">  2  3  1 -1</clus>
<clus scale="  120.397">  1  4  2 -1</clus>
<clus scale="  120.397">  1  3  2 -1</clus>
</clustering>
</event>
<event>
 6    0  0.8641190E+002  0.8683878E+02  0.7546771E-02  0.1310693E+00
         21   -1    0    0  504  501  0.00000000000E+00  0.00000000000E+00  0.19756789533E+03  0.19756789533E+03  0.00000000000E+00 0. -1.
         21   -1    0    0  506  502 -0.00000000000E+00 -0.00000000000E+00 -0.24766630253E+03  0.24766630253E+03  0.00000000000E+00 0. -1.
         21    1    1    2  503  502  0.57671526247E+02  0.20387751238E+02 -0.15269967861E+03  0.16449576647E+03  0.00000000000E+00 0. -1.
         21    1    1    2  504  503  0.37084028297E+02  0.47581608322E+02 -0.22273623044E+02  0.64306678415E+02  0.00000000000E+00 0. -1.
         21    1    1    2  505  501 -0.29695111999E+02  0.24160726645E+02  0.90910591530E+02  0.98642161579E+02  0.00000000000E+00 0. -1.
         21    1    1    2  506  505 -0.65060442545E+02 -0.92130086205E+02  0.33964302928E+02  0.11778959140E+03  0.00000000000E+00 0. -1.
<scales pt_clust_3="60.05405" pt_clust_4="14000.00000" pt_clust_5="38.28238" pt_clust_6="86.83878"></scales>
<clustering>
<clus scale="   38.282">  1  5  2 -1</clus>
<clus scale="   60.054">  2  3  1 -1</clus>
<clus scale="   86.839">  1  6  2 -1</clus>
<clus scale="   38.282">  1  3  2 -1</clus>
</clustering>
</event>
<event>
 6    0  0.1359710E+003  0.7528562E+02  0.7546771E-02  0.1342989E+00
         21   -1    0    0  504  501  0.00000000000E+00  0.00000000000E+00  0.35630817678E+03  0.35630817678E+03  0.00000000000E+00 0. -1.
         21   -1    0    0  505  502 -0.00000000000E+00 -0.00000000000E+00 -0.66346203419E+03  0.66346203419E+03  0.00000000000E+00 0.  1.
         21    1    1    2  503  506 -0.32656100424E+02 -0.56883502770E+02  0.12870505389E+03  0.14445464575E+03  0.00000000000E+00 0. -1.
         21    1    1    2  504  503 -0.16103844599E+02 -0.56449054352E+02  0.18964800625E+03  0.19852505086E+03  0.00000000000E+00 0. -1.
         21    1    1    2  505  501  0.68837397405E+01  0.60318163940E+02 -0.14971294081E+02  0.62528444890E+02  0.00000000000E+00 0.  1.
         21    1    1    2  506  502  0.41876205283E+02  0.53014393183E+02 -0.61053562347E+03  0.61426206946E+03  0.00000000000E+00 0.  1.
<scales pt_clust_3="30.86706" pt_clust_4="30.86706" pt_clust_5="60.70969" pt_clust_6="67.84780"></scales>
<clustering>
<clus scale="   30.867">  3  4 -1 -1</clus>
<clus scale="   60.710">  1  5  2 -1</clus>
<clus scale="   67.848">  2  6  1 -1</clus>
<clus scale="   60.710">  1  3  2 -1</clus>
</clustering>
</event>
<event>
 6    0  0.8641190E+002  0.9786554E+02  0.7546771E-02  0.1284850E+00
         21   -1    0    0  505  501  0.00000000000E+00  0.00000000000E+00  0.25208555686E+04  0.25208555686E+04  0.00000000000E+00 0.  1.
         21   -1    0    0  504  502 -0.00000000000E+00 -0.00000000000E+00 -0.63529045443E+02  0.63529045443E+02  0.00000000000E+00 0. -1.
         21    1    1    2  503  506  0.84139201043E+02 -0.61466040988E+02  0.14144165063E+04  0.14182494606E+04  0.00000000000E+00 0.  1.
         21    1    1    2  504  503 -0.32127105191E+02  0.17731152365E+02 -0.52373175070E+02  0.63949152607E+02  0.00000000000E+00 0. -1.
         21    1    1    2  505  502 -0.51112624040E+02  0.75508002304E+02  0.83845245027E+03  0.84339579684E+03  0.00000000000E+00 0.  1.
         21    1    1    2  506  501 -0.89947181247E+00 -0.31773113681E+02  0.25683074172E+03  0.25879020402E+03  0.00000000000E+00 0.  1.
<scales pt_clust_3="14000.00000" pt_clust_4="36.65811" pt_clust_5="97.86554" pt_clust_6="31.78584"></scales>
<clustering>
<clus scale="   31.786">  1  6  2 -1</clus>
<clus scale="   36.658">  2  4  1 -1</clus>
<clus scale="   97.866">  1  5  2 -1</clus>
<clus scale="   31.786">  1  3  2 -1</clus>
</clustering>
</event>
<event>
 6    0  0.8641190E+002  0.1258368E+03  0.7546771E-02  0.1233767E+00
         21   -1    0    0  506  501  0.00000000000E+00  0.00000000000E+00  0.63748324720E+03  0.63748324720E+03  0.00000000000E+00 0.  1.
         21   -1    0    0  505  502 -0.00000000000E+00 -0.00000000000E+00 -0.35022680639E+03  0.35022680639E+03  0.00000000000E+00 0.  1.
         21    1    1    2  503  501 -0.16057998280E+02  0.12678457830E+03  0.58657994081E+03  0.60034008326E+03  0.00000000000E+00 0.  1.
         21    1    1    2  504  503  0.55778031152E+02 -0.94372370190E+02 -0.51770046104E+02  0.12123312537E+03  0.00000000000E+00 0.  1.
         21    1    1    2  505  504 -0.34387658553E+02  0.14895200301E+02 -0.47533463992E+02  0.60529399897E+02  0.00000000000E+00 0.  1.
         21    1    1    2  506  502 -0.53323743187E+01 -0.47307408407E+02 -0.20001998990E+03  0.20560744506E+03  0.00000000000E+00 0.  1.
<scales pt_clust_3="125.83684" pt_clust_4="14000.00000" pt_clust_5="37.47503" pt_clust_6="47.02122"></scales>
<clustering>
<clus scale="   37.475">  2  5  1 -1</clus>
<clus scale="   47.021">  2  6  1 -1</clus>
<clus scale="  125.837">  1  3  2 -1</clus>
<clus scale="  125.837">  1  3  2 -1</clus>
</clustering>
</event>
<event>
 6    0  0.8641190E+002  0.1078591E+03  0.7546771E-02  0.1264587E+00
         21   -1    0    0  505  501  0.00000000000E+00  0.00000000000E+00  0.33562522420E+02  0.33562522420E+02  0.00000000000E+00 0. -1.
         21   -1    0    0  506  502 -0.00000000000E+00 -0.00000000000E+00 -0.99009499797E+03  0.99009499797E+03  0.00000000000E+00 0. -1.
         21    1    1    2  503  502 -0.41348726060E+02  0.74480764243E+02 -0.49016543370E+03  0.49751306895E+03  0.00000000000E+00 0. -1.
         21    1    1    2  504  503  0.29430959949E+01 -0.10777050099E+03 -0.18673274585E+03  0.21562064157E+03  0.00000000000E+00 0. -1.
         21    1    1    2  505  504  0.33530864591E+02 -0.45122559388E+02 -0.12577762436E+03  0.13776928190E+03  0.00000000000E+00 0. -1.
         21    1    1    2  506  501  0.48747654748E+01  0.78412296135E+02 -0.15385667164E+03  0.17275452796E+03  0.00000000000E+00 0. -1.
<scales pt_clust_3="95.49093" pt_clust_4="36.21415" pt_clust_5="36.21415" pt_clust_6="78.56368"></scales>
<clustering>
<clus scale="   36.214">  4  5 -1 -1</clus>
<clus scale="   78.564">  1  6  2 -1</clus>
<clus scale="   95.491">  2  3  1 -1</clus>
<clus scale="   78.564">  1  3  2 -1</clus>
</clustering>
</event>
<event>
 6    0  0.8641190E+002  0.7422525E+02  0.7546771E-02  0.1346287E+00
         21   -1    0    0  504  501  0.00000000000E+00  0.00000000000E+00  0.29040358787E+03  0.29040358787E+03  0.00000000000E+00 0. -1.
         21   -1    0    0  503  502 -0.00000000000E+00 -0.00000000000E+00 -0.31276737751E+03  0.31276737751E+03  0.00000000000E+00 0.  1.
         21    1    1    2  503  506 -0.75943820872E+02  0.29309177108E+01 -0.27146923398E+03  0.28190707548E+03  0.00000000000E+00 0.  1.
         21    1    1    2  504  505 -0.25430204798E+02  0.23968513210E+02  0.10830325522E+03  0.11380149398E+03  0.00000000000E+00 0. -1.
         21    1    1    2  505  502  0.46774253558E+02 -0.63984013862E+02  0.45051206292E+02  0.91166858091E+02  0.00000000000E+00 0. -1.
         21    1    1    2  506  501  0.54599772112E+02  0.37084582941E+02  0.95750982833E+02  0.11629553783E+03  0.00000000000E+00 0. -1.
<scales pt_clust_3="14000.00000" pt_clust_4="34.94546" pt_clust_5="74.22525" pt_clust_6="64.74915"></scales>
<clustering>
<clus scale="   34.945">  1  4  2 -1</clus>
<clus scale="   64.749">  1  6  2 -1</clus>
<clus scale="   74.225">  1  5  2 -1</clus>
<clus scale="   34.945">  1  3  2 -1</clus>
</clustering>
</event>
<event>
 6    0  0.8641190E+002  0.7154667E+02  0.7546771E-02  0.1354911E+00
         21   -1    0    0  504  501  0.00000000000E+00  0.00000000000E+00  0.60370416848E+03  0.60370416848E+03  0.00000000000E+00 0. -1.
         21   -1    0    0  506  502 -0.00000000000E+00 -0.00000000000E+00 -0.17501610708E+04  0.17501610708E+04  0.00000000000E+00 0.  1.
         21    1    1    2  503  501  0.74543616725E+00  0.53203855105E+02 -0.21245121120E+03  0.21901306585E+03  0.00000000000E+00 0.  1.
         21    1    1    2  504  505  0.29456333779E+02  0.48021080727E+02  0.58669130593E+03  0.58938984403E+03  0.00000000000E+00 0. -1.
         21    1    1    2  505  502  0.12356618029E+01 -0.11092396244E+03 -0.24058796232E+03  0.26493059453E+03  0.00000000000E+00 0.  1.
         21    1    1    2  506  503 -0.31437431749E+02  0.96990266084E+01 -0.12801090348E+04  0.12805317349E+04  0.00000000000E+00 0.  1.
<scales pt_clust_3="71.54667" pt_clust_4="56.31221" pt_clust_5="14000.00000" pt_clust_6="32.89959"></scales>
<clustering>
<clus scale="   32.900">  2  6  1 -1</clus>
<clus scale="   56.312">  1  4  2 -1</clus>
<clus scale="   71.547">  2  3  1 -1</clus>
<clus scale="   56.312">  1  3  2 -1</clus>
</clustering>
</event>
<event>
 6    0  0.8641190E+002  0.1141810E+03  0.7546771E-02  0.1253018E+00
         21   -1    0    0  503  501  0.00000000000E+00  0.00000000000E+00  0.88983659406E+03  0.88983659406E+03  0.00000000000E+00 0. -1.
         21   -1    0    0  504  502 -0.00000000000E+00 -0.00000000000E+00 -0.12530331243E+04  0.12530331243E+04  0.00000000000E+00 0.  1.
         21    1    1    2  503  502  0.86734775105E+00  0.86420892832E+02  0.70702571415E+03  0.71228834293E+03  0.00000000000E+00 0. -1.
         21    1    1    2  504  505  0.10988687685E+03  0.30171075475E+02 -0.11924960297E+04  0.11979282952E+04  0.00000000000E+00 0.  1.
         21    1    1    2  505  506 -0.11468302900E+03 -0.59920986046E+02  0.11893094353E+03  0.17574780522E+03  0.00000000000E+00 0.  1.
         21    1    1    2  506  501  0.39288043991E+01 -0.56670982261E+02  0.33428417952E+01  0.56905275025E+02  0.00000000000E+00 0.  1.
<scales pt_clust_3="39.85388" pt_clust_4="14000.00000" pt_clust_5="114.18096" pt_clust_6="56.80700"></scales>
<clustering>
<clus scale="   56.807">  1  6  2 -1</clus>
<clus scale="   39.854">  1  3  2 -1</clus>
<clus scale="  114.181">  1  5  2 -1</clus>
<clus scale="   56.807">  1  3  2 -1</clus>
</clustering>
</event>
<event>
 6    0  0.8641190E+002  0.9223637E+02  0.7546771E-02  0.1297525E+00
         21   -1    0    0  504  501  0.00000000000E+00  0.00000000000E+00  0.26323617965E+03  0.26323617965E+03  0.00000000000E+00 0.  1.
         21   -1    0    0  501  502 -0.00000000000E+00 -0.00000000000E+00 -0.31965979506E+03  0.31965979506E+03  0.00000000000E+00 0. -1.
         21    1    1    2  503  506  0.31805711650E+02 -0.52171095057E+02  0.40733326093E+02  0.73434530758E+02  0.00000000000E+00 0.  1.
         21    1    1    2  504  503  0.17826744211E+02 -0.38359741934E+02  0.16917425952E+03  0.17438231761E+03  0.00000000000E+00 0.  1.
         21    1    1    2  505  502 -0.24045130779E+02 -0.28967618959E+02 -0.18379521746E+03  0.18761122894E+03  0.00000000000E+00 0. -1.
         21    1    1    2  506  505 -0.25587325083E+02  0.11949845595E+03 -0.82535983571E+02  0.14746789740E+03  0.00000000000E+00 0. -1.
<scales pt_clust_3="92.23637" pt_clust_4="42.61848" pt_clust_5="37.64693" pt_clust_6="14000.00000"></scales>
<clustering>
<clus scale="   37.647">  2  5  1 -1</clus>
<clus scale="   42.618">  1  4  2 -1</clus>
<clus scale="   92.236">  1  3  2 -1</clus>
<clus scale="   42.618">  1  3  2 -1</clus>
</clustering>
</event>
<event>
 6    0  0.8641190E+002  0.6143642E+02  0.7546771E-02  0.1391901E+00
         21   -1    0    0  505  501  0.00000000000E+00  0.00000000000E+00  0.96248605099E+03  0.96248605099E+03  0.00000000000E+00 0.  1.
         21   -1    0    0  506  502 -0.00000000000E+00 -0.00000000000E+00 -0.64490589710E+03  0.64490589710E+03  0.00000000000E+00 0. -1.
         21    1    1    2  503  504 -0.22301123269E+02  0.90340366793E+02  0.39673573460E+03  0.40750210439E+03  0.00000000000E+00 0.  1.
         21    1    1    2  504  501 -0.20016929851E+02 -0.44612102564E+02  0.36280699433E+03  0.36608719222E+03  0.00000000000E+00 0.  1.
         21    1    1    2  505  502  0.68348015640E+02  0.97870113686E+01  0.18830262373E+03  0.20056199773E+03  0.00000000000E+00 0.  1.
         21    1    1    2  506  503 -0.26029962520E+02 -0.55515275597E+02 -0.63026519877E+03  0.63324065375E+03  0.00000000000E+00 0. -1.
<scales pt_clust_3="14000.00000" pt_clust_4="48.89701" pt_clust_5="59.32526" pt_clust_6="61.43642"></scales>
<clustering>
<clus scale="   48.897">  1  4  2 -1</clus>
<clus scale="   61.436">  2  6  1 -1</clus>
<clus scale="   59.325">  2  5  1 -1</clus>
<clus scale="   48.897">  1  3  2 -1</clus>
</clustering>
</event>
<event>
 6    0  0.8641190E+002  0.2109950E+03  0.7546771E-02  0.1140780E+00
         21   -1    0    0  503  501  0.00000000000E+00  0.00000000000E+00  0.41638135927E+03  0.41638135927E+03  0.00000000000E+00 0.  1.
         21   -1    0    0  504  502 -0.00000000000E+00 -0.00000000000E+00 -0.81554684290E+03  0.81554684290E+03  0.00000000000E+00 0. -1.
         21    1    1    2  503  502  0.29284420669E+02  0.21405593442E+02  0.21522933102E+03  0.21826461384E+03  0.00000000000E+00 0.  1.
         21    1    1    2  504  506 -0.35667048351E+02 -0.20348746840E+03 -0.75192693941E+03  0.77979061956E+03  0.00000000000E+00 0. -1.
         21    1    1    2  505  501  0.25777655392E+02  0.70358633477E+02  0.65582214734E+02  0.99578369698E+02  0.00000000000E+00 0.  1.
         21    1    1    2  506  505 -0.19395027710E+02  0.11172324148E+03  0.71949910033E+02  0.13429459907E+03  0.00000000000E+00 0.  1.
<scales pt_clust_3="36.27364" pt_clust_4="204.77295" pt_clust_5="42.99990" pt_clust_6="42.99990"></scales>
<clustering>
<clus scale="   36.274">  1  3  2 -1</clus>
<clus scale="   43.000">  5  6 -1 -1</clus>
<clus scale="  204.773">  2  4  1 -1</clus>
<clus scale="   36.274">  1  3  2 -1</clus>
</clustering>
</event>
<event>
 6    0  0.8641190E+002  0.2156621E+03  0.7546771E-02  0.1137159E+00
         21   -1    0    0  503  501  0.00000000000E+00  0.00000000000E+00  0.26656249627E+04  0.26656249627E+04  0.00000000000E+00 0. -1.
         21   -1    0    0  505  502 -0.00000000000E+00 -0.00000000000E+00 -0.11750907767E+03  0.11750907767E+03  0.00000000000E+00 0. -1.
         21    1    1    2  503  502  0.24172119196E+02  0.50211556504E+02  0.18376186969E+04  0.18384634799E+04  0.00000000000E+00 0. -1.
         21    1    1    2  504  506 -0.11584714434E+03 -0.16230680356E+03  0.28808145771E+03  0.35036407580E+03  0.00000000000E+00 0. -1.
         21    1    1    2  505  504  0.30599802913E+02  0.23299897692E+03  0.12203476133E+03  0.26479681675E+03  0.00000000000E+00 0. -1.
         21    1    1    2  506  501  0.61075222228E+02 -0.12090372986E+03  0.30038096906E+03  0.32950966790E+03  0.00000000000E+00 0. -1.
<scales pt_clust_3="55.72694" pt_clust_4="14000.00000" pt_clust_5="215.66207" pt_clust_6="123.69610"></scales>
<clustering>
<clus scale="   55.727">  1  3  2 -1</clus>
<clus scale="  123.696">  1  6  2 -1</clus>
<clus scale="  215.662">  2  5  1 -1</clus>
<clus scale="   55.727">  1  3  2 -1</clus>
</clustering>
</event>
<event>
 6    0  0.8641190E+002  0.6486226E+02  0.7546771E-02  0.1378490E+00
         21   -1    0    0  503  501  0.00000000000E+00  0.00000000000E+00  0.12686447777E+04  0.12686447777E+04  0.00000000000E+00 0. -1.
         21   -1    0    0  504  502 -0.00000000000E+00 -0.00000000000E+00 -0.15797234408E+02  0.15797234408E+02  0.00000000000E+00 0. -1.
         21    1    1    2  503  506  0.59974458912E+02 -0.15274503052E+02  0.46609060615E+03  0.47018155994E+03  0.00000000000E+00 0. -1.
         21    1    1    2  504  501  0.20825107531E+02 -0.41299036558E+02  0.18068450674E+03  0.18651055332E+03  0.00000000000E+00 0. -1.
         21    1    1    2  505  502 -0.51061376006E+01  0.82032460812E+02  0.26503292483E+03  0.27748486177E+03  0.00000000000E+00 0. -1.
         21    1    1    2  506  505 -0.75693428842E+02 -0.25458921202E+02  0.34103950558E+03  0.35026503709E+03  0.00000000000E+00 0. -1.
<scales pt_clust_3="14000.00000" pt_clust_4="46.25252" pt_clust_5="62.27336" pt_clust_6="64.86226"></scales>
<clustering>
<clus scale="   46.253">  2  4  1 -1</clus>
<clus scale="   62.273">  2  5  1 -1</clus>
<clus scale="   64.862">  2  6  1 -1</clus>
<clus scale="   64.862">  1  3  2 -1</clus>
</clustering>
</event>
<event>
 6    0  0.8641190E+002  0.8577274E+02  0.7546771E-02  0.1313424E+00
         21   -1    0    0  504  501  0.00000000000E+00  0.00000000000E+00  0.63784330852E+02  0.63784330852E+02  0.00000000000E+00 0. -1.
         21   -1    0    0  505  502 -0.00000000000E+00 -0.00000000000E+00 -0.91492999860E+03  0.91492999860E+03  0.00000000000E+00 0. -1.
         21    1    1    2  503  506  0.46792373935E+02  0.11467628998E+03 -0.15017301567E+03  0.19465896429E+03  0.00000000000E+00 0. -1.
         21    1    1    2  504  502  0.30494800250E+02 -0.29335043991E+02 -0.60734472184E+03  0.60881695836E+03  0.00000000000E+00 0. -1.
         21    1    1    2  505  503 -0.21645792907E+02 -0.30157574985E+02 -0.89351575200E+02  0.96756000693E+02  0.00000000000E+00 0. -1.
         21    1    1    2  506  501 -0.55641381279E+02 -0.55183671005E+02 -0.42763550439E+01  0.78482406109E+02  0.00000000000E+00 0. -1.
<scales pt_clust_3="14000.00000" pt_clust_4="53.63906" pt_clust_5="37.12169" pt_clust_6="85.77274"></scales>
<clustering>
<clus scale="   37.122">  2  5  1 -1</clus>
<clus scale="   53.639">  2  4  1 -1</clus>
<clus scale="   85.773">  1  6  2 -1</clus>
<clus scale="   85.773">  1  3  2 -1</clus>
</clustering>
</event>
<event>
 6    0  0.8641190E+002  0.3325230E+03  0.7546771E-02  0.1070026E+00
         21   -1    0    0  504  501  0.00000000000E+00  0.00000000000E+00  0.11179248306E+04  0.11179248306E+04  0.00000000000E+00 0. -1.
         21   -1    0    0  506  502 -0.00000000000E+00 -0.00000000000E+00 -0.25984395680E+03  0.25984395680E+03  0.00000000000E+00 0.  1.
         21    1    1    2  503  501  0.26005513196E+03 -0.11858310738E+03  0.83056464185E+03  0.87836680795E+03  0.00000000000E+00 0. -1.
         21    1    1    2  504  502 -0.11295287113E+02 -0.10636625062E+03  0.10500148161E+03  0.14988887191E+03  0.00000000000E+00 0. -1.
         21    1    1    2  505  503 -0.94801707888E+02  0.66210660338E+02 -0.13629042107E+01  0.11564200305E+03  0.00000000000E+00 0.  1.
         21    1    1    2  506  505 -0.15395813696E+03  0.15873869766E+03 -0.76122345406E+02  0.23387110454E+03  0.00000000000E+00 0.  1.
<scales pt_clust_3="326.95526" pt_clust_4="106.96431" pt_clust_5="43.81785" pt_clust_6="43.81785"></scales>
<clustering>
<clus scale="   43.818">  5  6 -1 -1</clus>
<clus scale="  106.964">  1  4  2 -1</clus>
<clus scale="  326.955">  1  3  2 -1</clus>
<clus scale="  106.964">  1  3  2 -1</clus>
</clustering>
</event>
<event>
 6    0  0.8641190E+002  0.1393723E+03  0.7546771E-02  0.1214176E+00
         21   -1    0    0  506  501  0.00000000000E+00  0.00000000000E+00  0.41940236026E+03  0.41940236026E+03  0.00000000000E+00 0.  1.
         21   -1    0    0  504  502 -0.00000000000E+00 -0.00000000000E+00 -0.49217050902E+03  0.49217050902E+03  0.00000000000E+00 0. -1.
         21    1    1    2  503  502 -0.18124105541E+01 -0.39976034384E+02 -0.21281311380E+03  0.21654281230E+03  0.00000000000E+00 0. -1.
         21    1    1    2  504  501  0.65810635636E+02 -0.12828584997E+03 -0.20593830333E+03  0.25139388187E+03  0.00000000000E+00 0.  1.
         21    1    1    2  505  503 -0.51580182867E+01  0.42207039084E+02 -0.23675772331E+02  0.48668074714E+02  0.00000000000E+00 0.  1.
         21    1    1    2  506  505 -0.58840206795E+02  0.12605484527E+03  0.36965904070E+03  0.39496810039E+03  0.00000000000E+00 0.  1.
<scales pt_clust_3="40.01710" pt_clust_4="14000.00000" pt_clust_5="37.38724" pt_clust_6="139.37234"></scales>
<clustering>
<clus scale="   40.017">  2  3  1 -1</clus>
<clus scale="   37.387">  2  5  1 -1</clus>
<clus scale="  139.372">  1  6  2 -1</clus>
<clus scale="  139.372">  1  3  2 -1</clus>
</clustering>
</event>
<event>
 6    0  0.8641190E+002  0.8919683E+02  0.7546771E-02  0.1304808E+00
         21   -1    0    0  505  501  0.00000000000E+00  0.00000000000E+00  0.11238157139E+03  0.11238157139E+03  0.00000000000E+00 0.  1.
         21   -1    0    0  504  502 -0.00000000000E+00 -0.00000000000E+00 -0.82814747870E+03  0.82814747870E+03  0.00000000000E+00 0.  1.
         21    1    1    2  503  506 -0.73459312671E+02  0.29943822714E+02  0.33021122125E+02  0.85926117352E+02  0.00000000000E+00 0.  1.
         21    1    1    2  504  501  0.58389524446E+02 -0.92829999060E+00 -0.65950414897E+03  0.66208452694E+03  0.00000000000E+00 0.  1.
         21    1    1    2  505  503 -0.48369990119E+02 -0.47143705363E+02  0.14930751960E+02  0.69174505806E+02  0.00000000000E+00 0.  1.
         21    1    1    2  506  502  0.63439778344E+02  0.18128182639E+02 -0.10421363242E+03  0.12334389999E+03  0.00000000000E+00 0.  1.
<scales pt_clust_3="14000.00000" pt_clust_4="58.39690" pt_clust_5="61.24136" pt_clust_6="89.19683"></scales>
<clustering>
<clus scale="   58.397">  2  4  1 -1</clus>
<clus scale="   61.241">  1  5  2 -1</clus>
<clus scale="   89.197">  2  6  1 -1</clus>
<clus scale="   61.241">  1  3  2 -1</clus>
</clustering>
</event>
<event>
 6    0  0.8641190E+002  0.1478447E+03  0.7546771E-02  0.1203147E+00
         21   -1    0    0  506  501  0.00000000000E+00  0.00000000000E+00  0.12441473945E+03  0.12441473945E+03  0.00000000000E+00 0. -1.
         21   -1    0    0  503  502 -0.00000000000E+00 -0.00000000000E+00 -0.12590779387E+04  0.12590779387E+04  0.00000000000E+00 0.  1.
         21    1    1    2  503  501  0.71900700895E+01 -0.14022110524E+03  0.45674769459E+02  0.14764768886E+03  0.00000000000E+00 0. -1.
         21    1    1    2  504  502  0.23042117731E+02  0.14659029089E+03 -0.10701548500E+04  0.10803939354E+04  0.00000000000E+00 0.  1.
         21    1    1    2  505  504 -0.40020205026E+02 -0.48750672688E+02 -0.82667722615E+02  0.10398171599E+03  0.00000000000E+00 0.  1.
         21    1    1    2  506  505  0.97880172059E+01  0.42381487033E+02 -0.27515396035E+02  0.51469337891E+02  0.00000000000E+00 0. -1.
<scales pt_clust_3="147.84473" pt_clust_4="14000.00000" pt_clust_5="59.40813" pt_clust_6="43.49708"></scales>
<clustering>
<clus scale="   43.497">  1  6  2 -1</clus>
<clus scale="   59.408">  1  5  2 -1</clus>
<clus scale="  147.845">  1  3  2 -1</clus>
<clus scale="   43.497">  1  3  2 -1</clus>
</clustering>
</event>
<event>
 6    0  0.8641190E+002  0.1073622E+03  0.7546771E-02  0.1265534E+00
         21   -1    0    0  505  501  0.00000000000E+00  0.00000000000E+00  0.60142724039E+02  0.60142724039E+02  0.00000000000E+00 0. -1.
         21   -1    0    0  506  502 -0.00000000000E+00 -0.00000000000E+00 -0.56731008785E+03  0.56731008785E+03  0.00000000000E+00 0. -1.
         21    1    1    2  503  504 -0.25083419277E+02 -0.12061989854E+03 -0.23454544827E+03  0.26493377503E+03  0.00000000000E+00 0. -1.
         21    1    1    2  504  501 -0.16696631677E+02 -0.25426572780E+02 -0.14684653857E+02  0.33777613468E+02  0.00000000000E+00 0. -1.
         21    1    1    2  505  502 -0.15318093984E+02  0.63373898112E+02 -0.16532176575E+02  0.67262231806E+02  0.00000000000E+00 0. -1.
         21    1    1    2  506  503  0.57098144938E+02  0.82672573208E+02 -0.24140508510E+03  0.26147919158E+03  0.00000000000E+00 0. -1.
<scales pt_clust_3="107.36222" pt_clust_4="30.41855" pt_clust_5="55.89487" pt_clust_6="14000.00000"></scales>
<clustering>
<clus scale="   30.419">  1  4  2 -1</clus>
<clus scale="   55.895">  1  5  2 -1</clus>
<clus scale="  107.362">  1  3  2 -1</clus>
<clus scale="   30.419">  1  3  2 -1</clus>
</clustering>
</event>
<event>
 6    0  0.8641190E+002  0.1055805E+03  0.7546771E-02  0.1268980E+00
         21   -1    0    0  504  501  0.00000000000E+00  0.00000000000E+00  0.26522245256E+03  0.26522245256E+03  0.00000000000E+00 0. -1.
         21   -1    0    0  503  502 -0.00000000000E+00 -0.00000000000E+00 -0.34342495124E+03  0.34342495124E+03  0.00000000000E+00 0. -1.
         21    1    1    2  503  501  0.84194184639E+02 -0.73902874940E+02  0.16986108266E+03  0.20347747555E+03  0.00000000000E+00 0. -1.
         21    1    1    2  504  505 -0.69585480942E+02  0.55460801133E+02  0.20727942730E+01  0.89007505843E+02  0.00000000000E+00 0. -1.
         21    1    1    2  505  506 -0.11501165287E+02  0.80450764346E+02 -0.28701232396E+02  0.86187951755E+02  0.00000000000E+00 0. -1.
         21    1    1    2  506  502 -0.31075384104E+01 -0.62008690539E+02 -0.22143514322E+03  0.22997447065E+03  0.00000000000E+00 0. -1.
<scales pt_clust_3="105.58055" pt_clust_4="14000.00000" pt_clust_5="51.85264" pt_clust_6="62.08651"></scales>
<clustering>
<clus scale="   62.087">  2  6  1 -1</clus>
<clus scale="   51.853">  2  5  1 -1</clus>
<clus scale="  105.581">  1  3  2 -1</clus>
<clus scale="  105.581">  1  3  2 -1</clus>
</clustering>
</event>
<event>
 6    0  0.8641190E+002  0.1306691E+03  0.7546771E-02  0.1226466E+00
         21   -1    0    0  503  501  0.00000000000E+00  0.00000000000E+00  0.54429226653E+03  0.54429226653E+03  0.00000000000E+00 0.  1.
         21   -1    0    0  506  502 -0.00000000000E+00 -0.00000000000E+00 -0.15481660909E+03  0.15481660909E+03  0.00000000000E+00 0.  1.
         21    1    1    2  503  505  0.17282028271E+02  0.25846300411E+02  0.14906383119E+03  0.15227188025E+03  0.00000000000E+00 0.  1.
         21    1    1    2  504  502 -0.75691880108E+01  0.94021152837E+02  0.91041049505E+02  0.13109440294E+03  0.00000000000E+00 0.  1.
         21    1    1    2  505  504 -0.39129896630E+02  0.20867117537E+02  0.24113448243E+03  0.24517835146E+03  0.00000000000E+00 0.  1.
         21    1    1    2  506  501  0.29417056370E+02 -0.14073457078E+03 -0.91763705682E+02  0.17056424098E+03  0.00000000000E+00 0.  1.
<scales pt_clust_3="31.09180" pt_clust_4="130.66914" pt_clust_5="46.54388" pt_clust_6="14000.00000"></scales>
<clustering>
<clus scale="   31.092">  1  3  2 -1</clus>
<clus scale="   46.544">  1  5  2 -1</clus>
<clus scale="  130.669">  1  4  2 -1</clus>
<clus scale="   31.092">  1  3  2 -1</clus>
</clustering>
</event>
<event>
 6    0  0.8641190E+002  0.1330644E+03  0.7546771E-02  0.1222978E+00
         21   -1    0    0  504  501  0.00000000000E+00  0.00000000000E+00  0.17474456879E+03  0.17474456879E+03  0.00000000000E+00 0.  1.
         21   -1    0    0  506  502 -0.00000000000E+00 -0.00000000000E+00 -0.47769505250E+03  0.47769505250E+03  0.00000000000E+00 0.  1.
         21    1    1    2  503  505 -0.83779227287E+02  0.19179990584E+02  0.92041773069E+02  0.12593061166E+03  0.00000000000E+00 0.  1.
         21    1    1    2  504  503 -0.41729611025E+02 -0.25523823928E+02  0.40980802045E+02  0.63814200304E+02  0.00000000000E+00 0. -1.
         21    1    1    2  505  502  0.88599795554E+02  0.29352376232E+02 -0.38272464020E+03  0.39394115801E+03  0.00000000000E+00 0.  1.
         21    1    1    2  506  501  0.36909042758E+02 -0.23008542889E+02 -0.53248418629E+02  0.68753651318E+02  0.00000000000E+00 0.  1.
<scales pt_clust_3="37.83682" pt_clust_4="37.83682" pt_clust_5="123.25080" pt_clust_6="43.49334"></scales>
<clustering>
<clus scale="   37.837">  3  4 -1 -1</clus>
<clus scale="   43.493">  2  6  1 -1</clus>
<clus scale="  123.251">  2  5  1 -1</clus>
<clus scale="  133.064">  1  3  2 -1</clus>
</clustering>
</event>
<event>
 6    0  0.8641190E+002  0.1339593E+03  0.7546771E-02  0.1221696E+00
         21   -1    0    0  503  501  0.00000000000E+00  0.00000000000E+00  0.27124414358E+03  0.27124414358E+03  0.00000000000E+00 0.  1.
         21   -1    0    0  505  502 -0.00000000000E+00 -0.00000000000E+00 -0.98349597061E+03  0.98349597061E+03  0.00000000000E+00 0.  1.
         21    1    1    2  503  504 -0.59523016953E+02  0.84069834669E+02 -0.49777831612E+02  0.11440524100E+03  0.00000000000E+00 0.  1.
         21    1    1    2  504  502 -0.13200545504E+03  0.26270764083E+02 -0.82526265890E+03  0.83616628094E+03  0.00000000000E+00 0.  1.
         21    1    1    2  505  506  0.10209789295E+03 -0.10737856645E+03  0.42301528052E+02  0.15408944011E+03  0.00000000000E+00 0.  1.
         21    1    1    2  506  501  0.89430579040E+02 -0.29620322989E+01  0.12048713543E+03  0.15007915214E+03  0.00000000000E+00 0.  1.
<scales pt_clust_3="91.72958" pt_clust_4="133.95933" pt_clust_5="14000.00000" pt_clust_6="89.47962"></scales>
<clustering>
<clus scale="   89.480">  1  6  2 -1</clus>
<clus scale="   91.730">  1  3  2 -1</clus>
<clus scale="  133.959">  2  4  1 -1</clus>
<clus scale="   89.480">  1  3  2 -1</clus>
</clustering>
</event>
<event>
 6    0  0.8641190E+002  0.1696130E+03  0.7546771E-02  0.1178252E+00
         21   -1    0    0  505  501  0.00000000000E+00  0.00000000000E+00  0.30140645308E+03  0.30140645308E+03  0.00000000000E+00 0. -1.
         21   -1    0    0  504  502 -0.00000000000E+00 -0.00000000000E+00 -0.56566303818E+03  0.56566303818E+03  0.00000000000E+00 0.  1.
         21    1    1    2  503  501  0.39526740209E+02  0.11673873970E+03 -0.17361292268E+03  0.21291252537E+03  0.00000000000E+00 0.  1.
         21    1    1    2  504  503  0.49934166112E+02  0.88262383238E+00 -0.13685990871E+03  0.14568745513E+03  0.00000000000E+00 0. -1.
         21    1    1    2  505  506 -0.92867210028E+02 -0.15047683607E+03  0.24767556523E+03  0.30432019733E+03  0.00000000000E+00 0. -1.
         21    1    1    2  506  502  0.34063037071E+01  0.32855472538E+02 -0.20145931894E+03  0.20414931342E+03  0.00000000000E+00 0.  1.
<scales pt_clust_3="169.61300" pt_clust_4="53.05294" pt_clust_5="14000.00000" pt_clust_6="33.03158"></scales>
<clustering>
<clus scale="   33.032">  2  6  1 -1</clus>
<clus scale="   53.053">  2  4  1 -1</clus>
<clus scale="  169.613">  2  3  1 -1</clus>
<clus scale="  169.613">  1  3  2 -1</clus>
</clustering>
</event>
<event>
 6    0  0.8641190E+002  0.1498429E+03  0.7546771E-02  0.1200666E+00
         21   -1    0    0  506  501  0.00000000000E+00  0.00000000000E+00  0.39699743299E+02  0.39699743299E+02  0.00000000000E+00 0. -1.
         21   -1    0    0  503  502 -0.00000000000E+00 -0.00000000000E+00 -0.79581139234E+03  0.79581139234E+03  0.00000000000E+00 0.  1.
         21    1    1    2  503  505  0.18845230495E+02  0.45571323269E+02 -0.15367733118E+03  0.16139581883E+03  0.00000000000E+00 0.  1.
         21    1    1    2  504  502 -0.79029146932E+02 -0.56929109827E+02 -0.12876014052E+03  0.16144876400E+03  0.00000000000E+00 0. -1.
         21    1    1    2  505  501  0.12391372180E+03  0.70853056392E+01 -0.37605573745E+03  0.39600849698E+03  0.00000000000E+00 0.  1.
         21    1    1    2  506  504 -0.63729805362E+02  0.42724809181E+01 -0.97618439894E+02  0.11665805584E+03  0.00000000000E+00 0. -1.
<scales pt_clust_3="49.31418" pt_clust_4="43.93380" pt_clust_5="139.67678" pt_clust_6="43.93380"></scales>
<clustering>
<clus scale="   43.934">  4  6 -1 -1</clus>
<clus scale="   49.314">  2  3  1 -1</clus>
<clus scale="  139.677">  2  5  1 -1</clus>
<clus scale="  149.843">  1  3  2 -1</clus>
</clustering>
</event>
<event>
 6    0  0.8641190E+002  0.7502649E+02  0.7546771E-02  0.1343789E+00
         21   -1    0    0  505  501  0.00000000000E+00  0.00000000000E+00  0.12735605515E+04  0.12735605515E+04  0.00000000000E+00 0.  1.
         21   -1    0    0  506  502 -0.00000000000E+00 -0.00000000000E+00 -0.20943430613E+03  0.20943430613E+03  0.00000000000E+00 0. -1.
         21    1    1    2  503  501  0.14785079523E+01  0.57117268617E+02  0.39424856104E+03  0.39836728812E+03  0.00000000000E+00 0.  1.
         21    1    1    2  504  503  0.80600360319E+01  0.96207445571E+02 -0.15663669093E+03  0.18399970030E+03  0.00000000000E+00 0. -1.
         21    1    1    2  505  502 -0.28412072302E+02 -0.10109296230E+03  0.83746380913E+03  0.84402172039E+03  0.00000000000E+00 0.  1.
         21    1    1    2  506  504  0.18873528318E+02 -0.52231751883E+02 -0.10949433925E+02  0.56606148776E+02  0.00000000000E+00 0.  1.
<scales pt_clust_3="75.02649" pt_clust_4="52.63877" pt_clust_5="14000.00000" pt_clust_6="55.53707"></scales>
<clustering>
<clus scale="   55.537">  2  6  1 -1</clus>
<clus scale="   52.639">  2  4  1 -1</clus>
<clus scale="   75.026">  1  3  2 -1</clus>
<clus scale="   75.026">  1  3  2 -1</clus>
</clustering>
</event>
<event>
 6    0  0.8641190E+002  0.7435018E+02  0.7546771E-02  0.1345895E+00
         21   -1    0    0  506  501  0.00000000000E+00  0.00000000000E+00  0.15773249829E+04  0.15773249829E+04  0.00000000000E+00 0.  1.
         21   -1    0    0  503  502 -0.00000000000E+00 -0.00000000000E+00 -0.66036745891E+02  0.66036745891E+02  0.00000000000E+00 0.  1.
         21    1    1    2  503  505 -0.61721850325E+02  0.30331470648E+02 -0.36302274140E+02  0.77765288059E+02  0.00000000000E+00 0.  1.
         21    1    1    2  504  501  0.34873821945E+02 -0.51257173529E+02  0.98334162134E+03  0.98529397926E+03  0.00000000000E+00 0.  1.
         21    1    1    2  505  504  0.45976066511E+02  0.61171609490E+02  0.46830217212E+03  0.47451310720E+03  0.00000000000E+00 0.  1.
         21    1    1    2  506  502 -0.19128038131E+02 -0.40245906609E+02  0.95946717689E+02  0.10578935427E+03  0.00000000000E+00 0.  1.
<scales pt_clust_3="74.35018" pt_clust_4="62.35846" pt_clust_5="14000.00000" pt_clust_6="44.56024"></scales>
<clustering>
<clus scale="   44.560">  2  6  1 -1</clus>
<clus scale="   62.358">  1  4  2 -1</clus>
<clus scale="   74.350">  2  3  1 -1</clus>
<clus scale="   62.358">  1  3  2 -1</clus>
</clustering>
</event>
<event>
 6    0  0.8641190E+002  0.1385332E+03  0.7546771E-02  0.1215316E+00
         21   -1    0    0  504  501  0.00000000000E+00  0.00000000000E+00  0.23897582920E+03  0.23897582920E+03  0.00000000000E+00 0.  1.
         21   -1    0    0  505  502 -0.00000000000E+00 -0.00000000000E+00 -0.34504058408E+03  0.34504058408E+03  0.00000000000E+00 0. -1.
         21    1    1    2  503  502  0.13628543556E+03 -0.61467554684E+00 -0.21827305217E+03  0.25732707412E+03  0.00000000000E+00 0. -1.
         21    1    1    2  504  503 -0.25030589404E+02 -0.23636795510E+02  0.18047794235E+03  0.18373218603E+03  0.00000000000E+00 0.  1.
         21    1    1    2  505  506 -0.58346433313E+02  0.38680609681E+02 -0.46016094167E+02  0.83773365506E+02  0.00000000000E+00 0. -1.
         21    1    1    2  506  501 -0.52908412840E+02 -0.14429138625E+02 -0.22253550892E+02  0.59183787628E+02  0.00000000000E+00 0. -1.
<scales pt_clust_3="127.98911" pt_clust_4="34.42715" pt_clust_5="49.83909" pt_clust_6="49.83909"></scales>
<clustering>
<clus scale="   34.427">  1  4  2 -1</clus>
<clus scale="   49.839">  5  6 -1 -1</clus>
<clus scale="  127.989">  2  3  1 -1</clus>
<clus scale="   34.427">  1  3  2 -1</clus>
</clustering>
</event>
<event>
 6    0  0.8641190E+002  0.1710975E+03  0.7546771E-02  0.1176708E+00
         21   -1    0    0  506  501  0.00000000000E+00  0.00000000000E+00  0.10600009217E+03  0.10600009217E+03  0.00000000000E+00 0. -1.
         21   -1    0    0  503  502 -0.00000000000E+00 -0.00000000000E+00 -0.42679837712E+03  0.42679837712E+03  0.00000000000E+00 0.  1.
         21    1    1    2  503  505 -0.33727572729E+02 -0.38774256290E+01 -0.49923964651E+02  0.60373718108E+02  0.00000000000E+00 0.  1.
         21    1    1    2  504  502  0.58322275382E+02 -0.82653105566E+02 -0.14113429866E+03  0.17364306471E+03  0.00000000000E+00 0.  1.
         21    1    1    2  505  501 -0.10494585992E+03  0.11717072819E+03 -0.18803544244E+02  0.15841775890E+03  0.00000000000E+00 0. -1.
         21    1    1    2  506  504  0.80351157271E+02 -0.30640196992E+02 -0.11093647739E+03  0.14036392757E+03  0.00000000000E+00 0.  1.
<scales pt_clust_3="33.94972" pt_clust_4="48.91922" pt_clust_5="162.10903" pt_clust_6="48.91922"></scales>
<clustering>
<clus scale="   33.950">  2  3  1 -1</clus>
<clus scale="   48.919">  4  6 -1 -1</clus>
<clus scale="  162.109">  1  5  2 -1</clus>
<clus scale="  162.109">  1  3  2 -1</clus>
</clustering>
</event>
<event>
 6    0  0.8641190E+002  0.1811750E+03  0.7546771E-02  0.1166671E+00
         21   -1    0    0  505  501  0.00000000000E+00  0.00000000000E+00  0.37832866448E+02  0.37832866448E+02  0.00000000000E+00 0. -1.
         21   -1    0    0  506  502 -0.00000000000E+00 -0.00000000000E+00 -0.82438067359E+03  0.82438067359E+03  0.00000000000E+00 0. -1.
         21    1    1    2  503  501  0.39412637304E+02 -0.75458062254E+02 -0.30789377601E+03  0.31944616517E+03  0.00000000000E+00 0. -1.
         21    1    1    2  504  502 -0.56471866359E+02  0.10354599795E+03 -0.27571485850E+03  0.29988252463E+03  0.00000000000E+00 0. -1.
         21    1    1    2  505  504 -0.44201596726E+02  0.26322899395E+02 -0.82073104277E+02  0.96864186526E+02  0.00000000000E+00 0.  1.
         21    1    1    2  506  503  0.61260825781E+02 -0.54410835088E+02 -0.12086606836E+03  0.14602066371E+03  0.00000000000E+00 0.  1.
<scales pt_clust_3="74.86460" pt_clust_4="171.45182" pt_clust_5="32.31899" pt_clust_6="74.86460"></scales>
<clustering>
<clus scale="   32.319">  4  5 -1 -1</clus>
<clus scale="   74.865">  3  6 -1 -1</clus>
<clus scale="  171.452">  1  4  2 -1</clus>
<clus scale="  171.452">  1  3  2 -1</clus>
</clustering>
</event>
<event>
 6    0  0.1869243E+003  0.1419280E+03  0.7546771E-02  0.1210758E+00
         21   -1    0    0  506  501  0.00000000000E+00  0.00000000000E+00  0.11758395806E+04  0.11758395806E+04  0.00000000000E+00 0. -1.
         21   -1    0    0  505  502 -0.00000000000E+00 -0.00000000000E+00 -0.55518320389E+03  0.55518320389E+03  0.00000000000E+00 0. -1.
         21    1    1    2  503  502  0.36615199020E+02  0.13949615852E+03 -0.53063751494E+03  0.54988728236E+03  0.00000000000E+00 0. -1.
         21    1    1    2  504  501 -0.10993059810E+02 -0.40115261664E+02  0.63733415731E+03  0.63868999496E+03  0.00000000000E+00 0. -1.
         21    1    1    2  505  504 -0.53979865547E+02 -0.30784399058E+02  0.41013731026E+03  0.41481817508E+03  0.00000000000E+00 0. -1.
         21    1    1    2  506  503  0.28357726337E+02 -0.68596497799E+02  0.10382242402E+03  0.12762733204E+03  0.00000000000E+00 0. -1.
<scales pt_clust_3="141.92802" pt_clust_4="41.59425" pt_clust_5="14000.00000" pt_clust_6="81.48489"></scales>
<clustering>
<clus scale="   41.594">  1  4  2 -1</clus>
<clus scale="   81.485">  1  6  2 -1</clus>
<clus scale="  141.928">  2  3  1 -1</clus>
<clus scale="   41.594">  1  3  2 -1</clus>
</clustering>
</event>
<event>
 6    0  0.8641190E+002  0.1353454E+03  0.7546771E-02  0.1219733E+00
         21   -1    0    0  503  501  0.00000000000E+00  0.00000000000E+00  0.15914709239E+03  0.15914709239E+03  0.00000000000E+00 0. -1.
         21   -1    0    0  506  502 -0.00000000000E+00 -0.00000000000E+00 -0.30432699306E+03  0.30432699306E+03  0.00000000000E+00 0. -1.
         21    1    1    2  503  505 -0.35831727431E+02 -0.72180602182E+02 -0.87707855953E+01  0.81060956706E+02  0.00000000000E+00 0. -1.
         21    1    1    2  504  501  0.29871164336E+02  0.63627600611E+02 -0.62798722199E+00  0.70293331023E+02  0.00000000000E+00 0.  1.
         21    1    1    2  505  502 -0.67048714886E+02 -0.85788757811E+02  0.25196197745E+02  0.11175906905E+03  0.00000000000E+00 0. -1.
         21    1    1    2  506  504  0.73009277981E+02  0.94341759383E+02 -0.16097732560E+03  0.20036072867E+03  0.00000000000E+00 0. -1.
<scales pt_clust_3="31.85507" pt_clust_4="70.29053" pt_clust_5="31.85507" pt_clust_6="130.18180"></scales>
<clustering>
<clus scale="   31.855">  3  5 -1 -1</clus>
<clus scale="   70.291">  1  4  2 -1</clus>
<clus scale="  130.182">  2  6  1 -1</clus>
<clus scale="   70.291">  1  3  2 -1</clus>
</clustering>
</event>
<event>
 6    0  0.8641190E+002  0.7047692E+02  0.7546771E-02  0.1358479E+00
         21   -1    0    0  504  501  0.00000000000E+00  0.00000000000E+00  0.65804605412E+03  0.65804605412E+03  0.00000000000E+00 0.  1.
         21   -1    0    0  505  502 -0.00000000000E+00 -0.00000000000E+00 -0.55900961636E+02  0.55900961636E+02  0.00000000000E+00 0. -1.
         21    1    1    2  503  506 -0.88873950719E+02 -0.42095044087E+02  0.18491451000E+03  0.20943721700E+03  0.00000000000E+00 0.  1.
         21    1    1    2  504  503 -0.26614533442E+02  0.35422438509E+02  0.35013709839E+03  0.35292927083E+03  0.00000000000E+00 0.  1.
         21    1    1    2  505  501  0.48967892669E+02  0.23832722014E+02  0.62252716210E+02  0.82711872344E+02  0.00000000000E+00 0. -1.
         21    1    1    2  506  502  0.66520591493E+02 -0.17160116436E+02  0.48407678805E+01  0.68868655587E+02  0.00000000000E+00 0. -1.
<scales pt_clust_3="14000.00000" pt_clust_4="44.30669" pt_clust_5="53.46517" pt_clust_6="70.47692"></scales>
<clustering>
<clus scale="   44.307">  1  4  2 -1</clus>
<clus scale="   53.465">  1  5  2 -1</clus>
<clus scale="   70.477">  2  6  1 -1</clus>
<clus scale="   44.307">  1  3  2 -1</clus>
</clustering>
</event>
<event>
 6    0  0.8641190E+002  0.1847410E+03  0.7546771E-02  0.1163292E+00
         21   -1    0    0  504  501  0.00000000000E+00  0.00000000000E+00  0.76820327951E+03  0.76820327951E+03  0.00000000000E+00 0. -1.
         21   -1    0    0  505  502 -0.00000000000E+00 -0.00000000000E+00 -0.40262939744E+03  0.40262939744E+03  0.00000000000E+00 0.  1.
         21    1    1    2  503  501  0.20579394460E+03 -0.24417633977E+02  0.66714884158E+03  0.69859497945E+03  0.00000000000E+00 0. -1.
         21    1    1    2  504  502 -0.29980682597E+02 -0.32969239974E+02 -0.42585586590E+02  0.61638821360E+02  0.00000000000E+00 0.  1.
         21    1    1    2  505  506 -0.64758940821E+02  0.17501102086E+02 -0.28243525427E+03  0.29029240749E+03  0.00000000000E+00 0.  1.
         21    1    1    2  506  503 -0.11105432118E+03  0.39885771865E+02  0.23445881342E+02  0.12030646866E+03  0.00000000000E+00 0.  1.
<scales pt_clust_3="184.74096" pt_clust_4="44.56245" pt_clust_5="89.74961" pt_clust_6="14000.00000"></scales>
<clustering>
<clus scale="   44.562">  2  4  1 -1</clus>
<clus scale="   89.750">  2  5  1 -1</clus>
<clus scale="  184.741">  1  3  2 -1</clus>
<clus scale="  184.741">  1  3  2 -1</clus>
</clustering>
</event>
<event>
 6    0  0.8641190E+002  0.1051201E+03  0.7546771E-02  0.1269883E+00
         21   -1    0    0  503  501  0.00000000000E+00  0.00000000000E+00  0.15830143232E+03  0.15830143232E+03  0.00000000000E+00 0.  1.
         21   -1    0    0  505  502 -0.00000000000E+00 -0.00000000000E+00 -0.65587220137E+03  0.65587220137E+03  0.00000000000E+00 0.  1.
         21    1    1    2  503  504 -0.36280950581E+02  0.74409874275E+02 -0.18858300772E+03  0.20595311983E+03  0.00000000000E+00 0.  1.
         21    1    1    2  504  502  0.41516569781E+02  0.10351350139E+02 -0.23393238841E+03  0.23781324261E+03  0.00000000000E+00 0. -1.
         21    1    1    2  505  506 -0.53829004488E+02  0.11004310710E+02 -0.19898033073E+03  0.20642632729E+03  0.00000000000E+00 0.  1.
         21    1    1    2  506  501  0.48593385287E+02 -0.95765535124E+02  0.12392495782E+03  0.16398094396E+03  0.00000000000E+00 0.  1.
<scales pt_clust_3="105.12007" pt_clust_4="42.78757" pt_clust_5="37.38852" pt_clust_6="14000.00000"></scales>
<clustering>
<clus scale="   42.788">  2  4  1 -1</clus>
<clus scale="   37.389">  2  5  1 -1</clus>
<clus scale="  105.120">  2  3  1 -1</clus>
<clus scale="  105.120">  1  3  2 -1</clus>
</clustering>
</event>
<event>
 6    0  0.8641190E+002  0.1794848E+03  0.7546771E-02  0.1168303E+00
         21   -1    0    0  506  501  0.00000000000E+00  0.00000000000E+00  0.11548479742E+03  0.11548479742E+03  0.00000000000E+00 0. -1.
         21   -1    0    0  503  502 -0.00000000000E+00 -0.00000000000E+00 -0.54046955736E+03  0.54046955736E+03  0.00000000000E+00 0. -1.
         21    1    1    2  503  505 -0.10382053072E+03  0.13969216351E+03 -0.12926230721E+03  0.21679794097E+03  0.00000000000E+00 0. -1.
         21    1    1    2  504  502  0.15813385177E+03 -0.10139540396E+03 -0.26972307021E+03  0.32869115842E+03  0.00000000000E+00 0. -1.
         21    1    1    2  505  501 -0.68243719897E+02 -0.43262675567E+01 -0.27537445397E+02  0.73717248968E+02  0.00000000000E+00 0.  1.
         21    1    1    2  506  504  0.13930398856E+02 -0.33970491991E+02  0.15380628760E+01  0.36748006420E+02  0.00000000000E+00 0. -1.
<scales pt_clust_3="14000.00000" pt_clust_4="179.48478" pt_clust_5="66.09172" pt_clust_6="36.71581"></scales>
<clustering>
<clus scale="   36.716">  1  6  2 -1</clus>
<clus scale="   66.092">  1  5  2 -1</clus>
<clus scale="  179.485">  2  4  1 -1</clus>
<clus scale="   36.716">  1  3  2 -1</clus>
</clustering>
</event>
<event>
 6    0  0.8641190E+002  0.7840108E+02  0.7546771E-02  0.1333651E+00
         21   -1    0    0  506  501  0.00000000000E+00  0.00000000000E+00  0.52265072678E+03  0.52265072678E+03  0.00000000000E+00 0. -1.
         21   -1    0    0  505  502 -0.00000000000E+00 -0.00000000000E+00 -0.41813476338E+02  0.41813476338E+02  0.00000000000E+00 0. -1.
         21    1    1    2  503  504 -0.54474007238E+02 -0.39894244765E+02  0.10088953336E+03  0.12139878983E+03  0.00000000000E+00 0. -1.
         21    1    1    2  504  501 -0.96733809526E+01 -0.44598996478E+02  0.24892004428E+03  0.25306883101E+03  0.00000000000E+00 0. -1.
         21    1    1    2  505  503 -0.16270089030E+02  0.44950463993E+02  0.41133443938E+02  0.63065206100E+02  0.00000000000E+00 0. -1.
         21    1    1    2  506  502  0.80417477221E+02  0.39542777249E+02  0.89894228865E+02  0.12693137618E+03  0.00000000000E+00 0. -1.
<scales pt_clust_3="14000.00000" pt_clust_4="45.63600" pt_clust_5="40.66048" pt_clust_6="78.40108"></scales>
<clustering>
<clus scale="   45.636">  1  4  2 -1</clus>
<clus scale="   40.660">  2  5  1 -1</clus>
<clus scale="   78.401">  1  6  2 -1</clus>
<clus scale="   45.636">  1  3  2 -1</clus>
</clustering>
</event>
<event>
 6    0  0.8641190E+002  0.1401792E+03  0.7546771E-02  0.1213088E+00
         21   -1    0    0  503  501  0.00000000000E+00  0.00000000000E+00  0.49096812585E+03  0.49096812585E+03  0.00000000000E+00 0.  1.
         21   -1    0    0  505  502 -0.00000000000E+00 -0.00000000000E+00 -0.24315088941E+03  0.24315088941E+03  0.00000000000E+00 0.  1.
         21    1    1    2  503  506  0.11742920554E+02  0.12813445554E+03  0.38335628687E+03  0.40437405649E+03  0.00000000000E+00 0.  1.
         21    1    1    2  504  502  0.63063294345E+02 -0.50135127021E+02 -0.46806159516E+01  0.80699555269E+02  0.00000000000E+00 0.  1.
         21    1    1    2  505  501 -0.89498165903E+02 -0.32157575217E+01 -0.14606149293E+03  0.17133074013E+03  0.00000000000E+00 0.  1.
         21    1    1    2  506  504  0.14691951005E+02 -0.74783570999E+02  0.15203058456E+02  0.77714663366E+02  0.00000000000E+00 0.  1.
<scales pt_clust_3="127.73575" pt_clust_4="56.15828" pt_clust_5="89.55592" pt_clust_6="56.15828"></scales>
<clustering>
<clus scale="   56.158">  4  6 -1 -1</clus>
<clus scale="   89.556">  2  5  1 -1</clus>
<clus scale="  127.736">  1  3  2 -1</clus>
<clus scale="  127.736">  1  3  2 -1</clus>
</clustering>
</event>
<event>
 6    0  0.8641190E+002  0.1852551E+03  0.7546771E-02  0.1162812E+00
         21   -1    0    0  504  501  0.00000000000E+00  0.00000000000E+00  0.16424854534E+04  0.16424854534E+04  0.00000000000E+00 0.  1.
         21   -1    0    0  505  502 -0.00000000000E+00 -0.00000000000E+00 -0.73379512444E+02  0.73379512444E+02  0.00000000000E+00 0. -1.
         21    1    1    2  503  502 -0.15682582914E+03 -0.65034852263E+02  0.74797229137E+02  0.18552223096E+03  0.00000000000E+00 0. -1.
         21    1    1    2  504  503  0.17023645702E+03  0.77730991853E+02  0.12978394413E+04  0.13112626639E+04  0.00000000000E+00 0.  1.
         21    1    1    2  505  506  0.40671089160E+02 -0.12843193739E+02  0.93654544632E+02  0.10290898333E+03  0.00000000000E+00 0.  1.
         21    1    1    2  506  501 -0.54081717040E+02  0.14705414926E+00  0.10281472583E+03  0.11617108758E+03  0.00000000000E+00 0.  1.
<scales pt_clust_3="185.25510" pt_clust_4="14000.00000" pt_clust_5="42.65073" pt_clust_6="50.14325"></scales>
<clustering>
<clus scale="   42.651">  2  5  1 -1</clus>
<clus scale="   50.143">  2  6  1 -1</clus>
<clus scale="  185.255">  2  3  1 -1</clus>
<clus scale="  185.255">  1  3  2 -1</clus>
</clustering>
</event>
<event>
 6    0  0.8641190E+002  0.1214292E+03  0.7546771E-02  0.1240758E+00
         21   -1    0    0  505  501  0.00000000000E+00  0.00000000000E+00  0.16987163485E+04  0.16987163485E+04  0.00000000000E+00 0.  1.
         21   -1    0    0  504  502 -0.00000000000E+00 -0.00000000000E+00 -0.29447536199E+02  0.29447536199E+02  0.00000000000E+00 0.  1.
         21    1    1    2  503  501 -0.24117070589E+02 -0.23437533296E+02  0.10347518441E+04  0.10352981841E+04  0.00000000000E+00 0.  1.
         21    1    1    2  504  503  0.15822013015E+02 -0.11667211526E+03  0.24336551003E+03  0.27035067976E+03  0.00000000000E+00 0.  1.
         21    1    1    2  505  506 -0.19256188069E+02  0.12732567120E+03  0.33002484337E+03  0.35425841496E+03  0.00000000000E+00 0.  1.
         21    1    1    2  506  502  0.27551245643E+02  0.12783977351E+02  0.61126614723E+02  0.68256605841E+02  0.00000000000E+00 0. -1.
<scales pt_clust_3="33.32722" pt_clust_4="14000.00000" pt_clust_5="121.42918" pt_clust_6="30.37271"></scales>
<clustering>
<clus scale="   30.373">  2  6  1 -1</clus>
<clus scale="   33.327">  1  3  2 -1</clus>
<clus scale="  121.429">  1  5  2 -1</clus>
<clus scale="   33.327">  1  3  2 -1</clus>
</clustering>
</event>
<event>
 6    0  0.8641190E+002  0.1821983E+03  0.7546771E-02  0.1165692E+00
         21   -1    0    0  506  501  0.00000000000E+00  0.00000000000E+00  0.49844136262E+03  0.49844136262E+03  0.00000000000E+00 0.  1.
         21   -1    0    0  504  502 -0.00000000000E+00 -0.00000000000E+00 -0.21587675725E+03  0.21587675725E+03  0.00000000000E+00 0.  1.
         21    1    1    2  503  502 -0.10851205091E+02  0.29290262773E+02 -0.77450416874E+01  0.32181575723E+02  0.00000000000E+00 0.  1.
         21    1    1    2  504  501  0.16063579586E+03 -0.65831019468E+02  0.30608357429E+03  0.35188739177E+03  0.00000000000E+00 0.  1.
         21    1    1    2  505  503  0.88609023496E+02  0.20420950729E+02 -0.49267762204E+01  0.91065072325E+02  0.00000000000E+00 0.  1.
         21    1    1    2  506  505 -0.23839361427E+03  0.16119805966E+02 -0.10847151013E+02  0.23918408006E+03  0.00000000000E+00 0.  1.
<scales pt_clust_3="31.23569" pt_clust_4="14000.00000" pt_clust_5="90.27229" pt_clust_6="182.19834"></scales>
<clustering>
<clus scale="   31.236">  2  3  1 -1</clus>
<clus scale="   90.272">  2  5  1 -1</clus>
<clus scale="  182.198">  2  6  1 -1</clus>
<clus scale="  182.198">  1  3  2 -1</clus>
</clustering>
</event>
<event>
 6    0  0.8641190E+002  0.7177099E+02  0.7546771E-02  0.1354172E+00
         21   -1    0    0  506  501  0.00000000000E+00  0.00000000000E+00  0.21723601722E+02  0.21723601722E+02  0.00000000000E+00 0. -1.
         21   -1    0    0  503  502 -0.00000000000E+00 -0.00000000000E+00 -0.14258406372E+04  0.14258406372E+04  0.00000000000E+00 0.  1.
         21    1    1    2  503  501 -0.18347201968E+02  0.60776123961E+02 -0.52282557343E+03  0.52666586874E+03  0.00000000000E+00 0.  1.
         21    1    1    2  504  502  0.17185662948E+02 -0.40697468787E+02 -0.43056121591E+03  0.43282166261E+03  0.00000000000E+00 0.  1.
         21    1    1    2  505  504 -0.35920222448E+02 -0.78008162852E+02 -0.37935230155E+03  0.38895205944E+03  0.00000000000E+00 0.  1.
         21    1    1    2  506  505  0.37081761468E+02  0.57929507677E+02 -0.71377944577E+02  0.99124648122E+02  0.00000000000E+00 0. -1.
<scales pt_clust_3="40.37464" pt_clust_4="44.17727" pt_clust_5="14000.00000" pt_clust_6="71.77099"></scales>
<clustering>
<clus scale="   44.177">  2  4  1 -1</clus>
<clus scale="   40.375">  2  3  1 -1</clus>
<clus scale="   71.771">  1  6  2 -1</clus>
<clus scale="   71.771">  1  3  2 -1</clus>
</clustering>
</event>
<event>
 6    0  0.8641190E+002  0.2093336E+03  0.7546771E-02  0.1142095E+00
         21   -1    0    0  504  501  0.00000000000E+00  0.00000000000E+00  0.38733300133E+03  0.38733300133E+03  0.00000000000E+00 0.  1.
         21   -1    0    0  506  502 -0.00000000000E+00 -0.00000000000E+00 -0.14069369444E+04  0.14069369444E+04  0.00000000000E+00 0. -1.
         21    1    1    2  503  502  0.25385908069E+02  0.20628040391E+02 -0.32180590441E+03  0.32346406368E+03  0.00000000000E+00 0.  1.
         21    1    1    2  504  503 -0.10803105022E+03  0.12149267901E+03 -0.76227236727E+03  0.77941666698E+03  0.00000000000E+00 0. -1.
         21    1    1    2  505  501 -0.55247644736E+02 -0.20700665079E+03  0.32517491892E+03  0.38941338397E+03  0.00000000000E+00 0.  1.
         21    1    1    2  506  505  0.13789278689E+03  0.64885931392E+02 -0.26070059027E+03  0.30197583105E+03  0.00000000000E+00 0. -1.
<scales pt_clust_3="32.71025" pt_clust_4="209.33359" pt_clust_5="14000.00000" pt_clust_6="160.64787"></scales>
<clustering>
<clus scale="   32.710">  2  3  1 -1</clus>
<clus scale="  160.648">  2  6  1 -1</clus>
<clus scale="  209.334">  2  4  1 -1</clus>
<clus scale="  209.334">  1  3  2 -1</clus>
</clustering>
</event>
<event>
 6    0  0.8641190E+002  0.9105288E+02  0.7546771E-02  0.1300322E+00
         21   -1    0    0  503  501  0.00000000000E+00  0.00000000000E+00  0.67440898409E+03  0.67440898409E+03  0.00000000000E+00 0. -1.
         21   -1    0    0  505  502 -0.00000000000E+00 -0.00000000000E+00 -0.38222056855E+03  0.38222056855E+03  0.00000000000E+00 0.  1.
         21    1    1    2  503  506  0.18987026620E+02  0.88609049300E+02  0.62117411950E+03  0.62774943850E+03  0.00000000000E+00 0. -1.
         21    1    1    2  504  502 -0.32068254235E+02  0.10518049960E+02 -0.58724985194E+01  0.34256219049E+02  0.00000000000E+00 0. -1.
         21    1    1    2  505  501  0.12419948373E+02 -0.14112035228E+03 -0.32291665273E+03  0.35262497580E+03  0.00000000000E+00 0.  1.
         21    1    1    2  506  504  0.66127924216E+00  0.41993253021E+02 -0.19655270683E+00  0.41998919301E+02  0.00000000000E+00 0. -1.
<scales pt_clust_3="91.05288" pt_clust_4="33.74911" pt_clust_5="14000.00000" pt_clust_6="42.62308"></scales>
<clustering>
<clus scale="   33.749">  2  4  1 -1</clus>
<clus scale="   42.623">  2  6  1 -1</clus>
<clus scale="   91.053">  1  3  2 -1</clus>
<clus scale="   91.053">  1  3  2 -1</clus>
</clustering>
</event>
<event>
 6    0  0.8641190E+002  0.9970915E+02  0.7546771E-02  0.1280909E+00
         21   -1    0    0  505  501  0.00000000000E+00  0.00000000000E+00  0.49993023210E+03  0.49993023210E+03  0.00000000000E+00 0.  1.
         21   -1    0    0  506  502 -0.00000000000E+00 -0.00000000000E+00 -0.15085816625E+03  0.15085816625E+03  0.00000000000E+00 0.  1.
         21    1    1    2  503  502  0.48871763886E+02  0.47381828599E-01  0.42896670326E+01  0.49059686033E+02  0.00000000000E+00 0.  1.
         21    1    1    2  504  503  0.69712139269E+02  0.21855179963E+02 -0.71664702183E+02  0.10233895051E+03  0.00000000000E+00 0.  1.
         21    1    1    2  505  504 -0.75256285154E+02  0.73259452585E+02  0.37064299848E+03  0.38523588640E+03  0.00000000000E+00 0.  1.
         21    1    1    2  506  501 -0.43327618001E+02 -0.95162014377E+02  0.45804102528E+02  0.11415387541E+03  0.00000000000E+00 0.  1.
<scales pt_clust_3="48.87179" pt_clust_4="99.70915" pt_clust_5="14000.00000" pt_clust_6="99.86570"></scales>
<clustering>
<clus scale="   48.872">  2  3  1 -1</clus>
<clus scale="   99.866">  2  6  1 -1</clus>
<clus scale="   99.709">  2  4  1 -1</clus>
<clus scale="   99.709">  1  3  2 -1</clus>
</clustering>
</event>
<event>
 6    0  0.8641190E+002  0.1066159E+03  0.7546771E-02  0.1266968E+00
         21   -1    0    0  502  501  0.00000000000E+00  0.00000000000E+00  0.49499185811E+03  0.49499185811E+03  0.00000000000E+00 0. -1.
         21   -1    0    0  505  502 -0.00000000000E+00 -0.00000000000E+00 -0.23864999812E+03  0.23864999812E+03  0.00000000000E+00 0. -1.
         21    1    1    2  503  504 -0.48750175103E+02 -0.15948806367E+02  0.82429578649E+01  0.51950845532E+02  0.00000000000E+00 0. -1.
         21    1    1    2  504  506 -0.30383339019E+02 -0.64762669370E+02 -0.92999507557E+01  0.72137644249E+02  0.00000000000E+00 0. -1.
         21    1    1    2  505  503  0.80968364707E+02  0.40930439373E+02 -0.16338751782E+03  0.18688675161E+03  0.00000000000E+00 0. -1.
         21    1    1    2  506  501 -0.18348505855E+01  0.39781036364E+02  0.42078637070E+03  0.42266661483E+03  0.00000000000E+00 0. -1.
<scales pt_clust_3="47.71255" pt_clust_4="47.71255" pt_clust_5="93.52306" pt_clust_6="39.82333"></scales>
<clustering>
<clus scale="   39.823">  1  6  2 -1</clus>
<clus scale="   47.713">  3  4 -1 -1</clus>
<clus scale="   93.523">  2  5  1 -1</clus>
<clus scale="   39.823">  1  3  2 -1</clus>
</clustering>
</event>
<event>
 6    0  0.8641190E+002  0.1259472E+03  0.7546771E-02  0.1233596E+00
         21   -1    0    0  506  501  0.00000000000E+00  0.00000000000E+00  0.37411324554E+03  0.37411324554E+03  0.00000000000E+00 0. -1.
         21   -1    0    0  505  502 -0.00000000000E+00 -0.00000000000E+00 -0.91769157283E+02  0.91769157283E+02  0.00000000000E+00 0. -1.
         21    1    1    2  503  504 -0.28621503796E+02  0.66135502516E+02  0.75478664874E+02  0.10435575702E+03  0.00000000000E+00 0. -1.
         21    1    1    2  504  502 -0.55449795461E+02  0.42498621665E+02  0.18952734626E+02  0.72387974208E+02  0.00000000000E+00 0. -1.
         21    1    1    2  505  501  0.86894516870E+02  0.84035838875E+00  0.20821019954E+02  0.89358145327E+02  0.00000000000E+00 0. -1.
         21    1    1    2  506  503 -0.28232176136E+01 -0.10947448257E+03  0.16709166880E+03  0.19978052627E+03  0.00000000000E+00 0. -1.
<scales pt_clust_3="57.84729" pt_clust_4="57.84729" pt_clust_5="86.89858" pt_clust_6="111.40464"></scales>
<clustering>
<clus scale="   57.847">  3  4 -1 -1</clus>
<clus scale="   86.899">  2  5  1 -1</clus>
<clus scale="  111.405">  1  6  2 -1</clus>
<clus scale="  111.405">  1  3  2 -1</clus>
</clustering>
</event>
<event>
 6    0  0.8641190E+002  0.1469611E+03  0.7546771E-02  0.1204258E+00
         21   -1    0    0  504  501  0.00000000000E+00  0.00000000000E+00  0.18361975394E+03  0.18361975394E+03  0.00000000000E+00 0.  1.
         21   -1    0    0  506  502 -0.00000000000E+00 -0.00000000000E+00 -0.33390013246E+03  0.33390013246E+03  0.00000000000E+00 0.  1.
         21    1    1    2  503  501 -0.51248622721E+02 -0.23477485887E+02  0.32185757489E+02  0.64911760564E+02  0.00000000000E+00 0.  1.
         21    1    1    2  504  505  0.74061493433E+02  0.69702548283E+02 -0.49083282905E+02  0.11292793590E+03  0.00000000000E+00 0.  1.
         21    1    1    2  505  502  0.26280342525E+02  0.52578261740E+02 -0.20158069352E+03  0.20997596531E+03  0.00000000000E+00 0.  1.
         21    1    1    2  506  503 -0.49093213237E+02 -0.98803324136E+02  0.68197840418E+02  0.12970422462E+03  0.00000000000E+00 0.  1.
<scales pt_clust_3="37.67077" pt_clust_4="137.18651" pt_clust_5="58.78035" pt_clust_6="37.67077"></scales>
<clustering>
<clus scale="   37.671">  3  6 -1 -1</clus>
<clus scale="   58.780">  2  5  1 -1</clus>
<clus scale="  137.187">  2  4  1 -1</clus>
<clus scale="  146.961">  1  3  2 -1</clus>
</clustering>
</event>
<event>
 6    0  0.8641190E+002  0.1195460E+03  0.7546771E-02  0.1243848E+00
         21   -1    0    0  503  501  0.00000000000E+00  0.00000000000E+00  0.12233155712E+04  0.12233155712E+04  0.00000000000E+00 0.  1.
         21   -1    0    0  506  502 -0.00000000000E+00 -0.00000000000E+00 -0.11543931412E+03  0.11543931412E+03  0.00000000000E+00 0.  1.
         21    1    1    2  503  502  0.12511121507E+03  0.10068893769E+02  0.77387745905E+03  0.78399012773E+03  0.00000000000E+00 0.  1.
         21    1    1    2  504  501  0.29981776195E+02 -0.44162147953E+02  0.15107358398E+03  0.16022618385E+03  0.00000000000E+00 0. -1.
         21    1    1    2  505  504 -0.65420409448E+02 -0.47241285613E+02  0.24538455353E+03  0.25831211383E+03  0.00000000000E+00 0.  1.
         21    1    1    2  506  505 -0.89672581813E+02  0.81334539797E+02 -0.62459339471E+02  0.13622645991E+03  0.00000000000E+00 0.  1.
<scales pt_clust_3="119.54604" pt_clust_4="53.37792" pt_clust_5="82.03054" pt_clust_6="14000.00000"></scales>
<clustering>
<clus scale="   53.378">  1  4  2 -1</clus>
<clus scale="   82.031">  1  5  2 -1</clus>
<clus scale="  119.546">  1  3  2 -1</clus>
<clus scale="   53.378">  1  3  2 -1</clus>
</clustering>
</event>
<event>
 6    0  0.8641190E+002  0.8832851E+02  0.7546771E-02  0.1306951E+00
         21   -1    0    0  504  501  0.00000000000E+00  0.00000000000E+00  0.57678708665E+03  0.57678708665E+03  0.00000000000E+00 0.  1.
         21   -1    0    0  503  502 -0.00000000000E+00 -0.00000000000E+00 -0.18955451183E+03  0.18955451183E+03  0.00000000000E+00 0.  1.
         21    1    1    2  503  505 -0.50135427929E+02  0.17919125531E+02 -0.43793959089E+02  0.68938864554E+02  0.00000000000E+00 0.  1.
         21    1    1    2  504  506  0.72475168333E+02  0.48981317864E+02  0.49278435871E+03  0.50048800556E+03  0.00000000000E+00 0.  1.
         21    1    1    2  505  501 -0.65353495370E+02 -0.10211646877E+03 -0.71092748559E+02  0.14054547823E+03  0.00000000000E+00 0.  1.
         21    1    1    2  506  502  0.43013754966E+02  0.35216025379E+02  0.93349237558E+01  0.56369250140E+02  0.00000000000E+00 0.  1.
<scales pt_clust_3="53.24149" pt_clust_4="88.32851" pt_clust_5="14000.00000" pt_clust_6="51.38112"></scales>
<clustering>
<clus scale="   53.241">  2  3  1 -1</clus>
<clus scale="   51.381">  2  6  1 -1</clus>
<clus scale="   88.329">  1  4  2 -1</clus>
<clus scale="   88.329">  1  3  2 -1</clus>
</clustering>
</event>
<event>
 6    0  0.8641190E+002  0.1407248E+03  0.7546771E-02  0.1212357E+00
         21   -1    0    0  505  501  0.00000000000E+00  0.00000000000E+00  0.10244857748E+04  0.10244857748E+04  0.00000000000E+00 0. -1.
         21   -1    0    0  503  502 -0.00000000000E+00 -0.00000000000E+00 -0.59896372067E+03  0.59896372067E+03  0.00000000000E+00 0.  1.
         21    1    1    2  503  504 -0.19960904238E+02  0.37497167439E+02 -0.53169793202E+02  0.68055140681E+02  0.00000000000E+00 0. -1.
         21    1    1    2  504  501 -0.14415464053E+02  0.35109090140E+02  0.84628060738E+03  0.84713122965E+03  0.00000000000E+00 0. -1.
         21    1    1    2  505  506  0.10971215671E+03 -0.13884856405E+03  0.11782020002E+03  0.21259652067E+03  0.00000000000E+00 0. -1.
         21    1    1    2  506  502 -0.75335788418E+02  0.66242306468E+02 -0.48540896011E+03  0.49566660442E+03  0.00000000000E+00 0.  1.
<scales pt_clust_3="44.06043" pt_clust_4="37.95331" pt_clust_5="140.72476" pt_clust_6="14000.00000"></scales>
<clustering>
<clus scale="   37.953">  1  4  2 -1</clus>
<clus scale="   44.060">  2  3  1 -1</clus>
<clus scale="  140.725">  1  5  2 -1</clus>
<clus scale="   37.953">  1  3  2 -1</clus>
</clustering>
</event>
<event>
 6    0  0.8641190E+002  0.1263227E+03  0.7546771E-02  0.1233016E+00
         21   -1    0    0  502  501  0.00000000000E+00  0.00000000000E+00  0.32773318240E+03  0.32773318240E+03  0.00000000000E+00 0.  1.
         21   -1    0    0  504  502 -0.00000000000E+00 -0.00000000000E+00 -0.16648870676E+03  0.16648870676E+03  0.00000000000E+00 0.  1.
         21    1    1    2  503  505 -0.63506824469E+02  0.24686246459E+02  0.18790288384E+02  0.70679575946E+02  0.00000000000E+00 0.  1.
         21    1    1    2  504  506 -0.85541342158E+01 -0.31752747642E+02 -0.82703043692E+02  0.89001143987E+02  0.00000000000E+00 0.  1.
         21    1    1    2  505  501  0.11542970044E+03 -0.22473319760E+02  0.25015521281E+03  0.27641761221E+03  0.00000000000E+00 0.  1.
         21    1    1    2  506  503 -0.43368741755E+02  0.29539820943E+02 -0.24997981868E+02  0.58123557016E+02  0.00000000000E+00 0.  1.
<scales pt_clust_3="39.99414" pt_clust_4="32.88480" pt_clust_5="117.33953" pt_clust_6="39.99414"></scales>
<clustering>
<clus scale="   32.885">  2  4  1 -1</clus>
<clus scale="   39.994">  3  6 -1 -1</clus>
<clus scale="  117.340">  1  5  2 -1</clus>
<clus scale="  117.340">  1  3  2 -1</clus>
</clustering>
</event>
<event>
 6    0  0.8641190E+002  0.9073143E+02  0.7546771E-02  0.1301090E+00
         21   -1    0    0  505  501  0.00000000000E+00  0.00000000000E+00  0.57136571483E+02  0.57136571483E+02  0.00000000000E+00 0. -1.
         21   -1    0    0  506  502 -0.00000000000E+00 -0.00000000000E+00 -0.92170481967E+03  0.92170481967E+03  0.00000000000E+00 0. -1.
         21    1    1    2  503  501 -0.17348369861E+02  0.38773541593E+02  0.22148196172E+02  0.47905073407E+02  0.00000000000E+00 0. -1.
         21    1    1    2  504  503  0.44357492556E+02 -0.67553952234E+02 -0.19854348001E+03  0.21436099707E+03  0.00000000000E+00 0. -1.
         21    1    1    2  505  502 -0.96468626939E+02 -0.26735894445E+02 -0.24670086234E+03  0.26623733681E+03  0.00000000000E+00 0. -1.
         21    1    1    2  506  504  0.69459504245E+02  0.55516305085E+02 -0.44147210201E+03  0.45033798386E+03  0.00000000000E+00 0. -1.
<scales pt_clust_3="42.47768" pt_clust_4="65.86052" pt_clust_5="14000.00000" pt_clust_6="90.73143"></scales>
<clustering>
<clus scale="   42.478">  1  3  2 -1</clus>
<clus scale="   65.861">  1  4  2 -1</clus>
<clus scale="   90.731">  2  6  1 -1</clus>
<clus scale="   42.478">  1  3  2 -1</clus>
</clustering>
</event>
<event>
 6    0  0.8641190E+002  0.2837778E+03  0.7546771E-02  0.1093643E+00
         21   -1    0    0  502  501  0.00000000000E+00  0.00000000000E+00  0.45281924295E+03  0.45281924295E+03  0.00000000000E+00 0.  1.
         21   -1    0    0  506  502 -0.00000000000E+00 -0.00000000000E+00 -0.15433313210E+04  0.15433313210E+04  0.00000000000E+00 0.  1.
         21    1    1    2  503  504 -0.23846886062E+03 -0.13059332733E+03 -0.38485795673E+03  0.47120872390E+03  0.00000000000E+00 0.  1.
         21    1    1    2  504  501  0.26611303518E+02 -0.37376256375E+02  0.39018302722E+03  0.39287140485E+03  0.00000000000E+00 0.  1.
         21    1    1    2  505  503  0.16018012049E+02  0.32231804781E+02 -0.67597420893E+02  0.76582486645E+02  0.00000000000E+00 0. -1.
         21    1    1    2  506  505  0.19583954505E+03  0.13573777892E+03 -0.10282397277E+04  0.10554879486E+04  0.00000000000E+00 0.  1.
<scales pt_clust_3="270.00523" pt_clust_4="45.88187" pt_clust_5="33.94211" pt_clust_6="33.94211"></scales>
<clustering>
<clus scale="   33.942">  5  6 -1 -1</clus>
<clus scale="   45.882">  1  4  2 -1</clus>
<clus scale="  270.005">  1  3  2 -1</clus>
<clus scale="   45.882">  1  3  2 -1</clus>
</clustering>
</event>
<event>
 6    0  0.8641190E+002  0.1144789E+03  0.7546771E-02  0.1252493E+00
         21   -1    0    0  505  501  0.00000000000E+00  0.00000000000E+00  0.19334012298E+03  0.19334012298E+03  0.00000000000E+00 0. -1.
         21   -1    0    0  506  502 -0.00000000000E+00 -0.00000000000E+00 -0.39965087572E+03  0.39965087572E+03  0.00000000000E+00 0. -1.
         21    1    1    2  503  502 -0.17735874539E+02  0.54714695899E+02 -0.19086134598E+03  0.19933969143E+03  0.00000000000E+00 0. -1.
         21    1    1    2  504  501 -0.10857569597E+03  0.13785286824E+02  0.86124939770E+02  0.13927031679E+03  0.00000000000E+00 0. -1.
         21    1    1    2  505  503  0.13460006083E+03  0.25112442497E+02 -0.42454774654E+02  0.14335347584E+03  0.00000000000E+00 0. -1.
         21    1    1    2  506  504 -0.82884903255E+01 -0.93612425219E+02 -0.59119571883E+02  0.11102751464E+03  0.00000000000E+00 0. -1.
<scales pt_clust_3="57.51747" pt_clust_4="114.47893" pt_clust_5="14000.00000" pt_clust_6="72.56725"></scales>
<clustering>
<clus scale="   57.517">  2  3  1 -1</clus>
<clus scale="   72.567">  2  6  1 -1</clus>
<clus scale="  114.479">  1  4  2 -1</clus>
<clus scale="  114.479">  1  3  2 -1</clus>
</clustering>
</event>
<event>
 6    0  0.8641190E+002  0.9905981E+02  0.7546771E-02  0.1282286E+00
         21   -1    0    0  504  501  0.00000000000E+00  0.00000000000E+00  0.73901680006E+03  0.73901680006E+03  0.00000000000E+00 0. -1.
         21   -1    0    0  505  502 -0.00000000000E+00 -0.00000000000E+00 -0.13313712860E+03  0.13313712860E+03  0.00000000000E+00 0. -1.
         21    1    1    2  503  502 -0.74444399282E+01  0.68902576264E+02 -0.90598986205E+02  0.11406647625E+03  0.00000000000E+00 0. -1.
         21    1    1    2  504  506 -0.23033943953E+02  0.42146236617E+02  0.13758869318E+03  0.14573097243E+03  0.00000000000E+00 0. -1.
         21    1    1    2  505  501 -0.80321579388E+02 -0.31040036667E+02  0.36577043528E+03  0.37576994467E+03  0.00000000000E+00 0. -1.
         21    1    1    2  506  503  0.11079996327E+03 -0.80008776214E+02  0.19311952920E+03  0.23658653531E+03  0.00000000000E+00 0. -1.
<scales pt_clust_3="70.17618" pt_clust_4="48.02986" pt_clust_5="14000.00000" pt_clust_6="99.05981"></scales>
<clustering>
<clus scale="   48.030">  1  4  2 -1</clus>
<clus scale="   70.176">  2  3  1 -1</clus>
<clus scale="   99.060">  2  6  1 -1</clus>
<clus scale="   48.030">  1  3  2 -1</clus>
</clustering>
</event>
<event>
 6    0  0.8641190E+002  0.7272318E+02  0.7546771E-02  0.1351070E+00
         21   -1    0    0  506  501  0.00000000000E+00  0.00000000000E+00  0.57448763071E+02  0.57448763071E+02  0.00000000000E+00 0.  1.
         21   -1    0    0  503  502 -0.00000000000E+00 -0.00000000000E+00 -0.48057991037E+03  0.48057991037E+03  0.00000000000E+00 0. -1.
         21    1    1    2  503  504  0.65374544084E+02  0.35936739174E+01 -0.25193592636E+03  0.26030454567E+03  0.00000000000E+00 0. -1.
         21    1    1    2  504  505  0.14518710665E+02 -0.76796789225E+02 -0.12020578343E+03  0.14338050832E+03  0.00000000000E+00 0. -1.
         21    1    1    2  505  501 -0.26616226596E+02  0.58000670902E+02 -0.46098331314E+02  0.78724567279E+02  0.00000000000E+00 0. -1.
         21    1    1    2  506  502 -0.53277028153E+02  0.15202444405E+02 -0.48911061907E+01  0.55619052172E+02  0.00000000000E+00 0.  1.
<scales pt_clust_3="58.69197" pt_clust_4="72.72318" pt_clust_5="14000.00000" pt_clust_6="55.40357"></scales>
<clustering>
<clus scale="   55.404">  1  6  2 -1</clus>
<clus scale="   58.692">  2  3  1 -1</clus>
<clus scale="   72.723">  2  4  1 -1</clus>
<clus scale="   55.404">  1  3  2 -1</clus>
</clustering>
</event>
<event>
 6    0  0.8641190E+002  0.9615897E+02  0.7546771E-02  0.1288587E+00
         21   -1    0    0  504  501  0.00000000000E+00  0.00000000000E+00  0.23419844800E+03  0.23419844800E+03  0.00000000000E+00 0. -1.
         21   -1    0    0  506  502 -0.00000000000E+00 -0.00000000000E+00 -0.13704775567E+03  0.13704775567E+03  0.00000000000E+00 0. -1.
         21    1    1    2  503  501  0.37992705660E+02  0.88374737123E+01  0.77804014477E+02  0.87034540809E+02  0.00000000000E+00 0. -1.
         21    1    1    2  504  502  0.10695567437E+03 -0.12977887756E+02 -0.29395028937E+02  0.11167815175E+03  0.00000000000E+00 0. -1.
         21    1    1    2  505  503 -0.69743891041E+02 -0.36564718125E+02  0.33930113870E+02  0.85746379378E+02  0.00000000000E+00 0. -1.
         21    1    1    2  506  505 -0.75204488994E+02  0.40705132168E+02  0.14811592921E+02  0.86787131733E+02  0.00000000000E+00 0. -1.
<scales pt_clust_3="39.00701" pt_clust_4="14000.00000" pt_clust_5="63.98108" pt_clust_6="96.15897"></scales>
<clustering>
<clus scale="   39.007">  1  3  2 -1</clus>
<clus scale="   63.981">  1  5  2 -1</clus>
<clus scale="   96.159">  1  6  2 -1</clus>
<clus scale="   39.007">  1  3  2 -1</clus>
</clustering>
</event>
<event>
 6    0  0.8641190E+002  0.9563263E+02  0.7546771E-02  0.1289758E+00
         21   -1    0    0  505  501  0.00000000000E+00  0.00000000000E+00  0.96744649264E+03  0.96744649264E+03  0.00000000000E+00 0. -1.
         21   -1    0    0  504  502 -0.00000000000E+00 -0.00000000000E+00 -0.12203350146E+04  0.12203350146E+04  0.00000000000E+00 0. -1.
         21    1    1    2  503  501 -0.46755391050E+02  0.11432063050E+02 -0.21781982058E+03  0.22307450077E+03  0.00000000000E+00 0. -1.
         21    1    1    2  504  503 -0.39304068473E+02 -0.13512215352E+02 -0.10118648374E+03  0.10938964418E+03  0.00000000000E+00 0. -1.
         21    1    1    2  505  506  0.52475122076E+02  0.71234087679E+02  0.95702165341E+03  0.96110268898E+03  0.00000000000E+00 0. -1.
         21    1    1    2  506  502  0.33584337447E+02 -0.69153935378E+02 -0.89090387100E+03  0.89421467326E+03  0.00000000000E+00 0. -1.
<scales pt_clust_3="34.22865" pt_clust_4="34.22865" pt_clust_5="88.25402" pt_clust_6="76.87766"></scales>
<clustering>
<clus scale="   34.229">  3  4 -1 -1</clus>
<clus scale="   76.878">  2  6  1 -1</clus>
<clus scale="   88.254">  1  5  2 -1</clus>
<clus scale="   88.254">  1  3  2 -1</clus>
</clustering>
</event>
<event>
 6    0  0.8641190E+002  0.1744081E+03  0.7546771E-02  0.1173327E+00
         21   -1    0    0  504  501  0.00000000000E+00  0.00000000000E+00  0.57408654687E+03  0.57408654687E+03  0.00000000000E+00 0. -1.
         21   -1    0    0  506  502 -0.00000000000E+00 -0.00000000000E+00 -0.11538176273E+03  0.11538176273E+03  0.00000000000E+00 0. -1.
         21    1    1    2  503  502  0.59841459048E+02  0.64186400824E+01 -0.32340004026E+02  0.68323312434E+02  0.00000000000E+00 0. -1.
         21    1    1    2  504  505 -0.53448388579E+02  0.33450502659E+02  0.75936203702E+02  0.98701435666E+02  0.00000000000E+00 0. -1.
         21    1    1    2  505  503 -0.14937706554E+03 -0.19265610778E+01  0.11737674161E+03  0.18998557529E+03  0.00000000000E+00 0. -1.
         21    1    1    2  506  501  0.14298399507E+03 -0.37942581663E+02  0.29773184285E+03  0.33245798621E+03  0.00000000000E+00 0. -1.
<scales pt_clust_3="60.18471" pt_clust_4="40.25001" pt_clust_5="40.25001" pt_clust_6="163.03320"></scales>
<clustering>
<clus scale="   40.250">  4  5 -1 -1</clus>
<clus scale="   60.185">  2  3  1 -1</clus>
<clus scale="  163.033">  1  6  2 -1</clus>
<clus scale="  163.033">  1  3  2 -1</clus>
</clustering>
</event>
<event>
 6    0  0.8641190E+002  0.6995817E+02  0.7546771E-02  0.1360235E+00
         21   -1    0    0  504  501  0.00000000000E+00  0.00000000000E+00  0.11087415567E+03  0.11087415567E+03  0.00000000000E+00 0. -1.
         21   -1    0    0  506  502 -0.00000000000E+00 -0.00000000000E+00 -0.21817168289E+04  0.21817168289E+04  0.00000000000E+00 0.  1.
         21    1    1    2  503  501 -0.34084841549E+02 -0.41455127037E+02  0.97014870085E+02  0.11087014476E+03  0.00000000000E+00 0. -1.
         21    1    1    2  504  502  0.24643020367E+02  0.62754256538E+02 -0.38483011837E+03  0.39069117621E+03  0.00000000000E+00 0.  1.
         21    1    1    2  505  503 -0.39938154055E+02 -0.68090953960E+02 -0.49936084899E+03  0.50556175851E+03  0.00000000000E+00 0.  1.
         21    1    1    2  506  505  0.49379975237E+02  0.46791824460E+02 -0.12836665760E+04  0.12854679051E+04  0.00000000000E+00 0.  1.
<scales pt_clust_3="53.66846" pt_clust_4="46.37119" pt_clust_5="14000.00000" pt_clust_6="69.95817"></scales>
<clustering>
<clus scale="   53.668">  1  3  2 -1</clus>
<clus scale="   46.371">  1  4  2 -1</clus>
<clus scale="   69.958">  2  6  1 -1</clus>
<clus scale="   53.668">  1  3  2 -1</clus>
</clustering>
</event>
<event>
 6    0  0.8641190E+002  0.6510004E+02  0.7546771E-02  0.1377596E+00
         21   -1    0    0  505  501  0.00000000000E+00  0.00000000000E+00  0.26584166140E+03  0.26584166140E+03  0.00000000000E+00 0.  1.
         21   -1    0    0  504  502 -0.00000000000E+00 -0.00000000000E+00 -0.11334821707E+04  0.11334821707E+04  0.00000000000E+00 0.  1.
         21    1    1    2  503  502  0.14107993070E+02  0.10260898842E+03 -0.74365867322E+03  0.75083677470E+03  0.00000000000E+00 0.  1.
         21    1    1    2  504  501  0.24000068187E+01 -0.43829818720E+02 -0.19574065515E+03  0.20060213638E+03  0.00000000000E+00 0.  1.
         21    1    1    2  505  506  0.45216497331E+02 -0.30882321879E+02  0.25066988353E+03  0.25658066947E+03  0.00000000000E+00 0.  1.
         21    1    1    2  506  503 -0.61724497220E+02 -0.27896847823E+02 -0.17891106446E+03  0.19130425155E+03  0.00000000000E+00 0.  1.
<scales pt_clust_3="14000.00000" pt_clust_4="43.89548" pt_clust_5="54.84076" pt_clust_6="65.10004"></scales>
<clustering>
<clus scale="   43.895">  2  4  1 -1</clus>
<clus scale="   54.841">  1  5  2 -1</clus>
<clus scale="   65.100">  1  6  2 -1</clus>
<clus scale="   54.841">  1  3  2 -1</clus>
</clustering>
</event>
<event>
 6    0  0.8641190E+002  0.1668712E+03  0.7546771E-02  0.1181151E+00
         21   -1    0    0  506  501  0.00000000000E+00  0.00000000000E+00  0.25442207226E+04  0.25442207226E+04  0.00000000000E+00 0.  1.
         21   -1    0    0  505  502 -0.00000000000E+00 -0.00000000000E+00 -0.14622985113E+02  0.14622985113E+02  0.00000000000E+00 0.  1.
         21    1    1    2  503  504  0.60558147334E+02  0.48292894280E+02  0.46400287701E+03  0.47042338666E+03  0.00000000000E+00 0. -1.
         21    1    1    2  504  501  0.24206027501E+02 -0.26570629244E+02  0.32808723089E+03  0.33005024039E+03  0.00000000000E+00 0. -1.
         21    1    1    2  505  503  0.72875592305E+02  0.38884426371E+02  0.30666314494E+03  0.31759271880E+03  0.00000000000E+00 0.  1.
         21    1    1    2  506  502 -0.15763976714E+03 -0.60606691407E+02  0.14308444847E+04  0.14407773619E+04  0.00000000000E+00 0.  1.
<scales pt_clust_3="39.09181" pt_clust_4="35.94343" pt_clust_5="39.09181" pt_clust_6="161.88630"></scales>
<clustering>
<clus scale="   35.943">  1  4  2 -1</clus>
<clus scale="   39.092">  3  5 -1 -1</clus>
<clus scale="  161.886">  1  6  2 -1</clus>
<clus scale="   35.943">  1  3  2 -1</clus>
</clustering>
</event>
<event>
 6    0  0.8641190E+002  0.1157415E+03  0.7546771E-02  0.1250292E+00
         21   -1    0    0  506  501  0.00000000000E+00  0.00000000000E+00  0.13269933364E+03  0.13269933364E+03  0.00000000000E+00 0. -1.
         21   -1    0    0  505  502 -0.00000000000E+00 -0.00000000000E+00 -0.34522665229E+03  0.34522665229E+03  0.00000000000E+00 0. -1.
         21    1    1    2  503  502 -0.48087036896E+02 -0.61172493492E+02 -0.22630770695E+03  0.23931070870E+03  0.00000000000E+00 0. -1.
         21    1    1    2  504  501  0.46889575774E+02  0.71689857062E+02  0.11737212657E+02  0.86462882688E+02  0.00000000000E+00 0. -1.
         21    1    1    2  505  504 -0.10102162956E+02  0.69765278089E+02 -0.56230599613E+01  0.70716805121E+02  0.00000000000E+00 0. -1.
         21    1    1    2  506  503  0.11299624079E+02 -0.80282641659E+02  0.76662355999E+01  0.81435589421E+02  0.00000000000E+00 0. -1.
<scales pt_clust_3="77.81026" pt_clust_4="52.15264" pt_clust_5="52.15264" pt_clust_6="100.45347"></scales>
<clustering>
<clus scale="   52.153">  4  5 -1 -1</clus>
<clus scale="   77.810">  2  3  1 -1</clus>
<clus scale="  100.453">  1  6  2 -1</clus>
<clus scale="  100.453">  1  3  2 -1</clus>
</clustering>
</event>
<event>
 6    0  0.8641190E+002  0.1613839E+03  0.7546771E-02  0.1187143E+00
         21   -1    0    0  503  501  0.00000000000E+00  0.00000000000E+00  0.21115004206E+04  0.21115004206E+04  0.00000000000E+00 0.  1.
         21   -1    0    0  506  502 -0.00000000000E+00 -0.00000000000E+00 -0.69576989172E+02  0.69576989172E+02  0.00000000000E+00 0.  1.
         21    1    1    2  503  502 -0.54373935809E+02  0.58656921262E+02  0.60706261131E+03  0.61230888721E+03  0.00000000000E+00 0. -1.
         21    1    1    2  504  501  0.53537611348E+02 -0.88756201535E+02  0.83819942784E+03  0.84458405145E+03  0.00000000000E+00 0.  1.
         21    1    1    2  505  504 -0.93407278025E+02 -0.10681861689E+03  0.52383286108E+03  0.54271171246E+03  0.00000000000E+00 0.  1.
         21    1    1    2  506  505  0.94243602485E+02  0.13691789716E+03  0.72828531200E+02  0.18147275864E+03  0.00000000000E+00 0.  1.
<scales pt_clust_3="79.98224" pt_clust_4="60.46932" pt_clust_5="161.38386" pt_clust_6="14000.00000"></scales>
<clustering>
<clus scale="   79.982">  1  3  2 -1</clus>
<clus scale="   60.469">  1  4  2 -1</clus>
<clus scale="  161.384">  1  5  2 -1</clus>
<clus scale="   79.982">  1  3  2 -1</clus>
</clustering>
</event>
<event>
 6    0  0.8641190E+002  0.1932884E+03  0.7546771E-02  0.1155528E+00
         21   -1    0    0  505  501  0.00000000000E+00  0.00000000000E+00  0.61635619779E+03  0.61635619779E+03  0.00000000000E+00 0. -1.
         21   -1    0    0  503  502 -0.00000000000E+00 -0.00000000000E+00 -0.22163074393E+03  0.22163074393E+03  0.00000000000E+00 0.  1.
         21    1    1    2  503  504 -0.55840074831E+02 -0.57800310248E+01  0.69138998116E+02  0.89060225557E+02  0.00000000000E+00 0.  1.
         21    1    1    2  504  501 -0.10077958799E+03 -0.13163089896E+02  0.20837238952E+02  0.10374961600E+03  0.00000000000E+00 0.  1.
         21    1    1    2  505  506  0.18794661212E+03  0.36272824730E+02  0.45346675770E+03  0.49221107988E+03  0.00000000000E+00 0. -1.
         21    1    1    2  506  502 -0.31326949299E+02 -0.17329703809E+02 -0.14871754091E+03  0.15296602028E+03  0.00000000000E+00 0.  1.
<scales pt_clust_3="45.82131" pt_clust_4="45.82131" pt_clust_5="182.12378" pt_clust_6="35.80079"></scales>
<clustering>
<clus scale="   35.801">  2  6  1 -1</clus>
<clus scale="   45.821">  3  4 -1 -1</clus>
<clus scale="  182.124">  1  5  2 -1</clus>
<clus scale="  182.124">  1  3  2 -1</clus>
</clustering>
</event>
<event>
 6    0  0.8641190E+002  0.6275871E+02  0.7546771E-02  0.1386606E+00
         21   -1    0    0  506  501  0.00000000000E+00  0.00000000000E+00  0.19752523917E+03  0.19752523917E+03  0.00000000000E+00 0. -1.
         21   -1    0    0  503  502 -0.00000000000E+00 -0.00000000000E+00 -0.32764130484E+03  0.32764130484E+03  0.00000000000E+00 0.  1.
         21    1    1    2  503  505  0.23750121035E+01  0.80681045676E+02 -0.15075661093E+03  0.17100475886E+03  0.00000000000E+00 0.  1.
         21    1    1    2  504  501  0.59692124280E+02  0.17518517502E+02  0.14396671140E+03  0.15683259275E+03  0.00000000000E+00 0. -1.
         21    1    1    2  505  504 -0.49524733735E+02 -0.61091970405E+02 -0.12305483585E+02  0.79601212464E+02  0.00000000000E+00 0.  1.
         21    1    1    2  506  502 -0.12542402648E+02 -0.37107592773E+02 -0.11102068256E+03  0.11772797994E+03  0.00000000000E+00 0.  1.
<scales pt_clust_3="53.16288" pt_clust_4="62.75871" pt_clust_5="14000.00000" pt_clust_6="39.16995"></scales>
<clustering>
<clus scale="   39.170">  2  6  1 -1</clus>
<clus scale="   53.163">  2  3  1 -1</clus>
<clus scale="   62.759">  1  4  2 -1</clus>
<clus scale="   62.759">  1  3  2 -1</clus>
</clustering>
</event>
<event>
 6    0  0.8641190E+002  0.1037606E+03  0.7546771E-02  0.1272581E+00
         21   -1    0    0  503  501  0.00000000000E+00  0.00000000000E+00  0.56299959785E+03  0.56299959785E+03  0.00000000000E+00 0.  1.
         21   -1    0    0  506  502 -0.00000000000E+00 -0.00000000000E+00 -0.70055993454E+02  0.70055993454E+02  0.00000000000E+00 0.  1.
         21    1    1    2  503  502 -0.95710728700E+02 -0.73522853902E+02  0.46582580850E+02  0.12936804270E+03  0.00000000000E+00 0.  1.
         21    1    1    2  504  501  0.32451357571E+02 -0.30851958930E+02  0.21979237876E+03  0.22430698549E+03  0.00000000000E+00 0.  1.
         21    1    1    2  505  504  0.58962593845E+02  0.24935459569E+01  0.10733441471E+03  0.12248870081E+03  0.00000000000E+00 0.  1.
         21    1    1    2  506  505  0.42967772851E+01  0.10188126688E+03  0.11923423007E+03  0.15689186230E+03  0.00000000000E+00 0.  1.
<scales pt_clust_3="103.76059" pt_clust_4="44.77649" pt_clust_5="70.34531" pt_clust_6="14000.00000"></scales>
<clustering>
<clus scale="   44.776">  1  4  2 -1</clus>
<clus scale="   70.345">  1  5  2 -1</clus>
<clus scale="  103.761">  2  3  1 -1</clus>
<clus scale="   44.776">  1  3  2 -1</clus>
</clustering>
</event>
<event>
 6    0  0.8641190E+002  0.7775745E+02  0.7546771E-02  0.1335539E+00
         21   -1    0    0  505  501  0.00000000000E+00  0.00000000000E+00  0.20360469114E+03  0.20360469114E+03  0.00000000000E+00 0.  1.
         21   -1    0    0  504  502 -0.00000000000E+00 -0.00000000000E+00 -0.25642809558E+03  0.25642809558E+03  0.00000000000E+00 0. -1.
         21    1    1    2  503  502  0.18303042652E+02  0.79735702636E+02 -0.99333721980E+02  0.12868555462E+03  0.00000000000E+00 0. -1.
         21    1    1    2  504  501  0.79206217390E+02 -0.23887383346E+02  0.11563850008E+03  0.14218472019E+03  0.00000000000E+00 0.  1.
         21    1    1    2  505  506 -0.21878449160E+02 -0.39333130490E+02  0.36677954300E+02  0.58060606468E+02  0.00000000000E+00 0.  1.
         21    1    1    2  506  503 -0.75630810882E+02 -0.16515188799E+02 -0.10580613684E+03  0.13110190544E+03  0.00000000000E+00 0. -1.
<scales pt_clust_3="77.75745" pt_clust_4="77.58659" pt_clust_5="45.00846" pt_clust_6="14000.00000"></scales>
<clustering>
<clus scale="   45.008">  1  5  2 -1</clus>
<clus scale="   77.757">  2  3  1 -1</clus>
<clus scale="   77.587">  1  4  2 -1</clus>
<clus scale="   45.008">  1  3  2 -1</clus>
</clustering>
</event>
<event>
 6    0  0.8641190E+002  0.2134495E+03  0.7546771E-02  0.1138863E+00
         21   -1    0    0  506  501  0.00000000000E+00  0.00000000000E+00  0.38403993714E+03  0.38403993714E+03  0.00000000000E+00 0. -1.
         21   -1    0    0  503  502 -0.00000000000E+00 -0.00000000000E+00 -0.14435273942E+04  0.14435273942E+04  0.00000000000E+00 0.  1.
         21    1    1    2  503  501  0.41005741903E+02  0.16588785246E+03 -0.13615513745E+03  0.21849135433E+03  0.00000000000E+00 0.  1.
         21    1    1    2  504  502  0.48526205773E+01  0.31067991619E+02 -0.12312677090E+04  0.12316691679E+04  0.00000000000E+00 0.  1.
         21    1    1    2  505  504  0.56880637247E+01 -0.84356216838E+02  0.72444240945E+02  0.11133954120E+03  0.00000000000E+00 0. -1.
         21    1    1    2  506  505 -0.51546426205E+02 -0.11259962724E+03  0.23549114837E+03  0.26606726795E+03  0.00000000000E+00 0. -1.
<scales pt_clust_3="197.08781" pt_clust_4="31.44468" pt_clust_5="67.17895" pt_clust_6="67.17895"></scales>
<clustering>
<clus scale="   31.445">  2  4  1 -1</clus>
<clus scale="   67.179">  5  6 -1 -1</clus>
<clus scale="  197.088">  2  3  1 -1</clus>
<clus scale="  213.450">  1  3  2 -1</clus>
</clustering>
</event>
<event>
 6    0  0.8641190E+002  0.1012995E+03  0.7546771E-02  0.1277587E+00
         21   -1    0    0  506  501  0.00000000000E+00  0.00000000000E+00  0.17468141608E+03  0.17468141608E+03  0.00000000000E+00 0.  1.
         21   -1    0    0  504  502 -0.00000000000E+00 -0.00000000000E+00 -0.22373498890E+03  0.22373498890E+03  0.00000000000E+00 0. -1.
         21    1    1    2  503  502  0.20183529154E+02  0.42646711919E+02 -0.10811427539E+03  0.11796106743E+03  0.00000000000E+00 0. -1.
         21    1    1    2  504  505  0.62537362372E+01 -0.48539644103E+02  0.12041317859E+02  0.50400392879E+02  0.00000000000E+00 0.  1.
         21    1    1    2  505  501 -0.10889917764E+03  0.41725024983E+01  0.86002346301E+02  0.13882666976E+03  0.00000000000E+00 0.  1.
         21    1    1    2  506  503  0.82461912246E+02  0.17204296853E+01 -0.38982961586E+02  0.91228274912E+02  0.00000000000E+00 0. -1.
<scales pt_clust_3="47.18174" pt_clust_4="42.29009" pt_clust_5="14000.00000" pt_clust_6="101.29951"></scales>
<clustering>
<clus scale="   47.182">  2  3  1 -1</clus>
<clus scale="   42.290">  2  4  1 -1</clus>
<clus scale="  101.300">  2  6  1 -1</clus>
<clus scale="  101.300">  1  3  2 -1</clus>
</clustering>
</event>
<event>
 6    0  0.8641190E+002  0.9569401E+02  0.7546771E-02  0.1289621E+00
         21   -1    0    0  504  501  0.00000000000E+00  0.00000000000E+00  0.10593444369E+03  0.10593444369E+03  0.00000000000E+00 0.  1.
         21   -1    0    0  503  502 -0.00000000000E+00 -0.00000000000E+00 -0.73944942416E+03  0.73944942416E+03  0.00000000000E+00 0. -1.
         21    1    1    2  503  506 -0.11351298216E+02 -0.37629545639E+02 -0.20158918422E+03  0.20538508677E+03  0.00000000000E+00 0.  1.
         21    1    1    2  504  505  0.59956786232E+02 -0.73175116496E+02  0.70068486089E+02  0.11772428225E+03  0.00000000000E+00 0.  1.
         21    1    1    2  505  502  0.21274498696E+02  0.21442176648E+02 -0.12390517833E+03  0.12753377769E+03  0.00000000000E+00 0. -1.
         21    1    1    2  506  501 -0.69879986713E+02  0.89362485486E+02 -0.37808910401E+03  0.39474072114E+03  0.00000000000E+00 0. -1.
<scales pt_clust_3="30.82130" pt_clust_4="95.69401" pt_clust_5="30.20548" pt_clust_6="14000.00000"></scales>
<clustering>
<clus scale="   30.205">  2  5  1 -1</clus>
<clus scale="   30.821">  2  3  1 -1</clus>
<clus scale="   95.694">  1  4  2 -1</clus>
<clus scale="   95.694">  1  3  2 -1</clus>
</clustering>
</event>
<event>
 6    0  0.8641190E+002  0.1114393E+03  0.7546771E-02  0.1257928E+00
         21   -1    0    0  503  501  0.00000000000E+00  0.00000000000E+00  0.74311354866E+03  0.74311354866E+03  0.00000000000E+00 0.  1.
         21   -1    0    0  506  502 -0.00000000000E+00 -0.00000000000E+00 -0.14257985103E+03  0.14257985103E+03  0.00000000000E+00 0.  1.
         21    1    1    2  503  505  0.68360476901E+02 -0.65830393073E+02  0.64810981983E+03  0.65502147600E+03  0.00000000000E+00 0.  1.
         21    1    1    2  504  502 -0.33011760057E+02  0.31941002886E+02 -0.21270212849E+02  0.50620410134E+02  0.00000000000E+00 0.  1.
         21    1    1    2  505  504 -0.86003410972E+02  0.47193452139E+02  0.30552336211E+02  0.10274849815E+03  0.00000000000E+00 0.  1.
         21    1    1    2  506  501  0.50654694128E+02 -0.13304061951E+02 -0.56858245566E+02  0.77303015404E+02  0.00000000000E+00 0.  1.
<scales pt_clust_3="97.00373" pt_clust_4="37.53570" pt_clust_5="37.53570" pt_clust_6="52.37267"></scales>
<clustering>
<clus scale="   37.536">  4  5 -1 -1</clus>
<clus scale="   52.373">  2  6  1 -1</clus>
<clus scale="   97.004">  1  3  2 -1</clus>
<clus scale="   97.004">  1  3  2 -1</clus>
</clustering>
</event>
<event>
 6    0  0.8641190E+002  0.8631804E+02  0.7546771E-02  0.1312021E+00
         21   -1    0    0  505  501  0.00000000000E+00  0.00000000000E+00  0.71907698941E+03  0.71907698941E+03  0.00000000000E+00 0.  1.
         21   -1    0    0  501  502 -0.00000000000E+00 -0.00000000000E+00 -0.64934653214E+02  0.64934653214E+02  0.00000000000E+00 0. -1.
         21    1    1    2  503  504  0.61777917403E+02 -0.13681371738E+02  0.72453850079E+02  0.96193822060E+02  0.00000000000E+00 0. -1.
         21    1    1    2  504  506  0.41212068001E+02 -0.49232082460E+02  0.12659745033E+03  0.14194769080E+03  0.00000000000E+00 0. -1.
         21    1    1    2  505  503 -0.39786520988E+02  0.51630582515E+02  0.47437631135E+03  0.47883355049E+03  0.00000000000E+00 0.  1.
         21    1    1    2  506  502 -0.63203464416E+02  0.11282871683E+02 -0.19285275566E+02  0.67036579278E+02  0.00000000000E+00 0. -1.
<scales pt_clust_3="49.88338" pt_clust_4="49.88338" pt_clust_5="70.18464" pt_clust_6="64.20266"></scales>
<clustering>
<clus scale="   49.883">  3  4 -1 -1</clus>
<clus scale="   64.203">  2  6  1 -1</clus>
<clus scale="   70.185">  1  5  2 -1</clus>
<clus scale="   70.185">  1  3  2 -1</clus>
</clustering>
</event>
<event>
 6    0  0.8641190E+002  0.1020882E+03  0.7546771E-02  0.1275965E+00
         21   -1    0    0  502  501  0.00000000000E+00  0.00000000000E+00  0.46615566271E+03  0.46615566271E+03  0.00000000000E+00 0. -1.
         21   -1    0    0  504  502 -0.00000000000E+00 -0.00000000000E+00 -0.69266828615E+02  0.69266828615E+02  0.00000000000E+00 0. -1.
         21    1    1    2  503  505 -0.85940236435E+02 -0.23097794793E+02 -0.29877348476E+01  0.89040209581E+02  0.00000000000E+00 0. -1.
         21    1    1    2  504  503 -0.14218241564E+02 -0.36220505460E+02  0.19945523704E+02  0.43725362489E+02  0.00000000000E+00 0. -1.
         21    1    1    2  505  506  0.85406895991E+02  0.29158532495E+02  0.19723284581E+03  0.21689940841E+03  0.00000000000E+00 0. -1.
         21    1    1    2  506  501  0.14751582007E+02  0.30159767759E+02  0.18269819942E+03  0.18575751084E+03  0.00000000000E+00 0.  1.
<scales pt_clust_3="102.08819" pt_clust_4="35.13373" pt_clust_5="14000.00000" pt_clust_6="33.57411"></scales>
<clustering>
<clus scale="   33.574">  1  6  2 -1</clus>
<clus scale="   35.134">  2  4  1 -1</clus>
<clus scale="  102.088">  2  3  1 -1</clus>
<clus scale="   33.574">  1  3  2 -1</clus>
</clustering>
</event>
<event>
 6    0  0.8641190E+002  0.1459492E+03  0.7546771E-02  0.1205541E+00
         21   -1    0    0  504  501  0.00000000000E+00  0.00000000000E+00  0.17971768598E+03  0.17971768598E+03  0.00000000000E+00 0.  1.
         21   -1    0    0  501  502 -0.00000000000E+00 -0.00000000000E+00 -0.16659200685E+04  0.16659200685E+04  0.00000000000E+00 0. -1.
         21    1    1    2  503  506  0.84535586120E+02  0.93348768101E+02 -0.75767162931E+03  0.76806676513E+03  0.00000000000E+00 0. -1.
         21    1    1    2  504  505 -0.81698892168E+01 -0.51292104939E+02  0.83245649808E+02  0.98119648037E+02  0.00000000000E+00 0.  1.
         21    1    1    2  505  503 -0.55095242462E+02 -0.69004303998E+02  0.60155027578E+02  0.10684431223E+03  0.00000000000E+00 0.  1.
         21    1    1    2  506  502 -0.21270454441E+02  0.26947640835E+02 -0.87193143063E+03  0.87260702914E+03  0.00000000000E+00 0. -1.
<scales pt_clust_3="135.38243" pt_clust_4="41.78133" pt_clust_5="41.78133" pt_clust_6="34.33085"></scales>
<clustering>
<clus scale="   34.331">  2  6  1 -1</clus>
<clus scale="   41.781">  4  5 -1 -1</clus>
<clus scale="  135.382">  2  3  1 -1</clus>
<clus scale="  145.949">  1  3  2 -1</clus>
</clustering>
</event>
<event>
 6    0  0.8641190E+002  0.1053937E+03  0.7546771E-02  0.1269346E+00
         21   -1    0    0  506  501  0.00000000000E+00  0.00000000000E+00  0.27929851719E+03  0.27929851719E+03  0.00000000000E+00 0.  1.
         21   -1    0    0  505  502 -0.00000000000E+00 -0.00000000000E+00 -0.38983364347E+03  0.38983364347E+03  0.00000000000E+00 0.  1.
         21    1    1    2  503  502  0.90580961999E+02 -0.48530597200E+02 -0.32966217811E+03  0.34530751689E+03  0.00000000000E+00 0.  1.
         21    1    1    2  504  501  0.17489611968E+02 -0.29857662861E+02  0.95920023360E+02  0.10197066951E+03  0.00000000000E+00 0.  1.
         21    1    1    2  505  504 -0.13583469065E+03  0.60719242020E+02  0.84728198529E+02  0.17122136888E+03  0.00000000000E+00 0.  1.
         21    1    1    2  506  503  0.27764116680E+02  0.17669018040E+02  0.38478829945E+02  0.50632605379E+02  0.00000000000E+00 0.  1.
<scales pt_clust_3="105.39370" pt_clust_4="36.80223" pt_clust_5="14000.00000" pt_clust_6="32.90958"></scales>
<clustering>
<clus scale="   32.910">  1  6  2 -1</clus>
<clus scale="   36.802">  1  4  2 -1</clus>
<clus scale="  105.394">  2  3  1 -1</clus>
<clus scale="   32.910">  1  3  2 -1</clus>
</clustering>
</event>
<event>
 6    0  0.8641190E+002  0.6984788E+02  0.7546771E-02  0.1360611E+00
         21   -1    0    0  505  501  0.00000000000E+00  0.00000000000E+00  0.17422898903E+04  0.17422898903E+04  0.00000000000E+00 0. -1.
         21   -1    0    0  504  502 -0.00000000000E+00 -0.00000000000E+00 -0.27468333130E+03  0.27468333130E+03  0.00000000000E+00 0.  1.
         21    1    1    2  503  506  0.60405384515E+02  0.25467685966E+02 -0.46732422612E+02  0.80506725371E+02  0.00000000000E+00 0.  1.
         21    1    1    2  504  503 -0.19992484678E+02  0.47521012362E+02 -0.19091502544E+03  0.19775361690E+03  0.00000000000E+00 0.  1.
         21    1    1    2  505  502  0.29018079960E+02 -0.64669908662E+02  0.62589101947E+02  0.94560254513E+02  0.00000000000E+00 0. -1.
         21    1    1    2  506  501 -0.69430979797E+02 -0.83187896656E+01  0.16426649051E+04  0.16441526248E+04  0.00000000000E+00 0. -1.
<scales pt_clust_3="69.84788" pt_clust_4="51.55527" pt_clust_5="60.62823" pt_clust_6="14000.00000"></scales>
<clustering>
<clus scale="   51.555">  2  4  1 -1</clus>
<clus scale="   60.628">  2  5  1 -1</clus>
<clus scale="   69.848">  2  3  1 -1</clus>
<clus scale="   69.848">  1  3  2 -1</clus>
</clustering>
</event>
<event>
 6    0  0.8641190E+002  0.7054721E+02  0.7546771E-02  0.1358242E+00
         21   -1    0    0  504  501  0.00000000000E+00  0.00000000000E+00  0.28963438465E+03  0.28963438465E+03  0.00000000000E+00 0. -1.
         21   -1    0    0  506  502 -0.00000000000E+00 -0.00000000000E+00 -0.17180575660E+03  0.17180575660E+03  0.00000000000E+00 0. -1.
         21    1    1    2  503  501  0.94776129630E+02  0.40162585385E+02 -0.86517423180E+02  0.13446491188E+03  0.00000000000E+00 0. -1.
         21    1    1    2  504  505 -0.45258834252E+02 -0.52551766334E+02  0.19923404365E+03  0.21096031468E+03  0.00000000000E+00 0. -1.
         21    1    1    2  505  502 -0.14969864389E+02 -0.45226059409E+02 -0.56720834912E+01  0.47975679470E+02  0.00000000000E+00 0. -1.
         21    1    1    2  506  503 -0.34547430988E+02  0.57615240358E+02  0.10784091069E+02  0.68039235222E+02  0.00000000000E+00 0. -1.
<scales pt_clust_3="70.54721" pt_clust_4="14000.00000" pt_clust_5="47.63920" pt_clust_6="61.45515"></scales>
<clustering>
<clus scale="   47.639">  2  5  1 -1</clus>
<clus scale="   61.455">  2  6  1 -1</clus>
<clus scale="   70.547">  2  3  1 -1</clus>
<clus scale="   70.547">  1  3  2 -1</clus>
</clustering>
</event>
<event>
 6    0  0.8641190E+002  0.1030966E+03  0.7546771E-02  0.1273916E+00
         21   -1    0    0  504  501  0.00000000000E+00  0.00000000000E+00  0.21679571768E+02  0.21679571768E+02  0.00000000000E+00 0.  1.
         21   -1    0    0  506  502 -0.00000000000E+00 -0.00000000000E+00 -0.14110455850E+04  0.14110455850E+04  0.00000000000E+00 0.  1.
         21    1    1    2  503  501 -0.33624439939E+02  0.74912279686E+02 -0.11730874512E+03  0.14319146025E+03  0.00000000000E+00 0.  1.
         21    1    1    2  504  505 -0.16293227736E+02 -0.38116491270E+02 -0.31876893527E+03  0.32145290522E+03  0.00000000000E+00 0.  1.
         21    1    1    2  505  502  0.27496249313E+02 -0.97181779917E+02 -0.48683091941E+03  0.49719682839E+03  0.00000000000E+00 0.  1.
         21    1    1    2  506  503  0.22421418362E+02  0.60385991501E+02 -0.46645741343E+03  0.47088396290E+03  0.00000000000E+00 0.  1.
<scales pt_clust_3="88.67798" pt_clust_4="33.68846" pt_clust_5="33.68846" pt_clust_6="64.41419"></scales>
<clustering>
<clus scale="   33.688">  4  5 -1 -1</clus>
<clus scale="   64.414">  2  6  1 -1</clus>
<clus scale="   88.678">  1  3  2 -1</clus>
<clus scale="   88.678">  1  3  2 -1</clus>
</clustering>
</event>
<event>
 6    0  0.8641190E+002  0.1511509E+03  0.7546771E-02  0.1199066E+00
         21   -1    0    0  504  501  0.00000000000E+00  0.00000000000E+00  0.59662977823E+03  0.59662977823E+03  0.00000000000E+00 0. -1.
         21   -1    0    0  505  502 -0.00000000000E+00 -0.00000000000E+00 -0.65710499908E+02  0.65710499908E+02  0.00000000000E+00 0. -1.
         21    1    1    2  503  501  0.74032878164E+02  0.39264755869E+02  0.21291777803E+03  0.22881557706E+03  0.00000000000E+00 0. -1.
         21    1    1    2  504  502 -0.14311244702E+03 -0.87141011875E+01  0.25351808949E+03  0.29125337723E+03  0.00000000000E+00 0. -1.
         21    1    1    2  505  506  0.11352891324E+02 -0.50176648057E+02 -0.27375853413E+01  0.51517749613E+02  0.00000000000E+00 0. -1.
         21    1    1    2  506  503  0.57726677528E+02  0.19625993376E+02  0.67220996147E+02  0.90753574241E+02  0.00000000000E+00 0.  1.
<scales pt_clust_3="45.28048" pt_clust_4="141.52242" pt_clust_5="51.44496" pt_clust_6="45.28048"></scales>
<clustering>
<clus scale="   45.280">  3  6 -1 -1</clus>
<clus scale="   51.445">  2  5  1 -1</clus>
<clus scale="  141.522">  2  4  1 -1</clus>
<clus scale="  151.151">  1  3  2 -1</clus>
</clustering>
</event>
<event>
 6    0  0.8641190E+002  0.2406717E+03  0.7546771E-02  0.1119346E+00
         21   -1    0    0  504  501  0.00000000000E+00  0.00000000000E+00  0.69819348225E+03  0.69819348225E+03  0.00000000000E+00 0. -1.
         21   -1    0    0  506  502 -0.00000000000E+00 -0.00000000000E+00 -0.15432253865E+03  0.15432253865E+03  0.00000000000E+00 0.  1.
         21    1    1    2  503  501  0.70068962284E+02 -0.33826977314E+01  0.25976610841E+03  0.26907161351E+03  0.00000000000E+00 0. -1.
         21    1    1    2  504  502 -0.23747090602E+02  0.56004354985E+02  0.31529190138E+02  0.68516435401E+02  0.00000000000E+00 0. -1.
         21    1    1    2  505  503  0.15508979948E+03 -0.50456801016E+02  0.26712828877E+03  0.31297964364E+03  0.00000000000E+00 0. -1.
         21    1    1    2  506  505 -0.20141167116E+03 -0.21648562375E+01 -0.14552643710E+02  0.20194832835E+03  0.00000000000E+00 0.  1.
<scales pt_clust_3="57.06519" pt_clust_4="60.83101" pt_clust_5="57.06519" pt_clust_6="224.39263"></scales>
<clustering>
<clus scale="   57.065">  3  5 -1 -1</clus>
<clus scale="   60.831">  2  4  1 -1</clus>
<clus scale="  224.393">  2  6  1 -1</clus>
<clus scale="  240.672">  1  3  2 -1</clus>
</clustering>
</event>
<event>
 6    0  0.8641190E+002  0.1244961E+03  0.7546771E-02  0.1235859E+00
         21   -1    0    0  505  501  0.00000000000E+00  0.00000000000E+00  0.13159277510E+04  0.13159277510E+04  0.00000000000E+00 0.  1.
         21   -1    0    0  501  502 -0.00000000000E+00 -0.00000000000E+00 -0.79876017915E+02  0.79876017915E+02  0.00000000000E+00 0. -1.
         21    1    1    2  503  506  0.51959171965E+02 -0.13950869786E+02  0.72362467010E+02  0.90170443887E+02  0.00000000000E+00 0.  1.
         21    1    1    2  504  503  0.63955372808E+02  0.60372971784E+02  0.22532888253E+03  0.24188487083E+03  0.00000000000E+00 0.  1.
         21    1    1    2  505  504 -0.12838113165E+03 -0.78610302363E+02  0.99013996329E+03  0.10015180685E+04  0.00000000000E+00 0.  1.
         21    1    1    2  506  502  0.12466586878E+02  0.32188200365E+02 -0.51779579729E+02  0.62230385729E+02  0.00000000000E+00 0. -1.
<scales pt_clust_3="56.83031" pt_clust_4="14000.00000" pt_clust_5="124.49613" pt_clust_6="34.51805"></scales>
<clustering>
<clus scale="   34.518">  2  6  1 -1</clus>
<clus scale="   56.830">  2  3  1 -1</clus>
<clus scale="  124.496">  1  5  2 -1</clus>
<clus scale="  124.496">  1  3  2 -1</clus>
</clustering>
</event>
<event>
 6    0  0.8641190E+002  0.1210545E+03  0.7546771E-02  0.1241367E+00
         21   -1    0    0  504  501  0.00000000000E+00  0.00000000000E+00  0.69050602881E+03  0.69050602881E+03  0.00000000000E+00 0. -1.
         21   -1    0    0  503  502 -0.00000000000E+00 -0.00000000000E+00 -0.85713950508E+02  0.85713950508E+02  0.00000000000E+00 0. -1.
         21    1    1    2  503  505 -0.31245737118E+02 -0.27421830342E+02  0.19701804676E+02  0.46004499507E+02  0.00000000000E+00 0. -1.
         21    1    1    2  504  506 -0.71132050666E+01 -0.38752710864E+02 -0.10960969693E+02  0.40896370771E+02  0.00000000000E+00 0. -1.
         21    1    1    2  505  501 -0.46525135353E+01  0.11442669514E+03  0.61209681781E+03  0.62271793681E+03  0.00000000000E+00 0. -1.
         21    1    1    2  506  502  0.43011455720E+02 -0.48252153938E+02 -0.16045574489E+02  0.66601172238E+02  0.00000000000E+00 0. -1.
<scales pt_clust_3="41.57226" pt_clust_4="34.63336" pt_clust_5="112.63377" pt_clust_6="34.63336"></scales>
<clustering>
<clus scale="   34.633">  4  6 -1 -1</clus>
<clus scale="   41.572">  2  3  1 -1</clus>
<clus scale="  112.634">  1  5  2 -1</clus>
<clus scale="  112.634">  1  3  2 -1</clus>
</clustering>
</event>
<event>
 6    0  0.8641190E+002  0.7126781E+02  0.7546771E-02  0.1355834E+00
         21   -1    0    0  505  501  0.00000000000E+00  0.00000000000E+00  0.10985661956E+04  0.10985661956E+04  0.00000000000E+00 0. -1.
         21   -1    0    0  503  502 -0.00000000000E+00 -0.00000000000E+00 -0.14056510707E+03  0.14056510707E+03  0.00000000000E+00 0. -1.
         21    1    1    2  503  506 -0.27869057811E+02 -0.41561459143E+02 -0.10295286484E+02  0.51088474171E+02  0.00000000000E+00 0. -1.
         21    1    1    2  504  502  0.59004792832E+02  0.29033954144E+02  0.45546715348E+02  0.79993995709E+02  0.00000000000E+00 0.  1.
         21    1    1    2  505  504  0.67332146032E+02 -0.21913058226E+02  0.98435532722E+03  0.98689878419E+03  0.00000000000E+00 0. -1.
         21    1    1    2  506  501 -0.98467881053E+02  0.34440563225E+02 -0.61605667568E+02  0.12115004858E+03  0.00000000000E+00 0. -1.
<scales pt_clust_3="50.04038" pt_clust_4="59.09481" pt_clust_5="71.26781" pt_clust_6="14000.00000"></scales>
<clustering>
<clus scale="   50.040">  2  3  1 -1</clus>
<clus scale="   59.095">  2  4  1 -1</clus>
<clus scale="   71.268">  1  5  2 -1</clus>
<clus scale="   71.268">  1  3  2 -1</clus>
</clustering>
</event>
<event>
 6    0  0.9176315E+002  0.9846913E+02  0.7546771E-02  0.1283548E+00
         21   -1    0    0  506  501  0.00000000000E+00  0.00000000000E+00  0.64244617853E+03  0.64244617853E+03  0.00000000000E+00 0. -1.
         21   -1    0    0  505  502 -0.00000000000E+00 -0.00000000000E+00 -0.24941681513E+03  0.24941681513E+03  0.00000000000E+00 0. -1.
         21    1    1    2  503  501 -0.11877718957E+02  0.38478423970E+02  0.67820955435E+02  0.78875543199E+02  0.00000000000E+00 0. -1.
         21    1    1    2  504  502  0.14773614008E+02 -0.49153057679E+02 -0.20777779808E+03  0.21402312054E+03  0.00000000000E+00 0. -1.
         21    1    1    2  505  503  0.75416605310E+02 -0.17283801432E+02  0.20864445265E+02  0.80135630181E+02  0.00000000000E+00 0. -1.
         21    1    1    2  506  504 -0.78312500361E+02  0.27958435141E+02  0.51212176078E+03  0.51882869974E+03  0.00000000000E+00 0. -1.
<scales pt_clust_3="40.26996" pt_clust_4="51.10431" pt_clust_5="98.46913" pt_clust_6="14000.00000"></scales>
<clustering>
<clus scale="   40.270">  1  3  2 -1</clus>
<clus scale="   51.104">  2  4  1 -1</clus>
<clus scale="   98.469">  2  5  1 -1</clus>
<clus scale="   40.270">  1  3  2 -1</clus>
</clustering>
</event>
<event>
 6    0  0.8641190E+002  0.1152735E+03  0.7546771E-02  0.1251104E+00
         21   -1    0    0  503  501  0.00000000000E+00  0.00000000000E+00  0.91610934035E+03  0.91610934035E+03  0.00000000000E+00 0.  1.
         21   -1    0    0  505  502 -0.00000000000E+00 -0.00000000000E+00 -0.29602057746E+03  0.29602057746E+03  0.00000000000E+00 0.  1.
         21    1    1    2  503  502 -0.95875963145E+02 -0.90286591000E+01 -0.24527138095E+03  0.26349908407E+03  0.00000000000E+00 0.  1.
         21    1    1    2  504  501 -0.28559748991E+02  0.50252118270E+02  0.77722422448E+03  0.77937053433E+03  0.00000000000E+00 0.  1.
         21    1    1    2  505  506  0.46815142923E+02 -0.47401251047E+02  0.41839002716E+02  0.78670441438E+02  0.00000000000E+00 0.  1.
         21    1    1    2  506  504  0.77620569214E+02  0.61777918772E+01  0.46296916643E+02  0.90589857977E+02  0.00000000000E+00 0.  1.
<scales pt_clust_3="97.93103" pt_clust_4="57.80082" pt_clust_5="56.24570" pt_clust_6="56.24570"></scales>
<clustering>
<clus scale="   56.246">  5  6 -1 -1</clus>
<clus scale="   57.801">  1  4  2 -1</clus>
<clus scale="   97.931">  2  3  1 -1</clus>
<clus scale="   57.801">  1  3  2 -1</clus>
</clustering>
</event>
<event>
 6    0  0.8641190E+002  0.1158443E+03  0.7546771E-02  0.1250114E+00
         21   -1    0    0  503  501  0.00000000000E+00  0.00000000000E+00  0.41441321180E+03  0.41441321180E+03  0.00000000000E+00 0. -1.
         21   -1    0    0  504  502 -0.00000000000E+00 -0.00000000000E+00 -0.10166841549E+03  0.10166841549E+03  0.00000000000E+00 0. -1.
         21    1    1    2  503  506 -0.37892550412E+02  0.12811688019E+01  0.12797788589E+03  0.13347593808E+03  0.00000000000E+00 0. -1.
         21    1    1    2  504  505  0.35320955888E+02  0.69716158171E+02  0.28410101203E+02  0.83156758507E+02  0.00000000000E+00 0. -1.
         21    1    1    2  505  501 -0.92589484020E+02 -0.69046631502E+02  0.16766639275E+03  0.20359830336E+03  0.00000000000E+00 0. -1.
         21    1    1    2  506  502  0.95161078543E+02 -0.19506954716E+01 -0.11309583533E+02  0.95850627343E+02  0.00000000000E+00 0. -1.
<scales pt_clust_3="37.91420" pt_clust_4="75.31442" pt_clust_5="115.84433" pt_clust_6="14000.00000"></scales>
<clustering>
<clus scale="   37.914">  1  3  2 -1</clus>
<clus scale="   75.314">  2  4  1 -1</clus>
<clus scale="  115.844">  1  5  2 -1</clus>
<clus scale="   37.914">  1  3  2 -1</clus>
</clustering>
</event>
<event>
 6    0  0.8641190E+002  0.1132924E+03  0.7546771E-02  0.1254592E+00
         21   -1    0    0  503  501  0.00000000000E+00  0.00000000000E+00  0.82729335029E+02  0.82729335029E+02  0.00000000000E+00 0.  1.
         21   -1    0    0  504  502 -0.00000000000E+00 -0.00000000000E+00 -0.51723932267E+03  0.51723932267E+03  0.00000000000E+00 0.  1.
         21    1    1    2  503  502  0.56021268663E+02  0.70937547982E+02 -0.12574537004E+02  0.91261367715E+02  0.00000000000E+00 0.  1.
         21    1    1    2  504  506  0.27005145959E+02  0.40773981575E+02 -0.33561748400E+03  0.33916204247E+03  0.00000000000E+00 0.  1.
         21    1    1    2  505  501 -0.56858452266E+02 -0.61930676258E+02 -0.28213106018E+02  0.88680728499E+02  0.00000000000E+00 0.  1.
         21    1    1    2  506  505 -0.26167962356E+02 -0.49780853299E+02 -0.58104860617E+02  0.80864519020E+02  0.00000000000E+00 0.  1.
<scales pt_clust_3="104.46631" pt_clust_4="48.90599" pt_clust_5="35.85613" pt_clust_6="35.85613"></scales>
<clustering>
<clus scale="   35.856">  5  6 -1 -1</clus>
<clus scale="   48.906">  2  4  1 -1</clus>
<clus scale="  104.466">  1  3  2 -1</clus>
<clus scale="  104.466">  1  3  2 -1</clus>
</clustering>
</event>
<event>
 6    0  0.8641190E+002  0.1057331E+03  0.7546771E-02  0.1268682E+00
         21   -1    0    0  506  501  0.00000000000E+00  0.00000000000E+00  0.11723610264E+04  0.11723610264E+04  0.00000000000E+00 0.  1.
         21   -1    0    0  503  502 -0.00000000000E+00 -0.00000000000E+00 -0.82590933441E+02  0.82590933441E+02  0.00000000000E+00 0.  1.
         21    1    1    2  503  505 -0.39863711648E+02  0.61542078783E+02  0.56064155403E+02  0.92302396980E+02  0.00000000000E+00 0.  1.
         21    1    1    2  504  502  0.68438566891E+02 -0.12617757690E+03  0.26404131047E+02  0.14595134973E+03  0.00000000000E+00 0.  1.
         21    1    1    2  505  501  0.28683495746E+01  0.73782765979E+02  0.92756064853E+03  0.93049496543E+03  0.00000000000E+00 0.  1.
         21    1    1    2  506  504 -0.31443204818E+02 -0.91472678575E+01  0.79741157966E+02  0.86203247690E+02  0.00000000000E+00 0.  1.
<scales pt_clust_3="105.73313" pt_clust_4="14000.00000" pt_clust_5="70.19296" pt_clust_6="32.74672"></scales>
<clustering>
<clus scale="   32.747">  1  6  2 -1</clus>
<clus scale="   70.193">  1  5  2 -1</clus>
<clus scale="  105.733">  2  3  1 -1</clus>
<clus scale="   32.747">  1  3  2 -1</clus>
</clustering>
</event>
<event>
 6    0  0.8641190E+002  0.8141802E+02  0.7546771E-02  0.1325075E+00
         21   -1    0    0  506  501  0.00000000000E+00  0.00000000000E+00  0.11876717634E+03  0.11876717634E+03  0.00000000000E+00 0. -1.
         21   -1    0    0  501  502 -0.00000000000E+00 -0.00000000000E+00 -0.53795471318E+03  0.53795471318E+03  0.00000000000E+00 0.  1.
         21    1    1    2  503  504 -0.94307618432E+02  0.82642914944E+02 -0.13904513981E+03  0.18723602535E+03  0.00000000000E+00 0. -1.
         21    1    1    2  504  505  0.45449838190E+02 -0.27389452057E+02 -0.69661315097E+02  0.87570364260E+02  0.00000000000E+00 0.  1.
         21    1    1    2  505  502  0.30385422821E+02 -0.25084535081E+02 -0.29116416176E+03  0.29381810174E+03  0.00000000000E+00 0.  1.
         21    1    1    2  506  503  0.18472357421E+02 -0.30168927807E+02  0.80683079824E+02  0.88097398166E+02  0.00000000000E+00 0. -1.
<scales pt_clust_3="14000.00000" pt_clust_4="81.41802" pt_clust_5="40.69556" pt_clust_6="35.37502"></scales>
<clustering>
<clus scale="   35.375">  1  6  2 -1</clus>
<clus scale="   40.696">  2  5  1 -1</clus>
<clus scale="   81.418">  2  4  1 -1</clus>
<clus scale="   35.375">  1  3  2 -1</clus>
</clustering>
</event>
<event>
 6    0  0.8641190E+002  0.1284355E+03  0.7546771E-02  0.1229796E+00
         21   -1    0    0  506  501  0.00000000000E+00  0.00000000000E+00  0.13374841783E+03  0.13374841783E+03  0.00000000000E+00 0. -1.
         21   -1    0    0  504  502 -0.00000000000E+00 -0.00000000000E+00 -0.19474309771E+04  0.19474309771E+04  0.00000000000E+00 0. -1.
         21    1    1    2  503  505  0.21751807564E+02 -0.39386970553E+02 -0.13985797465E+03  0.14691741781E+03  0.00000000000E+00 0.  1.
         21    1    1    2  504  501 -0.67008847026E+02 -0.10135119354E+03 -0.94074776908E+03  0.94856133963E+03  0.00000000000E+00 0. -1.
         21    1    1    2  505  502  0.40921562641E+02  0.11518493324E+02 -0.82561217697E+03  0.82670594333E+03  0.00000000000E+00 0. -1.
         21    1    1    2  506  503  0.43354768207E+01  0.12921967077E+03  0.92535361393E+02  0.15899469419E+03  0.00000000000E+00 0. -1.
<scales pt_clust_3="46.53657" pt_clust_4="14000.00000" pt_clust_5="42.51176" pt_clust_6="128.43549"></scales>
<clustering>
<clus scale="   42.512">  2  5  1 -1</clus>
<clus scale="   46.537">  2  3  1 -1</clus>
<clus scale="  128.435">  1  6  2 -1</clus>
<clus scale="  128.435">  1  3  2 -1</clus>
</clustering>
</event>
<event>
 6    0  0.8641190E+002  0.7015271E+02  0.7546771E-02  0.1359575E+00
         21   -1    0    0  503  501  0.00000000000E+00  0.00000000000E+00  0.82979047823E+03  0.82979047823E+03  0.00000000000E+00 0.  1.
         21   -1    0    0  505  502 -0.00000000000E+00 -0.00000000000E+00 -0.61235155051E+02  0.61235155051E+02  0.00000000000E+00 0.  1.
         21    1    1    2  503  504  0.92871695522E+01  0.38075895266E+02  0.81751079983E+02  0.90660158818E+02  0.00000000000E+00 0.  1.
         21    1    1    2  504  502 -0.52610422573E+02  0.33423270881E+02  0.14216653565E+03  0.15522981498E+03  0.00000000000E+00 0.  1.
         21    1    1    2  505  506  0.73487243418E+02  0.11816840606E+02 -0.17167714287E+02  0.76385489989E+02  0.00000000000E+00 0.  1.
         21    1    1    2  506  501 -0.30163990397E+02 -0.83316006753E+02  0.56180542184E+03  0.56875016950E+03  0.00000000000E+00 0.  1.
<scales pt_clust_3="39.19216" pt_clust_4="70.15271" pt_clust_5="14000.00000" pt_clust_6="59.07568"></scales>
<clustering>
<clus scale="   39.192">  1  3  2 -1</clus>
<clus scale="   59.076">  1  6  2 -1</clus>
<clus scale="   70.153">  1  4  2 -1</clus>
<clus scale="   39.192">  1  3  2 -1</clus>
</clustering>
</event>
<event>
 6    0  0.8641190E+002  0.1204314E+03  0.7546771E-02  0.1242387E+00
         21   -1    0    0  505  501  0.00000000000E+00  0.00000000000E+00  0.97887879529E+03  0.97887879529E+03  0.00000000000E+00 0. -1.
         21   -1    0    0  506  502 -0.00000000000E+00 -0.00000000000E+00 -0.95807560470E+02  0.95807560470E+02  0.00000000000E+00 0. -1.
         21    1    1    2  503  501  0.70124493880E+01 -0.64089905723E+02  0.62507277551E+03  0.62838894416E+03  0.00000000000E+00 0. -1.
         21    1    1    2  504  503  0.13215900708E+02 -0.49777818538E+02  0.27811957995E+03  0.28284800159E+03  0.00000000000E+00 0. -1.
         21    1    1    2  505  502  0.32968120893E+02  0.14814423831E+02  0.23210345260E+02  0.42954444191E+02  0.00000000000E+00 0.  1.
         21    1    1    2  506  504 -0.53196470990E+02  0.99053300429E+02 -0.43331465897E+02  0.12049496582E+03  0.00000000000E+00 0. -1.
<scales pt_clust_3="31.23467" pt_clust_4="31.23467" pt_clust_5="36.14366" pt_clust_6="115.24940"></scales>
<clustering>
<clus scale="   31.235">  3  4 -1 -1</clus>
<clus scale="   36.144">  2  5  1 -1</clus>
<clus scale="  115.249">  2  6  1 -1</clus>
<clus scale="  120.431">  1  3  2 -1</clus>
</clustering>
</event>
<event>
 6    0  0.8641190E+002  0.1327473E+03  0.7546771E-02  0.1223435E+00
         21   -1    0    0  505  501  0.00000000000E+00  0.00000000000E+00  0.61067202444E+02  0.61067202444E+02  0.00000000000E+00 0. -1.
         21   -1    0    0  503  502 -0.00000000000E+00 -0.00000000000E+00 -0.60450758906E+03  0.60450758906E+03  0.00000000000E+00 0. -1.
         21    1    1    2  503  501  0.36738929744E+02  0.68044313769E+01  0.13814252328E+01  0.37389270932E+02  0.00000000000E+00 0.  1.
         21    1    1    2  504  506  0.61538153096E+01 -0.76976724528E+02 -0.62591894408E+02  0.99403374226E+02  0.00000000000E+00 0. -1.
         21    1    1    2  505  504 -0.38637570166E+02 -0.51368081199E+02 -0.55052567598E+02  0.84630531095E+02  0.00000000000E+00 0. -1.
         21    1    1    2  506  502 -0.42551748882E+01  0.12154037435E+03 -0.42717734984E+03  0.44415161525E+03  0.00000000000E+00 0. -1.
<scales pt_clust_3="37.36374" pt_clust_4="42.27978" pt_clust_5="42.27978" pt_clust_6="122.96818"></scales>
<clustering>
<clus scale="   37.364">  1  3  2 -1</clus>
<clus scale="   42.280">  4  5 -1 -1</clus>
<clus scale="  122.968">  2  6  1 -1</clus>
<clus scale="   37.364">  1  3  2 -1</clus>
</clustering>
</event>
<event>
 6    0  0.8641190E+002  0.2051730E+03  0.7546771E-02  0.1145446E+00
         21   -1    0    0  506  501  0.00000000000E+00  0.00000000000E+00  0.90115236513E+03  0.90115236513E+03  0.00000000000E+00 0.  1.
         21   -1    0    0  504  502 -0.00000000000E+00 -0.00000000000E+00 -0.20990182296E+03  0.20990182296E+03  0.00000000000E+00 0.  1.
         21    1    1    2  503  505 -0.44858941094E+02 -0.90761447565E+02 -0.86188658981E+02  0.13296033204E+03  0.00000000000E+00 0.  1.
         21    1    1    2  504  501  0.24049551758E+02  0.26844902684E+02  0.47005703174E+03  0.47143678561E+03  0.00000000000E+00 0.  1.
         21    1    1    2  505  502 -0.79297644827E+02 -0.69620646684E+02 -0.46561478557E+02  0.11533916163E+03  0.00000000000E+00 0.  1.
         21    1    1    2  506  503  0.10010703416E+03  0.13353719157E+03  0.35394364797E+03  0.39131790882E+03  0.00000000000E+00 0.  1.
<scales pt_clust_3="52.91089" pt_clust_4="36.04206" pt_clust_5="52.91089" pt_clust_6="197.99798"></scales>
<clustering>
<clus scale="   36.042">  1  4  2 -1</clus>
<clus scale="   52.911">  3  5 -1 -1</clus>
<clus scale="  197.998">  1  6  2 -1</clus>
<clus scale="   36.042">  1  3  2 -1</clus>
</clustering>
</event>
<event>
 6    0  0.8641190E+002  0.1086262E+03  0.7546771E-02  0.1263135E+00
         21   -1    0    0  503  501  0.00000000000E+00  0.00000000000E+00  0.81347904752E+03  0.81347904752E+03  0.00000000000E+00 0. -1.
         21   -1    0    0  506  502 -0.00000000000E+00 -0.00000000000E+00 -0.60442818283E+03  0.60442818283E+03  0.00000000000E+00 0. -1.
         21    1    1    2  503  502  0.46327209774E+02 -0.28736413978E+02  0.12030267568E+03  0.13207848284E+03  0.00000000000E+00 0. -1.
         21    1    1    2  504  505  0.13526262132E+02  0.83782695772E+02  0.29633653025E+03  0.30824963753E+03  0.00000000000E+00 0. -1.
         21    1    1    2  505  501 -0.40753348422E+02  0.52290001046E+02  0.37706452600E+03  0.38284818973E+03  0.00000000000E+00 0. -1.
         21    1    1    2  506  504 -0.19100123484E+02 -0.10733628284E+03 -0.58465286723E+03  0.59473092024E+03  0.00000000000E+00 0. -1.
<scales pt_clust_3="54.51598" pt_clust_4="14000.00000" pt_clust_5="39.42716" pt_clust_6="108.62622"></scales>
<clustering>
<clus scale="   54.516">  1  3  2 -1</clus>
<clus scale="   39.427">  1  5  2 -1</clus>
<clus scale="  108.626">  2  6  1 -1</clus>
<clus scale="   54.516">  1  3  2 -1</clus>
</clustering>
</event>
<event>
 6    0  0.8641190E+002  0.7137712E+02  0.7546771E-02  0.1355472E+00
         21   -1    0    0  503  501  0.00000000000E+00  0.00000000000E+00  0.14665640687E+03  0.14665640687E+03  0.00000000000E+00 0.  1.
         21   -1    0    0  505  502 -0.00000000000E+00 -0.00000000000E+00 -0.66236022581E+03  0.66236022581E+03  0.00000000000E+00 0. -1.
         21    1    1    2  503  506 -0.73027527787E+02  0.15467054857E+02  0.19947897708E+02  0.77266863684E+02  0.00000000000E+00 0.  1.
         21    1    1    2  504  501  0.49556249959E+02  0.38683195819E+02 -0.13321496509E+02  0.64262538216E+02  0.00000000000E+00 0.  1.
         21    1    1    2  505  504  0.21401470588E+02  0.34168648767E+02 -0.56704220373E+03  0.56847372878E+03  0.00000000000E+00 0. -1.
         21    1    1    2  506  502  0.20698072403E+01 -0.88318899443E+02  0.44711983595E+02  0.99013501998E+02  0.00000000000E+00 0.  1.
<scales pt_clust_3="71.37712" pt_clust_4="14000.00000" pt_clust_5="40.31773" pt_clust_6="70.45790"></scales>
<clustering>
<clus scale="   40.318">  2  5  1 -1</clus>
<clus scale="   71.377">  1  3  2 -1</clus>
<clus scale="   70.458">  1  6  2 -1</clus>
<clus scale="   71.377">  1  3  2 -1</clus>
</clustering>
</event>
<event>
 6    0  0.8641190E+002  0.7185651E+02  0.7546771E-02  0.1353891E+00
         21   -1    0    0  505  501  0.00000000000E+00  0.00000000000E+00  0.19811801526E+03  0.19811801526E+03  0.00000000000E+00 0.  1.
         21   -1    0    0  506  502 -0.00000000000E+00 -0.00000000000E+00 -0.21835844010E+03  0.21835844010E+03  0.00000000000E+00 0. -1.
         21    1    1    2  503  501 -0.50672011664E+02  0.39470141701E+01  0.10552920322E+03  0.11713088585E+03  0.00000000000E+00 0.  1.
         21    1    1    2  504  502  0.68163283168E+02  0.18227603765E+02 -0.12175688334E+03  0.14072390469E+03  0.00000000000E+00 0. -1.
         21    1    1    2  505  504  0.62187914089E+02 -0.11234771516E+02 -0.35227317154E+02  0.72349987032E+02  0.00000000000E+00 0. -1.
         21    1    1    2  506  503 -0.79679185592E+02 -0.10939846419E+02  0.31214572431E+02  0.86271677788E+02  0.00000000000E+00 0.  1.
<scales pt_clust_3="50.82550" pt_clust_4="14000.00000" pt_clust_5="52.39140" pt_clust_6="71.85651"></scales>
<clustering>
<clus scale="   50.826">  1  3  2 -1</clus>
<clus scale="   52.391">  1  5  2 -1</clus>
<clus scale="   71.857">  1  6  2 -1</clus>
<clus scale="   50.826">  1  3  2 -1</clus>
</clustering>
</event>
<event>
 6    0  0.8641190E+002  0.1116075E+03  0.7546771E-02  0.1257622E+00
         21   -1    0    0  505  501  0.00000000000E+00  0.00000000000E+00  0.16240871927E+03  0.16240871927E+03  0.00000000000E+00 0.  1.
         21   -1    0    0  506  502 -0.00000000000E+00 -0.00000000000E+00 -0.53759247940E+03  0.53759247940E+03  0.00000000000E+00 0.  1.
         21    1    1    2  503  502  0.14037502193E+03 -0.75277707110E+02 -0.19201942081E+03  0.24948614778E+03  0.00000000000E+00 0.  1.
         21    1    1    2  504  501 -0.36848738296E+02  0.28104391019E+02 -0.27857349556E+02  0.54071417892E+02  0.00000000000E+00 0. -1.
         21    1    1    2  505  503 -0.27949159461E+02 -0.14800806371E+02  0.10960506873E+03  0.11407668682E+03  0.00000000000E+00 0.  1.
         21    1    1    2  506  504 -0.75577124173E+02  0.61974122461E+02 -0.26491205850E+03  0.28236694618E+03  0.00000000000E+00 0.  1.
<scales pt_clust_3="14000.00000" pt_clust_4="50.33029" pt_clust_5="31.62625" pt_clust_6="111.60751"></scales>
<clustering>
<clus scale="   31.626">  1  5  2 -1</clus>
<clus scale="   50.330">  1  4  2 -1</clus>
<clus scale="  111.608">  2  6  1 -1</clus>
<clus scale="   31.626">  1  3  2 -1</clus>
</clustering>
</event>
<event>
 6    0  0.8641190E+002  0.2060422E+03  0.7546771E-02  0.1144739E+00
         21   -1    0    0  505  501  0.00000000000E+00  0.00000000000E+00  0.12132462398E+04  0.12132462398E+04  0.00000000000E+00 0. -1.
         21   -1    0    0  504  502 -0.00000000000E+00 -0.00000000000E+00 -0.22898853449E+03  0.22898853449E+03  0.00000000000E+00 0.  1.
         21    1    1    2  503  501  0.10453528861E+03 -0.16680747200E+03  0.58589161060E+03  0.61807874793E+03  0.00000000000E+00 0. -1.
         21    1    1    2  504  503  0.95592880686E+02  0.20043310662E+02 -0.17035317291E+03  0.19636684206E+03  0.00000000000E+00 0.  1.
         21    1    1    2  505  506 -0.16954084289E+03  0.14660341592E+03  0.54432580397E+03  0.58866564350E+03  0.00000000000E+00 0. -1.
         21    1    1    2  506  502 -0.30587326402E+02  0.16074541761E+00  0.24393463658E+02  0.39123540800E+02  0.00000000000E+00 0.  1.
<scales pt_clust_3="206.04216" pt_clust_4="73.12505" pt_clust_5="14000.00000" pt_clust_6="30.58775"></scales>
<clustering>
<clus scale="   30.588">  2  6  1 -1</clus>
<clus scale="   73.125">  2  4  1 -1</clus>
<clus scale="  206.042">  1  3  2 -1</clus>
<clus scale="  206.042">  1  3  2 -1</clus>
</clustering>
</event>
<event>
 6    0  0.8641190E+002  0.1470787E+03  0.7546771E-02  0.1204109E+00
         21   -1    0    0  503  501  0.00000000000E+00  0.00000000000E+00  0.31188495210E+03  0.31188495210E+03  0.00000000000E+00 0.  1.
         21   -1    0    0  506  502 -0.00000000000E+00 -0.00000000000E+00 -0.71114967386E+02  0.71114967386E+02  0.00000000000E+00 0.  1.
         21    1    1    2  503  505  0.44165872678E+02 -0.35698696213E+02  0.51041968536E+01  0.57018190485E+02  0.00000000000E+00 0.  1.
         21    1    1    2  504  501 -0.60515375874E+02  0.55659337644E+02  0.13932934500E+03  0.16177990902E+03  0.00000000000E+00 0.  1.
         21    1    1    2  505  502  0.57495362390E+02 -0.52450978860E+02  0.73394902724E+02  0.10697492055E+03  0.00000000000E+00 0.  1.
         21    1    1    2  506  504 -0.41145859195E+02  0.32490337429E+02  0.22941540134E+02  0.57226899434E+02  0.00000000000E+00 0.  1.
<scales pt_clust_3="43.77648" pt_clust_4="47.42188" pt_clust_5="143.98483" pt_clust_6="47.42188"></scales>
<clustering>
<clus scale="   43.776">  3  5 -1 -1</clus>
<clus scale="   47.422">  4  6 -1 -1</clus>
<clus scale="  143.985">  2  3  1 -1</clus>
<clus scale="  147.079">  1  3  2 -1</clus>
</clustering>
</event>
<event>
 6    0  0.8641190E+002  0.6664693E+02  0.7546771E-02  0.1371881E+00
         21   -1    0    0  506  501  0.00000000000E+00  0.00000000000E+00  0.12325045280E+04  0.12325045280E+04  0.00000000000E+00 0. -1.
         21   -1    0    0  504  502 -0.00000000000E+00 -0.00000000000E+00 -0.98297551092E+02  0.98297551092E+02  0.00000000000E+00 0. -1.
         21    1    1    2  503  501  0.52136624662E+02 -0.56245828604E+02  0.42397738626E+02  0.87632123717E+02  0.00000000000E+00 0. -1.
         21    1    1    2  504  503  0.36866695171E+02  0.65063080840E+02 -0.21504290923E+02  0.77812545449E+02  0.00000000000E+00 0. -1.
         21    1    1    2  505  502 -0.55031781167E+02  0.18819175764E+02  0.74600150975E+01  0.58637105489E+02  0.00000000000E+00 0. -1.
         21    1    1    2  506  505 -0.33971538666E+02 -0.27636428000E+02  0.11058535141E+04  0.11067203044E+04  0.00000000000E+00 0. -1.
<scales pt_clust_3="66.64693" pt_clust_4="14000.00000" pt_clust_5="64.96770" pt_clust_6="43.79312"></scales>
<clustering>
<clus scale="   43.793">  1  6  2 -1</clus>
<clus scale="   64.968">  2  5  1 -1</clus>
<clus scale="   66.647">  1  3  2 -1</clus>
<clus scale="   43.793">  1  3  2 -1</clus>
</clustering>
</event>
<event>
 6    0  0.8641190E+002  0.1483963E+03  0.7546771E-02  0.1202458E+00
         21   -1    0    0  504  501  0.00000000000E+00  0.00000000000E+00  0.56640504425E+03  0.56640504425E+03  0.00000000000E+00 0. -1.
         21   -1    0    0  505  502 -0.00000000000E+00 -0.00000000000E+00 -0.19441663801E+04  0.19441663801E+04  0.00000000000E+00 0. -1.
         21    1    1    2  503  501  0.21656370489E+02 -0.23081393936E+02  0.53814592900E+03  0.53907586667E+03  0.00000000000E+00 0. -1.
         21    1    1    2  504  502 -0.13621835140E+03  0.42294398375E+02 -0.66083259148E+03  0.67605027133E+03  0.00000000000E+00 0. -1.
         21    1    1    2  505  506 -0.29233153807E+02 -0.59124487032E+02 -0.98234825805E+03  0.98455999428E+03  0.00000000000E+00 0. -1.
         21    1    1    2  506  503  0.14379513472E+03  0.39911482593E+02 -0.27272641530E+03  0.31088529205E+03  0.00000000000E+00 0. -1.
<scales pt_clust_3="31.65042" pt_clust_4="148.39630" pt_clust_5="66.40847" pt_clust_6="14000.00000"></scales>
<clustering>
<clus scale="   31.650">  1  3  2 -1</clus>
<clus scale="   66.408">  2  5  1 -1</clus>
<clus scale="  148.396">  2  4  1 -1</clus>
<clus scale="   31.650">  1  3  2 -1</clus>
</clustering>
</event>
<event>
 6    0  0.8641190E+002  0.9667950E+02  0.7546771E-02  0.1287438E+00
         21   -1    0    0  506  501  0.00000000000E+00  0.00000000000E+00  0.18799372945E+03  0.18799372945E+03  0.00000000000E+00 0.  1.
         21   -1    0    0  503  502 -0.00000000000E+00 -0.00000000000E+00 -0.74101713770E+03  0.74101713770E+03  0.00000000000E+00 0.  1.
         21    1    1    2  503  504 -0.38121416963E+02 -0.55666539560E+01 -0.27557149071E+03  0.27825146281E+03  0.00000000000E+00 0.  1.
         21    1    1    2  504  501  0.76484693304E+02  0.13681166835E+03 -0.28592839884E+03  0.32607114280E+03  0.00000000000E+00 0.  1.
         21    1    1    2  505  502  0.42783442318E+02 -0.82416616299E+02 -0.12826696575E+03  0.15835193741E+03  0.00000000000E+00 0.  1.
         21    1    1    2  506  505 -0.81146718659E+02 -0.48828398091E+02  0.13674344705E+03  0.16633632412E+03  0.00000000000E+00 0.  1.
<scales pt_clust_3="38.52571" pt_clust_4="14000.00000" pt_clust_5="89.66903" pt_clust_6="96.67950"></scales>
<clustering>
<clus scale="   38.526">  2  3  1 -1</clus>
<clus scale="   89.669">  2  5  1 -1</clus>
<clus scale="   96.679">  1  6  2 -1</clus>
<clus scale="   96.679">  1  3  2 -1</clus>
</clustering>
</event>
<event>
 6    0  0.8641190E+002  0.2995578E+03  0.7546771E-02  0.1085462E+00
         21   -1    0    0  506  501  0.00000000000E+00  0.00000000000E+00  0.10521785420E+04  0.10521785420E+04  0.00000000000E+00 0.  1.
         21   -1    0    0  504  502 -0.00000000000E+00 -0.00000000000E+00 -0.15990454010E+03  0.15990454010E+03  0.00000000000E+00 0.  1.
         21    1    1    2  503  501  0.20163896210E+03 -0.16613066633E+03  0.33653114650E+03  0.42604093922E+03  0.00000000000E+00 0.  1.
         21    1    1    2  504  505 -0.23236014094E+03  0.11119411767E+03  0.78888139943E+02  0.26940435320E+03  0.00000000000E+00 0.  1.
         21    1    1    2  505  503 -0.37478734807E+02  0.46817078829E+02  0.34917342275E+02  0.69395354487E+02  0.00000000000E+00 0. -1.
         21    1    1    2  506  502  0.68199913645E+02  0.81194698304E+01  0.44193737318E+03  0.44724243518E+03  0.00000000000E+00 0.  1.
<scales pt_clust_3="292.71471" pt_clust_4="30.71772" pt_clust_5="30.71772" pt_clust_6="68.68154"></scales>
<clustering>
<clus scale="   30.718">  4  5 -1 -1</clus>
<clus scale="   68.682">  1  6  2 -1</clus>
<clus scale="  292.715">  1  3  2 -1</clus>
<clus scale="   68.682">  1  3  2 -1</clus>
</clustering>
</event>
<event>
 6    0  0.8641190E+002  0.1634392E+03  0.7546771E-02  0.1184868E+00
         21   -1    0    0  503  501  0.00000000000E+00  0.00000000000E+00  0.16636525093E+04  0.16636525093E+04  0.00000000000E+00 0.  1.
         21   -1    0    0  506  502 -0.00000000000E+00 -0.00000000000E+00 -0.34271009721E+03  0.34271009721E+03  0.00000000000E+00 0.  1.
         21    1    1    2  503  502 -0.29518027616E+02 -0.24758027483E+02 -0.16661730402E+03  0.17101344941E+03  0.00000000000E+00 0.  1.
         21    1    1    2  504  505 -0.95089752886E+01 -0.38494578156E+02 -0.13343057944E+02  0.41836471574E+02  0.00000000000E+00 0. -1.
         21    1    1    2  505  501  0.75516677858E+02  0.13431744839E+03  0.16323973163E+04  0.16396539097E+04  0.00000000000E+00 0.  1.
         21    1    1    2  506  504 -0.36489674954E+02 -0.71064842754E+02 -0.13149454222E+03  0.15385877579E+03  0.00000000000E+00 0. -1.
<scales pt_clust_3="38.52628" pt_clust_4="36.11985" pt_clust_5="153.33885" pt_clust_6="36.11985"></scales>
<clustering>
<clus scale="   38.526">  2  3  1 -1</clus>
<clus scale="   36.120">  4  6 -1 -1</clus>
<clus scale="  153.339">  1  5  2 -1</clus>
<clus scale="  153.339">  1  3  2 -1</clus>
</clustering>
</event>
<event>
 6    0  0.8641190E+002  0.8930281E+02  0.7546771E-02  0.1304549E+00
         21   -1    0    0  506  501  0.00000000000E+00  0.00000000000E+00  0.18459007120E+03  0.18459007120E+03  0.00000000000E+00 0. -1.
         21   -1    0    0  505  502 -0.00000000000E+00 -0.00000000000E+00 -0.40416905758E+03  0.40416905758E+03  0.00000000000E+00 0. -1.
         21    1    1    2  503  501 -0.58569627994E+02  0.18681947848E+02  0.10923780329E+03  0.12534877010E+03  0.00000000000E+00 0. -1.
         21    1    1    2  504  503 -0.64549709949E+02 -0.15017087295E+02 -0.18098975296E+02  0.68700443027E+02  0.00000000000E+00 0. -1.
         21    1    1    2  505  504  0.46371397045E+02 -0.88505951443E+02 -0.24061392954E+03  0.26053535843E+03  0.00000000000E+00 0. -1.
         21    1    1    2  506  502  0.76747940898E+02  0.84841090890E+02 -0.70103884837E+02  0.13417455722E+03  0.00000000000E+00 0. -1.
<scales pt_clust_3="61.47696" pt_clust_4="86.93766" pt_clust_5="14000.00000" pt_clust_6="89.30281"></scales>
<clustering>
<clus scale="   61.477">  1  3  2 -1</clus>
<clus scale="   86.938">  1  4  2 -1</clus>
<clus scale="   89.303">  1  6  2 -1</clus>
<clus scale="   61.477">  1  3  2 -1</clus>
</clustering>
</event>
<event>
 6    0  0.8641190E+002  0.1205045E+03  0.7546771E-02  0.1242267E+00
         21   -1    0    0  506  501  0.00000000000E+00  0.00000000000E+00  0.14601165030E+04  0.14601165030E+04  0.00000000000E+00 0. -1.
         21   -1    0    0  505  502 -0.00000000000E+00 -0.00000000000E+00 -0.84634639964E+03  0.84634639964E+03  0.00000000000E+00 0. -1.
         21    1    1    2  503  504  0.58845268048E+02 -0.14564685382E+02 -0.23726786789E+03  0.24488964201E+03  0.00000000000E+00 0. -1.
         21    1    1    2  504  502  0.30003461302E+02 -0.45554993516E+02 -0.20248882654E+03  0.20970739138E+03  0.00000000000E+00 0. -1.
         21    1    1    2  505  501  0.21452740338E+02  0.85321525906E+02 -0.39208450438E+03  0.40183359917E+03  0.00000000000E+00 0. -1.
         21    1    1    2  506  503 -0.11030146969E+03 -0.25201847009E+02  0.14456113021E+04  0.14500322700E+04  0.00000000000E+00 0. -1.
<scales pt_clust_3="39.84113" pt_clust_4="39.84113" pt_clust_5="87.97717" pt_clust_6="112.94823"></scales>
<clustering>
<clus scale="   39.841">  3  4 -1 -1</clus>
<clus scale="   87.977">  2  5  1 -1</clus>
<clus scale="  112.948">  1  6  2 -1</clus>
<clus scale="  112.948">  1  3  2 -1</clus>
</clustering>
</event>
<event>
 6    0  0.8641190E+002  0.1504077E+03  0.7546771E-02  0.1199973E+00
         21   -1    0    0  505  501  0.00000000000E+00  0.00000000000E+00  0.56143577856E+02  0.56143577856E+02  0.00000000000E+00 0. -1.
         21   -1    0    0  504  502 -0.00000000000E+00 -0.00000000000E+00 -0.72831743004E+03  0.72831743004E+03  0.00000000000E+00 0. -1.
         21    1    1    2  503  501 -0.76575284150E+02 -0.88647950092E+02 -0.19174728909E+03  0.22469814434E+03  0.00000000000E+00 0. -1.
         21    1    1    2  504  506  0.10278635883E+03  0.38039782910E+02 -0.31898272148E+03  0.33728628381E+03  0.00000000000E+00 0. -1.
         21    1    1    2  505  502  0.52772410280E+02  0.50636714388E+02 -0.65268299859E+02  0.98025277849E+02  0.00000000000E+00 0. -1.
         21    1    1    2  506  503 -0.78983484957E+02 -0.28547206306E-01 -0.96175541764E+02  0.12445130190E+03  0.00000000000E+00 0. -1.
<scales pt_clust_3="68.42397" pt_clust_4="125.21485" pt_clust_5="73.13689" pt_clust_6="68.42397"></scales>
<clustering>
<clus scale="   68.424">  3  6 -1 -1</clus>
<clus scale="   73.137">  1  5  2 -1</clus>
<clus scale="  125.215">  2  4  1 -1</clus>
<clus scale="   73.137">  1  3  2 -1</clus>
</clustering>
</event>
<event>
 6    0  0.8641190E+002  0.1286487E+03  0.7546771E-02  0.1229475E+00
         21   -1    0    0  503  501  0.00000000000E+00  0.00000000000E+00  0.33580946544E+03  0.33580946544E+03  0.00000000000E+00 0.  1.
         21   -1    0    0  506  502 -0.00000000000E+00 -0.00000000000E+00 -0.32243055127E+03  0.32243055127E+03  0.00000000000E+00 0.  1.
         21    1    1    2  503  504 -0.10809153666E+03  0.83050205790E+02  0.29039387279E+03  0.32079544625E+03  0.00000000000E+00 0.  1.
         21    1    1    2  504  502  0.60715530084E+02  0.15061960455E+01 -0.33212415082E+02  0.69222169393E+02  0.00000000000E+00 0.  1.
         21    1    1    2  505  501  0.68234345610E+01 -0.67192057518E+02 -0.15458243464E+03  0.16869220774E+03  0.00000000000E+00 0.  1.
         21    1    1    2  506  505  0.40552572018E+02 -0.17364344317E+02 -0.89220108903E+02  0.99530193326E+02  0.00000000000E+00 0.  1.
<scales pt_clust_3="14000.00000" pt_clust_4="69.86395" pt_clust_5="128.64868" pt_clust_6="44.11385"></scales>
<clustering>
<clus scale="   44.114">  2  6  1 -1</clus>
<clus scale="   69.864">  2  4  1 -1</clus>
<clus scale="  128.649">  2  5  1 -1</clus>
<clus scale="  128.649">  1  3  2 -1</clus>
</clustering>
</event>
<event>
 6    0  0.8641190E+002  0.1391019E+03  0.7546771E-02  0.1214543E+00
         21   -1    0    0  503  501  0.00000000000E+00  0.00000000000E+00  0.28591797129E+03  0.28591797129E+03  0.00000000000E+00 0.  1.
         21   -1    0    0  504  502 -0.00000000000E+00 -0.00000000000E+00 -0.68194754640E+03  0.68194754640E+03  0.00000000000E+00 0. -1.
         21    1    1    2  503  502  0.30452817360E+02 -0.19552046442E+02  0.75312928350E+02  0.83556530456E+02  0.00000000000E+00 0.  1.
         21    1    1    2  504  505 -0.12787520327E+02 -0.44811798789E+02 -0.57629189081E+03  0.57817295111E+03  0.00000000000E+00 0. -1.
         21    1    1    2  505  506 -0.13909956592E+03  0.76814581128E+02  0.26670345574E+02  0.16112255101E+03  0.00000000000E+00 0.  1.
         21    1    1    2  506  501  0.12143426888E+03 -0.12450735897E+02  0.78279041771E+02  0.14501348511E+03  0.00000000000E+00 0.  1.
<scales pt_clust_3="36.18918" pt_clust_4="46.64847" pt_clust_5="139.10190" pt_clust_6="14000.00000"></scales>
<clustering>
<clus scale="   36.189">  1  3  2 -1</clus>
<clus scale="   46.648">  2  4  1 -1</clus>
<clus scale="  139.102">  2  5  1 -1</clus>
<clus scale="   36.189">  1  3  2 -1</clus>
</clustering>
</event>
<event>
 6    0  0.8641190E+002  0.1317603E+03  0.7546771E-02  0.1224867E+00
         21   -1    0    0  506  501  0.00000000000E+00  0.00000000000E+00  0.29696877241E+03  0.29696877241E+03  0.00000000000E+00 0. -1.
         21   -1    0    0  505  502 -0.00000000000E+00 -0.00000000000E+00 -0.91872146048E+03  0.91872146048E+03  0.00000000000E+00 0.  1.
         21    1    1    2  503  502  0.28817792613E+02 -0.18900802772E+02 -0.71377565806E+03  0.71460716171E+03  0.00000000000E+00 0.  1.
         21    1    1    2  504  501 -0.41294528683E+02  0.15045588675E+03  0.13844915198E+03  0.20859141795E+03  0.00000000000E+00 0. -1.
         21    1    1    2  505  504  0.36320615368E+02 -0.15563380582E+02 -0.13752389136E+03  0.14308817775E+03  0.00000000000E+00 0. -1.
         21    1    1    2  506  503 -0.23843879297E+02 -0.11599170340E+03  0.91097709367E+02  0.14940347549E+03  0.00000000000E+00 0. -1.
<scales pt_clust_3="34.46310" pt_clust_4="14000.00000" pt_clust_5="62.92801" pt_clust_6="131.76025"></scales>
<clustering>
<clus scale="   34.463">  2  3  1 -1</clus>
<clus scale="   62.928">  2  5  1 -1</clus>
<clus scale="  131.760">  1  6  2 -1</clus>
<clus scale="  131.760">  1  3  2 -1</clus>
</clustering>
</event>
<event>
 6    0  0.8641190E+002  0.3356698E+03  0.7546771E-02  0.1068655E+00
         21   -1    0    0  502  501  0.00000000000E+00  0.00000000000E+00  0.25755199017E+03  0.25755199017E+03  0.00000000000E+00 0.  1.
         21   -1    0    0  503  502 -0.00000000000E+00 -0.00000000000E+00 -0.25904937677E+04  0.25904937677E+04  0.00000000000E+00 0.  1.
         21    1    1    2  503  504  0.20318850496E+03  0.22648333790E+03 -0.24676621294E+04  0.24863500670E+04  0.00000000000E+00 0.  1.
         21    1    1    2  504  505 -0.42296609670E+02 -0.68496791872E+02 -0.18690348021E+02  0.82644677963E+02  0.00000000000E+00 0.  1.
         21    1    1    2  505  506 -0.11050504979E+03 -0.13062525743E+03  0.89152257155E+02  0.19293120241E+03  0.00000000000E+00 0.  1.
         21    1    1    2  506  501 -0.50386845505E+02 -0.27361288599E+02  0.64258442666E+02  0.86119810540E+02  0.00000000000E+00 0. -1.
<scales pt_clust_3="304.27006" pt_clust_4="75.63557" pt_clust_5="75.63557" pt_clust_6="34.19197"></scales>
<clustering>
<clus scale="   34.192">  5  6 -1 -1</clus>
<clus scale="   75.636">  4  5 -1 -1</clus>
<clus scale="  304.270">  2  3  1 -1</clus>
<clus scale="  335.670">  1  3  2 -1</clus>
</clustering>
</event>
<event>
 6    0  0.8641190E+002  0.1273382E+03  0.7546771E-02  0.1231460E+00
         21   -1    0    0  503  501  0.00000000000E+00  0.00000000000E+00  0.11963756291E+04  0.11963756291E+04  0.00000000000E+00 0. -1.
         21   -1    0    0  505  502 -0.00000000000E+00 -0.00000000000E+00 -0.52739723727E+03  0.52739723727E+03  0.00000000000E+00 0. -1.
         21    1    1    2  503  504 -0.12981216107E+03  0.22765748356E+02  0.96280994194E+03  0.97178827980E+03  0.00000000000E+00 0. -1.
         21    1    1    2  504  506  0.95464466683E+02  0.46891785318E+01  0.32653608029E+02  0.10100351930E+03  0.00000000000E+00 0. -1.
         21    1    1    2  505  501  0.69451488423E+02 -0.26085424120E+02  0.15309095999E+03  0.17011995952E+03  0.00000000000E+00 0. -1.
         21    1    1    2  506  502 -0.35103794037E+02 -0.13695027674E+01 -0.47957611811E+03  0.48086110776E+03  0.00000000000E+00 0. -1.
<scales pt_clust_3="14000.00000" pt_clust_4="127.33821" pt_clust_5="68.38901" pt_clust_6="35.13050"></scales>
<clustering>
<clus scale="   35.130">  2  6  1 -1</clus>
<clus scale="   68.389">  2  5  1 -1</clus>
<clus scale="  127.338">  2  4  1 -1</clus>
<clus scale="  127.338">  1  3  2 -1</clus>
</clustering>
</event>
<event>
 6    0  0.8641190E+002  0.7979661E+02  0.7546771E-02  0.1329630E+00
         21   -1    0    0  504  501  0.00000000000E+00  0.00000000000E+00  0.10570052957E+03  0.10570052957E+03  0.00000000000E+00 0. -1.
         21   -1    0    0  505  502 -0.00000000000E+00 -0.00000000000E+00 -0.33277115068E+03  0.33277115068E+03  0.00000000000E+00 0. -1.
         21    1    1    2  503  506 -0.37585015962E+02  0.52496433540E+02 -0.19822955312E+02  0.67538570585E+02  0.00000000000E+00 0. -1.
         21    1    1    2  504  503  0.33256384714E+02  0.14410245938E+02 -0.87840471992E+00  0.36254846671E+02  0.00000000000E+00 0. -1.
         21    1    1    2  505  501  0.67476329422E+02 -0.10769205662E+03 -0.13649530510E+02  0.12781605445E+03  0.00000000000E+00 0. -1.
         21    1    1    2  506  502 -0.63147698174E+02  0.40785377142E+02 -0.19271973057E+03  0.20686220854E+03  0.00000000000E+00 0. -1.
<scales pt_clust_3="63.22587" pt_clust_4="36.24420" pt_clust_5="14000.00000" pt_clust_6="79.79661"></scales>
<clustering>
<clus scale="   36.244">  1  4  2 -1</clus>
<clus scale="   63.226">  1  3  2 -1</clus>
<clus scale="   79.797">  2  6  1 -1</clus>
<clus scale="   36.244">  1  3  2 -1</clus>
</clustering>
</event>
<event>
 6    0  0.8641190E+002  0.9376684E+02  0.7546771E-02  0.1293978E+00
         21   -1    0    0  506  501  0.00000000000E+00  0.00000000000E+00  0.76781513290E+03  0.76781513290E+03  0.00000000000E+00 0. -1.
         21   -1    0    0  503  502 -0.00000000000E+00 -0.00000000000E+00 -0.19290621179E+03  0.19290621179E+03  0.00000000000E+00 0. -1.
         21    1    1    2  503  505  0.88462961139E+02  0.35170357985E+02 -0.16892167675E+03  0.19389992896E+03  0.00000000000E+00 0. -1.
         21    1    1    2  504  501 -0.35023442960E+02 -0.82982911724E+01  0.12853073293E+03  0.13347528798E+03  0.00000000000E+00 0.  1.
         21    1    1    2  505  504 -0.12192686527E+02 -0.67948988619E+02  0.49401302417E+03  0.49881318618E+03  0.00000000000E+00 0. -1.
         21    1    1    2  506  502 -0.41246831653E+02  0.41076921806E+02  0.12128684075E+03  0.13453294157E+03  0.00000000000E+00 0.  1.
<scales pt_clust_3="93.76684" pt_clust_4="35.99310" pt_clust_5="14000.00000" pt_clust_6="62.32394"></scales>
<clustering>
<clus scale="   35.993">  1  4  2 -1</clus>
<clus scale="   62.324">  1  6  2 -1</clus>
<clus scale="   93.767">  2  3  1 -1</clus>
<clus scale="   35.993">  1  3  2 -1</clus>
</clustering>
</event>
<event>
 6    0  0.8641190E+002  0.8621537E+02  0.7546771E-02  0.1312284E+00
         21   -1    0    0  505  501  0.00000000000E+00  0.00000000000E+00  0.16452267126E+03  0.16452267126E+03  0.00000000000E+00 0.  1.
         21   -1    0    0  506  502 -0.00000000000E+00 -0.00000000000E+00 -0.37269197605E+03  0.37269197605E+03  0.00000000000E+00 0. -1.
         21    1    1    2  503  504  0.42447696759E+02 -0.57405239716E+02 -0.75840591264E+02  0.10415835920E+03  0.00000000000E+00 0. -1.
         21    1    1    2  504  501 -0.37704763777E+02  0.80806508152E+02  0.10352165943E+03  0.13663116388E+03  0.00000000000E+00 0.  1.
         21    1    1    2  505  502 -0.27804013350E+02 -0.88388240804E+02 -0.19595710990E+03  0.21675962076E+03  0.00000000000E+00 0. -1.
         21    1    1    2  506  503  0.23061080369E+02  0.64986972368E+02 -0.39893263056E+02  0.79665503466E+02  0.00000000000E+00 0. -1.
<scales pt_clust_3="86.21537" pt_clust_4="14000.00000" pt_clust_5="47.24104" pt_clust_6="68.95738"></scales>
<clustering>
<clus scale="   68.957">  2  6  1 -1</clus>
<clus scale="   47.241">  2  5  1 -1</clus>
<clus scale="   86.215">  2  3  1 -1</clus>
<clus scale="   86.215">  1  3  2 -1</clus>
</clustering>
</event>
<event>
 6    0  0.8641190E+002  0.9800248E+02  0.7546771E-02  0.1284553E+00
         21   -1    0    0  504  501  0.00000000000E+00  0.00000000000E+00  0.30994310247E+03  0.30994310247E+03  0.00000000000E+00 0.  1.
         21   -1    0    0  506  502 -0.00000000000E+00 -0.00000000000E+00 -0.19746704086E+04  0.19746704086E+04  0.00000000000E+00 0. -1.
         21    1    1    2  503  505  0.70756861541E+02 -0.49797423052E+01  0.31655744119E+02  0.77675075953E+02  0.00000000000E+00 0.  1.
         21    1    1    2  504  502 -0.95184999246E+01 -0.67358761826E+02  0.16151910045E+03  0.17526044747E+03  0.00000000000E+00 0.  1.
         21    1    1    2  505  501  0.30407614294E+02  0.35692271757E+02  0.79212787467E+02  0.92050132908E+02  0.00000000000E+00 0.  1.
         21    1    1    2  506  503 -0.91645975911E+02  0.36646232374E+02 -0.19371149382E+04  0.19396278547E+04  0.00000000000E+00 0. -1.
<scales pt_clust_3="98.00248" pt_clust_4="42.69203" pt_clust_5="46.88882" pt_clust_6="14000.00000"></scales>
<clustering>
<clus scale="   46.889">  1  5  2 -1</clus>
<clus scale="   42.692">  1  4  2 -1</clus>
<clus scale="   98.002">  1  3  2 -1</clus>
<clus scale="   46.889">  1  3  2 -1</clus>
</clustering>
</event>
<event>
 6    0  0.8641190E+002  0.1806953E+03  0.7546771E-02  0.1167132E+00
         21   -1    0    0  503  501  0.00000000000E+00  0.00000000000E+00  0.82492904773E+03  0.82492904773E+03  0.00000000000E+00 0.  1.
         21   -1    0    0  501  502 -0.00000000000E+00 -0.00000000000E+00 -0.46897142812E+03  0.46897142812E+03  0.00000000000E+00 0.  1.
         21    1    1    2  503  505  0.82633838656E+02 -0.22032495344E+02  0.64887871363E+03  0.65449015817E+03  0.00000000000E+00 0.  1.
         21    1    1    2  504  502 -0.14591948583E+03  0.10937884268E+03 -0.42463823182E+03  0.46214051488E+03  0.00000000000E+00 0.  1.
         21    1    1    2  505  506  0.34273741491E+02 -0.21084104378E+02  0.75884046168E+02  0.85893057205E+02  0.00000000000E+00 0.  1.
         21    1    1    2  506  504  0.29011905678E+02 -0.66262242959E+02  0.55833091639E+02  0.91376745592E+02  0.00000000000E+00 0. -1.
<scales pt_clust_3="85.52065" pt_clust_4="173.81043" pt_clust_5="36.84779" pt_clust_6="36.84779"></scales>
<clustering>
<clus scale="   36.848">  5  6 -1 -1</clus>
<clus scale="   85.521">  1  3  2 -1</clus>
<clus scale="  173.810">  2  4  1 -1</clus>
<clus scale="   85.521">  1  3  2 -1</clus>
</clustering>
</event>
<event>
 6    0  0.8641190E+002  0.2160057E+03  0.7546771E-02  0.1136896E+00
         21   -1    0    0  503  501  0.00000000000E+00  0.00000000000E+00  0.47781845530E+03  0.47781845530E+03  0.00000000000E+00 0. -1.
         21   -1    0    0  506  502 -0.00000000000E+00 -0.00000000000E+00 -0.83663187973E+03  0.83663187973E+03  0.00000000000E+00 0. -1.
         21    1    1    2  503  504 -0.33861881914E+02 -0.29679004537E+02  0.38591195638E+03  0.38852993248E+03  0.00000000000E+00 0. -1.
         21    1    1    2  504  502  0.21731073615E+02  0.22791126894E+03 -0.10423874241E+03  0.25155814733E+03  0.00000000000E+00 0. -1.
         21    1    1    2  505  501 -0.21807337834E+02 -0.15140078894E+03 -0.44980127715E+03  0.47509888213E+03  0.00000000000E+00 0. -1.
         21    1    1    2  506  505  0.33938146134E+02 -0.46831475460E+02 -0.19068536126E+03  0.19926337309E+03  0.00000000000E+00 0. -1.
<scales pt_clust_3="45.02744" pt_clust_4="203.86348" pt_clust_5="43.90464" pt_clust_6="43.90464"></scales>
<clustering>
<clus scale="   43.905">  5  6 -1 -1</clus>
<clus scale="   45.027">  1  3  2 -1</clus>
<clus scale="  203.863">  1  4  2 -1</clus>
<clus scale="   45.027">  1  3  2 -1</clus>
</clustering>
</event>
<event>
 6    0  0.8641190E+002  0.2272719E+03  0.7546771E-02  0.1128575E+00
         21   -1    0    0  506  501  0.00000000000E+00  0.00000000000E+00  0.21523711517E+04  0.21523711517E+04  0.00000000000E+00 0. -1.
         21   -1    0    0  505  502 -0.00000000000E+00 -0.00000000000E+00 -0.27689962313E+03  0.27689962313E+03  0.00000000000E+00 0.  1.
         21    1    1    2  503  502  0.54886739678E+02  0.93864058478E+01 -0.11171783641E+03  0.12482601403E+03  0.00000000000E+00 0. -1.
         21    1    1    2  504  503  0.13271005815E+03  0.14543982742E+03 -0.76102002334E+02  0.21108343776E+03  0.00000000000E+00 0.  1.
         21    1    1    2  505  501  0.65794966279E+01 -0.33542639908E+02  0.25238192844E+02  0.42489585146E+02  0.00000000000E+00 0.  1.
         21    1    1    2  506  504 -0.19417629446E+03 -0.12128359336E+03  0.20380531744E+04  0.20508717379E+04  0.00000000000E+00 0. -1.
<scales pt_clust_3="58.03927" pt_clust_4="227.27193" pt_clust_5="34.18184" pt_clust_6="14000.00000"></scales>
<clustering>
<clus scale="   34.182">  2  5  1 -1</clus>
<clus scale="   58.039">  2  3  1 -1</clus>
<clus scale="  227.272">  2  4  1 -1</clus>
<clus scale="  227.272">  1  3  2 -1</clus>
</clustering>
</event>
<event>
 6    0  0.8641190E+002  0.1761113E+03  0.7546771E-02  0.1171621E+00
         21   -1    0    0  504  501  0.00000000000E+00  0.00000000000E+00  0.75686731987E+02  0.75686731987E+02  0.00000000000E+00 0. -1.
         21   -1    0    0  506  502 -0.00000000000E+00 -0.00000000000E+00 -0.13829690576E+04  0.13829690576E+04  0.00000000000E+00 0. -1.
         21    1    1    2  503  502  0.19709969976E+02  0.19331578651E+03 -0.11110252442E+04  0.11278903180E+04  0.00000000000E+00 0. -1.
         21    1    1    2  504  503 -0.74819917579E+02 -0.40806304920E+02 -0.59749789247E+02  0.10408271664E+03  0.00000000000E+00 0. -1.
         21    1    1    2  505  501 -0.72591405863E+01 -0.32627676742E+02  0.15946440902E+01  0.33463462185E+02  0.00000000000E+00 0. -1.
         21    1    1    2  506  505  0.62369088189E+02 -0.11988180484E+03 -0.13810193628E+03  0.19321929277E+03  0.00000000000E+00 0. -1.
<scales pt_clust_3="14000.00000" pt_clust_4="94.09794" pt_clust_5="33.42545" pt_clust_6="176.11127"></scales>
<clustering>
<clus scale="   33.425">  1  5  2 -1</clus>
<clus scale="   94.098">  1  4  2 -1</clus>
<clus scale="  176.111">  1  6  2 -1</clus>
<clus scale="   33.425">  1  3  2 -1</clus>
</clustering>
</event>
<event>
 6    0  0.8641190E+002  0.9093234E+02  0.7546771E-02  0.1300609E+00
         21   -1    0    0  503  501  0.00000000000E+00  0.00000000000E+00  0.10897971071E+03  0.10897971071E+03  0.00000000000E+00 0. -1.
         21   -1    0    0  505  502 -0.00000000000E+00 -0.00000000000E+00 -0.40133152123E+03  0.40133152123E+03  0.00000000000E+00 0.  1.
         21    1    1    2  503  502  0.88178956237E+02 -0.29977169700E+02  0.67816700552E+02  0.11520965194E+03  0.00000000000E+00 0. -1.
         21    1    1    2  504  506 -0.50260794462E+02 -0.18538868710E+02 -0.96546691279E+02  0.11041331763E+03  0.00000000000E+00 0.  1.
         21    1    1    2  505  504  0.27329213905E+02  0.19274455240E+02 -0.57506250141E+02  0.66523374560E+02  0.00000000000E+00 0.  1.
         21    1    1    2  506  501 -0.65247375679E+02  0.29241583169E+02 -0.20611556965E+03  0.21816488781E+03  0.00000000000E+00 0.  1.
<scales pt_clust_3="90.93234" pt_clust_4="43.79626" pt_clust_5="33.44235" pt_clust_6="14000.00000"></scales>
<clustering>
<clus scale="   33.442">  2  5  1 -1</clus>
<clus scale="   43.796">  2  4  1 -1</clus>
<clus scale="   90.932">  1  3  2 -1</clus>
<clus scale="   90.932">  1  3  2 -1</clus>
</clustering>
</event>
<event>
 6    0  0.9369470E+002  0.1213229E+03  0.7546771E-02  0.1240930E+00
         21   -1    0    0  506  501  0.00000000000E+00  0.00000000000E+00  0.32224265477E+03  0.32224265477E+03  0.00000000000E+00 0. -1.
         21   -1    0    0  505  502 -0.00000000000E+00 -0.00000000000E+00 -0.62033732830E+03  0.62033732830E+03  0.00000000000E+00 0. -1.
         21    1    1    2  503  501  0.51961700980E+02 -0.24894896035E+02  0.10079353509E+03  0.11609957336E+03  0.00000000000E+00 0.  1.
         21    1    1    2  504  503  0.28350485168E+02 -0.31572260305E+02  0.15729170749E+03  0.16291482092E+03  0.00000000000E+00 0. -1.
         21    1    1    2  505  504 -0.11230351683E+03  0.24838033262E+02 -0.59385228696E+03  0.60488804461E+03  0.00000000000E+00 0. -1.
         21    1    1    2  506  502  0.31991330685E+02  0.31629123078E+02  0.37672370850E+02  0.58677544181E+02  0.00000000000E+00 0. -1.
<scales pt_clust_3="34.35320" pt_clust_4="34.35320" pt_clust_5="114.52858" pt_clust_6="44.98718"></scales>
<clustering>
<clus scale="   34.353">  3  4 -1 -1</clus>
<clus scale="   44.987">  1  6  2 -1</clus>
<clus scale="  114.529">  2  5  1 -1</clus>
<clus scale="   44.987">  1  3  2 -1</clus>
</clustering>
</event>
<event>
 6    0  0.8641190E+002  0.1678204E+03  0.7546771E-02  0.1180140E+00
         21   -1    0    0  504  501  0.00000000000E+00  0.00000000000E+00  0.71141592252E+03  0.71141592252E+03  0.00000000000E+00 0.  1.
         21   -1    0    0  501  502 -0.00000000000E+00 -0.00000000000E+00 -0.13015827944E+03  0.13015827944E+03  0.00000000000E+00 0.  1.
         21    1    1    2  503  506 -0.47425442885E+02  0.40698136826E+02  0.14266676296E+03  0.15575402475E+03  0.00000000000E+00 0.  1.
         21    1    1    2  504  503  0.11642791273E+03 -0.11572571187E+03  0.37746467249E+03  0.41161569240E+03  0.00000000000E+00 0.  1.
         21    1    1    2  505  502 -0.40260347293E+02 -0.20271686313E+02 -0.85692107934E+02  0.96824450385E+02  0.00000000000E+00 0.  1.
         21    1    1    2  506  505 -0.28742122553E+02  0.95299261362E+02  0.14681831557E+03  0.17738003442E+03  0.00000000000E+00 0.  1.
<scales pt_clust_3="42.52174" pt_clust_4="159.00875" pt_clust_5="45.07590" pt_clust_6="42.52174"></scales>
<clustering>
<clus scale="   42.522">  3  6 -1 -1</clus>
<clus scale="   45.076">  2  5  1 -1</clus>
<clus scale="  159.009">  1  4  2 -1</clus>
<clus scale="  159.009">  1  3  2 -1</clus>
</clustering>
</event>
<event>
 6    0  0.8641190E+002  0.1426768E+03  0.7546771E-02  0.1209772E+00
         21   -1    0    0  505  501  0.00000000000E+00  0.00000000000E+00  0.21159515007E+03  0.21159515007E+03  0.00000000000E+00 0.  1.
         21   -1    0    0  504  502 -0.00000000000E+00 -0.00000000000E+00 -0.96293769506E+03  0.96293769506E+03  0.00000000000E+00 0.  1.
         21    1    1    2  503  502  0.73075882878E+02 -0.20625901938E+02 -0.49513464308E+03  0.50092297539E+03  0.00000000000E+00 0.  1.
         21    1    1    2  504  506  0.40020759750E+02 -0.64807983568E+01 -0.55769889090E+02  0.68948839638E+02  0.00000000000E+00 0.  1.
         21    1    1    2  505  503 -0.13542246179E+03 -0.57883421613E+02  0.16943385058E+03  0.22449401635E+03  0.00000000000E+00 0.  1.
         21    1    1    2  506  501  0.22325819165E+02  0.84990121908E+02 -0.36987186339E+03  0.38016701376E+03  0.00000000000E+00 0.  1.
<scales pt_clust_3="14000.00000" pt_clust_4="40.54210" pt_clust_5="142.67682" pt_clust_6="91.06148"></scales>
<clustering>
<clus scale="   40.542">  2  4  1 -1</clus>
<clus scale="   91.061">  2  6  1 -1</clus>
<clus scale="  142.677">  1  5  2 -1</clus>
<clus scale="  142.677">  1  3  2 -1</clus>
</clustering>
</event>
<event>
 6    0  0.8641190E+002  0.1493210E+03  0.7546771E-02  0.1201310E+00
         21   -1    0    0  504  501  0.00000000000E+00  0.00000000000E+00  0.43729955960E+02  0.43729955960E+02  0.00000000000E+00 0.  1.
         21   -1    0    0  505  502 -0.00000000000E+00 -0.00000000000E+00 -0.15534329889E+04  0.15534329889E+04  0.00000000000E+00 0. -1.
         21    1    1    2  503  501 -0.64568053932E+01 -0.60067865766E+02 -0.19264557510E+02  0.63411055894E+02  0.00000000000E+00 0.  1.
         21    1    1    2  504  506 -0.22037752313E+02 -0.11722637375E+03 -0.23921775896E+03  0.26730660566E+03  0.00000000000E+00 0.  1.
         21    1    1    2  505  503  0.42424914112E+02  0.13971663841E+03 -0.11128273253E+04  0.11223659244E+04  0.00000000000E+00 0. -1.
         21    1    1    2  506  502 -0.13930356406E+02  0.37577601101E+02 -0.13839339125E+03  0.14407935895E+03  0.00000000000E+00 0.  1.
<scales pt_clust_3="59.36611" pt_clust_4="14000.00000" pt_clust_5="149.32096" pt_clust_6="40.07656"></scales>
<clustering>
<clus scale="   40.077">  2  6  1 -1</clus>
<clus scale="   59.366">  1  3  2 -1</clus>
<clus scale="  149.321">  2  5  1 -1</clus>
<clus scale="   59.366">  1  3  2 -1</clus>
</clustering>
</event>
<event>
 6    0  0.8641190E+002  0.1356362E+03  0.7546771E-02  0.1219324E+00
         21   -1    0    0  506  501  0.00000000000E+00  0.00000000000E+00  0.14271399133E+03  0.14271399133E+03  0.00000000000E+00 0.  1.
         21   -1    0    0  504  502 -0.00000000000E+00 -0.00000000000E+00 -0.26277201035E+03  0.26277201035E+03  0.00000000000E+00 0.  1.
         21    1    1    2  503  501  0.87698335348E+02  0.10542388632E+03  0.68767873551E+02  0.15340865120E+03  0.00000000000E+00 0.  1.
         21    1    1    2  504  503  0.50744818266E+01 -0.46841270363E+02 -0.30010221290E+02  0.55861152485E+02  0.00000000000E+00 0.  1.
         21    1    1    2  505  502 -0.39887656062E+02 -0.37780595260E+02 -0.10201166653E+03  0.11586534682E+03  0.00000000000E+00 0.  1.
         21    1    1    2  506  505 -0.52885161113E+02 -0.20802020697E+02 -0.56804004749E+02  0.80350851187E+02  0.00000000000E+00 0.  1.
<scales pt_clust_3="130.98670" pt_clust_4="47.11534" pt_clust_5="34.61860" pt_clust_6="34.61860"></scales>
<clustering>
<clus scale="   34.619">  5  6 -1 -1</clus>
<clus scale="   47.115">  2  4  1 -1</clus>
<clus scale="  130.987">  1  3  2 -1</clus>
<clus scale="  130.987">  1  3  2 -1</clus>
</clustering>
</event>
<event>
 6    0  0.8641190E+002  0.1226342E+03  0.7546771E-02  0.1238814E+00
         21   -1    0    0  504  501  0.00000000000E+00  0.00000000000E+00  0.12777708071E+04  0.12777708071E+04  0.00000000000E+00 0. -1.
         21   -1    0    0  501  502 -0.00000000000E+00 -0.00000000000E+00 -0.57344292473E+02  0.57344292473E+02  0.00000000000E+00 0. -1.
         21    1    1    2  503  505  0.54549454079E+02 -0.36163877596E+02  0.15255880038E+03  0.16600498955E+03  0.00000000000E+00 0. -1.
         21    1    1    2  504  503 -0.72567438942E+02  0.81695738634E+02  0.97890194229E+03  0.98498184731E+03  0.00000000000E+00 0. -1.
         21    1    1    2  505  506  0.40502464485E+02 -0.70160529280E+02  0.11579976328E+03  0.14132421829E+03  0.00000000000E+00 0. -1.
         21    1    1    2  506  502 -0.22484479623E+02  0.24628668241E+02 -0.26833991365E+02  0.42804044386E+02  0.00000000000E+00 0. -1.
<scales pt_clust_3="43.20227" pt_clust_4="113.77157" pt_clust_5="43.20227" pt_clust_6="33.34851"></scales>
<clustering>
<clus scale="   33.349">  2  6  1 -1</clus>
<clus scale="   43.202">  3  5 -1 -1</clus>
<clus scale="  113.772">  1  4  2 -1</clus>
<clus scale="  113.772">  1  3  2 -1</clus>
</clustering>
</event>
<event>
 6    0  0.8641190E+002  0.2145965E+03  0.7546771E-02  0.1137977E+00
         21   -1    0    0  502  501  0.00000000000E+00  0.00000000000E+00  0.21705479720E+03  0.21705479720E+03  0.00000000000E+00 0. -1.
         21   -1    0    0  505  502 -0.00000000000E+00 -0.00000000000E+00 -0.16789706112E+04  0.16789706112E+04  0.00000000000E+00 0.  1.
         21    1    1    2  503  501  0.12235363199E+03  0.10611544131E+02  0.16799085336E+03  0.20809599454E+03  0.00000000000E+00 0. -1.
         21    1    1    2  504  506 -0.11161108750E+03 -0.72052971183E+02 -0.78678705861E+03  0.79792389430E+03  0.00000000000E+00 0.  1.
         21    1    1    2  505  504 -0.81166292104E+02 -0.85236349026E+02 -0.43515067888E+03  0.45078743938E+03  0.00000000000E+00 0.  1.
         21    1    1    2  506  503  0.70423747615E+02  0.14667777608E+03 -0.40796892992E+03  0.43921808023E+03  0.00000000000E+00 0.  1.
<scales pt_clust_3="122.81293" pt_clust_4="61.32734" pt_clust_5="61.32734" pt_clust_6="204.46650"></scales>
<clustering>
<clus scale="   61.327">  4  5 -1 -1</clus>
<clus scale="  122.813">  1  3  2 -1</clus>
<clus scale="  204.466">  1  6  2 -1</clus>
<clus scale="  122.813">  1  3  2 -1</clus>
</clustering>
</event>
<event>
 6    0  0.8641190E+002  0.9734418E+02  0.7546771E-02  0.1285982E+00
         21   -1    0    0  503  501  0.00000000000E+00  0.00000000000E+00  0.75371964421E+03  0.75371964421E+03  0.00000000000E+00 0. -1.
         21   -1    0    0  506  502 -0.00000000000E+00 -0.00000000000E+00 -0.70321128635E+03  0.70321128635E+03  0.00000000000E+00 0. -1.
         21    1    1    2  503  504 -0.28978032732E+02 -0.79500875852E+02 -0.28856367378E+02  0.89402492026E+02  0.00000000000E+00 0.  1.
         21    1    1    2  504  502  0.65839842195E+02 -0.71497053727E+02 -0.61992657192E+03  0.62749953632E+03  0.00000000000E+00 0. -1.
         21    1    1    2  505  501  0.31919937179E+02  0.73791459611E+02  0.56423763252E+03  0.56993698586E+03  0.00000000000E+00 0. -1.
         21    1    1    2  506  505 -0.68781746642E+02  0.77206469968E+02  0.13505366464E+03  0.17009191635E+03  0.00000000000E+00 0. -1.
<scales pt_clust_3="71.60270" pt_clust_4="97.34418" pt_clust_5="80.39939" pt_clust_6="14000.00000"></scales>
<clustering>
<clus scale="   80.399">  1  5  2 -1</clus>
<clus scale="   71.603">  1  3  2 -1</clus>
<clus scale="   97.344">  2  4  1 -1</clus>
<clus scale="   80.399">  1  3  2 -1</clus>
</clustering>
</event>
<event>
 6    0  0.8641190E+002  0.1714626E+03  0.7546771E-02  0.1176331E+00
         21   -1    0    0  506  501  0.00000000000E+00  0.00000000000E+00  0.52714989040E+03  0.52714989040E+03  0.00000000000E+00 0.  1.
         21   -1    0    0  504  502 -0.00000000000E+00 -0.00000000000E+00 -0.14914536191E+03  0.14914536191E+03  0.00000000000E+00 0. -1.
         21    1    1    2  503  501  0.97190777704E+02  0.10334436328E+03 -0.14845884183E+02  0.14264117557E+03  0.00000000000E+00 0. -1.
         21    1    1    2  504  503 -0.26809393817E+01  0.53870547537E+02 -0.23493701166E+02  0.58831771369E+02  0.00000000000E+00 0. -1.
         21    1    1    2  505  502 -0.73526209265E+02 -0.83877997080E+02  0.10130360401E+03  0.15067860508E+03  0.00000000000E+00 0. -1.
         21    1    1    2  506  505 -0.20983629057E+02 -0.73336913733E+02  0.31504050983E+03  0.32414370029E+03  0.00000000000E+00 0.  1.
<scales pt_clust_3="45.61510" pt_clust_4="45.61510" pt_clust_5="154.68234" pt_clust_6="76.27985"></scales>
<clustering>
<clus scale="   45.615">  3  4 -1 -1</clus>
<clus scale="   76.280">  1  6  2 -1</clus>
<clus scale="  154.682">  1  5  2 -1</clus>
<clus scale="   76.280">  1  3  2 -1</clus>
</clustering>
</event>
<event>
 6    0  0.8641190E+002  0.1023958E+03  0.7546771E-02  0.1275337E+00
         21   -1    0    0  505  501  0.00000000000E+00  0.00000000000E+00  0.16270218289E+03  0.16270218289E+03  0.00000000000E+00 0. -1.
         21   -1    0    0  504  502 -0.00000000000E+00 -0.00000000000E+00 -0.83439432277E+03  0.83439432277E+03  0.00000000000E+00 0.  1.
         21    1    1    2  503  501 -0.35436051673E+02  0.62234786805E+01 -0.19646917896E+02  0.40993253443E+02  0.00000000000E+00 0. -1.
         21    1    1    2  504  503  0.78205367418E+01 -0.95134076875E+02 -0.53176338090E+03  0.54026284959E+03  0.00000000000E+00 0.  1.
         21    1    1    2  505  506  0.67320741399E+01 -0.41582675389E+02  0.12790441807E+03  0.13466246647E+03  0.00000000000E+00 0. -1.
         21    1    1    2  506  502  0.20883440791E+02  0.13049327358E+03 -0.24818625915E+03  0.28117793615E+03  0.00000000000E+00 0.  1.
<scales pt_clust_3="35.97840" pt_clust_4="14000.00000" pt_clust_5="43.36766" pt_clust_6="102.39580"></scales>
<clustering>
<clus scale="   35.978">  1  3  2 -1</clus>
<clus scale="   43.368">  1  5  2 -1</clus>
<clus scale="  102.396">  1  6  2 -1</clus>
<clus scale="   35.978">  1  3  2 -1</clus>
</clustering>
</event>
<event>
 6    0  0.8641190E+002  0.9265396E+02  0.7546771E-02  0.1296549E+00
         21   -1    0    0  503  501  0.00000000000E+00  0.00000000000E+00  0.34887399847E+03  0.34887399847E+03  0.00000000000E+00 0.  1.
         21   -1    0    0  505  502 -0.00000000000E+00 -0.00000000000E+00 -0.11049639924E+03  0.11049639924E+03  0.00000000000E+00 0. -1.
         21    1    1    2  503  506  0.58135871309E+02  0.36742173919E+02  0.75020328033E+02  0.10177335848E+03  0.00000000000E+00 0.  1.
         21    1    1    2  504  502  0.50002218966E+02  0.21245744705E+02 -0.53521363628E+02  0.76263621303E+02  0.00000000000E+00 0. -1.
         21    1    1    2  505  501 -0.19641662488E+02  0.26797255390E+02  0.11765101773E+01  0.33245630960E+02  0.00000000000E+00 0.  1.
         21    1    1    2  506  504 -0.88496427788E+02 -0.84785174014E+02  0.21570212465E+03  0.24808778697E+03  0.00000000000E+00 0.  1.
<scales pt_clust_3="92.65396" pt_clust_4="53.90174" pt_clust_5="33.22481" pt_clust_6="14000.00000"></scales>
<clustering>
<clus scale="   33.225">  2  5  1 -1</clus>
<clus scale="   53.902">  2  4  1 -1</clus>
<clus scale="   92.654">  1  3  2 -1</clus>
<clus scale="   92.654">  1  3  2 -1</clus>
</clustering>
</event>
<event>
 6    0  0.8641190E+002  0.9783225E+02  0.7546771E-02  0.1284922E+00
         21   -1    0    0  505  501  0.00000000000E+00  0.00000000000E+00  0.38643328229E+03  0.38643328229E+03  0.00000000000E+00 0.  1.
         21   -1    0    0  503  502 -0.00000000000E+00 -0.00000000000E+00 -0.16090663770E+03  0.16090663770E+03  0.00000000000E+00 0.  1.
         21    1    1    2  503  504  0.68234082566E+02  0.56562802985E+02 -0.10288427179E+03  0.13579548626E+03  0.00000000000E+00 0.  1.
         21    1    1    2  504  501 -0.30043393839E+02  0.28672587400E+02  0.56604851328E+02  0.70205640624E+02  0.00000000000E+00 0.  1.
         21    1    1    2  505  506 -0.77268488787E+02 -0.25344305331E+02  0.25531113710E+03  0.26794874491E+03  0.00000000000E+00 0.  1.
         21    1    1    2  506  502  0.39077800060E+02 -0.59891085054E+02  0.16494927957E+02  0.73390048200E+02  0.00000000000E+00 0.  1.
<scales pt_clust_3="97.83225" pt_clust_4="41.52978" pt_clust_5="14000.00000" pt_clust_6="65.90058"></scales>
<clustering>
<clus scale="   41.530">  1  4  2 -1</clus>
<clus scale="   65.901">  2  6  1 -1</clus>
<clus scale="   97.832">  2  3  1 -1</clus>
<clus scale="   41.530">  1  3  2 -1</clus>
</clustering>
</event>
<event>
 6    0  0.8641190E+002  0.8529724E+02  0.7546771E-02  0.1314657E+00
         21   -1    0    0  505  501  0.00000000000E+00  0.00000000000E+00  0.71908051681E+03  0.71908051681E+03  0.00000000000E+00 0. -1.
         21   -1    0    0  506  502 -0.00000000000E+00 -0.00000000000E+00 -0.24121188160E+03  0.24121188160E+03  0.00000000000E+00 0. -1.
         21    1    1    2  503  502 -0.71263606322E+00 -0.34839593175E+02 -0.90316239040E+02  0.96805620380E+02  0.00000000000E+00 0. -1.
         21    1    1    2  504  501  0.61930525995E+02  0.60641476099E+02  0.67417767890E+03  0.67972665198E+03  0.00000000000E+00 0. -1.
         21    1    1    2  505  503  0.17765099265E+00 -0.72757404973E+02 -0.48795056269E+02  0.87604960216E+02  0.00000000000E+00 0. -1.
         21    1    1    2  506  504 -0.61395540924E+02  0.46955522049E+02 -0.57197748390E+02  0.96155165837E+02  0.00000000000E+00 0. -1.
<scales pt_clust_3="34.84688" pt_clust_4="14000.00000" pt_clust_5="85.29724" pt_clust_6="68.17672"></scales>
<clustering>
<clus scale="   34.847">  2  3  1 -1</clus>
<clus scale="   68.177">  2  6  1 -1</clus>
<clus scale="   85.297">  2  5  1 -1</clus>
<clus scale="   85.297">  1  3  2 -1</clus>
</clustering>
</event>
<event>
 6    0  0.8641190E+002  0.1124843E+03  0.7546771E-02  0.1256037E+00
         21   -1    0    0  506  501  0.00000000000E+00  0.00000000000E+00  0.58888076181E+03  0.58888076181E+03  0.00000000000E+00 0.  1.
         21   -1    0    0  505  502 -0.00000000000E+00 -0.00000000000E+00 -0.21036675744E+03  0.21036675744E+03  0.00000000000E+00 0.  1.
         21    1    1    2  503  504  0.39885659490E+02 -0.11903322817E+02  0.22415199283E+02  0.47275745218E+02  0.00000000000E+00 0. -1.
         21    1    1    2  504  502  0.57113189687E+02  0.31976638104E+02  0.45653119307E+02  0.79803691162E+02  0.00000000000E+00 0. -1.
         21    1    1    2  505  501 -0.87497859344E+02 -0.61018314088E+02 -0.16412202878E+03  0.19574256148E+03  0.00000000000E+00 0.  1.
         21    1    1    2  506  503 -0.95009898327E+01  0.40944998801E+02  0.47456771456E+03  0.47642552140E+03  0.00000000000E+00 0.  1.
<scales pt_clust_3="32.91967" pt_clust_4="32.91967" pt_clust_5="104.63531" pt_clust_6="42.03286"></scales>
<clustering>
<clus scale="   32.920">  3  4 -1 -1</clus>
<clus scale="   42.033">  1  6  2 -1</clus>
<clus scale="  104.635">  2  5  1 -1</clus>
<clus scale="   42.033">  1  3  2 -1</clus>
</clustering>
</event>
<event>
 6    0  0.8641190E+002  0.3490335E+03  0.7546771E-02  0.1063012E+00
         21   -1    0    0  503  501  0.00000000000E+00  0.00000000000E+00  0.14163838252E+03  0.14163838252E+03  0.00000000000E+00 0.  1.
         21   -1    0    0  504  502 -0.00000000000E+00 -0.00000000000E+00 -0.13412726447E+04  0.13412726447E+04  0.00000000000E+00 0.  1.
         21    1    1    2  503  506  0.25933431953E+03  0.15222307103E+03 -0.56673155164E+03  0.64156901754E+03  0.00000000000E+00 0.  1.
         21    1    1    2  504  505 -0.84386768173E+02 -0.32032555233E+02 -0.11677907348E+03  0.14759594588E+03  0.00000000000E+00 0.  1.
         21    1    1    2  505  501 -0.26291105957E+03 -0.68943733605E+02 -0.14327889039E+03  0.30725283412E+03  0.00000000000E+00 0.  1.
         21    1    1    2  506  502  0.87963508215E+02 -0.51246782189E+02 -0.37284474666E+03  0.38649322966E+03  0.00000000000E+00 0.  1.
<scales pt_clust_3="336.71811" pt_clust_4="52.95831" pt_clust_5="52.95831" pt_clust_6="101.80281"></scales>
<clustering>
<clus scale="   52.958">  4  5 -1 -1</clus>
<clus scale="  101.803">  2  6  1 -1</clus>
<clus scale="  336.718">  2  3  1 -1</clus>
<clus scale="  349.033">  1  3  2 -1</clus>
</clustering>
</event>
<event>
 6    0  0.8641190E+002  0.1380899E+03  0.7546771E-02  0.1215922E+00
         21   -1    0    0  505  501  0.00000000000E+00  0.00000000000E+00  0.18632445970E+03  0.18632445970E+03  0.00000000000E+00 0. -1.
         21   -1    0    0  504  502 -0.00000000000E+00 -0.00000000000E+00 -0.34654575513E+03  0.34654575513E+03  0.00000000000E+00 0. -1.
         21    1    1    2  503  506 -0.60004044005E+02  0.11377866043E+03 -0.55031099720E+02  0.13990886606E+03  0.00000000000E+00 0. -1.
         21    1    1    2  504  503  0.10578343105E+03 -0.10030760396E+03 -0.20594889102E+03  0.25232260186E+03  0.00000000000E+00 0. -1.
         21    1    1    2  505  502 -0.44489608319E+02 -0.45133253430E+02  0.82617615271E+02  0.10412495458E+03  0.00000000000E+00 0. -1.
         21    1    1    2  506  501 -0.12897787211E+01  0.31662196962E+02  0.18141080032E+02  0.36513792331E+02  0.00000000000E+00 0. -1.
<scales pt_clust_3="14000.00000" pt_clust_4="138.08993" pt_clust_5="52.45610" pt_clust_6="31.68846"></scales>
<clustering>
<clus scale="   31.688">  1  6  2 -1</clus>
<clus scale="   52.456">  1  5  2 -1</clus>
<clus scale="  138.090">  2  4  1 -1</clus>
<clus scale="   31.688">  1  3  2 -1</clus>
</clustering>
</event>
<event>
 6    0  0.8641190E+002  0.1233149E+03  0.7546771E-02  0.1237727E+00
         21   -1    0    0  505  501  0.00000000000E+00  0.00000000000E+00  0.19026086069E+04  0.19026086069E+04  0.00000000000E+00 0. -1.
         21   -1    0    0  504  502 -0.00000000000E+00 -0.00000000000E+00 -0.49488386329E+02  0.49488386329E+02  0.00000000000E+00 0. -1.
         21    1    1    2  503  502  0.10555964681E+03  0.32279566830E+02  0.59170615381E+03  0.60191443073E+03  0.00000000000E+00 0. -1.
         21    1    1    2  504  506  0.63189954162E+02 -0.87505688435E+02  0.48031401210E+02  0.11814072675E+03  0.00000000000E+00 0. -1.
         21    1    1    2  505  503 -0.27609352430E+02  0.66506402534E+02  0.41498256598E+03  0.42118393605E+03  0.00000000000E+00 0. -1.
         21    1    1    2  506  501 -0.14114024854E+03 -0.11280280929E+02  0.79840009955E+03  0.81085789967E+03  0.00000000000E+00 0. -1.
<scales pt_clust_3="14000.00000" pt_clust_4="104.01797" pt_clust_5="72.00957" pt_clust_6="123.31488"></scales>
<clustering>
<clus scale="   72.010">  1  5  2 -1</clus>
<clus scale="  104.018">  2  4  1 -1</clus>
<clus scale="  123.315">  2  6  1 -1</clus>
<clus scale="   72.010">  1  3  2 -1</clus>
</clustering>
</event>
<event>
 6    0  0.8641190E+002  0.1455496E+03  0.7546771E-02  0.1206051E+00
         21   -1    0    0  506  501  0.00000000000E+00  0.00000000000E+00  0.88746161999E+03  0.88746161999E+03  0.00000000000E+00 0. -1.
         21   -1    0    0  504  502 -0.00000000000E+00 -0.00000000000E+00 -0.20058014068E+03  0.20058014068E+03  0.00000000000E+00 0. -1.
         21    1    1    2  503  501 -0.82677991814E+02 -0.12404633679E+03  0.51276619348E+03  0.53399654791E+03  0.00000000000E+00 0. -1.
         21    1    1    2  504  503  0.50779139433E+02  0.63383667281E+01 -0.17387820608E+03  0.18125210742E+03  0.00000000000E+00 0. -1.
         21    1    1    2  505  502  0.29314145213E+02  0.36853186816E+02  0.79731093023E+02  0.92598723980E+02  0.00000000000E+00 0. -1.
         21    1    1    2  506  505  0.25847071682E+01  0.80854783244E+02  0.26826239889E+03  0.28019438136E+03  0.00000000000E+00 0.  1.
<scales pt_clust_3="134.84128" pt_clust_4="51.17320" pt_clust_5="41.80656" pt_clust_6="41.80656"></scales>
<clustering>
<clus scale="   41.807">  5  6 -1 -1</clus>
<clus scale="   51.173">  2  4  1 -1</clus>
<clus scale="  134.841">  1  3  2 -1</clus>
<clus scale="  134.841">  1  3  2 -1</clus>
</clustering>
</event>
<event>
 6    0  0.8641190E+002  0.1993692E+03  0.7546771E-02  0.1150272E+00
         21   -1    0    0  505  501  0.00000000000E+00  0.00000000000E+00  0.59234902574E+03  0.59234902574E+03  0.00000000000E+00 0.  1.
         21   -1    0    0  504  502 -0.00000000000E+00 -0.00000000000E+00 -0.11802546556E+04  0.11802546556E+04  0.00000000000E+00 0. -1.
         21    1    1    2  503  501  0.41140750819E+02  0.87828034036E+02 -0.34002906370E+02  0.10277413382E+03  0.00000000000E+00 0.  1.
         21    1    1    2  504  503 -0.86823059599E+02  0.19481781518E+03 -0.96574091262E+03  0.98901351614E+03  0.00000000000E+00 0. -1.
         21    1    1    2  505  506  0.12416099809E+03 -0.19890618126E+03  0.48914503665E+03  0.54244123117E+03  0.00000000000E+00 0.  1.
         21    1    1    2  506  502 -0.78478689307E+02 -0.83739667953E+02 -0.77306847527E+02  0.13837480023E+03  0.00000000000E+00 0.  1.
<scales pt_clust_3="96.98621" pt_clust_4="199.36923" pt_clust_5="14000.00000" pt_clust_6="109.73185"></scales>
<clustering>
<clus scale="   96.986">  1  3  2 -1</clus>
<clus scale="  109.732">  2  6  1 -1</clus>
<clus scale="  199.369">  2  4  1 -1</clus>
<clus scale="   96.986">  1  3  2 -1</clus>
</clustering>
</event>
<event>
 6    0  0.8641190E+002  0.1988925E+03  0.7546771E-02  0.1150677E+00
         21   -1    0    0  506  501  0.00000000000E+00  0.00000000000E+00  0.16901440795E+03  0.16901440795E+03  0.00000000000E+00 0.  1.
         21   -1    0    0  503  502 -0.00000000000E+00 -0.00000000000E+00 -0.78832275196E+03  0.78832275196E+03  0.00000000000E+00 0.  1.
         21    1    1    2  503  505 -0.10269430642E+03 -0.83303166674E+02  0.47911597153E+02  0.14064515381E+03  0.00000000000E+00 0.  1.
         21    1    1    2  504  502  0.14798319470E+03  0.12465734101E+03 -0.67215058588E+03  0.69944612994E+03  0.00000000000E+00 0.  1.
         21    1    1    2  505  501 -0.76871927057E+02 -0.32566085364E+02  0.99667246728E+01  0.84078407966E+02  0.00000000000E+00 0.  1.
         21    1    1    2  506  504  0.31583038768E+02 -0.87880889726E+01 -0.50360799498E+01  0.33167468201E+02  0.00000000000E+00 0.  1.
<scales pt_clust_3="30.57897" pt_clust_4="195.13369" pt_clust_5="30.57897" pt_clust_6="32.78290"></scales>
<clustering>
<clus scale="   30.579">  3  5 -1 -1</clus>
<clus scale="   32.783">  1  6  2 -1</clus>
<clus scale="  195.134">  2  4  1 -1</clus>
<clus scale="   32.783">  1  3  2 -1</clus>
</clustering>
</event>
<event>
 6    0  0.8641190E+002  0.1395058E+03  0.7546771E-02  0.1213996E+00
         21   -1    0    0  503  501  0.00000000000E+00  0.00000000000E+00  0.20751399451E+03  0.20751399451E+03  0.00000000000E+00 0.  1.
         21   -1    0    0  506  502 -0.00000000000E+00 -0.00000000000E+00 -0.81225703837E+03  0.81225703837E+03  0.00000000000E+00 0.  1.
         21    1    1    2  503  505 -0.57890133060E+02 -0.37304384243E+02 -0.36211677136E+03  0.36860743439E+03  0.00000000000E+00 0.  1.
         21    1    1    2  504  501 -0.41196749157E+02 -0.43463331537E+02  0.13899033983E+03  0.15134248543E+03  0.00000000000E+00 0.  1.
         21    1    1    2  505  502 -0.22526597678E+02 -0.59828884345E+02 -0.28152398120E+03  0.28869134901E+03  0.00000000000E+00 0.  1.
         21    1    1    2  506  504  0.12161347989E+03  0.14059660013E+03 -0.10009263114E+03  0.21112976405E+03  0.00000000000E+00 0.  1.
<scales pt_clust_3="41.62544" pt_clust_4="59.88517" pt_clust_5="41.62544" pt_clust_6="132.64730"></scales>
<clustering>
<clus scale="   41.625">  3  5 -1 -1</clus>
<clus scale="   59.885">  1  4  2 -1</clus>
<clus scale="  132.647">  1  6  2 -1</clus>
<clus scale="   59.885">  1  3  2 -1</clus>
</clustering>
</event>
<event>
 6    0  0.8641190E+002  0.8483893E+02  0.7546771E-02  0.1315854E+00
         21   -1    0    0  504  501  0.00000000000E+00  0.00000000000E+00  0.32271080039E+02  0.32271080039E+02  0.00000000000E+00 0.  1.
         21   -1    0    0  503  502 -0.00000000000E+00 -0.00000000000E+00 -0.88571411930E+03  0.88571411930E+03  0.00000000000E+00 0.  1.
         21    1    1    2  503  505 -0.43995828979E+02  0.31336536698E+02 -0.15178980847E+03  0.16111411315E+03  0.00000000000E+00 0.  1.
         21    1    1    2  504  506 -0.26373147866E+02  0.76824116158E+02 -0.48928531157E+03  0.49598145517E+03  0.00000000000E+00 0.  1.
         21    1    1    2  505  501  0.52170056277E+02 -0.68516766431E+02 -0.66980735907E+02  0.10909940897E+03  0.00000000000E+00 0.  1.
         21    1    1    2  506  502  0.18198920568E+02 -0.39643886424E+02 -0.14538718330E+03  0.15179022205E+03  0.00000000000E+00 0.  1.
<scales pt_clust_3="46.21799" pt_clust_4="84.83893" pt_clust_5="14000.00000" pt_clust_6="43.62154"></scales>
<clustering>
<clus scale="   43.622">  2  6  1 -1</clus>
<clus scale="   46.218">  2  3  1 -1</clus>
<clus scale="   84.839">  2  4  1 -1</clus>
<clus scale="   84.839">  1  3  2 -1</clus>
</clustering>
</event>
<event>
 6    0  0.8641190E+002  0.1726050E+03  0.7546771E-02  0.1175158E+00
         21   -1    0    0  505  501  0.00000000000E+00  0.00000000000E+00  0.20994224533E+04  0.20994224533E+04  0.00000000000E+00 0.  1.
         21   -1    0    0  503  502 -0.00000000000E+00 -0.00000000000E+00 -0.11345887138E+03  0.11345887138E+03  0.00000000000E+00 0. -1.
         21    1    1    2  503  504  0.71696220897E+02 -0.74005952615E+02  0.83817511964E+03  0.84448490827E+03  0.00000000000E+00 0.  1.
         21    1    1    2  504  506 -0.92654409526E+01 -0.41863209607E+02  0.23994575605E+03  0.24374647189E+03  0.00000000000E+00 0.  1.
         21    1    1    2  505  502 -0.10308512812E+03  0.12291930355E+03 -0.48362552289E+02  0.16755487247E+03  0.00000000000E+00 0. -1.
         21    1    1    2  506  501  0.40654348179E+02 -0.70501413298E+01  0.95620525857E+03  0.95709507210E+03  0.00000000000E+00 0.  1.
<scales pt_clust_3="39.25860" pt_clust_4="39.25860" pt_clust_5="158.78549" pt_clust_6="41.26113"></scales>
<clustering>
<clus scale="   41.261">  1  6  2 -1</clus>
<clus scale="   39.259">  3  4 -1 -1</clus>
<clus scale="  158.785">  2  5  1 -1</clus>
<clus scale="   41.261">  1  3  2 -1</clus>
</clustering>
</event>
<event>
 6    0  0.8641190E+002  0.1068647E+03  0.7546771E-02  0.1266489E+00
         21   -1    0    0  504  501  0.00000000000E+00  0.00000000000E+00  0.57860990499E+02  0.57860990499E+02  0.00000000000E+00 0. -1.
         21   -1    0    0  506  502 -0.00000000000E+00 -0.00000000000E+00 -0.31281776917E+03  0.31281776917E+03  0.00000000000E+00 0. -1.
         21    1    1    2  503  502  0.20819898298E+02 -0.45915507808E+02 -0.82237931334E+02  0.96461284319E+02  0.00000000000E+00 0. -1.
         21    1    1    2  504  505 -0.99201955034E+01  0.40913608556E+02 -0.27120573957E+02  0.50078530087E+02  0.00000000000E+00 0. -1.
         21    1    1    2  505  503  0.45013239799E+02  0.69344166122E+02 -0.90821655539E+02  0.12281440570E+03  0.00000000000E+00 0. -1.
         21    1    1    2  506  501 -0.55912942593E+02 -0.64342266869E+02 -0.54776617836E+02  0.10132453956E+03  0.00000000000E+00 0. -1.
<scales pt_clust_3="50.41530" pt_clust_4="36.33968" pt_clust_5="36.33968" pt_clust_6="93.95091"></scales>
<clustering>
<clus scale="   36.340">  4  5 -1 -1</clus>
<clus scale="   50.415">  2  3  1 -1</clus>
<clus scale="   93.951">  1  6  2 -1</clus>
<clus scale="   93.951">  1  3  2 -1</clus>
</clustering>
</event>
<event>
 6    0  0.8641190E+002  0.1292078E+03  0.7546771E-02  0.1228636E+00
         21   -1    0    0  503  501  0.00000000000E+00  0.00000000000E+00  0.76351115511E+02  0.76351115511E+02  0.00000000000E+00 0. -1.
         21   -1    0    0  506  502 -0.00000000000E+00 -0.00000000000E+00 -0.90021670805E+03  0.90021670805E+03  0.00000000000E+00 0. -1.
         21    1    1    2  503  505  0.63253408125E+02  0.77675932291E+02  0.90366890879E+01  0.10057935099E+03  0.00000000000E+00 0. -1.
         21    1    1    2  504  501 -0.59000669012E+02 -0.47514398029E+02 -0.21178616705E+03  0.22492682703E+03  0.00000000000E+00 0. -1.
         21    1    1    2  505  502  0.37985364258E+02 -0.16528257703E+01 -0.12075436321E+02  0.39892805030E+02  0.00000000000E+00 0. -1.
         21    1    1    2  506  504 -0.42238103371E+02 -0.28508708491E+02 -0.60904067825E+03  0.61116884050E+03  0.00000000000E+00 0. -1.
<scales pt_clust_3="37.44644" pt_clust_4="114.01865" pt_clust_5="37.44644" pt_clust_6="50.95884"></scales>
<clustering>
<clus scale="   37.446">  3  5 -1 -1</clus>
<clus scale="   50.959">  2  6  1 -1</clus>
<clus scale="  114.019">  2  4  1 -1</clus>
<clus scale="  129.208">  1  3  2 -1</clus>
</clustering>
</event>
<event>
 6    0  0.8641190E+002  0.7762438E+02  0.7546771E-02  0.1335932E+00
         21   -1    0    0  505  501  0.00000000000E+00  0.00000000000E+00  0.38899656576E+02  0.38899656576E+02  0.00000000000E+00 0.  1.
         21   -1    0    0  506  502 -0.00000000000E+00 -0.00000000000E+00 -0.47192751921E+03  0.47192751921E+03  0.00000000000E+00 0. -1.
         21    1    1    2  503  502  0.27353500511E+01  0.81103274823E+02 -0.16929865941E+03  0.18774253489E+03  0.00000000000E+00 0. -1.
         21    1    1    2  504  503 -0.53533852959E+02  0.35560154329E+01 -0.90861348049E+02  0.10551920786E+03  0.00000000000E+00 0. -1.
         21    1    1    2  505  504  0.45016848010E+02 -0.10429604249E+02 -0.26296541275E+02  0.53167671875E+02  0.00000000000E+00 0.  1.
         21    1    1    2  506  501  0.57816548975E+01 -0.74229686006E+02 -0.14657131389E+03  0.16439776116E+03  0.00000000000E+00 0.  1.
<scales pt_clust_3="77.62438" pt_clust_4="40.58114" pt_clust_5="46.20923" pt_clust_6="14000.00000"></scales>
<clustering>
<clus scale="   46.209">  1  5  2 -1</clus>
<clus scale="   40.581">  1  4  2 -1</clus>
<clus scale="   77.624">  1  3  2 -1</clus>
<clus scale="   46.209">  1  3  2 -1</clus>
</clustering>
</event>
<event>
 6    0  0.8641190E+002  0.9413324E+02  0.7546771E-02  0.1293140E+00
         21   -1    0    0  503  501  0.00000000000E+00  0.00000000000E+00  0.17480205039E+03  0.17480205039E+03  0.00000000000E+00 0. -1.
         21   -1    0    0  505  502 -0.00000000000E+00 -0.00000000000E+00 -0.69220335210E+03  0.69220335210E+03  0.00000000000E+00 0. -1.
         21    1    1    2  503  504  0.45435834233E+02 -0.25608493962E+02  0.12511313658E+03  0.13554890977E+03  0.00000000000E+00 0. -1.
         21    1    1    2  504  502 -0.82217098104E+02 -0.73403363554E+02 -0.54615632707E+03  0.55716643707E+03  0.00000000000E+00 0. -1.
         21    1    1    2  505  506  0.56435759343E+00  0.77318136431E+02 -0.10578813836E+03  0.13103260258E+03  0.00000000000E+00 0.  1.
         21    1    1    2  506  501  0.36216906278E+02  0.21693721085E+02  0.94300271252E+01  0.43257453074E+02  0.00000000000E+00 0. -1.
<scales pt_clust_3="77.50894" pt_clust_4="94.13324" pt_clust_5="14000.00000" pt_clust_6="42.21708"></scales>
<clustering>
<clus scale="   42.217">  1  6  2 -1</clus>
<clus scale="   77.509">  1  3  2 -1</clus>
<clus scale="   94.133">  2  4  1 -1</clus>
<clus scale="   42.217">  1  3  2 -1</clus>
</clustering>
</event>
<event>
 6    0  0.8641190E+002  0.1682031E+03  0.7546771E-02  0.1179735E+00
         21   -1    0    0  505  501  0.00000000000E+00  0.00000000000E+00  0.22940351646E+03  0.22940351646E+03  0.00000000000E+00 0. -1.
         21   -1    0    0  503  502 -0.00000000000E+00 -0.00000000000E+00 -0.64956380325E+03  0.64956380325E+03  0.00000000000E+00 0. -1.
         21    1    1    2  503  504  0.99521564792E+01  0.41190929185E+02 -0.46144626461E+03  0.46338795106E+03  0.00000000000E+00 0. -1.
         21    1    1    2  504  501 -0.30773013250E+02  0.12756241806E+03 -0.11922164525E+03  0.17729339960E+03  0.00000000000E+00 0. -1.
         21    1    1    2  505  506 -0.68196422972E+01 -0.57010243631E+02  0.77113215601E+02  0.96141164026E+02  0.00000000000E+00 0. -1.
         21    1    1    2  506  502  0.27640499068E+02 -0.11174310362E+03  0.83394407468E+02  0.14214480501E+03  0.00000000000E+00 0. -1.
<scales pt_clust_3="42.37615" pt_clust_4="161.82081" pt_clust_5="32.41317" pt_clust_6="32.41317"></scales>
<clustering>
<clus scale="   32.413">  5  6 -1 -1</clus>
<clus scale="   42.376">  2  3  1 -1</clus>
<clus scale="  161.821">  2  4  1 -1</clus>
<clus scale="  168.203">  1  3  2 -1</clus>
</clustering>
</event>
<event>
 6    0  0.8641190E+002  0.7589280E+02  0.7546771E-02  0.1341128E+00
         21   -1    0    0  504  501  0.00000000000E+00  0.00000000000E+00  0.18200600106E+03  0.18200600106E+03  0.00000000000E+00 0.  1.
         21   -1    0    0  505  502 -0.00000000000E+00 -0.00000000000E+00 -0.50523342131E+03  0.50523342131E+03  0.00000000000E+00 0.  1.
         21    1    1    2  503  502 -0.47957683222E+02 -0.26135047142E+02 -0.26445536600E+03  0.27003633214E+03  0.00000000000E+00 0.  1.
         21    1    1    2  504  506  0.62314533824E+02  0.18932464500E+02  0.13087354588E+03  0.14618284560E+03  0.00000000000E+00 0.  1.
         21    1    1    2  505  501 -0.38524076922E+02 -0.81037888996E+02 -0.46309940218E+02  0.10097452411E+03  0.00000000000E+00 0.  1.
         21    1    1    2  506  503  0.24167226321E+02  0.88240471637E+02 -0.14333565991E+03  0.17004572051E+03  0.00000000000E+00 0.  1.
<scales pt_clust_3="54.61666" pt_clust_4="63.40784" pt_clust_5="75.89280" pt_clust_6="14000.00000"></scales>
<clustering>
<clus scale="   54.617">  2  3  1 -1</clus>
<clus scale="   63.408">  1  4  2 -1</clus>
<clus scale="   75.893">  1  5  2 -1</clus>
<clus scale="   63.408">  1  3  2 -1</clus>
</clustering>
</event>
<event>
 6    0  0.8641190E+002  0.1228360E+03  0.7546771E-02  0.1238490E+00
         21   -1    0    0  504  501  0.00000000000E+00  0.00000000000E+00  0.41231015418E+03  0.41231015418E+03  0.00000000000E+00 0. -1.
         21   -1    0    0  505  502 -0.00000000000E+00 -0.00000000000E+00 -0.52963288645E+03  0.52963288645E+03  0.00000000000E+00 0. -1.
         21    1    1    2  503  501 -0.45979036282E+02  0.30680633603E+02  0.37056929545E+03  0.37466915510E+03  0.00000000000E+00 0. -1.
         21    1    1    2  504  502 -0.10808583235E+03 -0.19969696351E+01 -0.14717011559E+03  0.18260771606E+03  0.00000000000E+00 0.  1.
         21    1    1    2  505  506  0.22369431403E+02 -0.25636399123E+02 -0.23985467752E+02  0.41628344725E+02  0.00000000000E+00 0. -1.
         21    1    1    2  506  503  0.13169543722E+03 -0.30472648450E+01 -0.31673644438E+03  0.34303782474E+03  0.00000000000E+00 0. -1.
<scales pt_clust_3="55.13996" pt_clust_4="122.83602" pt_clust_5="34.02376" pt_clust_6="14000.00000"></scales>
<clustering>
<clus scale="   34.024">  2  5  1 -1</clus>
<clus scale="   55.140">  1  3  2 -1</clus>
<clus scale="  122.836">  1  4  2 -1</clus>
<clus scale="   55.140">  1  3  2 -1</clus>
</clustering>
</event>
<event>
 6    0  0.8641190E+002  0.1074212E+03  0.7546771E-02  0.1265421E+00
         21   -1    0    0  503  501  0.00000000000E+00  0.00000000000E+00  0.57394095743E+03  0.57394095743E+03  0.00000000000E+00 0. -1.
         21   -1    0    0  506  502 -0.00000000000E+00 -0.00000000000E+00 -0.82834847918E+02  0.82834847918E+02  0.00000000000E+00 0. -1.
         21    1    1    2  503  505  0.26378015940E+02 -0.72788242160E+02  0.42714759649E+03  0.43410712630E+03  0.00000000000E+00 0. -1.
         21    1    1    2  504  501 -0.59544353171E+02  0.31473740237E+02  0.42897936677E+02  0.79852108865E+02  0.00000000000E+00 0. -1.
         21    1    1    2  505  502  0.78134416230E+02  0.16328432686E+02  0.38334724330E+02  0.88550300977E+02  0.00000000000E+00 0. -1.
         21    1    1    2  506  504 -0.44968079000E+02  0.24986069237E+02 -0.17274147982E+02  0.54266269205E+02  0.00000000000E+00 0. -1.
<scales pt_clust_3="77.42046" pt_clust_4="49.59780" pt_clust_5="91.20701" pt_clust_6="49.59780"></scales>
<clustering>
<clus scale="   49.598">  4  6 -1 -1</clus>
<clus scale="   77.420">  1  3  2 -1</clus>
<clus scale="   91.207">  2  5  1 -1</clus>
<clus scale="   77.420">  1  3  2 -1</clus>
</clustering>
</event>
<event>
 6    0  0.8641190E+002  0.9561618E+02  0.7546771E-02  0.1289794E+00
         21   -1    0    0  503  501  0.00000000000E+00  0.00000000000E+00  0.20331403526E+04  0.20331403526E+04  0.00000000000E+00 0. -1.
         21   -1    0    0  505  502 -0.00000000000E+00 -0.00000000000E+00 -0.38518923813E+03  0.38518923813E+03  0.00000000000E+00 0. -1.
         21    1    1    2  503  506 -0.85431225456E+02  0.25732002800E+02  0.46686250530E+02  0.10069874001E+03  0.00000000000E+00 0.  1.
         21    1    1    2  504  501  0.15640988466E+02  0.48452276244E+02  0.19457826551E+04  0.19464486648E+04  0.00000000000E+00 0. -1.
         21    1    1    2  505  504  0.37329489823E+02  0.24725288539E+01 -0.37082272782E+02  0.52675413278E+02  0.00000000000E+00 0. -1.
         21    1    1    2  506  502  0.32460747168E+02 -0.76656807898E+02 -0.30743551837E+03  0.31850677270E+03  0.00000000000E+00 0. -1.
<scales pt_clust_3="95.61618" pt_clust_4="50.92781" pt_clust_5="37.41128" pt_clust_6="14000.00000"></scales>
<clustering>
<clus scale="   37.411">  2  5  1 -1</clus>
<clus scale="   50.928">  1  4  2 -1</clus>
<clus scale="   95.616">  1  3  2 -1</clus>
<clus scale="   50.928">  1  3  2 -1</clus>
</clustering>
</event>
<event>
 6    0  0.8641190E+002  0.2900341E+03  0.7546771E-02  0.1090331E+00
         21   -1    0    0  506  501  0.00000000000E+00  0.00000000000E+00  0.51347065484E+03  0.51347065484E+03  0.00000000000E+00 0. -1.
         21   -1    0    0  504  502 -0.00000000000E+00 -0.00000000000E+00 -0.44607673822E+03  0.44607673822E+03  0.00000000000E+00 0.  1.
         21    1    1    2  503  505  0.11597158340E+03 -0.16471172266E+03  0.17848823755E+03  0.26914198982E+03  0.00000000000E+00 0. -1.
         21    1    1    2  504  501 -0.19683424207E+02  0.39322783520E+02  0.82184952240E+01  0.44735468657E+02  0.00000000000E+00 0. -1.
         21    1    1    2  505  502 -0.16874727819E+03  0.21773557217E+03 -0.31438925258E+03  0.41800122658E+03  0.00000000000E+00 0.  1.
         21    1    1    2  506  503  0.72459118994E+02 -0.92346633025E+02  0.19507643643E+03  0.22766870801E+03  0.00000000000E+00 0. -1.
<scales pt_clust_3="55.61975" pt_clust_4="43.97407" pt_clust_5="280.06181" pt_clust_6="55.61975"></scales>
<clustering>
<clus scale="   43.974">  1  4  2 -1</clus>
<clus scale="   55.620">  3  6 -1 -1</clus>
<clus scale="  280.062">  2  5  1 -1</clus>
<clus scale="   43.974">  1  3  2 -1</clus>
</clustering>
</event>
<event>
 6    0  0.8641190E+002  0.1856032E+03  0.7546771E-02  0.1162488E+00
         21   -1    0    0  504  501  0.00000000000E+00  0.00000000000E+00  0.15583906444E+04  0.15583906444E+04  0.00000000000E+00 0.  1.
         21   -1    0    0  506  502 -0.00000000000E+00 -0.00000000000E+00 -0.31792503022E+03  0.31792503022E+03  0.00000000000E+00 0. -1.
         21    1    1    2  503  502  0.13105753024E+03  0.11515491425E+03  0.82925163869E+03  0.84740486827E+03  0.00000000000E+00 0.  1.
         21    1    1    2  504  503 -0.68564062113E+02  0.13755346314E+03  0.47903024867E+03  0.50308246339E+03  0.00000000000E+00 0.  1.
         21    1    1    2  505  501 -0.46389458312E+02 -0.14992830723E+03  0.19081087443E+03  0.24706126558E+03  0.00000000000E+00 0.  1.
         21    1    1    2  506  505 -0.16104009813E+02 -0.10278007017E+03 -0.25862714760E+03  0.27876707738E+03  0.00000000000E+00 0. -1.
<scales pt_clust_3="14000.00000" pt_clust_4="133.79026" pt_clust_5="185.60318" pt_clust_6="104.03404"></scales>
<clustering>
<clus scale="  104.034">  2  6  1 -1</clus>
<clus scale="  133.790">  1  4  2 -1</clus>
<clus scale="  185.603">  2  5  1 -1</clus>
<clus scale="  133.790">  1  3  2 -1</clus>
</clustering>
</event>
<event>
 6    0  0.8641190E+002  0.8579419E+02  0.7546771E-02  0.1313369E+00
         21   -1    0    0  504  501  0.00000000000E+00  0.00000000000E+00  0.69554432174E+03  0.69554432174E+03  0.00000000000E+00 0. -1.
         21   -1    0    0  505  502 -0.00000000000E+00 -0.00000000000E+00 -0.69677638942E+02  0.69677638942E+02  0.00000000000E+00 0. -1.
         21    1    1    2  503  501 -0.67766248920E+02  0.52025988685E+02  0.43685639118E+03  0.44513197426E+03  0.00000000000E+00 0. -1.
         21    1    1    2  504  502  0.10015173393E+03 -0.88905145457E+01  0.98324890897E+02  0.14063141622E+03  0.00000000000E+00 0. -1.
         21    1    1    2  505  506  0.20251640964E+02 -0.22345916584E+02 -0.32230781708E+02  0.44139463512E+02  0.00000000000E+00 0. -1.
         21    1    1    2  506  503 -0.52637125972E+02 -0.20789557555E+02  0.12291618243E+03  0.13531910670E+03  0.00000000000E+00 0. -1.
<scales pt_clust_3="14000.00000" pt_clust_4="85.79419" pt_clust_5="30.15740" pt_clust_6="54.78389"></scales>
<clustering>
<clus scale="   30.157">  2  5  1 -1</clus>
<clus scale="   54.784">  2  6  1 -1</clus>
<clus scale="   85.794">  2  4  1 -1</clus>
<clus scale="   85.794">  1  3  2 -1</clus>
</clustering>
</event>
<event>
 6    0  0.8641190E+002  0.8615483E+02  0.7546771E-02  0.1312440E+00
         21   -1    0    0  506  501  0.00000000000E+00  0.00000000000E+00  0.20779624873E+03  0.20779624873E+03  0.00000000000E+00 0.  1.
         21   -1    0    0  504  502 -0.00000000000E+00 -0.00000000000E+00 -0.95162958032E+03  0.95162958032E+03  0.00000000000E+00 0.  1.
         21    1    1    2  503  505 -0.39391741287E+02  0.12093860168E+02 -0.95870098285E+02  0.10435059406E+03  0.00000000000E+00 0.  1.
         21    1    1    2  504  503  0.54708037760E+01 -0.35263715940E+02 -0.74759641176E+02  0.82839986145E+02  0.00000000000E+00 0.  1.
         21    1    1    2  505  501 -0.85099792189E+02  0.10769549832E+02  0.18538390567E+03  0.20426735010E+03  0.00000000000E+00 0.  1.
         21    1    1    2  506  502  0.11902072970E+03  0.12400305940E+02 -0.75858749780E+03  0.76796789875E+03  0.00000000000E+00 0.  1.
<scales pt_clust_3="39.59114" pt_clust_4="35.68556" pt_clust_5="86.15483" pt_clust_6="14000.00000"></scales>
<clustering>
<clus scale="   35.686">  2  4  1 -1</clus>
<clus scale="   39.591">  2  3  1 -1</clus>
<clus scale="   86.155">  1  5  2 -1</clus>
<clus scale="   86.155">  1  3  2 -1</clus>
</clustering>
</event>
<event>
 6    0  0.8641190E+002  0.1192622E+03  0.7546771E-02  0.1244319E+00
         21   -1    0    0  502  501  0.00000000000E+00  0.00000000000E+00  0.11304862703E+04  0.11304862703E+04  0.00000000000E+00 0.  1.
         21   -1    0    0  504  502 -0.00000000000E+00 -0.00000000000E+00 -0.22050344634E+02  0.22050344634E+02  0.00000000000E+00 0.  1.
         21    1    1    2  503  501 -0.34716039221E+02 -0.37533903963E+02  0.33128619462E+03  0.33520820407E+03  0.00000000000E+00 0.  1.
         21    1    1    2  504  506  0.48417758371E+01  0.45681580808E+02  0.46034378363E+02  0.65033941982E+02  0.00000000000E+00 0.  1.
         21    1    1    2  505  503 -0.40108154386E+01 -0.88001975173E+02  0.43010996441E+03  0.43903874061E+03  0.00000000000E+00 0.  1.
         21    1    1    2  506  505  0.33885078822E+02  0.79854298329E+02  0.30100538830E+03  0.31325572830E+03  0.00000000000E+00 0.  1.
<scales pt_clust_3="37.90176" pt_clust_4="45.93745" pt_clust_5="37.90176" pt_clust_6="108.38949"></scales>
<clustering>
<clus scale="   37.902">  3  5 -1 -1</clus>
<clus scale="   45.937">  2  4  1 -1</clus>
<clus scale="  108.389">  2  6  1 -1</clus>
<clus scale="  119.262">  1  3  2 -1</clus>
</clustering>
</event>
<event>
 6    0  0.8641190E+002  0.1186868E+03  0.7546771E-02  0.1245279E+00
         21   -1    0    0  505  501  0.00000000000E+00  0.00000000000E+00  0.38381013857E+03  0.38381013857E+03  0.00000000000E+00 0.  1.
         21   -1    0    0  504  502 -0.00000000000E+00 -0.00000000000E+00 -0.12424183114E+03  0.12424183114E+03  0.00000000000E+00 0.  1.
         21    1    1    2  503  501 -0.66968657066E+02  0.57859172092E+02  0.21621749161E+03  0.23362895476E+03  0.00000000000E+00 0.  1.
         21    1    1    2  504  503  0.12725101509E+03  0.89343091018E+01 -0.51729405545E+02  0.13765381985E+03  0.00000000000E+00 0.  1.
         21    1    1    2  505  506 -0.32348568306E+02 -0.16648980221E+02  0.57893763588E+02  0.68376211333E+02  0.00000000000E+00 0.  1.
         21    1    1    2  506  502 -0.27933789717E+02 -0.50144500973E+02  0.37186457774E+02  0.68392983760E+02  0.00000000000E+00 0.  1.
<scales pt_clust_3="88.50133" pt_clust_4="111.87643" pt_clust_5="31.54761" pt_clust_6="31.54761"></scales>
<clustering>
<clus scale="   31.548">  5  6 -1 -1</clus>
<clus scale="   88.501">  1  3  2 -1</clus>
<clus scale="  111.876">  2  4  1 -1</clus>
<clus scale="   88.501">  1  3  2 -1</clus>
</clustering>
</event>
<event>
 6    0  0.8641190E+002  0.1079635E+03  0.7546771E-02  0.1264388E+00
         21   -1    0    0  504  501  0.00000000000E+00  0.00000000000E+00  0.48056983937E+03  0.48056983937E+03  0.00000000000E+00 0.  1.
         21   -1    0    0  506  502 -0.00000000000E+00 -0.00000000000E+00 -0.62905357018E+02  0.62905357018E+02  0.00000000000E+00 0.  1.
         21    1    1    2  503  505  0.27279386782E+02 -0.38595159150E+02  0.43756311874E+02  0.64407810721E+02  0.00000000000E+00 0.  1.
         21    1    1    2  504  502 -0.12241108450E+03  0.21737254037E+02  0.28246070457E+03  0.30861145709E+03  0.00000000000E+00 0.  1.
         21    1    1    2  505  501  0.85532102366E+02  0.46540914248E+02  0.98462960775E+02  0.13848014976E+03  0.00000000000E+00 0.  1.
         21    1    1    2  506  503  0.95995953513E+01 -0.29683009135E+02 -0.70154948690E+01  0.31975778810E+02  0.00000000000E+00 0.  1.
<scales pt_clust_3="54.39127" pt_clust_4="14000.00000" pt_clust_5="107.96345" pt_clust_6="31.19669"></scales>
<clustering>
<clus scale="   31.197">  2  6  1 -1</clus>
<clus scale="   54.391">  2  3  1 -1</clus>
<clus scale="  107.963">  2  5  1 -1</clus>
<clus scale="  107.963">  1  3  2 -1</clus>
</clustering>
</event>
<event>
 6    0  0.8641190E+002  0.4004168E+03  0.7546771E-02  0.1043635E+00
         21   -1    0    0  504  501  0.00000000000E+00  0.00000000000E+00  0.63707143640E+03  0.63707143640E+03  0.00000000000E+00 0.  1.
         21   -1    0    0  506  502 -0.00000000000E+00 -0.00000000000E+00 -0.13131067777E+04  0.13131067777E+04  0.00000000000E+00 0.  1.
         21    1    1    2  503  501  0.40272170749E+03  0.60705945763E+02  0.28155352740E+03  0.49511854572E+03  0.00000000000E+00 0.  1.
         21    1    1    2  504  505 -0.27627173220E+03 -0.42461520829E+03 -0.38315560367E+03  0.63516325598E+03  0.00000000000E+00 0.  1.
         21    1    1    2  505  502 -0.26495698825E+03  0.24263103604E+03 -0.22212744198E+03  0.42238918754E+03  0.00000000000E+00 0.  1.
         21    1    1    2  506  503  0.13850701297E+03  0.12127822649E+03 -0.35230582304E+03  0.39750722485E+03  0.00000000000E+00 0.  1.
<scales pt_clust_3="400.41683" pt_clust_4="14000.00000" pt_clust_5="357.87530" pt_clust_6="184.09943"></scales>
<clustering>
<clus scale="  184.099">  2  6  1 -1</clus>
<clus scale="  357.875">  2  5  1 -1</clus>
<clus scale="  400.417">  1  3  2 -1</clus>
<clus scale="  400.417">  1  3  2 -1</clus>
</clustering>
</event>
<event>
 6    0  0.8641190E+002  0.9151347E+02  0.7546771E-02  0.1299227E+00
         21   -1    0    0  505  501  0.00000000000E+00  0.00000000000E+00  0.98291661534E+03  0.98291661534E+03  0.00000000000E+00 0.  1.
         21   -1    0    0  506  502 -0.00000000000E+00 -0.00000000000E+00 -0.35838181637E+03  0.35838181637E+03  0.00000000000E+00 0.  1.
         21    1    1    2  503  502 -0.82557603880E+02 -0.52993251198E+02 -0.31645568428E+03  0.33131290760E+03  0.00000000000E+00 0.  1.
         21    1    1    2  504  501  0.46233545954E+02  0.15108376051E+02  0.85938460120E+03  0.86075995294E+03  0.00000000000E+00 0.  1.
         21    1    1    2  505  503  0.58918182114E+02 -0.20455999004E+02  0.41301060767E+02  0.74803594161E+02  0.00000000000E+00 0.  1.
         21    1    1    2  506  504 -0.22594124188E+02  0.58340874151E+02  0.40304821269E+02  0.74421977010E+02  0.00000000000E+00 0.  1.
<scales pt_clust_3="91.51347" pt_clust_4="48.63953" pt_clust_5="14000.00000" pt_clust_6="65.40360"></scales>
<clustering>
<clus scale="   48.640">  1  4  2 -1</clus>
<clus scale="   65.404">  1  6  2 -1</clus>
<clus scale="   91.513">  2  3  1 -1</clus>
<clus scale="   48.640">  1  3  2 -1</clus>
</clustering>
</event>
<event>
 6    0  0.8641190E+002  0.1037805E+03  0.7546771E-02  0.1272541E+00
         21   -1    0    0  506  501  0.00000000000E+00  0.00000000000E+00  0.12730937070E+03  0.12730937070E+03  0.00000000000E+00 0.  1.
         21   -1    0    0  505  502 -0.00000000000E+00 -0.00000000000E+00 -0.38173007678E+03  0.38173007678E+03  0.00000000000E+00 0.  1.
         21    1    1    2  503  502  0.27531529194E+01  0.52754201797E+02 -0.33369324023E+02  0.62482777179E+02  0.00000000000E+00 0.  1.
         21    1    1    2  504  501  0.82342632625E+02 -0.74830040934E+02  0.65865282370E+02  0.12929841297E+03  0.00000000000E+00 0.  1.
         21    1    1    2  505  504 -0.25056023285E+02 -0.26858724693E+02 -0.18835802590E+03  0.19190607420E+03  0.00000000000E+00 0.  1.
         21    1    1    2  506  503 -0.60039762259E+02  0.48934563830E+02 -0.98558638518E+02  0.12535218313E+03  0.00000000000E+00 0.  1.
<scales pt_clust_3="46.16974" pt_clust_4="14000.00000" pt_clust_5="36.73140" pt_clust_6="103.78048"></scales>
<clustering>
<clus scale="   36.731">  2  5  1 -1</clus>
<clus scale="   46.170">  2  3  1 -1</clus>
<clus scale="  103.780">  2  6  1 -1</clus>
<clus scale="  103.780">  1  3  2 -1</clus>
</clustering>
</event>
<event>
 6    0  0.8641190E+002  0.3089143E+03  0.7546771E-02  0.1080867E+00
         21   -1    0    0  505  501  0.00000000000E+00  0.00000000000E+00  0.12290028416E+04  0.12290028416E+04  0.00000000000E+00 0. -1.
         21   -1    0    0  503  502 -0.00000000000E+00 -0.00000000000E+00 -0.29882428141E+03  0.29882428141E+03  0.00000000000E+00 0. -1.
         21    1    1    2  503  501 -0.22233630710E+03 -0.17175857155E+03  0.88065473198E+03  0.92438476692E+03  0.00000000000E+00 0. -1.
         21    1    1    2  504  506  0.64408149021E+02  0.54310295859E+02  0.16618641220E+02  0.85873145585E+02  0.00000000000E+00 0. -1.
         21    1    1    2  505  504  0.26147796563E+03 -0.23322921389E+02  0.15456282122E+03  0.30463806538E+03  0.00000000000E+00 0. -1.
         21    1    1    2  506  502 -0.10354980756E+03  0.14077119708E+03 -0.12165763427E+03  0.21293114509E+03  0.00000000000E+00 0. -1.
<scales pt_clust_3="281.76960" pt_clust_4="71.73422" pt_clust_5="71.73422" pt_clust_6="174.75438"></scales>
<clustering>
<clus scale="   71.734">  4  5 -1 -1</clus>
<clus scale="  174.754">  2  6  1 -1</clus>
<clus scale="  281.770">  1  3  2 -1</clus>
<clus scale="  281.770">  1  3  2 -1</clus>
</clustering>
</event>
<event>
 6    0  0.8641190E+002  0.1261493E+03  0.7546771E-02  0.1233284E+00
         21   -1    0    0  503  501  0.00000000000E+00  0.00000000000E+00  0.75254739643E+03  0.75254739643E+03  0.00000000000E+00 0.  1.
         21   -1    0    0  506  502 -0.00000000000E+00 -0.00000000000E+00 -0.44269485411E+03  0.44269485411E+03  0.00000000000E+00 0.  1.
         21    1    1    2  503  504  0.57706998617E+02  0.22865281810E+02 -0.50816854055E+02  0.80220143716E+02  0.00000000000E+00 0.  1.
         21    1    1    2  504  505  0.32627869157E+02 -0.73397307989E+01 -0.65859222414E+02  0.73863974107E+02  0.00000000000E+00 0.  1.
         21    1    1    2  505  502 -0.35075260250E+01  0.68300872130E+02 -0.29845851511E+03  0.30619405141E+03  0.00000000000E+00 0.  1.
         21    1    1    2  506  501 -0.86827341749E+02 -0.83826423141E+02  0.72498713390E+03  0.73496408131E+03  0.00000000000E+00 0.  1.
<scales pt_clust_3="30.50529" pt_clust_4="30.50529" pt_clust_5="68.39088" pt_clust_6="119.10695"></scales>
<clustering>
<clus scale="   30.505">  3  4 -1 -1</clus>
<clus scale="   68.391">  2  5  1 -1</clus>
<clus scale="  119.107">  1  6  2 -1</clus>
<clus scale="  119.107">  1  3  2 -1</clus>
</clustering>
</event>
<event>
 6    0  0.8641190E+002  0.9948211E+02  0.7546771E-02  0.1281389E+00
         21   -1    0    0  503  501  0.00000000000E+00  0.00000000000E+00  0.76485898756E+03  0.76485898756E+03  0.00000000000E+00 0. -1.
         21   -1    0    0  504  502 -0.00000000000E+00 -0.00000000000E+00 -0.13661828864E+03  0.13661828864E+03  0.00000000000E+00 0.  1.
         21    1    1    2  503  505  0.31985772932E+02  0.41370627535E+02  0.27824166594E+03  0.28311312784E+03  0.00000000000E+00 0. -1.
         21    1    1    2  504  501 -0.23821180926E+02  0.19628583748E+02  0.91342686074E+02  0.96416887835E+02  0.00000000000E+00 0. -1.
         21    1    1    2  505  506  0.76979343936E+02 -0.56999795128E+01  0.36608546905E+03  0.37413484174E+03  0.00000000000E+00 0. -1.
         21    1    1    2  506  502 -0.85143935943E+02 -0.55299231770E+02 -0.10742912214E+03  0.14781241878E+03  0.00000000000E+00 0.  1.
<scales pt_clust_3="54.25174" pt_clust_4="30.86632" pt_clust_5="14000.00000" pt_clust_6="99.48211"></scales>
<clustering>
<clus scale="   30.866">  1  4  2 -1</clus>
<clus scale="   54.252">  1  3  2 -1</clus>
<clus scale="   99.482">  2  6  1 -1</clus>
<clus scale="   30.866">  1  3  2 -1</clus>
</clustering>
</event>
<event>
 6    0  0.8641190E+002  0.2411489E+03  0.7546771E-02  0.1119030E+00
         21   -1    0    0  504  501  0.00000000000E+00  0.00000000000E+00  0.10479924414E+04  0.10479924414E+04  0.00000000000E+00 0.  1.
         21   -1    0    0  506  502 -0.00000000000E+00 -0.00000000000E+00 -0.95710489982E+03  0.95710489982E+03  0.00000000000E+00 0. -1.
         21    1    1    2  503  502 -0.17624387275E+03  0.78816791566E+02 -0.12028995586E+03  0.22747233413E+03  0.00000000000E+00 0. -1.
         21    1    1    2  504  503  0.41105608191E+02  0.12166314987E+03  0.96845396555E+03  0.97693125472E+03  0.00000000000E+00 0.  1.
         21    1    1    2  505  501  0.52887578180E+02 -0.11723279803E+02 -0.16093370111E+03  0.16980632311E+03  0.00000000000E+00 0.  1.
         21    1    1    2  506  505  0.82250686374E+02 -0.18875666164E+03 -0.59634276697E+03  0.63088742929E+03  0.00000000000E+00 0. -1.
<scales pt_clust_3="221.27927" pt_clust_4="128.41960" pt_clust_5="49.16715" pt_clust_6="49.16715"></scales>
<clustering>
<clus scale="   49.167">  5  6 -1 -1</clus>
<clus scale="  128.420">  1  4  2 -1</clus>
<clus scale="  221.279">  1  3  2 -1</clus>
<clus scale="  128.420">  1  3  2 -1</clus>
</clustering>
</event>
<event>
 6    0  0.8641190E+002  0.9122434E+02  0.7546771E-02  0.1299914E+00
         21   -1    0    0  504  501  0.00000000000E+00  0.00000000000E+00  0.29744222535E+03  0.29744222535E+03  0.00000000000E+00 0. -1.
         21   -1    0    0  505  502 -0.00000000000E+00 -0.00000000000E+00 -0.79419348252E+02  0.79419348252E+02  0.00000000000E+00 0. -1.
         21    1    1    2  503  506  0.63288958720E+02 -0.48865724550E+02  0.12137140825E+03  0.14534225150E+03  0.00000000000E+00 0. -1.
         21    1    1    2  504  503 -0.11537513485E+02 -0.34164673563E+02  0.70143220014E+02  0.78869578743E+02  0.00000000000E+00 0. -1.
         21    1    1    2  505  501 -0.29511072363E+02  0.10402139999E+03  0.44771779083E+02  0.11702934355E+03  0.00000000000E+00 0. -1.
         21    1    1    2  506  502 -0.22240372873E+02 -0.20991001881E+02 -0.18263530247E+02  0.35620399809E+02  0.00000000000E+00 0. -1.
<scales pt_clust_3="14000.00000" pt_clust_4="38.32398" pt_clust_5="91.22434" pt_clust_6="30.58196"></scales>
<clustering>
<clus scale="   30.582">  2  6  1 -1</clus>
<clus scale="   38.324">  1  4  2 -1</clus>
<clus scale="   91.224">  2  5  1 -1</clus>
<clus scale="   38.324">  1  3  2 -1</clus>
</clustering>
</event>
<event>
 6    0  0.8641190E+002  0.1970882E+03  0.7546771E-02  0.1152219E+00
         21   -1    0    0  505  501  0.00000000000E+00  0.00000000000E+00  0.17391710336E+04  0.17391710336E+04  0.00000000000E+00 0. -1.
         21   -1    0    0  504  502 -0.00000000000E+00 -0.00000000000E+00 -0.59426169634E+02  0.59426169634E+02  0.00000000000E+00 0. -1.
         21    1    1    2  503  501  0.86918875263E+02 -0.18325307576E+03  0.12161556571E+04  0.12329522144E+04  0.00000000000E+00 0. -1.
         21    1    1    2  504  506 -0.86550740735E+02  0.13104206623E+02  0.68305153773E+02  0.11103308059E+03  0.00000000000E+00 0.  1.
         21    1    1    2  505  502  0.37406637079E+02 -0.10867706790E+02  0.56124628028E+02  0.68317914339E+02  0.00000000000E+00 0. -1.
         21    1    1    2  506  503 -0.37774771606E+02  0.18101657593E+03  0.33915942505E+03  0.38629399391E+03  0.00000000000E+00 0. -1.
<scales pt_clust_3="14000.00000" pt_clust_4="72.09853" pt_clust_5="38.95335" pt_clust_6="197.08820"></scales>
<clustering>
<clus scale="   38.953">  2  5  1 -1</clus>
<clus scale="   72.099">  2  4  1 -1</clus>
<clus scale="  197.088">  2  6  1 -1</clus>
<clus scale="  197.088">  1  3  2 -1</clus>
</clustering>
</event>
<event>
 6    0  0.8641190E+002  0.9139673E+02  0.7546771E-02  0.1299504E+00
         21   -1    0    0  505  501  0.00000000000E+00  0.00000000000E+00  0.42268354828E+02  0.42268354828E+02  0.00000000000E+00 0.  1.
         21   -1    0    0  504  502 -0.00000000000E+00 -0.00000000000E+00 -0.58345601858E+03  0.58345601858E+03  0.00000000000E+00 0.  1.
         21    1    1    2  503  501  0.22039225547E+02  0.69366064775E+02 -0.32443019301E+02  0.79686434896E+02  0.00000000000E+00 0.  1.
         21    1    1    2  504  503 -0.41470584619E+02  0.52058667573E+02 -0.18085621730E+03  0.19271451838E+03  0.00000000000E+00 0.  1.
         21    1    1    2  505  506  0.26756768220E+02 -0.46254327201E+02 -0.10209998688E+03  0.11523799179E+03  0.00000000000E+00 0.  1.
         21    1    1    2  506  502 -0.73254091484E+01 -0.75170405148E+02 -0.22578844027E+03  0.23808542834E+03  0.00000000000E+00 0.  1.
<scales pt_clust_3="78.41101" pt_clust_4="66.55760" pt_clust_5="39.49829" pt_clust_6="39.49829"></scales>
<clustering>
<clus scale="   39.498">  5  6 -1 -1</clus>
<clus scale="   66.558">  2  4  1 -1</clus>
<clus scale="   78.411">  1  3  2 -1</clus>
<clus scale="   78.411">  1  3  2 -1</clus>
</clustering>
</event>
<event>
 6    0  0.8641190E+002  0.1209064E+03  0.7546771E-02  0.1241609E+00
         21   -1    0    0  506  501  0.00000000000E+00  0.00000000000E+00  0.18272273285E+02  0.18272273285E+02  0.00000000000E+00 0. -1.
         21   -1    0    0  504  502 -0.00000000000E+00 -0.00000000000E+00 -0.21252854594E+04  0.21252854594E+04  0.00000000000E+00 0.  1.
         21    1    1    2  503  502 -0.19458585611E+02  0.34144879694E+02 -0.29302842291E+03  0.29565210298E+03  0.00000000000E+00 0.  1.
         21    1    1    2  504  505 -0.37704737440E+02 -0.12254614625E+02 -0.35195713369E+03  0.35418306956E+03  0.00000000000E+00 0.  1.
         21    1    1    2  505  501 -0.48599248483E+02 -0.59823845651E+02 -0.12615736078E+04  0.12639259264E+04  0.00000000000E+00 0.  1.
         21    1    1    2  506  503  0.10576257153E+03  0.37933580582E+02 -0.20045402172E+03  0.22979663378E+03  0.00000000000E+00 0. -1.
<scales pt_clust_3="39.30025" pt_clust_4="33.26745" pt_clust_5="33.26745" pt_clust_6="111.65465"></scales>
<clustering>
<clus scale="   33.267">  4  5 -1 -1</clus>
<clus scale="   39.300">  2  3  1 -1</clus>
<clus scale="  111.655">  1  6  2 -1</clus>
<clus scale="  111.655">  1  3  2 -1</clus>
</clustering>
</event>
<event>
 6    0  0.8641190E+002  0.1340842E+03  0.7546771E-02  0.1221518E+00
         21   -1    0    0  505  501  0.00000000000E+00  0.00000000000E+00  0.10167686683E+04  0.10167686683E+04  0.00000000000E+00 0.  1.
         21   -1    0    0  503  502 -0.00000000000E+00 -0.00000000000E+00 -0.51913425123E+02  0.51913425123E+02  0.00000000000E+00 0.  1.
         21    1    1    2  503  506 -0.25094148282E+02 -0.52734507450E+02  0.80561985389E+02  0.99503155949E+02  0.00000000000E+00 0.  1.
         21    1    1    2  504  502  0.40402261449E+02  0.23228786454E+02  0.70914222146E+01  0.47140296132E+02  0.00000000000E+00 0.  1.
         21    1    1    2  505  504  0.63948928264E+02  0.13115849014E+03  0.34777997312E+03  0.37715106345E+03  0.00000000000E+00 0.  1.
         21    1    1    2  506  501 -0.79257041431E+02 -0.10165276914E+03  0.52942186241E+03  0.54488757785E+03  0.00000000000E+00 0.  1.
<scales pt_clust_3="47.66984" pt_clust_4="46.60385" pt_clust_5="134.08420" pt_clust_6="14000.00000"></scales>
<clustering>
<clus scale="   46.604">  2  4  1 -1</clus>
<clus scale="   47.670">  2  3  1 -1</clus>
<clus scale="  134.084">  2  5  1 -1</clus>
<clus scale="  134.084">  1  3  2 -1</clus>
</clustering>
</event>
<event>
 6    0  0.8641190E+002  0.1235664E+03  0.7546771E-02  0.1237327E+00
         21   -1    0    0  503  501  0.00000000000E+00  0.00000000000E+00  0.13552269248E+04  0.13552269248E+04  0.00000000000E+00 0.  1.
         21   -1    0    0  506  502 -0.00000000000E+00 -0.00000000000E+00 -0.36879542944E+03  0.36879542944E+03  0.00000000000E+00 0. -1.
         21    1    1    2  503  502 -0.46589421077E+02  0.11164469255E+03 -0.25710567800E+03  0.28414510587E+03  0.00000000000E+00 0. -1.
         21    1    1    2  504  501  0.33368822763E+01  0.31791422804E+02  0.12560449419E+04  0.12564516407E+04  0.00000000000E+00 0.  1.
         21    1    1    2  505  504 -0.27119141134E+02 -0.23328565917E+02 -0.25028390432E+02  0.43658792141E+02  0.00000000000E+00 0.  1.
         21    1    1    2  506  505  0.70371679935E+02 -0.12010754943E+03  0.12520621962E+02  0.13976681560E+03  0.00000000000E+00 0.  1.
<scales pt_clust_3="123.56643" pt_clust_4="31.96607" pt_clust_5="33.64654" pt_clust_6="14000.00000"></scales>
<clustering>
<clus scale="   31.966">  1  4  2 -1</clus>
<clus scale="   33.647">  1  5  2 -1</clus>
<clus scale="  123.566">  2  3  1 -1</clus>
<clus scale="   31.966">  1  3  2 -1</clus>
</clustering>
</event>
<event>
 6    0  0.8641190E+002  0.1751872E+03  0.7546771E-02  0.1172544E+00
         21   -1    0    0  504  501  0.00000000000E+00  0.00000000000E+00  0.22478585035E+03  0.22478585035E+03  0.00000000000E+00 0. -1.
         21   -1    0    0  506  502 -0.00000000000E+00 -0.00000000000E+00 -0.32463979654E+04  0.32463979654E+04  0.00000000000E+00 0. -1.
         21    1    1    2  503  501  0.35049641627E+02  0.11468908054E+01 -0.24264832334E+02  0.42644751434E+02  0.00000000000E+00 0. -1.
         21    1    1    2  504  505 -0.14627200047E+03 -0.94581994248E+02  0.34505379176E+02  0.17757216265E+03  0.00000000000E+00 0. -1.
         21    1    1    2  505  502  0.11136726785E+03  0.14971900371E+03  0.29657692844E+02  0.18893921553E+03  0.00000000000E+00 0. -1.
         21    1    1    2  506  503 -0.14490900611E+00 -0.56283900271E+02 -0.30615103547E+04  0.30620276861E+04  0.00000000000E+00 0. -1.
<scales pt_clust_3="35.06840" pt_clust_4="14000.00000" pt_clust_5="175.18717" pt_clust_6="56.28262"></scales>
<clustering>
<clus scale="   35.068">  1  3  2 -1</clus>
<clus scale="   56.283">  2  6  1 -1</clus>
<clus scale="  175.187">  2  5  1 -1</clus>
<clus scale="   35.068">  1  3  2 -1</clus>
</clustering>
</event>
<event>
 6    0  0.8641190E+002  0.2315043E+03  0.7546771E-02  0.1125585E+00
         21   -1    0    0  504  501  0.00000000000E+00  0.00000000000E+00  0.34421677500E+03  0.34421677500E+03  0.00000000000E+00 0. -1.
         21   -1    0    0  503  502 -0.00000000000E+00 -0.00000000000E+00 -0.28332262455E+03  0.28332262455E+03  0.00000000000E+00 0. -1.
         21    1    1    2  503  505 -0.67391600803E+02 -0.89275562375E+02 -0.78692460831E+02  0.13676350861E+03  0.00000000000E+00 0. -1.
         21    1    1    2  504  502  0.19913624338E+03 -0.96644476934E+02  0.11068955675E+03  0.24748247680E+03  0.00000000000E+00 0. -1.
         21    1    1    2  505  506 -0.46326539322E+02  0.25205277249E+02 -0.17324047320E+02  0.55511952427E+02  0.00000000000E+00 0.  1.
         21    1    1    2  506  501 -0.85418103251E+02  0.16071476206E+03  0.46221101853E+02  0.18778146171E+03  0.00000000000E+00 0. -1.
<scales pt_clust_3="111.85595" pt_clust_4="217.16468" pt_clust_5="43.17765" pt_clust_6="43.17765"></scales>
<clustering>
<clus scale="   43.178">  5  6 -1 -1</clus>
<clus scale="  111.856">  2  3  1 -1</clus>
<clus scale="  217.165">  1  4  2 -1</clus>
<clus scale="  217.165">  1  3  2 -1</clus>
</clustering>
</event>
<event>
 6    0  0.8641190E+002  0.1968186E+03  0.7546771E-02  0.1152451E+00
         21   -1    0    0  506  501  0.00000000000E+00  0.00000000000E+00  0.10253822477E+04  0.10253822477E+04  0.00000000000E+00 0.  1.
         21   -1    0    0  505  502 -0.00000000000E+00 -0.00000000000E+00 -0.13565399783E+04  0.13565399783E+04  0.00000000000E+00 0.  1.
         21    1    1    2  503  502  0.42945381819E+02 -0.85919121776E+02 -0.81188460491E+03  0.81754694850E+03  0.00000000000E+00 0.  1.
         21    1    1    2  504  503 -0.10140603609E+03 -0.11803348915E+03 -0.47606467933E+03  0.50085194181E+03  0.00000000000E+00 0.  1.
         21    1    1    2  505  501  0.50118056765E+02  0.15833867408E+03  0.77958755083E+02  0.18346804305E+03  0.00000000000E+00 0.  1.
         21    1    1    2  506  504  0.83425975035E+01  0.45613936841E+02  0.87883279857E+03  0.88005529259E+03  0.00000000000E+00 0.  1.
<scales pt_clust_3="95.33652" pt_clust_4="196.81861" pt_clust_5="14000.00000" pt_clust_6="46.37057"></scales>
<clustering>
<clus scale="   46.371">  1  6  2 -1</clus>
<clus scale="   95.337">  2  3  1 -1</clus>
<clus scale="  196.819">  2  4  1 -1</clus>
<clus scale="   46.371">  1  3  2 -1</clus>
</clustering>
</event>
<event>
 6    0  0.8641190E+002  0.8939047E+02  0.7546771E-02  0.1304335E+00
         21   -1    0    0  502  501  0.00000000000E+00  0.00000000000E+00  0.14539743061E+04  0.14539743061E+04  0.00000000000E+00 0. -1.
         21   -1    0    0  505  502 -0.00000000000E+00 -0.00000000000E+00 -0.79587134325E+02  0.79587134325E+02  0.00000000000E+00 0. -1.
         21    1    1    2  503  501  0.26027867179E+02  0.25181691279E+02  0.12820370957E+04  0.12825485107E+04  0.00000000000E+00 0. -1.
         21    1    1    2  504  503  0.79791168977E+02 -0.22528086750E+01  0.69344331269E+02  0.10573713668E+03  0.00000000000E+00 0.  1.
         21    1    1    2  505  506 -0.14467930368E+02 -0.46483037984E+02  0.13125450828E+02  0.50420940974E+02  0.00000000000E+00 0. -1.
         21    1    1    2  506  504 -0.91351105788E+02  0.23554155380E+02  0.98802940038E+01  0.94854852137E+02  0.00000000000E+00 0. -1.
<scales pt_clust_3="36.21557" pt_clust_4="89.39047" pt_clust_5="42.92172" pt_clust_6="14000.00000"></scales>
<clustering>
<clus scale="   36.216">  1  3  2 -1</clus>
<clus scale="   42.922">  2  5  1 -1</clus>
<clus scale="   89.390">  1  4  2 -1</clus>
<clus scale="   36.216">  1  3  2 -1</clus>
</clustering>
</event>
<event>
 6    0  0.8641190E+002  0.2521864E+03  0.7546771E-02  0.1111931E+00
         21   -1    0    0  503  501  0.00000000000E+00  0.00000000000E+00  0.57734330544E+02  0.57734330544E+02  0.00000000000E+00 0. -1.
         21   -1    0    0  504  502 -0.00000000000E+00 -0.00000000000E+00 -0.17228739424E+04  0.17228739424E+04  0.00000000000E+00 0. -1.
         21    1    1    2  503  506  0.10486820321E+03  0.31371486050E+02 -0.14019334817E+03  0.17786423208E+03  0.00000000000E+00 0. -1.
         21    1    1    2  504  501  0.59519707264E+02 -0.66583292813E+02 -0.22077721865E+03  0.23815648366E+03  0.00000000000E+00 0. -1.
         21    1    1    2  505  502 -0.26933617194E+03  0.64878313126E+01 -0.11077817771E+04  0.11400721605E+04  0.00000000000E+00 0. -1.
         21    1    1    2  506  505  0.10494826146E+03  0.28723975450E+02 -0.19638726790E+03  0.22451539667E+03  0.00000000000E+00 0. -1.
<scales pt_clust_3="31.34571" pt_clust_4="89.30806" pt_clust_5="250.21894" pt_clust_6="31.34571"></scales>
<clustering>
<clus scale="   31.346">  3  6 -1 -1</clus>
<clus scale="   89.308">  1  4  2 -1</clus>
<clus scale="  250.219">  2  5  1 -1</clus>
<clus scale="   89.308">  1  3  2 -1</clus>
</clustering>
</event>
<event>
 6    0  0.8641190E+002  0.1342477E+03  0.7546771E-02  0.1221286E+00
         21   -1    0    0  506  501  0.00000000000E+00  0.00000000000E+00  0.62340321446E+03  0.62340321446E+03  0.00000000000E+00 0. -1.
         21   -1    0    0  505  502 -0.00000000000E+00 -0.00000000000E+00 -0.63349235472E+03  0.63349235472E+03  0.00000000000E+00 0.  1.
         21    1    1    2  503  502  0.17978506379E+03 -0.54922469150E+02 -0.32505921119E+02  0.19077678498E+03  0.00000000000E+00 0.  1.
         21    1    1    2  504  501 -0.73712611855E+02 -0.26040863295E+02 -0.44490337501E+03  0.45171970159E+03  0.00000000000E+00 0.  1.
         21    1    1    2  505  504 -0.60673505174E+02 -0.22006508802E+02 -0.52089255602E+02  0.82938840171E+02  0.00000000000E+00 0.  1.
         21    1    1    2  506  503 -0.45398946757E+02  0.10296984125E+03  0.51940941148E+03  0.53146024245E+03  0.00000000000E+00 0. -1.
<scales pt_clust_3="14000.00000" pt_clust_4="134.24773" pt_clust_5="64.54115" pt_clust_6="112.58209"></scales>
<clustering>
<clus scale="   64.541">  2  5  1 -1</clus>
<clus scale="  112.582">  1  6  2 -1</clus>
<clus scale="  134.248">  2  4  1 -1</clus>
<clus scale="  112.582">  1  3  2 -1</clus>
</clustering>
</event>
<event>
 6    0  0.8641190E+002  0.3693189E+03  0.7546771E-02  0.1054954E+00
         21   -1    0    0  506  501  0.00000000000E+00  0.00000000000E+00  0.19866476485E+03  0.19866476485E+03  0.00000000000E+00 0. -1.
         21   -1    0    0  504  502 -0.00000000000E+00 -0.00000000000E+00 -0.14561194432E+04  0.14561194432E+04  0.00000000000E+00 0.  1.
         21    1    1    2  503  501 -0.32514278473E+02 -0.13662314751E+03 -0.30171481508E+03  0.33279857629E+03  0.00000000000E+00 0.  1.
         21    1    1    2  504  503 -0.21831186434E+02 -0.53352372834E+02 -0.22135100794E+03  0.22873422373E+03  0.00000000000E+00 0.  1.
         21    1    1    2  505  502 -0.33205157466E+03  0.10207972698E+03 -0.56290866527E+03  0.66147160508E+03  0.00000000000E+00 0.  1.
         21    1    1    2  506  505  0.38639703957E+03  0.87895793363E+02 -0.17148019010E+03  0.43177980300E+03  0.00000000000E+00 0. -1.
<scales pt_clust_3="204.25775" pt_clust_4="33.14927" pt_clust_5="369.31894" pt_clust_6="14000.00000"></scales>
<clustering>
<clus scale="   33.149">  3  4 -1 -1</clus>
<clus scale="  204.258">  2  3  1 -1</clus>
<clus scale="  369.319">  2  5  1 -1</clus>
<clus scale="  369.319">  1  3  2 -1</clus>
</clustering>
</event>
<event>
 6    0  0.8641190E+002  0.1352618E+03  0.7546771E-02  0.1219851E+00
         21   -1    0    0  504  501  0.00000000000E+00  0.00000000000E+00  0.59378308751E+03  0.59378308751E+03  0.00000000000E+00 0. -1.
         21   -1    0    0  506  502 -0.00000000000E+00 -0.00000000000E+00 -0.26194015338E+03  0.26194015338E+03  0.00000000000E+00 0. -1.
         21    1    1    2  503  501  0.83660109895E+01  0.92118057688E+02 -0.33402310877E+02  0.98343485112E+02  0.00000000000E+00 0. -1.
         21    1    1    2  504  505  0.70421190120E+02 -0.12052210966E+03  0.51569051190E+03  0.53424846935E+03  0.00000000000E+00 0. -1.
         21    1    1    2  505  502 -0.11209393553E+03  0.32966406088E+02 -0.70642019023E+02  0.13653618262E+03  0.00000000000E+00 0. -1.
         21    1    1    2  506  503  0.33306734423E+02 -0.45623541173E+01 -0.79803247867E+02  0.86595103806E+02  0.00000000000E+00 0. -1.
<scales pt_clust_3="92.76223" pt_clust_4="14000.00000" pt_clust_5="135.26178" pt_clust_6="33.61776"></scales>
<clustering>
<clus scale="   33.618">  2  6  1 -1</clus>
<clus scale="   92.762">  2  3  1 -1</clus>
<clus scale="  135.262">  2  5  1 -1</clus>
<clus scale="  135.262">  1  3  2 -1</clus>
</clustering>
</event>
<event>
 6    0  0.8641190E+002  0.9049210E+02  0.7546771E-02  0.1301664E+00
         21   -1    0    0  506  501  0.00000000000E+00  0.00000000000E+00  0.78254678313E+03  0.78254678313E+03  0.00000000000E+00 0.  1.
         21   -1    0    0  504  502 -0.00000000000E+00 -0.00000000000E+00 -0.12092543852E+03  0.12092543852E+03  0.00000000000E+00 0. -1.
         21    1    1    2  503  502  0.19303065909E+02 -0.32079737737E+02  0.36221032828E+02  0.52093004769E+02  0.00000000000E+00 0. -1.
         21    1    1    2  504  505 -0.33267412061E+02  0.84871852824E+02 -0.73341172624E+02  0.11699948593E+03  0.00000000000E+00 0. -1.
         21    1    1    2  505  501  0.36788348898E+02 -0.82657117678E+02  0.68984589996E+03  0.69575351053E+03  0.00000000000E+00 0.  1.
         21    1    1    2  506  503 -0.22824002746E+02  0.29865002591E+02  0.88955844380E+01  0.38626220416E+02  0.00000000000E+00 0.  1.
<scales pt_clust_3="37.43952" pt_clust_4="14000.00000" pt_clust_5="90.49210" pt_clust_6="32.69704"></scales>
<clustering>
<clus scale="   37.440">  2  3  1 -1</clus>
<clus scale="   32.697">  2  6  1 -1</clus>
<clus scale="   90.492">  1  5  2 -1</clus>
<clus scale="   90.492">  1  3  2 -1</clus>
</clustering>
</event>
<event>
 6    0  0.8641190E+002  0.8224064E+02  0.7546771E-02  0.1322810E+00
         21   -1    0    0  506  501  0.00000000000E+00  0.00000000000E+00  0.68081046868E+03  0.68081046868E+03  0.00000000000E+00 0. -1.
         21   -1    0    0  504  502 -0.00000000000E+00 -0.00000000000E+00 -0.16246939684E+03  0.16246939684E+03  0.00000000000E+00 0. -1.
         21    1    1    2  503  502  0.13536361961E+02 -0.82939583698E+02 -0.13055870507E+03  0.15526681265E+03  0.00000000000E+00 0. -1.
         21    1    1    2  504  501  0.22632943056E+02  0.21926450267E+02  0.28369818174E+02  0.42401248990E+02  0.00000000000E+00 0.  1.
         21    1    1    2  505  503  0.58519934323E+02  0.56026625886E+02  0.23424583248E+03  0.24786019356E+03  0.00000000000E+00 0. -1.
         21    1    1    2  506  505 -0.94689239340E+02  0.49865075451E+01  0.38628412626E+03  0.39775161031E+03  0.00000000000E+00 0. -1.
<scales pt_clust_3="14000.00000" pt_clust_4="31.51221" pt_clust_5="82.24064" pt_clust_6="82.98629"></scales>
<clustering>
<clus scale="   31.512">  1  4  2 -1</clus>
<clus scale="   82.986">  1  6  2 -1</clus>
<clus scale="   82.241">  1  5  2 -1</clus>
<clus scale="   31.512">  1  3  2 -1</clus>
</clustering>
</event>
<event>
 6    0  0.8641190E+002  0.1169720E+03  0.7546771E-02  0.1248178E+00
         21   -1    0    0  504  501  0.00000000000E+00  0.00000000000E+00  0.64668527187E+03  0.64668527187E+03  0.00000000000E+00 0.  1.
         21   -1    0    0  503  502 -0.00000000000E+00 -0.00000000000E+00 -0.18847484191E+03  0.18847484191E+03  0.00000000000E+00 0. -1.
         21    1    1    2  503  506  0.12661461982E-01 -0.52549115669E+02  0.42818603976E+02  0.67785268049E+02  0.00000000000E+00 0. -1.
         21    1    1    2  504  505  0.37517254446E+02  0.34043655205E+02  0.53354566482E+03  0.53594541820E+03  0.00000000000E+00 0.  1.
         21    1    1    2  505  502 -0.47387713622E+01  0.94927614537E+02 -0.11363879825E+03  0.14814683400E+03  0.00000000000E+00 0. -1.
         21    1    1    2  506  501 -0.32791144546E+02 -0.76422154072E+02 -0.45150405775E+01  0.83282593529E+02  0.00000000000E+00 0. -1.
<scales pt_clust_3="48.00124" pt_clust_4="50.66078" pt_clust_5="100.18043" pt_clust_6="48.00124"></scales>
<clustering>
<clus scale="   48.001">  3  6 -1 -1</clus>
<clus scale="   50.661">  1  4  2 -1</clus>
<clus scale="  100.180">  2  5  1 -1</clus>
<clus scale="   50.661">  1  3  2 -1</clus>
</clustering>
</event>
<event>
 6    0  0.8641190E+002  0.1417260E+03  0.7546771E-02  0.1211025E+00
         21   -1    0    0  506  501  0.00000000000E+00  0.00000000000E+00  0.41817886491E+03  0.41817886491E+03  0.00000000000E+00 0. -1.
         21   -1    0    0  503  502 -0.00000000000E+00 -0.00000000000E+00 -0.16495186843E+03  0.16495186843E+03  0.00000000000E+00 0. -1.
         21    1    1    2  503  504 -0.10068154172E+02 -0.29338366152E+02 -0.53603413931E+02  0.61930876322E+02  0.00000000000E+00 0. -1.
         21    1    1    2  504  505 -0.81662489490E+02  0.75376542420E+02  0.27268379145E+03  0.29446024427E+03  0.00000000000E+00 0. -1.
         21    1    1    2  505  501 -0.51681138640E+02 -0.34989419421E+01  0.55176091090E+02  0.75680801488E+02  0.00000000000E+00 0. -1.
         21    1    1    2  506  502  0.14341178230E+03 -0.42539234326E+02 -0.21029472124E+02  0.15105881126E+03  0.00000000000E+00 0. -1.
<scales pt_clust_3="31.01786" pt_clust_4="14000.00000" pt_clust_5="53.02041" pt_clust_6="141.72597"></scales>
<clustering>
<clus scale="   31.018">  2  3  1 -1</clus>
<clus scale="   53.020">  1  5  2 -1</clus>
<clus scale="  141.726">  2  6  1 -1</clus>
<clus scale="   53.020">  1  3  2 -1</clus>
</clustering>
</event>
<event>
 6    0  0.8641190E+002  0.1555371E+03  0.7546771E-02  0.1193829E+00
         21   -1    0    0  503  501  0.00000000000E+00  0.00000000000E+00  0.12402052638E+04  0.12402052638E+04  0.00000000000E+00 0.  1.
         21   -1    0    0  505  502 -0.00000000000E+00 -0.00000000000E+00 -0.10695862908E+03  0.10695862908E+03  0.00000000000E+00 0. -1.
         21    1    1    2  503  502 -0.11819092904E+03 -0.71134532370E+02 -0.33981076737E+02  0.14207016217E+03  0.00000000000E+00 0. -1.
         21    1    1    2  504  501  0.47100315386E+02  0.27480979843E+02  0.64210271740E+03  0.64441410882E+03  0.00000000000E+00 0.  1.
         21    1    1    2  505  506 -0.43574820669E+02  0.19505575600E+02  0.42127509285E+02  0.63670711590E+02  0.00000000000E+00 0.  1.
         21    1    1    2  506  504  0.11466543433E+03  0.24147976926E+02  0.48299748473E+03  0.49700891025E+03  0.00000000000E+00 0.  1.
<scales pt_clust_3="14000.00000" pt_clust_4="54.19903" pt_clust_5="47.74131" pt_clust_6="155.53710"></scales>
<clustering>
<clus scale="   47.741">  2  5  1 -1</clus>
<clus scale="   54.199">  1  4  2 -1</clus>
<clus scale="  155.537">  1  6  2 -1</clus>
<clus scale="   54.199">  1  3  2 -1</clus>
</clustering>
</event>
<event>
 6    0  0.8641190E+002  0.1126103E+03  0.7546771E-02  0.1255811E+00
         21   -1    0    0  505  501  0.00000000000E+00  0.00000000000E+00  0.24365987831E+03  0.24365987831E+03  0.00000000000E+00 0.  1.
         21   -1    0    0  504  502 -0.00000000000E+00 -0.00000000000E+00 -0.55476184801E+03  0.55476184801E+03  0.00000000000E+00 0. -1.
         21    1    1    2  503  501  0.22780790060E+02 -0.11016723162E+03  0.19711150383E+03  0.22695534420E+03  0.00000000000E+00 0.  1.
         21    1    1    2  504  503 -0.19667410377E+02 -0.53157982663E+02 -0.48405097759E+02  0.74536109643E+02  0.00000000000E+00 0.  1.
         21    1    1    2  505  506 -0.18126929336E+01  0.11784171781E+03 -0.42081128365E+03  0.43700353861E+03  0.00000000000E+00 0. -1.
         21    1    1    2  506  502 -0.13006867492E+01  0.45483496465E+02 -0.38997092126E+02  0.59926733859E+02  0.00000000000E+00 0. -1.
<scales pt_clust_3="14000.00000" pt_clust_4="51.58664" pt_clust_5="112.61030" pt_clust_6="45.50209"></scales>
<clustering>
<clus scale="   45.502">  2  6  1 -1</clus>
<clus scale="   51.587">  2  4  1 -1</clus>
<clus scale="  112.610">  2  5  1 -1</clus>
<clus scale="  112.610">  1  3  2 -1</clus>
</clustering>
</event>
<event>
 6    0  0.8641190E+002  0.1640376E+03  0.7546771E-02  0.1184212E+00
         21   -1    0    0  503  501  0.00000000000E+00  0.00000000000E+00  0.26935756620E+02  0.26935756620E+02  0.00000000000E+00 0.  1.
         21   -1    0    0  505  502 -0.00000000000E+00 -0.00000000000E+00 -0.27492105573E+04  0.27492105573E+04  0.00000000000E+00 0.  1.
         21    1    1    2  503  506  0.15619657485E+03 -0.34825024615E+02 -0.30639434680E+03  0.34566985418E+03  0.00000000000E+00 0.  1.
         21    1    1    2  504  501 -0.17599219378E+03  0.54589108904E+02 -0.16006669128E+04  0.16112379677E+04  0.00000000000E+00 0.  1.
         21    1    1    2  505  504 -0.21470264231E+02 -0.21896762146E+02 -0.17300110236E+03  0.17569809861E+03  0.00000000000E+00 0. -1.
         21    1    1    2  506  502  0.41265883164E+02  0.21326778576E+01 -0.64221243879E+03  0.64354039342E+03  0.00000000000E+00 0.  1.
<scales pt_clust_3="164.03757" pt_clust_4="14000.00000" pt_clust_5="30.66660" pt_clust_6="36.05980"></scales>
<clustering>
<clus scale="   30.667">  2  5  1 -1</clus>
<clus scale="   36.060">  2  6  1 -1</clus>
<clus scale="  164.038">  1  3  2 -1</clus>
<clus scale="  164.038">  1  3  2 -1</clus>
</clustering>
</event>
<event>
 6    0  0.8641190E+002  0.1041953E+03  0.7546771E-02  0.1271713E+00
         21   -1    0    0  506  501  0.00000000000E+00  0.00000000000E+00  0.11603275201E+04  0.11603275201E+04  0.00000000000E+00 0.  1.
         21   -1    0    0  504  502 -0.00000000000E+00 -0.00000000000E+00 -0.87544944349E+02  0.87544944349E+02  0.00000000000E+00 0.  1.
         21    1    1    2  503  505 -0.20846852545E+01 -0.12464391972E+03  0.49108373911E+03  0.50665934458E+03  0.00000000000E+00 0.  1.
         21    1    1    2  504  503 -0.25296258018E+02  0.54301564087E+02 -0.57477575930E+02  0.83019469204E+02  0.00000000000E+00 0.  1.
         21    1    1    2  505  501 -0.46521290193E+02 -0.50618924450E+00  0.30979008184E+03  0.31326407626E+03  0.00000000000E+00 0.  1.
         21    1    1    2  506  502  0.73902233466E+02  0.70848544879E+02  0.32938633070E+03  0.34492957437E+03  0.00000000000E+00 0.  1.
<scales pt_clust_3="104.19528" pt_clust_4="60.19664" pt_clust_5="46.52404" pt_clust_6="14000.00000"></scales>
<clustering>
<clus scale="   46.524">  1  5  2 -1</clus>
<clus scale="   60.197">  2  4  1 -1</clus>
<clus scale="  104.195">  2  3  1 -1</clus>
<clus scale="   46.524">  1  3  2 -1</clus>
</clustering>
</event>
<event>
 6    0  0.8641190E+002  0.1144988E+03  0.7546771E-02  0.1252458E+00
         21   -1    0    0  502  501  0.00000000000E+00  0.00000000000E+00  0.14525717458E+03  0.14525717458E+03  0.00000000000E+00 0. -1.
         21   -1    0    0  503  502 -0.00000000000E+00 -0.00000000000E+00 -0.48156777076E+03  0.48156777076E+03  0.00000000000E+00 0.  1.
         21    1    1    2  503  506  0.11970307262E+03 -0.34941448146E+02 -0.42007281074E+03  0.43819047995E+03  0.00000000000E+00 0.  1.
         21    1    1    2  504  501 -0.82333549730E+01  0.31072539501E+02 -0.42119322980E+01  0.32419611639E+02  0.00000000000E+00 0.  1.
         21    1    1    2  505  504 -0.47617296749E+02 -0.15542125105E+02  0.71799564723E+02  0.87545086080E+02  0.00000000000E+00 0. -1.
         21    1    1    2  506  505 -0.63852420895E+02  0.19411033750E+02  0.16174582127E+02  0.68669767674E+02  0.00000000000E+00 0.  1.
<scales pt_clust_3="114.49885" pt_clust_4="32.14484" pt_clust_5="52.72435" pt_clust_6="14000.00000"></scales>
<clustering>
<clus scale="   32.145">  1  4  2 -1</clus>
<clus scale="   52.724">  1  5  2 -1</clus>
<clus scale="  114.499">  2  3  1 -1</clus>
<clus scale="   32.145">  1  3  2 -1</clus>
</clustering>
</event>
<event>
 6    0  0.8641190E+002  0.8276530E+02  0.7546771E-02  0.1321382E+00
         21   -1    0    0  505  501  0.00000000000E+00  0.00000000000E+00  0.17090781271E+04  0.17090781271E+04  0.00000000000E+00 0. -1.
         21   -1    0    0  503  502 -0.00000000000E+00 -0.00000000000E+00 -0.63003621943E+02  0.63003621943E+02  0.00000000000E+00 0.  1.
         21    1    1    2  503  501 -0.26040215751E+02 -0.36737411246E+02  0.79118042022E+03  0.79246084292E+03  0.00000000000E+00 0. -1.
         21    1    1    2  504  506  0.80684857796E+02  0.41903358788E+02  0.45580750686E+03  0.46478642521E+03  0.00000000000E+00 0. -1.
         21    1    1    2  505  504  0.23849331206E+02 -0.35580794597E+02  0.42469134041E+03  0.42684601224E+03  0.00000000000E+00 0. -1.
         21    1    1    2  506  502 -0.78493973251E+02  0.30414847055E+02 -0.25604762362E+02  0.87988468641E+02  0.00000000000E+00 0.  1.
<scales pt_clust_3="59.77389" pt_clust_4="14000.00000" pt_clust_5="42.83437" pt_clust_6="82.76530"></scales>
<clustering>
<clus scale="   42.834">  1  5  2 -1</clus>
<clus scale="   59.774">  1  3  2 -1</clus>
<clus scale="   82.765">  2  6  1 -1</clus>
<clus scale="   42.834">  1  3  2 -1</clus>
</clustering>
</event>
<event>
 6    0  0.8641190E+002  0.8737944E+02  0.7546771E-02  0.1309325E+00
         21   -1    0    0  505  501  0.00000000000E+00  0.00000000000E+00  0.61317159946E+02  0.61317159946E+02  0.00000000000E+00 0.  1.
         21   -1    0    0  506  502 -0.00000000000E+00 -0.00000000000E+00 -0.12569272231E+04  0.12569272231E+04  0.00000000000E+00 0. -1.
         21    1    1    2  503  502 -0.68180793151E+02 -0.18399716721E+02 -0.61300502713E+03  0.61705942454E+03  0.00000000000E+00 0. -1.
         21    1    1    2  504  501 -0.30737376514E+02 -0.21742483797E+02  0.37102240611E+02  0.52859229800E+02  0.00000000000E+00 0.  1.
         21    1    1    2  505  503  0.95726927151E+02  0.76614043120E+02 -0.26797264636E+03  0.29469084713E+03  0.00000000000E+00 0.  1.
         21    1    1    2  506  504  0.31912425132E+01 -0.36471842602E+02 -0.35173463026E+03  0.35363488156E+03  0.00000000000E+00 0. -1.
<scales pt_clust_3="87.37944" pt_clust_4="37.81181" pt_clust_5="14000.00000" pt_clust_6="36.61119"></scales>
<clustering>
<clus scale="   36.611">  2  6  1 -1</clus>
<clus scale="   37.812">  1  4  2 -1</clus>
<clus scale="   87.379">  2  3  1 -1</clus>
<clus scale="   37.812">  1  3  2 -1</clus>
</clustering>
</event>
<event>
 6    0  0.8641190E+002  0.7896125E+02  0.7546771E-02  0.1332025E+00
         21   -1    0    0  503  501  0.00000000000E+00  0.00000000000E+00  0.11099251798E+03  0.11099251798E+03  0.00000000000E+00 0. -1.
         21   -1    0    0  506  502 -0.00000000000E+00 -0.00000000000E+00 -0.19690621811E+03  0.19690621811E+03  0.00000000000E+00 0. -1.
         21    1    1    2  503  504  0.83687735724E+02 -0.62269982974E+02 -0.30643265162E+02  0.10872073211E+03  0.00000000000E+00 0. -1.
         21    1    1    2  504  502 -0.33348070194E+02  0.59273549420E+02 -0.34082538969E+02  0.76072773770E+02  0.00000000000E+00 0. -1.
         21    1    1    2  505  501  0.22820822026E+02  0.34022284060E+02 -0.42130450218E+00  0.40969296163E+02  0.00000000000E+00 0.  1.
         21    1    1    2  506  505 -0.73160487556E+02 -0.31025850506E+02 -0.20766591495E+02  0.82135934044E+02  0.00000000000E+00 0. -1.
<scales pt_clust_3="14000.00000" pt_clust_4="78.96125" pt_clust_5="40.96713" pt_clust_6="68.29023"></scales>
<clustering>
<clus scale="   40.967">  1  5  2 -1</clus>
<clus scale="   68.290">  1  6  2 -1</clus>
<clus scale="   78.961">  2  4  1 -1</clus>
<clus scale="   40.967">  1  3  2 -1</clus>
</clustering>
</event>
<event>
 6    0  0.8641190E+002  0.1044042E+03  0.7546771E-02  0.1271298E+00
         21   -1    0    0  503  501  0.00000000000E+00  0.00000000000E+00  0.29907303063E+02  0.29907303063E+02  0.00000000000E+00 0. -1.
         21   -1    0    0  504  502 -0.00000000000E+00 -0.00000000000E+00 -0.92926818736E+03  0.92926818736E+03  0.00000000000E+00 0. -1.
         21    1    1    2  503  502  0.45812770971E+02  0.72697322844E+02 -0.86636435755E+02  0.12202287791E+03  0.00000000000E+00 0. -1.
         21    1    1    2  504  506  0.27881438064E+02  0.28968515367E+02 -0.42936614685E+03  0.43124452174E+03  0.00000000000E+00 0. -1.
         21    1    1    2  505  501 -0.27659385953E+02 -0.59478948819E+02 -0.25302151057E+03  0.26138605891E+03  0.00000000000E+00 0. -1.
         21    1    1    2  506  505 -0.46034823082E+02 -0.42186889392E+02 -0.13033679113E+03  0.14452203187E+03  0.00000000000E+00 0. -1.
<scales pt_clust_3="94.17653" pt_clust_4="40.20634" pt_clust_5="42.86081" pt_clust_6="42.86081"></scales>
<clustering>
<clus scale="   40.206">  2  4  1 -1</clus>
<clus scale="   42.861">  5  6 -1 -1</clus>
<clus scale="   94.177">  1  3  2 -1</clus>
<clus scale="   94.177">  1  3  2 -1</clus>
</clustering>
</event>
<event>
 6    0  0.8641190E+002  0.1073149E+03  0.7546771E-02  0.1265625E+00
         21   -1    0    0  506  501  0.00000000000E+00  0.00000000000E+00  0.10299763658E+03  0.10299763658E+03  0.00000000000E+00 0. -1.
         21   -1    0    0  504  502 -0.00000000000E+00 -0.00000000000E+00 -0.54711773692E+03  0.54711773692E+03  0.00000000000E+00 0.  1.
         21    1    1    2  503  501 -0.21418315970E+02  0.21397088841E+02  0.22423394023E+02  0.37674769666E+02  0.00000000000E+00 0. -1.
         21    1    1    2  504  505  0.10987862950E+03 -0.12860772540E+02 -0.44027529788E+03  0.45396150786E+03  0.00000000000E+00 0.  1.
         21    1    1    2  505  503 -0.84733184639E+02 -0.51913480774E+02  0.12535675159E+02  0.10015919936E+03  0.00000000000E+00 0. -1.
         21    1    1    2  506  502 -0.37271288866E+01  0.43377164473E+02 -0.38803871639E+02  0.58319896619E+02  0.00000000000E+00 0. -1.
<scales pt_clust_3="30.27507" pt_clust_4="14000.00000" pt_clust_5="107.31491" pt_clust_6="46.70691"></scales>
<clustering>
<clus scale="   30.275">  1  3  2 -1</clus>
<clus scale="   46.707">  1  6  2 -1</clus>
<clus scale="  107.315">  1  5  2 -1</clus>
<clus scale="   30.275">  1  3  2 -1</clus>
</clustering>
</event>
<event>
 6    0  0.8641190E+002  0.9053960E+02  0.7546771E-02  0.1301550E+00
         21   -1    0    0  504  501  0.00000000000E+00  0.00000000000E+00  0.25619215315E+03  0.25619215315E+03  0.00000000000E+00 0.  1.
         21   -1    0    0  505  502 -0.00000000000E+00 -0.00000000000E+00 -0.81919978499E+03  0.81919978499E+03  0.00000000000E+00 0.  1.
         21    1    1    2  503  506  0.36976977984E+02  0.49433372400E+02  0.52853472525E+02  0.81267735083E+02  0.00000000000E+00 0.  1.
         21    1    1    2  504  503  0.20738035999E+02  0.23141495660E+02  0.86247955708E+02  0.91674995622E+02  0.00000000000E+00 0.  1.
         21    1    1    2  505  501 -0.99747020733E+02 -0.14997854294E+03  0.14262378824E+02  0.18068327797E+03  0.00000000000E+00 0.  1.
         21    1    1    2  506  502  0.42032006751E+02  0.77403674876E+02 -0.71637143889E+03  0.72176592947E+03  0.00000000000E+00 0.  1.
<scales pt_clust_3="74.15328" pt_clust_4="31.07402" pt_clust_5="90.53960" pt_clust_6="14000.00000"></scales>
<clustering>
<clus scale="   31.074">  1  4  2 -1</clus>
<clus scale="   74.153">  1  3  2 -1</clus>
<clus scale="   90.540">  1  5  2 -1</clus>
<clus scale="   31.074">  1  3  2 -1</clus>
</clustering>
</event>
<event>
 6    0  0.8641190E+002  0.1169362E+03  0.7546771E-02  0.1248239E+00
         21   -1    0    0  505  501  0.00000000000E+00  0.00000000000E+00  0.18890902601E+03  0.18890902601E+03  0.00000000000E+00 0. -1.
         21   -1    0    0  504  502 -0.00000000000E+00 -0.00000000000E+00 -0.30664985331E+03  0.30664985331E+03  0.00000000000E+00 0. -1.
         21    1    1    2  503  501  0.43595884172E+02 -0.59030778731E+00  0.71720707344E+02  0.83933363104E+02  0.00000000000E+00 0. -1.
         21    1    1    2  504  503 -0.45861559121E+02  0.10279613128E+03  0.10328370853E-01  0.11256254847E+03  0.00000000000E+00 0. -1.
         21    1    1    2  505  506 -0.69465741146E+00 -0.13467129986E+03 -0.32228388934E+02  0.13847566793E+03  0.00000000000E+00 0. -1.
         21    1    1    2  506  502  0.29603323612E+01  0.32465476361E+02 -0.15724347408E+03  0.16058729982E+03  0.00000000000E+00 0. -1.
<scales pt_clust_3="43.72470" pt_clust_4="14000.00000" pt_clust_5="116.93619" pt_clust_6="32.60016"></scales>
<clustering>
<clus scale="   32.600">  2  6  1 -1</clus>
<clus scale="   43.725">  1  3  2 -1</clus>
<clus scale="  116.936">  2  5  1 -1</clus>
<clus scale="   43.725">  1  3  2 -1</clus>
</clustering>
</event>
<event>
 6    0  0.8641190E+002  0.7523478E+02  0.7546771E-02  0.1343146E+00
         21   -1    0    0  503  501  0.00000000000E+00  0.00000000000E+00  0.36953565332E+03  0.36953565332E+03  0.00000000000E+00 0.  1.
         21   -1    0    0  505  502 -0.00000000000E+00 -0.00000000000E+00 -0.76887494314E+02  0.76887494314E+02  0.00000000000E+00 0. -1.
         21    1    1    2  503  506  0.43643637831E+02  0.93111299897E+01  0.19258629974E+03  0.19768901616E+03  0.00000000000E+00 0.  1.
         21    1    1    2  504  501 -0.89141529696E+02  0.20261324486E+01  0.34866750020E+02  0.95739269823E+02  0.00000000000E+00 0. -1.
         21    1    1    2  505  504 -0.52210830516E+01 -0.53487326554E+02 -0.81560968907E+01  0.54356928966E+02  0.00000000000E+00 0. -1.
         21    1    1    2  506  502  0.50718974917E+02  0.42150064115E+02  0.73351206134E+02  0.98637932677E+02  0.00000000000E+00 0.  1.
<scales pt_clust_3="44.62583" pt_clust_4="75.23478" pt_clust_5="52.25699" pt_clust_6="14000.00000"></scales>
<clustering>
<clus scale="   44.626">  1  3  2 -1</clus>
<clus scale="   52.257">  2  5  1 -1</clus>
<clus scale="   75.235">  1  4  2 -1</clus>
<clus scale="   44.626">  1  3  2 -1</clus>
</clustering>
</event>
<event>
 6    0  0.8641190E+002  0.1581656E+03  0.7546771E-02  0.1190784E+00
         21   -1    0    0  503  501  0.00000000000E+00  0.00000000000E+00  0.50919546904E+03  0.50919546904E+03  0.00000000000E+00 0.  1.
         21   -1    0    0  501  502 -0.00000000000E+00 -0.00000000000E+00 -0.81474490409E+02  0.81474490409E+02  0.00000000000E+00 0.  1.
         21    1    1    2  503  506  0.10060564555E+03  0.10996808620E+03  0.35369927893E+03  0.38381982207E+03  0.00000000000E+00 0.  1.
         21    1    1    2  504  505 -0.72964180433E+02 -0.78076894844E+02  0.49943807404E+02  0.11795828514E+03  0.00000000000E+00 0.  1.
         21    1    1    2  505  502 -0.28522662928E+02  0.18942718139E+02  0.50695926413E+01  0.34613142598E+02  0.00000000000E+00 0.  1.
         21    1    1    2  506  504  0.88119781512E+00 -0.50833909496E+02  0.19008299650E+02  0.54278709637E+02  0.00000000000E+00 0. -1.
<scales pt_clust_3="148.05104" pt_clust_4="35.93318" pt_clust_5="34.23987" pt_clust_6="35.93318"></scales>
<clustering>
<clus scale="   34.240">  2  5  1 -1</clus>
<clus scale="   35.933">  4  6 -1 -1</clus>
<clus scale="  148.051">  1  3  2 -1</clus>
<clus scale="  148.051">  1  3  2 -1</clus>
</clustering>
</event>
<event>
 6    0  0.8641190E+002  0.1434820E+03  0.7546771E-02  0.1208719E+00
         21   -1    0    0  506  501  0.00000000000E+00  0.00000000000E+00  0.12394230259E+04  0.12394230259E+04  0.00000000000E+00 0.  1.
         21   -1    0    0  503  502 -0.00000000000E+00 -0.00000000000E+00 -0.26381186705E+03  0.26381186705E+03  0.00000000000E+00 0.  1.
         21    1    1    2  503  505  0.34412471476E+02  0.18378937663E+02 -0.17765323190E+03  0.18188643255E+03  0.00000000000E+00 0.  1.
         21    1    1    2  504  502 -0.17368087377E+02  0.12406829375E+03 -0.18705715804E+02  0.12666686930E+03  0.00000000000E+00 0.  1.
         21    1    1    2  505  501 -0.49307564155E+02 -0.17707952389E+03  0.89262299740E+03  0.91135295531E+03  0.00000000000E+00 0.  1.
         21    1    1    2  506  504  0.32263180056E+02  0.34632292474E+02  0.27934710917E+03  0.28332863581E+03  0.00000000000E+00 0.  1.
<scales pt_clust_3="39.01286" pt_clust_4="143.48202" pt_clust_5="14000.00000" pt_clust_6="48.20701"></scales>
<clustering>
<clus scale="   39.013">  2  3  1 -1</clus>
<clus scale="   48.207">  1  6  2 -1</clus>
<clus scale="  143.482">  2  4  1 -1</clus>
<clus scale="   48.207">  1  3  2 -1</clus>
</clustering>
</event>
<event>
 6    0  0.8641190E+002  0.9538948E+02  0.7546771E-02  0.1290301E+00
         21   -1    0    0  503  501  0.00000000000E+00  0.00000000000E+00  0.18894022110E+03  0.18894022110E+03  0.00000000000E+00 0.  1.
         21   -1    0    0  505  502 -0.00000000000E+00 -0.00000000000E+00 -0.14741934948E+03  0.14741934948E+03  0.00000000000E+00 0.  1.
         21    1    1    2  503  504 -0.82683576557E+02  0.56424433713E+01 -0.59076259297E+02  0.10177630084E+03  0.00000000000E+00 0.  1.
         21    1    1    2  504  502 -0.19296870712E+02  0.28299426700E+02 -0.23749797006E+01  0.34334637022E+02  0.00000000000E+00 0.  1.
         21    1    1    2  505  506  0.40107424839E+01 -0.41988001612E+02 -0.16713505308E+02  0.45369809283E+02  0.00000000000E+00 0. -1.
         21    1    1    2  506  501  0.97969704785E+02  0.80461315408E+01  0.11968561593E+03  0.15487882344E+03  0.00000000000E+00 0.  1.
<scales pt_clust_3="14000.00000" pt_clust_4="34.25240" pt_clust_5="35.18728" pt_clust_6="95.38948"></scales>
<clustering>
<clus scale="   34.252">  2  4  1 -1</clus>
<clus scale="   35.187">  2  5  1 -1</clus>
<clus scale="   95.389">  1  6  2 -1</clus>
<clus scale="   95.389">  1  3  2 -1</clus>
</clustering>
</event>
<event>
 6    0  0.8641190E+002  0.2305409E+03  0.7546771E-02  0.1126260E+00
         21   -1    0    0  506  501  0.00000000000E+00  0.00000000000E+00  0.17752696067E+03  0.17752696067E+03  0.00000000000E+00 0. -1.
         21   -1    0    0  505  502 -0.00000000000E+00 -0.00000000000E+00 -0.44334993223E+03  0.44334993223E+03  0.00000000000E+00 0. -1.
         21    1    1    2  503  501  0.29477217430E+01  0.73441872938E+02 -0.61951113487E+01  0.73761623957E+02  0.00000000000E+00 0.  1.
         21    1    1    2  504  502  0.44776405963E+02 -0.42402320781E+02 -0.50508626714E+02  0.79712011084E+02  0.00000000000E+00 0.  1.
         21    1    1    2  505  503  0.69613344178E+02  0.14875513423E+03  0.48247571357E+01  0.16430881270E+03  0.00000000000E+00 0. -1.
         21    1    1    2  506  504 -0.11733747188E+03 -0.17979468639E+03 -0.21394399063E+03  0.30309444517E+03  0.00000000000E+00 0. -1.
<scales pt_clust_3="30.20803" pt_clust_4="61.66752" pt_clust_5="30.20803" pt_clust_6="226.07538"></scales>
<clustering>
<clus scale="   30.208">  3  5 -1 -1</clus>
<clus scale="   61.668">  2  4  1 -1</clus>
<clus scale="  226.075">  2  6  1 -1</clus>
<clus scale="  230.541">  1  3  2 -1</clus>
</clustering>
</event>
<event>
 6    0  0.8641190E+002  0.1822893E+03  0.7546771E-02  0.1165606E+00
         21   -1    0    0  503  501  0.00000000000E+00  0.00000000000E+00  0.10168056484E+04  0.10168056484E+04  0.00000000000E+00 0.  1.
         21   -1    0    0  506  502 -0.00000000000E+00 -0.00000000000E+00 -0.80627851043E+03  0.80627851043E+03  0.00000000000E+00 0. -1.
         21    1    1    2  503  505 -0.12780625829E+03  0.12803176633E+03  0.93605516368E+03  0.95337602356E+03  0.00000000000E+00 0.  1.
         21    1    1    2  504  502  0.66973364499E+01 -0.39547610934E+02 -0.35738388484E+03  0.35962773668E+03  0.00000000000E+00 0. -1.
         21    1    1    2  505  504  0.12760874696E+03 -0.16913909769E+03 -0.10834526597E+03  0.23797210619E+03  0.00000000000E+00 0. -1.
         21    1    1    2  506  501 -0.64998251161E+01  0.80654942298E+02 -0.25979887485E+03  0.27210829245E+03  0.00000000000E+00 0.  1.
<scales pt_clust_3="14000.00000" pt_clust_4="40.11069" pt_clust_5="182.28928" pt_clust_6="57.22133"></scales>
<clustering>
<clus scale="   40.111">  2  4  1 -1</clus>
<clus scale="   57.221">  2  6  1 -1</clus>
<clus scale="  182.289">  2  5  1 -1</clus>
<clus scale="  182.289">  1  3  2 -1</clus>
</clustering>
</event>
<event>
 6    0  0.8641190E+002  0.8681872E+02  0.7546771E-02  0.1310744E+00
         21   -1    0    0  503  501  0.00000000000E+00  0.00000000000E+00  0.23996425227E+03  0.23996425227E+03  0.00000000000E+00 0.  1.
         21   -1    0    0  506  502 -0.00000000000E+00 -0.00000000000E+00 -0.15037350513E+03  0.15037350513E+03  0.00000000000E+00 0.  1.
         21    1    1    2  503  505 -0.88645618987E+01 -0.31812770517E+02  0.52945851693E+02  0.62401090031E+02  0.00000000000E+00 0.  1.
         21    1    1    2  504  501  0.15094462155E+02  0.10034420901E+03  0.12065048154E+03  0.15764942678E+03  0.00000000000E+00 0.  1.
         21    1    1    2  505  502 -0.43100799651E+02  0.10115594104E+02  0.66119028192E+01  0.44762947105E+02  0.00000000000E+00 0.  1.
         21    1    1    2  506  504  0.36870899394E+02 -0.78647032597E+02 -0.90617488904E+02  0.12552429348E+03  0.00000000000E+00 0.  1.
<scales pt_clust_3="33.02473" pt_clust_4="86.81872" pt_clust_5="44.70621" pt_clust_6="14000.00000"></scales>
<clustering>
<clus scale="   33.025">  1  3  2 -1</clus>
<clus scale="   44.706">  1  5  2 -1</clus>
<clus scale="   86.819">  1  4  2 -1</clus>
<clus scale="   33.025">  1  3  2 -1</clus>
</clustering>
</event>
<event>
 6    0  0.8641190E+002  0.6264691E+02  0.7546771E-02  0.1387048E+00
         21   -1    0    0  505  501  0.00000000000E+00  0.00000000000E+00  0.17741382153E+03  0.17741382153E+03  0.00000000000E+00 0.  1.
         21   -1    0    0  506  502 -0.00000000000E+00 -0.00000000000E+00 -0.25654378795E+03  0.25654378795E+03  0.00000000000E+00 0. -1.
         21    1    1    2  503  502 -0.13869043847E+02 -0.52258030696E+02 -0.16166007202E+03  0.17046181694E+03  0.00000000000E+00 0. -1.
         21    1    1    2  504  503 -0.49831125239E+02  0.57640450594E+02  0.21687709943E+02  0.79220700260E+02  0.00000000000E+00 0.  1.
         21    1    1    2  505  504 -0.11597035013E+02 -0.48205380839E+02  0.81340417240E+02  0.95260240603E+02  0.00000000000E+00 0.  1.
         21    1    1    2  506  501  0.75297204098E+02  0.42822960941E+02 -0.20498021575E+02  0.89014851667E+02  0.00000000000E+00 0.  1.
<scales pt_clust_3="56.51502" pt_clust_4="62.64691" pt_clust_5="49.58074" pt_clust_6="14000.00000"></scales>
<clustering>
<clus scale="   49.581">  1  5  2 -1</clus>
<clus scale="   56.515">  2  3  1 -1</clus>
<clus scale="   62.647">  1  4  2 -1</clus>
<clus scale="   49.581">  1  3  2 -1</clus>
</clustering>
</event>
<event>
 6    0  0.8641190E+002  0.2169717E+03  0.7546771E-02  0.1136161E+00
         21   -1    0    0  505  501  0.00000000000E+00  0.00000000000E+00  0.19632586866E+04  0.19632586866E+04  0.00000000000E+00 0. -1.
         21   -1    0    0  506  502 -0.00000000000E+00 -0.00000000000E+00 -0.27291507268E+03  0.27291507268E+03  0.00000000000E+00 0.  1.
         21    1    1    2  503  502 -0.17817662671E+03 -0.11785627087E+03 -0.13983793018E+03  0.25532657051E+03  0.00000000000E+00 0.  1.
         21    1    1    2  504  501  0.12947497839E+02  0.32916709054E+02  0.17144009994E+04  0.17147658540E+04  0.00000000000E+00 0. -1.
         21    1    1    2  505  503  0.19295108989E+03  0.67899131195E+02  0.11231690873E+03  0.23335702924E+03  0.00000000000E+00 0. -1.
         21    1    1    2  506  504 -0.27721961019E+02  0.17040430623E+02  0.34636360194E+01  0.32724305540E+02  0.00000000000E+00 0. -1.
<scales pt_clust_3="14000.00000" pt_clust_4="35.37560" pt_clust_5="216.97173" pt_clust_6="32.54049"></scales>
<clustering>
<clus scale="   32.540">  2  6  1 -1</clus>
<clus scale="   35.376">  1  4  2 -1</clus>
<clus scale="  216.972">  1  5  2 -1</clus>
<clus scale="   35.376">  1  3  2 -1</clus>
</clustering>
</event>
<event>
 6    0  0.8641190E+002  0.3027778E+03  0.7546771E-02  0.1083860E+00
         21   -1    0    0  506  501  0.00000000000E+00  0.00000000000E+00  0.50126473953E+03  0.50126473953E+03  0.00000000000E+00 0.  1.
         21   -1    0    0  503  502 -0.00000000000E+00 -0.00000000000E+00 -0.94188210124E+03  0.94188210124E+03  0.00000000000E+00 0. -1.
         21    1    1    2  503  501  0.40809769858E+02 -0.53108902454E+02  0.22245079618E+02  0.70575040935E+02  0.00000000000E+00 0. -1.
         21    1    1    2  504  502  0.59877216591E+02 -0.28041922272E+03 -0.64888813764E+03  0.70941950685E+03  0.00000000000E+00 0. -1.
         21    1    1    2  505  504 -0.10475620645E+03  0.37268826521E+03 -0.79091497841E+02  0.39512766398E+03  0.00000000000E+00 0.  1.
         21    1    1    2  506  505  0.40692199965E+01 -0.39160140038E+02  0.26511719414E+03  0.26802462900E+03  0.00000000000E+00 0. -1.
<scales pt_clust_3="73.72120" pt_clust_4="302.77781" pt_clust_5="14000.00000" pt_clust_6="39.37099"></scales>
<clustering>
<clus scale="   39.371">  1  6  2 -1</clus>
<clus scale="   73.721">  1  3  2 -1</clus>
<clus scale="  302.778">  2  4  1 -1</clus>
<clus scale="   39.371">  1  3  2 -1</clus>
</clustering>
</event>
<event>
 6    0  0.8641190E+002  0.1386162E+03  0.7546771E-02  0.1215203E+00
         21   -1    0    0  505  501  0.00000000000E+00  0.00000000000E+00  0.13505647098E+04  0.13505647098E+04  0.00000000000E+00 0.  1.
         21   -1    0    0  501  502 -0.00000000000E+00 -0.00000000000E+00 -0.33838484009E+03  0.33838484009E+03  0.00000000000E+00 0. -1.
         21    1    1    2  503  506  0.76869061397E+02  0.31201664666E+01  0.22864413458E+02  0.80258142525E+02  0.00000000000E+00 0. -1.
         21    1    1    2  504  503  0.13711153610E+03  0.41805617056E+02  0.10502199966E+03  0.17769891210E+03  0.00000000000E+00 0. -1.
         21    1    1    2  505  504 -0.10354294062E+03  0.10835210374E+02  0.11411526710E+04  0.11458917753E+04  0.00000000000E+00 0.  1.
         21    1    1    2  506  502 -0.11043765688E+03 -0.55760993897E+02 -0.25685921437E+03  0.28510071993E+03  0.00000000000E+00 0. -1.
<scales pt_clust_3="35.74663" pt_clust_4="35.74663" pt_clust_5="104.10832" pt_clust_6="129.74420"></scales>
<clustering>
<clus scale="   35.747">  3  4 -1 -1</clus>
<clus scale="  104.108">  1  5  2 -1</clus>
<clus scale="  129.744">  2  6  1 -1</clus>
<clus scale="  104.108">  1  3  2 -1</clus>
</clustering>
</event>
<event>
 6    0  0.8641190E+002  0.8739481E+02  0.7546771E-02  0.1309286E+00
         21   -1    0    0  505  501  0.00000000000E+00  0.00000000000E+00  0.25813599838E+03  0.25813599838E+03  0.00000000000E+00 0.  1.
         21   -1    0    0  506  502 -0.00000000000E+00 -0.00000000000E+00 -0.37608997636E+03  0.37608997636E+03  0.00000000000E+00 0.  1.
         21    1    1    2  503  501  0.59272834158E+02  0.84249223132E+02  0.16642719103E+02  0.10434644492E+03  0.00000000000E+00 0.  1.
         21    1    1    2  504  502 -0.92575996647E+02  0.52577124863E+02 -0.93192134973E+02  0.14149008175E+03  0.00000000000E+00 0.  1.
         21    1    1    2  505  504 -0.17104146842E+02 -0.83437060209E+02  0.15601929540E+03  0.17775352427E+03  0.00000000000E+00 0.  1.
         21    1    1    2  506  503  0.50407309331E+02 -0.53389287785E+02 -0.19742385750E+03  0.21063592380E+03  0.00000000000E+00 0.  1.
<scales pt_clust_3="87.39481" pt_clust_4="60.40306" pt_clust_5="14000.00000" pt_clust_6="73.42556"></scales>
<clustering>
<clus scale="   73.426">  2  6  1 -1</clus>
<clus scale="   60.403">  2  4  1 -1</clus>
<clus scale="   87.395">  2  3  1 -1</clus>
<clus scale="   87.395">  1  3  2 -1</clus>
</clustering>
</event>
<event>
 6    0  0.8641190E+002  0.8009684E+02  0.7546771E-02  0.1328777E+00
         21   -1    0    0  506  501  0.00000000000E+00  0.00000000000E+00  0.79109557991E+03  0.79109557991E+03  0.00000000000E+00 0.  1.
         21   -1    0    0  504  502 -0.00000000000E+00 -0.00000000000E+00 -0.71433218312E+02  0.71433218312E+02  0.00000000000E+00 0. -1.
         21    1    1    2  503  501 -0.92390932394E+02  0.86802057708E+02  0.72868590606E+02  0.14622076839E+03  0.00000000000E+00 0. -1.
         21    1    1    2  504  503  0.48301388315E+02 -0.12178845508E+02 -0.15788903123E+01  0.49838150906E+02  0.00000000000E+00 0. -1.
         21    1    1    2  505  502  0.42381132836E+02 -0.15547263534E+02  0.59742513752E+02  0.74880209490E+02  0.00000000000E+00 0. -1.
         21    1    1    2  506  505  0.17084112430E+01 -0.59075948666E+02  0.58863014755E+03  0.59158966943E+03  0.00000000000E+00 0.  1.
<scales pt_clust_3="14000.00000" pt_clust_4="80.09684" pt_clust_5="45.14286" pt_clust_6="59.49704"></scales>
<clustering>
<clus scale="   45.143">  2  5  1 -1</clus>
<clus scale="   59.497">  1  6  2 -1</clus>
<clus scale="   80.097">  2  4  1 -1</clus>
<clus scale="   59.497">  1  3  2 -1</clus>
</clustering>
</event>
<event>
 6    0  0.8641190E+002  0.1079029E+03  0.7546771E-02  0.1264503E+00
         21   -1    0    0  506  501  0.00000000000E+00  0.00000000000E+00  0.66554767200E+02  0.66554767200E+02  0.00000000000E+00 0. -1.
         21   -1    0    0  503  502 -0.00000000000E+00 -0.00000000000E+00 -0.10619966856E+04  0.10619966856E+04  0.00000000000E+00 0. -1.
         21    1    1    2  503  504  0.31453364031E+02 -0.11115932898E+03 -0.78093683144E+03  0.78943526982E+03  0.00000000000E+00 0. -1.
         21    1    1    2  504  505 -0.88713376528E+02  0.57671038334E+02 -0.21018079184E+03  0.23531250943E+03  0.00000000000E+00 0. -1.
         21    1    1    2  505  501  0.25950098957E+02  0.55005282288E+02  0.20111196220E+02  0.64058168323E+02  0.00000000000E+00 0. -1.
         21    1    1    2  506  502  0.31309913540E+02 -0.15169916398E+01 -0.24435491363E+02  0.39745505251E+02  0.00000000000E+00 0. -1.
<scales pt_clust_3="107.90286" pt_clust_4="14000.00000" pt_clust_5="72.40496" pt_clust_6="31.34664"></scales>
<clustering>
<clus scale="   31.347">  1  6  2 -1</clus>
<clus scale="   72.405">  1  5  2 -1</clus>
<clus scale="  107.903">  2  3  1 -1</clus>
<clus scale="   31.347">  1  3  2 -1</clus>
</clustering>
</event>
<event>
 6    0  0.8641190E+002  0.1053113E+03  0.7546771E-02  0.1269507E+00
         21   -1    0    0  504  501  0.00000000000E+00  0.00000000000E+00  0.13250844769E+02  0.13250844769E+02  0.00000000000E+00 0.  1.
         21   -1    0    0  503  502 -0.00000000000E+00 -0.00000000000E+00 -0.23838386408E+04  0.23838386408E+04  0.00000000000E+00 0.  1.
         21    1    1    2  503  506 -0.43994528131E+02  0.67196507306E+02 -0.13755124181E+04  0.13778553267E+04  0.00000000000E+00 0.  1.
         21    1    1    2  504  505  0.14779212350E+02 -0.10881043067E+03 -0.51589895332E+03  0.52745603132E+03  0.00000000000E+00 0.  1.
         21    1    1    2  505  502  0.27079485693E+02 -0.22097002627E+02 -0.29113195848E+03  0.29322242977E+03  0.00000000000E+00 0.  1.
         21    1    1    2  506  501  0.21358300877E+01  0.63710925988E+02 -0.18804446617E+03  0.19855569777E+03  0.00000000000E+00 0.  1.
<scales pt_clust_3="88.11999" pt_clust_4="32.53329" pt_clust_5="32.53329" pt_clust_6="63.74672"></scales>
<clustering>
<clus scale="   32.533">  4  5 -1 -1</clus>
<clus scale="   63.747">  1  6  2 -1</clus>
<clus scale="   88.120">  2  3  1 -1</clus>
<clus scale="   63.747">  1  3  2 -1</clus>
</clustering>
</event>
<event>
 6    0  0.8641190E+002  0.1686236E+03  0.7546771E-02  0.1179291E+00
         21   -1    0    0  504  501  0.00000000000E+00  0.00000000000E+00  0.26355505223E+04  0.26355505223E+04  0.00000000000E+00 0. -1.
         21   -1    0    0  505  502 -0.00000000000E+00 -0.00000000000E+00 -0.46724637730E+02  0.46724637730E+02  0.00000000000E+00 0.  1.
         21    1    1    2  503  501  0.97669836272E+02  0.66957457202E+02  0.37977859576E+03  0.39781211619E+03  0.00000000000E+00 0.  1.
         21    1    1    2  504  506 -0.13954936251E+03 -0.14086429248E+03  0.18979361162E+04  0.19082657767E+04  0.00000000000E+00 0. -1.
         21    1    1    2  505  503  0.54276689198E+02  0.13194507861E+03  0.16289880302E+03  0.21654441296E+03  0.00000000000E+00 0.  1.
         21    1    1    2  506  502 -0.12397162957E+02 -0.58038243328E+02  0.14821236963E+03  0.15965285418E+03  0.00000000000E+00 0. -1.
<scales pt_clust_3="168.62361" pt_clust_4="14000.00000" pt_clust_5="104.70714" pt_clust_6="59.34751"></scales>
<clustering>
<clus scale="   59.348">  2  6  1 -1</clus>
<clus scale="  104.707">  2  5  1 -1</clus>
<clus scale="  168.624">  2  3  1 -1</clus>
<clus scale="  168.624">  1  3  2 -1</clus>
</clustering>
</event>
<event>
 6    0  0.8641190E+002  0.1143550E+03  0.7546771E-02  0.1252711E+00
         21   -1    0    0  504  501  0.00000000000E+00  0.00000000000E+00  0.75218086542E+03  0.75218086542E+03  0.00000000000E+00 0.  1.
         21   -1    0    0  505  502 -0.00000000000E+00 -0.00000000000E+00 -0.10093470806E+04  0.10093470806E+04  0.00000000000E+00 0.  1.
         21    1    1    2  503  506 -0.57296421045E+01 -0.51401479716E+02  0.24124152249E+03  0.24672335335E+03  0.00000000000E+00 0.  1.
         21    1    1    2  504  502  0.59209667742E+02 -0.56442251162E+02  0.17289944930E+03  0.19127397115E+03  0.00000000000E+00 0.  1.
         21    1    1    2  505  503 -0.77190985868E+02  0.85178713033E+02 -0.99327084739E+03  0.99990041391E+03  0.00000000000E+00 0.  1.
         21    1    1    2  506  501  0.23710960230E+02  0.22665017845E+02  0.32196366040E+03  0.32363020762E+03  0.00000000000E+00 0.  1.
<scales pt_clust_3="39.29339" pt_clust_4="14000.00000" pt_clust_5="114.35502" pt_clust_6="32.80111"></scales>
<clustering>
<clus scale="   32.801">  1  6  2 -1</clus>
<clus scale="   39.293">  1  3  2 -1</clus>
<clus scale="  114.355">  2  5  1 -1</clus>
<clus scale="   32.801">  1  3  2 -1</clus>
</clustering>
</event>
<event>
 6    0  0.8641190E+002  0.1633289E+03  0.7546771E-02  0.1184989E+00
         21   -1    0    0  505  501  0.00000000000E+00  0.00000000000E+00  0.23164781840E+03  0.23164781840E+03  0.00000000000E+00 0.  1.
         21   -1    0    0  503  502 -0.00000000000E+00 -0.00000000000E+00 -0.29748623151E+03  0.29748623151E+03  0.00000000000E+00 0.  1.
         21    1    1    2  503  506 -0.59379887028E+02  0.20027492680E+02 -0.69644422242E+02  0.93687870058E+02  0.00000000000E+00 0.  1.
         21    1    1    2  504  502  0.37645103756E+02 -0.71319293248E+01 -0.55277100339E+02  0.67257535448E+02  0.00000000000E+00 0. -1.
         21    1    1    2  505  504  0.10536387936E+03 -0.14568275403E+03 -0.37856576791E+02  0.18373386270E+03  0.00000000000E+00 0.  1.
         21    1    1    2  506  501 -0.83629096084E+02  0.13278719068E+03  0.96939686267E+02  0.18445478170E+03  0.00000000000E+00 0.  1.
<scales pt_clust_3="49.57967" pt_clust_4="38.31473" pt_clust_5="163.32890" pt_clust_6="14000.00000"></scales>
<clustering>
<clus scale="   38.315">  2  4  1 -1</clus>
<clus scale="   49.580">  2  3  1 -1</clus>
<clus scale="  163.329">  2  5  1 -1</clus>
<clus scale="  163.329">  1  3  2 -1</clus>
</clustering>
</event>
<event>
 6    0  0.8641190E+002  0.1498324E+03  0.7546771E-02  0.1200679E+00
         21   -1    0    0  504  501  0.00000000000E+00  0.00000000000E+00  0.37137232921E+02  0.37137232921E+02  0.00000000000E+00 0. -1.
         21   -1    0    0  506  502 -0.00000000000E+00 -0.00000000000E+00 -0.16471439243E+04  0.16471439243E+04  0.00000000000E+00 0. -1.
         21    1    1    2  503  501 -0.41068479280E+02 -0.16511225934E+02 -0.71348578298E+02  0.83963445602E+02  0.00000000000E+00 0.  1.
         21    1    1    2  504  505  0.19393987310E+03  0.40964755338E+02 -0.39394474733E+03  0.44100255045E+03  0.00000000000E+00 0. -1.
         21    1    1    2  505  502 -0.52007176559E+02  0.32833852064E+02 -0.54726117537E+03  0.55070645749E+03  0.00000000000E+00 0. -1.
         21    1    1    2  506  503 -0.10086421726E+03 -0.57287381468E+02 -0.59745219042E+03  0.60860870371E+03  0.00000000000E+00 0. -1.
<scales pt_clust_3="44.26331" pt_clust_4="149.83237" pt_clust_5="62.98434" pt_clust_6="14000.00000"></scales>
<clustering>
<clus scale="   44.263">  1  3  2 -1</clus>
<clus scale="   62.984">  2  5  1 -1</clus>
<clus scale="  149.832">  1  4  2 -1</clus>
<clus scale="   44.263">  1  3  2 -1</clus>
</clustering>
</event>
<event>
 6    0  0.8641190E+002  0.1644785E+03  0.7546771E-02  0.1183731E+00
         21   -1    0    0  506  501  0.00000000000E+00  0.00000000000E+00  0.15349339703E+04  0.15349339703E+04  0.00000000000E+00 0.  1.
         21   -1    0    0  505  502 -0.00000000000E+00 -0.00000000000E+00 -0.69826432464E+02  0.69826432464E+02  0.00000000000E+00 0.  1.
         21    1    1    2  503  501 -0.33846455054E+02 -0.52073407929E+02  0.53160345808E+03  0.53521907568E+03  0.00000000000E+00 0.  1.
         21    1    1    2  504  503 -0.96283527094E+02 -0.28079773752E+02  0.77281845695E+03  0.77929927415E+03  0.00000000000E+00 0. -1.
         21    1    1    2  505  504  0.12666687908E+03  0.11401140592E+03  0.18259266111E+03  0.24976624838E+03  0.00000000000E+00 0.  1.
         21    1    1    2  506  502  0.34631030628E+01 -0.33858224239E+02 -0.21907038271E+02  0.40475804591E+02  0.00000000000E+00 0.  1.
<scales pt_clust_3="44.01301" pt_clust_4="44.01301" pt_clust_5="154.82105" pt_clust_6="34.03487"></scales>
<clustering>
<clus scale="   34.035">  2  6  1 -1</clus>
<clus scale="   44.013">  3  4 -1 -1</clus>
<clus scale="  154.821">  2  5  1 -1</clus>
<clus scale="  164.478">  1  3  2 -1</clus>
</clustering>
</event>
<event>
 6    0  0.8641190E+002  0.8981370E+02  0.7546771E-02  0.1303303E+00
         21   -1    0    0  504  501  0.00000000000E+00  0.00000000000E+00  0.65124186238E+02  0.65124186238E+02  0.00000000000E+00 0.  1.
         21   -1    0    0  505  502 -0.00000000000E+00 -0.00000000000E+00 -0.76710697240E+03  0.76710697240E+03  0.00000000000E+00 0. -1.
         21    1    1    2  503  502 -0.48102760118E+02  0.46881583887E+02 -0.52528150311E+03  0.52955869924E+03  0.00000000000E+00 0. -1.
         21    1    1    2  504  503  0.11304156606E+03 -0.29925042162E+02 -0.75196189955E+01  0.11717699636E+03  0.00000000000E+00 0.  1.
         21    1    1    2  505  506 -0.34427918575E+02 -0.61979997897E+01 -0.13030202413E+03  0.13491595262E+03  0.00000000000E+00 0. -1.
         21    1    1    2  506  501 -0.30510887370E+02 -0.10758541935E+02 -0.38879639931E+02  0.50579510415E+02  0.00000000000E+00 0. -1.
<scales pt_clust_3="14000.00000" pt_clust_4="89.81370" pt_clust_5="36.22483" pt_clust_6="32.35213"></scales>
<clustering>
<clus scale="   32.352">  1  6  2 -1</clus>
<clus scale="   36.225">  2  5  1 -1</clus>
<clus scale="   89.814">  1  4  2 -1</clus>
<clus scale="   32.352">  1  3  2 -1</clus>
</clustering>
</event>
<event>
 6    0  0.8641190E+002  0.1189943E+03  0.7546771E-02  0.1244765E+00
         21   -1    0    0  506  501  0.00000000000E+00  0.00000000000E+00  0.85623756455E+03  0.85623756455E+03  0.00000000000E+00 0. -1.
         21   -1    0    0  501  502 -0.00000000000E+00 -0.00000000000E+00 -0.16132363022E+03  0.16132363022E+03  0.00000000000E+00 0. -1.
         21    1    1    2  503  505  0.28055880133E+02 -0.95731831360E+02  0.34171626751E+03  0.35597994807E+03  0.00000000000E+00 0.  1.
         21    1    1    2  504  502 -0.16292701316E+02  0.30305426530E+02 -0.83547138181E+02  0.90354829930E+02  0.00000000000E+00 0. -1.
         21    1    1    2  505  504  0.82725598389E+00  0.95628571087E+02 -0.32377448066E+02  0.10096438532E+03  0.00000000000E+00 0. -1.
         21    1    1    2  506  503 -0.12590434801E+02 -0.30202166257E+02  0.46912225307E+03  0.47026203144E+03  0.00000000000E+00 0. -1.
<scales pt_clust_3="14000.00000" pt_clust_4="34.22641" pt_clust_5="118.99425" pt_clust_6="32.72140"></scales>
<clustering>
<clus scale="   32.721">  1  6  2 -1</clus>
<clus scale="   34.226">  2  4  1 -1</clus>
<clus scale="  118.994">  2  5  1 -1</clus>
<clus scale="   32.721">  1  3  2 -1</clus>
</clustering>
</event>
<event>
 6    0  0.8641190E+002  0.2227298E+03  0.7546771E-02  0.1131864E+00
         21   -1    0    0  504  501  0.00000000000E+00  0.00000000000E+00  0.30982558336E+03  0.30982558336E+03  0.00000000000E+00 0. -1.
         21   -1    0    0  506  502 -0.00000000000E+00 -0.00000000000E+00 -0.34815360859E+03  0.34815360859E+03  0.00000000000E+00 0.  1.
         21    1    1    2  503  505  0.10415788657E+03 -0.67514353748E+02  0.15616185146E+01  0.12413497472E+03  0.00000000000E+00 0. -1.
         21    1    1    2  504  503 -0.38056531776E+02  0.75009200561E+01  0.14423217596E+03  0.14935690139E+03  0.00000000000E+00 0. -1.
         21    1    1    2  505  502  0.90669126754E+02 -0.78621084506E+02 -0.27570215456E+02  0.12313521940E+03  0.00000000000E+00 0. -1.
         21    1    1    2  506  501 -0.15677048155E+03  0.13863451820E+03 -0.15655160425E+03  0.26135209644E+03  0.00000000000E+00 0.  1.
<scales pt_clust_3="33.38767" pt_clust_4="38.78870" pt_clust_5="33.38767" pt_clust_6="220.12632"></scales>
<clustering>
<clus scale="   33.388">  3  5 -1 -1</clus>
<clus scale="   38.789">  1  4  2 -1</clus>
<clus scale="  220.126">  2  6  1 -1</clus>
<clus scale="   38.789">  1  3  2 -1</clus>
</clustering>
</event>
<event>
 6    0  0.8641190E+002  0.1533472E+03  0.7546771E-02  0.1196419E+00
         21   -1    0    0  506  501  0.00000000000E+00  0.00000000000E+00  0.14657062878E+03  0.14657062878E+03  0.00000000000E+00 0.  1.
         21   -1    0    0  505  502 -0.00000000000E+00 -0.00000000000E+00 -0.60848990813E+03  0.60848990813E+03  0.00000000000E+00 0.  1.
         21    1    1    2  503  502  0.42344601820E+02 -0.10528521182E+03 -0.24152821258E+02  0.11602327312E+03  0.00000000000E+00 0.  1.
         21    1    1    2  504  501  0.14656114287E+03  0.77081238118E+02 -0.14145406049E+03  0.21778644838E+03  0.00000000000E+00 0.  1.
         21    1    1    2  505  504 -0.15657802206E+03  0.34623852011E+02 -0.33441221331E+03  0.37087331602E+03  0.00000000000E+00 0.  1.
         21    1    1    2  506  503 -0.32327722627E+02 -0.64198783098E+01  0.38099815715E+02  0.50377499395E+02  0.00000000000E+00 0. -1.
<scales pt_clust_3="111.69058" pt_clust_4="153.34721" pt_clust_5="14000.00000" pt_clust_6="32.95901"></scales>
<clustering>
<clus scale="   32.959">  1  6  2 -1</clus>
<clus scale="  111.691">  1  3  2 -1</clus>
<clus scale="  153.347">  1  4  2 -1</clus>
<clus scale="   32.959">  1  3  2 -1</clus>
</clustering>
</event>
<event>
 6    0  0.8641190E+002  0.8153300E+02  0.7546771E-02  0.1324756E+00
         21   -1    0    0  505  501  0.00000000000E+00  0.00000000000E+00  0.28478374556E+03  0.28478374556E+03  0.00000000000E+00 0.  1.
         21   -1    0    0  503  502 -0.00000000000E+00 -0.00000000000E+00 -0.15881434267E+03  0.15881434267E+03  0.00000000000E+00 0. -1.
         21    1    1    2  503  506  0.96221920143E+01  0.52681736914E+02 -0.96280320880E+02  0.11017192098E+03  0.00000000000E+00 0. -1.
         21    1    1    2  504  502 -0.64641954658E+02 -0.97151279216E+02  0.73302300296E+02  0.13780486415E+03  0.00000000000E+00 0.  1.
         21    1    1    2  505  504  0.31256284733E+02 -0.62893196855E+01  0.13382552608E+03  0.13757100824E+03  0.00000000000E+00 0. -1.
         21    1    1    2  506  501  0.23763477911E+02  0.50758861988E+02  0.15121897393E+02  0.58050294861E+02  0.00000000000E+00 0. -1.
<scales pt_clust_3="53.54726" pt_clust_4="14000.00000" pt_clust_5="31.88277" pt_clust_6="81.53300"></scales>
<clustering>
<clus scale="   31.883">  1  5  2 -1</clus>
<clus scale="   53.547">  2  3  1 -1</clus>
<clus scale="   81.533">  1  6  2 -1</clus>
<clus scale="   31.883">  1  3  2 -1</clus>
</clustering>
</event>
<event>
 6    0  0.8641190E+002  0.1454140E+03  0.7546771E-02  0.1206224E+00
         21   -1    0    0  506  501  0.00000000000E+00  0.00000000000E+00  0.38114543690E+03  0.38114543690E+03  0.00000000000E+00 0. -1.
         21   -1    0    0  503  502 -0.00000000000E+00 -0.00000000000E+00 -0.58973448428E+03  0.58973448428E+03  0.00000000000E+00 0. -1.
         21    1    1    2  503  501  0.29763636973E+02 -0.11225322851E+03  0.32408298288E+03  0.34426216927E+03  0.00000000000E+00 0. -1.
         21    1    1    2  504  505 -0.48537373497E+02  0.51029300205E+02 -0.17598396197E+03  0.18955268654E+03  0.00000000000E+00 0. -1.
         21    1    1    2  505  502 -0.42185737645E+02  0.49798253988E+02 -0.36823875498E+03  0.37397765071E+03  0.00000000000E+00 0. -1.
         21    1    1    2  506  504  0.60959474169E+02  0.11425674315E+02  0.11550686695E+02  0.63087414653E+02  0.00000000000E+00 0.  1.
<scales pt_clust_3="134.73693" pt_clust_4="52.64956" pt_clust_5="52.64956" pt_clust_6="62.02099"></scales>
<clustering>
<clus scale="   52.650">  4  5 -1 -1</clus>
<clus scale="   62.021">  1  6  2 -1</clus>
<clus scale="  134.737">  1  3  2 -1</clus>
<clus scale="   62.021">  1  3  2 -1</clus>
</clustering>
</event>
<event>
 6    0  0.8641190E+002  0.1655826E+03  0.7546771E-02  0.1182534E+00
         21   -1    0    0  504  501  0.00000000000E+00  0.00000000000E+00  0.11883336266E+03  0.11883336266E+03  0.00000000000E+00 0. -1.
         21   -1    0    0  503  502 -0.00000000000E+00 -0.00000000000E+00 -0.61360483659E+03  0.61360483659E+03  0.00000000000E+00 0.  1.
         21    1    1    2  503  505  0.39171254817E+02  0.36465719562E+02 -0.13317637193E+03  0.14352728642E+03  0.00000000000E+00 0.  1.
         21    1    1    2  504  506 -0.60502574310E+02  0.60004680922E+02 -0.24239048283E+03  0.25693242185E+03  0.00000000000E+00 0.  1.
         21    1    1    2  505  501  0.30051945740E+02 -0.15936851593E+03  0.34382819795E+02  0.16578184946E+03  0.00000000000E+00 0. -1.
         21    1    1    2  506  502 -0.87206262462E+01  0.62898115445E+02 -0.15358743896E+03  0.16619664153E+03  0.00000000000E+00 0.  1.
<scales pt_clust_3="53.51762" pt_clust_4="41.78278" pt_clust_5="158.35047" pt_clust_6="41.78278"></scales>
<clustering>
<clus scale="   41.783">  4  6 -1 -1</clus>
<clus scale="   53.518">  2  3  1 -1</clus>
<clus scale="  158.350">  1  5  2 -1</clus>
<clus scale="  158.350">  1  3  2 -1</clus>
</clustering>
</event>
<event>
 6    0  0.8641190E+002  0.9265984E+02  0.7546771E-02  0.1296535E+00
         21   -1    0    0  503  501  0.00000000000E+00  0.00000000000E+00  0.20812119204E+03  0.20812119204E+03  0.00000000000E+00 0.  1.
         21   -1    0    0  505  502 -0.00000000000E+00 -0.00000000000E+00 -0.49674302870E+03  0.49674302870E+03  0.00000000000E+00 0. -1.
         21    1    1    2  503  502 -0.39418678628E+02  0.67158572864E+02 -0.31576553616E+03  0.32522604440E+03  0.00000000000E+00 0. -1.
         21    1    1    2  504  506  0.32729682454E+02 -0.88178749190E+02 -0.16684208251E+02  0.95525319823E+02  0.00000000000E+00 0.  1.
         21    1    1    2  505  504 -0.48743372983E+02 -0.13503347826E+02 -0.10776929893E+03  0.11904821966E+03  0.00000000000E+00 0. -1.
         21    1    1    2  506  501  0.55432369157E+02  0.34523524153E+02  0.15159720667E+03  0.16506463686E+03  0.00000000000E+00 0.  1.
<scales pt_clust_3="14000.00000" pt_clust_4="92.65984" pt_clust_5="50.57921" pt_clust_6="64.45236"></scales>
<clustering>
<clus scale="   50.579">  2  5  1 -1</clus>
<clus scale="   64.452">  1  6  2 -1</clus>
<clus scale="   92.660">  1  4  2 -1</clus>
<clus scale="   64.452">  1  3  2 -1</clus>
</clustering>
</event>
<event>
 6    0  0.8641190E+002  0.1189543E+03  0.7546771E-02  0.1244832E+00
         21   -1    0    0  503  501  0.00000000000E+00  0.00000000000E+00  0.12818683975E+03  0.12818683975E+03  0.00000000000E+00 0.  1.
         21   -1    0    0  505  502 -0.00000000000E+00 -0.00000000000E+00 -0.15863749433E+04  0.15863749433E+04  0.00000000000E+00 0. -1.
         21    1    1    2  503  504  0.59450299401E+02 -0.10477536658E+03  0.91078887016E+02  0.15102178386E+03  0.00000000000E+00 0.  1.
         21    1    1    2  504  506 -0.40373117400E+01  0.10360367508E+03 -0.51674199038E+03  0.52704108569E+03  0.00000000000E+00 0. -1.
         21    1    1    2  505  501 -0.12412905919E+02  0.33331309863E+02 -0.50393241705E+03  0.50518604237E+03  0.00000000000E+00 0. -1.
         21    1    1    2  506  502 -0.43000081742E+02 -0.32159618361E+02 -0.52859258311E+03  0.53131287111E+03  0.00000000000E+00 0. -1.
<scales pt_clust_3="14000.00000" pt_clust_4="118.95426" pt_clust_5="35.56763" pt_clust_6="51.57097"></scales>
<clustering>
<clus scale="   35.568">  2  5  1 -1</clus>
<clus scale="   51.571">  2  6  1 -1</clus>
<clus scale="  118.954">  2  4  1 -1</clus>
<clus scale="  118.954">  1  3  2 -1</clus>
</clustering>
</event>
<event>
 6    0  0.8641190E+002  0.1141844E+03  0.7546771E-02  0.1253012E+00
         21   -1    0    0  506  501  0.00000000000E+00  0.00000000000E+00  0.36527674146E+03  0.36527674146E+03  0.00000000000E+00 0.  1.
         21   -1    0    0  505  502 -0.00000000000E+00 -0.00000000000E+00 -0.25293014145E+03  0.25293014145E+03  0.00000000000E+00 0.  1.
         21    1    1    2  503  501  0.33891716941E+02  0.23552164382E+02  0.87090982039E+02  0.96375266935E+02  0.00000000000E+00 0.  1.
         21    1    1    2  504  502 -0.83078158052E+02 -0.94909445275E+02  0.17944490910E+03  0.21934050823E+03  0.00000000000E+00 0.  1.
         21    1    1    2  505  503  0.94711555557E+02  0.62739987738E+02 -0.20459801223E+03  0.23402335658E+03  0.00000000000E+00 0.  1.
         21    1    1    2  506  504 -0.45525114447E+02  0.86172931544E+01  0.50408721102E+02  0.68467751167E+02  0.00000000000E+00 0.  1.
<scales pt_clust_3="41.27170" pt_clust_4="14000.00000" pt_clust_5="114.18436" pt_clust_6="40.55730"></scales>
<clustering>
<clus scale="   41.272">  1  3  2 -1</clus>
<clus scale="   40.557">  1  6  2 -1</clus>
<clus scale="  114.184">  2  5  1 -1</clus>
<clus scale="   41.272">  1  3  2 -1</clus>
</clustering>
</event>
<event>
 6    0  0.8641190E+002  0.2206855E+03  0.7546771E-02  0.1133373E+00
         21   -1    0    0  503  501  0.00000000000E+00  0.00000000000E+00  0.79004924489E+03  0.79004924489E+03  0.00000000000E+00 0.  1.
         21   -1    0    0  505  502 -0.00000000000E+00 -0.00000000000E+00 -0.10693968354E+03  0.10693968354E+03  0.00000000000E+00 0.  1.
         21    1    1    2  503  504 -0.34260190571E+02 -0.39531358803E+01  0.28425851353E+03  0.28634295950E+03  0.00000000000E+00 0.  1.
         21    1    1    2  504  506 -0.14204616534E+02 -0.86648913636E+02  0.81290314967E+02  0.11965751407E+03  0.00000000000E+00 0.  1.
         21    1    1    2  505  501  0.43710321606E+02  0.20734772050E+03  0.30786565483E+03  0.37374447265E+03  0.00000000000E+00 0.  1.
         21    1    1    2  506  502  0.47544854995E+01 -0.11674567098E+03  0.96950780198E+01  0.11724398220E+03  0.00000000000E+00 0.  1.
<scales pt_clust_3="34.48750" pt_clust_4="69.98324" pt_clust_5="205.71040" pt_clust_6="69.98324"></scales>
<clustering>
<clus scale="   34.488">  1  3  2 -1</clus>
<clus scale="   69.983">  4  6 -1 -1</clus>
<clus scale="  205.710">  1  5  2 -1</clus>
<clus scale="   34.488">  1  3  2 -1</clus>
</clustering>
</event>
<event>
 6    0  0.8641190E+002  0.7341699E+02  0.7546771E-02  0.1348844E+00
         21   -1    0    0  503  501  0.00000000000E+00  0.00000000000E+00  0.43355727570E+03  0.43355727570E+03  0.00000000000E+00 0.  1.
         21   -1    0    0  506  502 -0.00000000000E+00 -0.00000000000E+00 -0.12637253837E+03  0.12637253837E+03  0.00000000000E+00 0. -1.
         21    1    1    2  503  505 -0.17122336791E+02 -0.71032372447E+02  0.34010570931E+03  0.34786587338E+03  0.00000000000E+00 0.  1.
         21    1    1    2  504  501  0.59827896797E+02  0.63830055489E+02  0.46272013009E+01  0.87607443809E+02  0.00000000000E+00 0. -1.
         21    1    1    2  505  502 -0.73445189561E+02  0.23960249005E+02 -0.62697063563E+01  0.77508700285E+02  0.00000000000E+00 0. -1.
         21    1    1    2  506  504  0.30739629555E+02 -0.16757932047E+02 -0.31278466927E+02  0.46947796593E+02  0.00000000000E+00 0. -1.
<scales pt_clust_3="73.41699" pt_clust_4="14000.00000" pt_clust_5="60.80828" pt_clust_6="35.01076"></scales>
<clustering>
<clus scale="   35.011">  2  6  1 -1</clus>
<clus scale="   60.808">  2  5  1 -1</clus>
<clus scale="   73.417">  1  3  2 -1</clus>
<clus scale="   73.417">  1  3  2 -1</clus>
</clustering>
</event>
<event>
 6    0  0.8641190E+002  0.2254855E+03  0.7546771E-02  0.1129858E+00
         21   -1    0    0  503  501  0.00000000000E+00  0.00000000000E+00  0.13258294426E+04  0.13258294426E+04  0.00000000000E+00 0.  1.
         21   -1    0    0  504  502 -0.00000000000E+00 -0.00000000000E+00 -0.48547937856E+03  0.48547937856E+03  0.00000000000E+00 0. -1.
         21    1    1    2  503  505  0.12079556147E+03 -0.17051579996E+03  0.12756767646E+04  0.12926787743E+04  0.00000000000E+00 0.  1.
         21    1    1    2  504  506 -0.33541120638E+02  0.72494228530E+02 -0.15129969854E+03  0.17109067398E+03  0.00000000000E+00 0. -1.
         21    1    1    2  505  502 -0.38632678448E+02  0.24754763827E+02 -0.24850127319E+03  0.25270173120E+03  0.00000000000E+00 0. -1.
         21    1    1    2  506  501 -0.48621762380E+02  0.73266807600E+02 -0.35525728844E+02  0.94837641697E+02  0.00000000000E+00 0. -1.
<scales pt_clust_3="207.42857" pt_clust_4="85.04793" pt_clust_5="45.88335" pt_clust_6="85.04793"></scales>
<clustering>
<clus scale="   45.883">  2  5  1 -1</clus>
<clus scale="   85.048">  4  6 -1 -1</clus>
<clus scale="  207.429">  1  3  2 -1</clus>
<clus scale="  207.429">  1  3  2 -1</clus>
</clustering>
</event>
<event>
 6    0  0.8641190E+002  0.9773073E+02  0.7546771E-02  0.1285142E+00
         21   -1    0    0  506  501  0.00000000000E+00  0.00000000000E+00  0.41829102248E+03  0.41829102248E+03  0.00000000000E+00 0. -1.
         21   -1    0    0  505  502 -0.00000000000E+00 -0.00000000000E+00 -0.92817105337E+02  0.92817105337E+02  0.00000000000E+00 0. -1.
         21    1    1    2  503  504 -0.81539271086E+02  0.65863563234E+02  0.14051350441E+03  0.17530175873E+03  0.00000000000E+00 0. -1.
         21    1    1    2  504  502  0.98374602531E+02 -0.11942392071E+02 -0.29707351859E+02  0.10345390232E+03  0.00000000000E+00 0. -1.
         21    1    1    2  505  501 -0.37142339022E+02 -0.18603061357E+02  0.64203718507E+02  0.76470547991E+02  0.00000000000E+00 0. -1.
         21    1    1    2  506  503  0.20307007578E+02 -0.35318109806E+02  0.15046404609E+03  0.15588191878E+03  0.00000000000E+00 0. -1.
<scales pt_clust_3="14000.00000" pt_clust_4="97.73073" pt_clust_5="42.31859" pt_clust_6="40.73995"></scales>
<clustering>
<clus scale="   40.740">  1  6  2 -1</clus>
<clus scale="   42.319">  1  5  2 -1</clus>
<clus scale="   97.731">  2  4  1 -1</clus>
<clus scale="   40.740">  1  3  2 -1</clus>
</clustering>
</event>
<event>
 6    0  0.8641190E+002  0.1240702E+03  0.7546771E-02  0.1236530E+00
         21   -1    0    0  503  501  0.00000000000E+00  0.00000000000E+00  0.10910766024E+03  0.10910766024E+03  0.00000000000E+00 0.  1.
         21   -1    0    0  506  502 -0.00000000000E+00 -0.00000000000E+00 -0.34652415725E+04  0.34652415725E+04  0.00000000000E+00 0.  1.
         21    1    1    2  503  502 -0.42868524008E+02  0.99307081119E+02 -0.27928466713E+04  0.27949404531E+04  0.00000000000E+00 0.  1.
         21    1    1    2  504  501 -0.26529165310E+02 -0.50289110703E+02  0.88138965597E+02  0.10488693209E+03  0.00000000000E+00 0.  1.
         21    1    1    2  505  504  0.50085992120E+02 -0.81653247338E+02 -0.20268126860E+03  0.22417751013E+03  0.00000000000E+00 0. -1.
         21    1    1    2  506  505  0.19311697198E+02  0.32635276923E+02 -0.44874493795E+03  0.45034433747E+03  0.00000000000E+00 0.  1.
<scales pt_clust_3="124.07022" pt_clust_4="56.75247" pt_clust_5="14000.00000" pt_clust_6="37.92101"></scales>
<clustering>
<clus scale="   37.921">  2  6  1 -1</clus>
<clus scale="   56.752">  1  4  2 -1</clus>
<clus scale="  124.070">  2  3  1 -1</clus>
<clus scale="   56.752">  1  3  2 -1</clus>
</clustering>
</event>
<event>
 6    0  0.8641190E+002  0.1549227E+03  0.7546771E-02  0.1194551E+00
         21   -1    0    0  505  501  0.00000000000E+00  0.00000000000E+00  0.11655269541E+04  0.11655269541E+04  0.00000000000E+00 0. -1.
         21   -1    0    0  506  502 -0.00000000000E+00 -0.00000000000E+00 -0.78054213277E+02  0.78054213277E+02  0.00000000000E+00 0.  1.
         21    1    1    2  503  502 -0.16123863055E+03  0.41707927276E+02  0.38773563170E+02  0.17099952158E+03  0.00000000000E+00 0.  1.
         21    1    1    2  504  503  0.63432552932E+02 -0.53838080434E+02  0.71489804699E+03  0.71972317266E+03  0.00000000000E+00 0. -1.
         21    1    1    2  505  504  0.73626907401E+02  0.33831851854E+02  0.25690691085E+03  0.26938202712E+03  0.00000000000E+00 0.  1.
         21    1    1    2  506  501  0.24179170215E+02 -0.21701698696E+02  0.76894219795E+02  0.83476445998E+02  0.00000000000E+00 0. -1.
<scales pt_clust_3="14000.00000" pt_clust_4="154.92273" pt_clust_5="84.46771" pt_clust_6="32.48994"></scales>
<clustering>
<clus scale="   32.490">  1  6  2 -1</clus>
<clus scale="   84.468">  1  5  2 -1</clus>
<clus scale="  154.923">  1  4  2 -1</clus>
<clus scale="   32.490">  1  3  2 -1</clus>
</clustering>
</event>
<event>
 6    0  0.8641190E+002  0.1904497E+03  0.7546771E-02  0.1158056E+00
         21   -1    0    0  506  501  0.00000000000E+00  0.00000000000E+00  0.65496506202E+03  0.65496506202E+03  0.00000000000E+00 0.  1.
         21   -1    0    0  504  502 -0.00000000000E+00 -0.00000000000E+00 -0.14133137883E+03  0.14133137883E+03  0.00000000000E+00 0. -1.
         21    1    1    2  503  502 -0.36651408540E+02  0.17578517261E+03 -0.48667270766E+02  0.18604369353E+03  0.00000000000E+00 0. -1.
         21    1    1    2  504  501 -0.28695011697E+02  0.11272672888E+02  0.74764966543E+02  0.80871979526E+02  0.00000000000E+00 0.  1.
         21    1    1    2  505  503  0.43003317041E+02 -0.53492021457E+02  0.20239439368E+03  0.21371516612E+03  0.00000000000E+00 0.  1.
         21    1    1    2  506  505  0.22343103196E+02 -0.13356582404E+03  0.28514159373E+03  0.31566560168E+03  0.00000000000E+00 0.  1.
<scales pt_clust_3="181.60181" pt_clust_4="30.82980" pt_clust_5="39.04663" pt_clust_6="39.04663"></scales>
<clustering>
<clus scale="   30.830">  1  4  2 -1</clus>
<clus scale="   39.047">  5  6 -1 -1</clus>
<clus scale="  181.602">  2  3  1 -1</clus>
<clus scale="   30.830">  1  3  2 -1</clus>
</clustering>
</event>
<event>
 6    0  0.8641190E+002  0.1008859E+03  0.7546771E-02  0.1278444E+00
         21   -1    0    0  504  501  0.00000000000E+00  0.00000000000E+00  0.52992608654E+03  0.52992608654E+03  0.00000000000E+00 0. -1.
         21   -1    0    0  506  502 -0.00000000000E+00 -0.00000000000E+00 -0.80319867627E+02  0.80319867627E+02  0.00000000000E+00 0. -1.
         21    1    1    2  503  502 -0.65768417972E+02  0.18260986158E+02  0.16543196865E+03  0.17896000857E+03  0.00000000000E+00 0. -1.
         21    1    1    2  504  503  0.18641280463E+02 -0.27098834776E+02  0.19576198968E+03  0.19850592128E+03  0.00000000000E+00 0. -1.
         21    1    1    2  505  501  0.83609651858E+01  0.10416159071E+03  0.75824369929E+02  0.12910800825E+03  0.00000000000E+00 0. -1.
         21    1    1    2  506  505  0.38766172324E+02 -0.95323742092E+02  0.12587890659E+02  0.10367201606E+03  0.00000000000E+00 0. -1.
<scales pt_clust_3="56.28278" pt_clust_4="32.89140" pt_clust_5="14000.00000" pt_clust_6="100.88587"></scales>
<clustering>
<clus scale="   32.891">  1  4  2 -1</clus>
<clus scale="   56.283">  1  3  2 -1</clus>
<clus scale="  100.886">  2  6  1 -1</clus>
<clus scale="   32.891">  1  3  2 -1</clus>
</clustering>
</event>
<event>
 6    0  0.8641190E+002  0.1214680E+03  0.7546771E-02  0.1240695E+00
         21   -1    0    0  504  501  0.00000000000E+00  0.00000000000E+00  0.20576198338E+03  0.20576198338E+03  0.00000000000E+00 0. -1.
         21   -1    0    0  506  502 -0.00000000000E+00 -0.00000000000E+00 -0.16237124873E+03  0.16237124873E+03  0.00000000000E+00 0.  1.
         21    1    1    2  503  501 -0.28755754135E+02  0.16431175504E+02  0.92881143333E+02  0.98609247594E+02  0.00000000000E+00 0. -1.
         21    1    1    2  504  502  0.11748427846E+03 -0.40312868381E+02 -0.98617229582E+02  0.15859710279E+03  0.00000000000E+00 0.  1.
         21    1    1    2  505  503 -0.56617999448E+02  0.73556532623E+01  0.48332270732E+02  0.74804491112E+02  0.00000000000E+00 0. -1.
         21    1    1    2  506  505 -0.32110524881E+02  0.16526039614E+02  0.79455016587E+00  0.36122390610E+02  0.00000000000E+00 0. -1.
<scales pt_clust_3="33.11913" pt_clust_4="115.35262" pt_clust_5="30.26647" pt_clust_6="30.26647"></scales>
<clustering>
<clus scale="   30.266">  5  6 -1 -1</clus>
<clus scale="   33.119">  1  3  2 -1</clus>
<clus scale="  115.353">  2  4  1 -1</clus>
<clus scale="   33.119">  1  3  2 -1</clus>
</clustering>
</event>
<event>
 6    0  0.8641190E+002  0.1407708E+03  0.7546771E-02  0.1212296E+00
         21   -1    0    0  506  501  0.00000000000E+00  0.00000000000E+00  0.63970516409E+02  0.63970516409E+02  0.00000000000E+00 0. -1.
         21   -1    0    0  503  502 -0.00000000000E+00 -0.00000000000E+00 -0.26163869485E+04  0.26163869485E+04  0.00000000000E+00 0.  1.
         21    1    1    2  503  504 -0.21171706748E+02 -0.22626856968E+02 -0.15300117732E+04  0.15303255346E+04  0.00000000000E+00 0.  1.
         21    1    1    2  504  505  0.27304986577E+02 -0.11876319332E+03 -0.35747942079E+03  0.37767948670E+03  0.00000000000E+00 0.  1.
         21    1    1    2  505  501 -0.12095464884E+03  0.96259399419E+02 -0.79038943097E+02  0.17361754974E+03  0.00000000000E+00 0. -1.
         21    1    1    2  506  502  0.11482136901E+03  0.45130650870E+02 -0.58588629499E+03  0.59873489383E+03  0.00000000000E+00 0.  1.
<scales pt_clust_3="30.98735" pt_clust_4="14000.00000" pt_clust_5="140.77082" pt_clust_6="108.35763"></scales>
<clustering>
<clus scale="   30.987">  2  3  1 -1</clus>
<clus scale="  108.358">  2  6  1 -1</clus>
<clus scale="  140.771">  1  5  2 -1</clus>
<clus scale="  140.771">  1  3  2 -1</clus>
</clustering>
</event>
<event>
 6    0  0.8641190E+002  0.9234371E+02  0.7546771E-02  0.1297273E+00
         21   -1    0    0  506  501  0.00000000000E+00  0.00000000000E+00  0.18446224347E+03  0.18446224347E+03  0.00000000000E+00 0.  1.
         21   -1    0    0  503  502 -0.00000000000E+00 -0.00000000000E+00 -0.80516897682E+03  0.80516897682E+03  0.00000000000E+00 0.  1.
         21    1    1    2  503  505 -0.11367787627E+03 -0.37640744827E+02 -0.18857894419E+03  0.22338644412E+03  0.00000000000E+00 0.  1.
         21    1    1    2  504  502  0.51532454244E+02 -0.72897737879E+01 -0.49083234087E+03  0.49358395586E+03  0.00000000000E+00 0.  1.
         21    1    1    2  505  501  0.25509700991E+02 -0.52707458985E+02  0.13252977571E+03  0.14488948384E+03  0.00000000000E+00 0.  1.
         21    1    1    2  506  504  0.36635721038E+02  0.97637977600E+02 -0.73825224004E+02  0.12777133648E+03  0.00000000000E+00 0.  1.
<scales pt_clust_3="92.34371" pt_clust_4="52.04551" pt_clust_5="59.13517" pt_clust_6="14000.00000"></scales>
<clustering>
<clus scale="   52.046">  2  4  1 -1</clus>
<clus scale="   59.135">  1  5  2 -1</clus>
<clus scale="   92.344">  2  3  1 -1</clus>
<clus scale="   59.135">  1  3  2 -1</clus>
</clustering>
</event>
<event>
 6    0  0.8641190E+002  0.1229125E+03  0.7546771E-02  0.1238368E+00
         21   -1    0    0  504  501  0.00000000000E+00  0.00000000000E+00  0.85055706299E+03  0.85055706299E+03  0.00000000000E+00 0. -1.
         21   -1    0    0  505  502 -0.00000000000E+00 -0.00000000000E+00 -0.80400242935E+03  0.80400242935E+03  0.00000000000E+00 0.  1.
         21    1    1    2  503  502 -0.21586730035E+03 -0.36234444443E+02  0.52544631813E+03  0.56921477455E+03  0.00000000000E+00 0. -1.
         21    1    1    2  504  503  0.57847131457E+02  0.54478932470E+02  0.24026299401E+03  0.25306234606E+03  0.00000000000E+00 0. -1.
         21    1    1    2  505  506  0.12166859962E+03  0.98448494685E+01 -0.76064675250E+03  0.77037890111E+03  0.00000000000E+00 0.  1.
         21    1    1    2  506  501  0.36351569278E+02 -0.28089337496E+02  0.41492073991E+02  0.61903470614E+02  0.00000000000E+00 0. -1.
<scales pt_clust_3="122.91251" pt_clust_4="82.87959" pt_clust_5="14000.00000" pt_clust_6="45.93961"></scales>
<clustering>
<clus scale="   45.940">  1  6  2 -1</clus>
<clus scale="   82.880">  1  4  2 -1</clus>
<clus scale="  122.913">  1  3  2 -1</clus>
<clus scale="   45.940">  1  3  2 -1</clus>
</clustering>
</event>
<event>
 6    0  0.8641190E+002  0.1134913E+03  0.7546771E-02  0.1254238E+00
         21   -1    0    0  503  501  0.00000000000E+00  0.00000000000E+00  0.15852375928E+03  0.15852375928E+03  0.00000000000E+00 0.  1.
         21   -1    0    0  504  502 -0.00000000000E+00 -0.00000000000E+00 -0.64028979481E+03  0.64028979481E+03  0.00000000000E+00 0.  1.
         21    1    1    2  503  505 -0.42585344602E+02  0.24040522895E+02 -0.85332814825E+01  0.49641466626E+02  0.00000000000E+00 0.  1.
         21    1    1    2  504  501  0.48079941069E+02  0.10196736730E+03  0.99106334386E+02  0.15010359836E+03  0.00000000000E+00 0.  1.
         21    1    1    2  505  506  0.22170693465E+02 -0.87149483468E+02 -0.15644899593E+03  0.18045182306E+03  0.00000000000E+00 0.  1.
         21    1    1    2  506  502 -0.27665289932E+02 -0.38858406724E+02 -0.41589009251E+03  0.41861666604E+03  0.00000000000E+00 0.  1.
<scales pt_clust_3="49.93786" pt_clust_4="14000.00000" pt_clust_5="113.49133" pt_clust_6="47.70057"></scales>
<clustering>
<clus scale="   47.701">  2  6  1 -1</clus>
<clus scale="   49.938">  1  3  2 -1</clus>
<clus scale="  113.491">  2  5  1 -1</clus>
<clus scale="   49.938">  1  3  2 -1</clus>
</clustering>
</event>
<event>
 6    0  0.8641190E+002  0.1114918E+03  0.7546771E-02  0.1257832E+00
         21   -1    0    0  503  501  0.00000000000E+00  0.00000000000E+00  0.11228924997E+04  0.11228924997E+04  0.00000000000E+00 0.  1.
         21   -1    0    0  504  502 -0.00000000000E+00 -0.00000000000E+00 -0.44516014748E+03  0.44516014748E+03  0.00000000000E+00 0. -1.
         21    1    1    2  503  505  0.37139298124E+02 -0.83238638536E+02  0.91373987553E+03  0.91827477290E+03  0.00000000000E+00 0.  1.
         21    1    1    2  504  501  0.35664970673E+02  0.10551264542E+02  0.17371820931E+02  0.41049963203E+02  0.00000000000E+00 0.  1.
         21    1    1    2  505  506 -0.13865443208E+03  0.10850427557E+03  0.12951245939E+03  0.21856739576E+03  0.00000000000E+00 0.  1.
         21    1    1    2  506  502  0.65850163285E+02 -0.35816901579E+02 -0.38289180361E+03  0.39016051532E+03  0.00000000000E+00 0. -1.
<scales pt_clust_3="91.17405" pt_clust_4="37.19300" pt_clust_5="111.49176" pt_clust_6="14000.00000"></scales>
<clustering>
<clus scale="   37.193">  2  4  1 -1</clus>
<clus scale="   91.174">  1  3  2 -1</clus>
<clus scale="  111.492">  1  5  2 -1</clus>
<clus scale="   91.174">  1  3  2 -1</clus>
</clustering>
</event>
<event>
 6    0  0.8641190E+002  0.1412550E+03  0.7546771E-02  0.1211650E+00
         21   -1    0    0  503  501  0.00000000000E+00  0.00000000000E+00  0.22635753652E+03  0.22635753652E+03  0.00000000000E+00 0. -1.
         21   -1    0    0  506  502 -0.00000000000E+00 -0.00000000000E+00 -0.28252627394E+03  0.28252627394E+03  0.00000000000E+00 0.  1.
         21    1    1    2  503  504  0.28923524490E+02 -0.29083557247E+02  0.42949450970E+01  0.41241606715E+02  0.00000000000E+00 0. -1.
         21    1    1    2  504  505 -0.15595303054E+03 -0.56065873245E+02 -0.97614415234E+02  0.19233643425E+03  0.00000000000E+00 0.  1.
         21    1    1    2  505  502  0.79459334329E+02  0.10607443256E+03 -0.74581527016E+02  0.15207884543E+03  0.00000000000E+00 0.  1.
         21    1    1    2  506  501  0.47570171720E+02 -0.20925002070E+02  0.11173225973E+03  0.12322692406E+03  0.00000000000E+00 0. -1.
<scales pt_clust_3="41.01736" pt_clust_4="141.25496" pt_clust_5="14000.00000" pt_clust_6="74.50660"></scales>
<clustering>
<clus scale="   41.017">  1  3  2 -1</clus>
<clus scale="   74.507">  1  6  2 -1</clus>
<clus scale="  141.255">  1  4  2 -1</clus>
<clus scale="   41.017">  1  3  2 -1</clus>
</clustering>
</event>
<event>
 6    0  0.8641190E+002  0.1708543E+03  0.7546771E-02  0.1176960E+00
         21   -1    0    0  506  501  0.00000000000E+00  0.00000000000E+00  0.27268943385E+04  0.27268943385E+04  0.00000000000E+00 0. -1.
         21   -1    0    0  505  502 -0.00000000000E+00 -0.00000000000E+00 -0.61612327566E+03  0.61612327566E+03  0.00000000000E+00 0.  1.
         21    1    1    2  503  501 -0.41492247027E+01 -0.82511842095E+02  0.12848774484E+04  0.12875307676E+04  0.00000000000E+00 0. -1.
         21    1    1    2  504  503  0.71145486941E+02 -0.54482220674E+02  0.12679129948E+04  0.12710756685E+04  0.00000000000E+00 0. -1.
         21    1    1    2  505  504 -0.12909944286E+03  0.79580725337E+02  0.13390343925E+03  0.20231136655E+03  0.00000000000E+00 0. -1.
         21    1    1    2  506  502  0.62103180619E+02  0.57413337433E+02 -0.57592281962E+03  0.58209981148E+03  0.00000000000E+00 0.  1.
<scales pt_clust_3="77.24529" pt_clust_4="77.24529" pt_clust_5="150.72898" pt_clust_6="84.57598"></scales>
<clustering>
<clus scale="   77.245">  3  4 -1 -1</clus>
<clus scale="   84.576">  2  6  1 -1</clus>
<clus scale="  150.729">  2  5  1 -1</clus>
<clus scale="  170.854">  1  3  2 -1</clus>
</clustering>
</event>
<event>
 6    0  0.8641190E+002  0.1172004E+03  0.7546771E-02  0.1247788E+00
         21   -1    0    0  506  501  0.00000000000E+00  0.00000000000E+00  0.11045873387E+04  0.11045873387E+04  0.00000000000E+00 0. -1.
         21   -1    0    0  504  502 -0.00000000000E+00 -0.00000000000E+00 -0.16105889685E+02  0.16105889685E+02  0.00000000000E+00 0.  1.
         21    1    1    2  503  501  0.34753916937E+02  0.68165677973E+01  0.24041180043E+03  0.24300644873E+03  0.00000000000E+00 0. -1.
         21    1    1    2  504  505 -0.32391698511E+02  0.38863343887E+01  0.21993851262E+03  0.22234494611E+03  0.00000000000E+00 0.  1.
         21    1    1    2  505  503 -0.74859409602E+02  0.50729415168E+02  0.26601019762E+03  0.28096054884E+03  0.00000000000E+00 0.  1.
         21    1    1    2  506  502  0.72497191176E+02 -0.61432317354E+02  0.36212093834E+03  0.37438128470E+03  0.00000000000E+00 0. -1.
<scales pt_clust_3="35.41610" pt_clust_4="31.12103" pt_clust_5="31.12103" pt_clust_6="105.12538"></scales>
<clustering>
<clus scale="   31.121">  4  5 -1 -1</clus>
<clus scale="   35.416">  1  3  2 -1</clus>
<clus scale="  105.125">  2  6  1 -1</clus>
<clus scale="   35.416">  1  3  2 -1</clus>
</clustering>
</event>
<event>
 6    0  0.8641190E+002  0.2089751E+03  0.7546771E-02  0.1142380E+00
         21   -1    0    0  504  501  0.00000000000E+00  0.00000000000E+00  0.11056318422E+04  0.11056318422E+04  0.00000000000E+00 0. -1.
         21   -1    0    0  506  502 -0.00000000000E+00 -0.00000000000E+00 -0.13297276843E+03  0.13297276843E+03  0.00000000000E+00 0. -1.
         21    1    1    2  503  502  0.86262459435E+02  0.43604541558E+02  0.27221337377E+02  0.10041697646E+03  0.00000000000E+00 0. -1.
         21    1    1    2  504  505 -0.89976318322E+02 -0.15811608049E+03  0.89860365946E+03  0.91683421051E+03  0.00000000000E+00 0. -1.
         21    1    1    2  505  503  0.40066342053E+02  0.12421173675E+03  0.94130265144E+02  0.16091728971E+03  0.00000000000E+00 0. -1.
         21    1    1    2  506  501 -0.36352483166E+02 -0.97001978141E+01 -0.47296188195E+02  0.60436133958E+02  0.00000000000E+00 0. -1.
<scales pt_clust_3="78.36194" pt_clust_4="184.99319" pt_clust_5="78.36194" pt_clust_6="37.62442"></scales>
<clustering>
<clus scale="   37.624">  2  6  1 -1</clus>
<clus scale="   78.362">  3  5 -1 -1</clus>
<clus scale="  184.993">  1  4  2 -1</clus>
<clus scale="  184.993">  1  3  2 -1</clus>
</clustering>
</event>
<event>
 6    0  0.8641190E+002  0.1632736E+03  0.7546771E-02  0.1185050E+00
         21   -1    0    0  503  501  0.00000000000E+00  0.00000000000E+00  0.77529136256E+02  0.77529136256E+02  0.00000000000E+00 0. -1.
         21   -1    0    0  504  502 -0.00000000000E+00 -0.00000000000E+00 -0.61448723844E+03  0.61448723844E+03  0.00000000000E+00 0.  1.
         21    1    1    2  503  506  0.17744757338E+02  0.53842825125E+02 -0.40917233543E+01  0.56838969294E+02  0.00000000000E+00 0. -1.
         21    1    1    2  504  505 -0.87126723004E+02 -0.12239636128E+03 -0.42569606350E+03  0.45143003179E+03  0.00000000000E+00 0.  1.
         21    1    1    2  505  501  0.26812995707E+02 -0.28356446897E+02 -0.10536199060E+02  0.40423214989E+02  0.00000000000E+00 0.  1.
         21    1    1    2  506  502  0.42568969958E+02  0.96909983056E+02 -0.96634116264E+02  0.14332415862E+03  0.00000000000E+00 0. -1.
<scales pt_clust_3="42.34478" pt_clust_4="151.99616" pt_clust_5="39.02595" pt_clust_6="42.34478"></scales>
<clustering>
<clus scale="   39.026">  1  5  2 -1</clus>
<clus scale="   42.345">  3  6 -1 -1</clus>
<clus scale="  151.996">  2  4  1 -1</clus>
<clus scale="   39.026">  1  3  2 -1</clus>
</clustering>
</event>
<event>
 6    0  0.8641190E+002  0.1615899E+03  0.7546771E-02  0.1186913E+00
         21   -1    0    0  505  501  0.00000000000E+00  0.00000000000E+00  0.55920139427E+03  0.55920139427E+03  0.00000000000E+00 0. -1.
         21   -1    0    0  504  502 -0.00000000000E+00 -0.00000000000E+00 -0.29571489008E+03  0.29571489008E+03  0.00000000000E+00 0. -1.
         21    1    1    2  503  502 -0.86053778643E+02  0.43489339917E+02  0.84277939669E+02  0.12805993370E+03  0.00000000000E+00 0. -1.
         21    1    1    2  504  506  0.25704682285E+02 -0.30149272180E+02 -0.22825944940E+03  0.23167236681E+03  0.00000000000E+00 0. -1.
         21    1    1    2  505  503 -0.74242755133E+02  0.51768575215E+02  0.40947162623E+02  0.99341039840E+02  0.00000000000E+00 0. -1.
         21    1    1    2  506  501  0.13459185149E+03 -0.65108642953E+02  0.36652085129E+03  0.39584294399E+03  0.00000000000E+00 0. -1.
<scales pt_clust_3="34.40283" pt_clust_4="39.61956" pt_clust_5="34.40283" pt_clust_6="157.64035"></scales>
<clustering>
<clus scale="   34.403">  3  5 -1 -1</clus>
<clus scale="   39.620">  2  4  1 -1</clus>
<clus scale="  157.640">  1  6  2 -1</clus>
<clus scale="  157.640">  1  3  2 -1</clus>
</clustering>
</event>
<event>
 6    0  0.8641190E+002  0.1160522E+03  0.7546771E-02  0.1249755E+00
         21   -1    0    0  505  501  0.00000000000E+00  0.00000000000E+00  0.73066355061E+03  0.73066355061E+03  0.00000000000E+00 0. -1.
         21   -1    0    0  506  502 -0.00000000000E+00 -0.00000000000E+00 -0.48393065021E+03  0.48393065021E+03  0.00000000000E+00 0.  1.
         21    1    1    2  503  504 -0.63541067736E+02  0.24099591466E+01 -0.14646854117E+02  0.65251862254E+02  0.00000000000E+00 0. -1.
         21    1    1    2  504  502  0.96779391012E+02  0.48389804508E+02 -0.40513683926E+03  0.41933719395E+03  0.00000000000E+00 0.  1.
         21    1    1    2  505  503 -0.77563903165E+02 -0.10644174425E+02  0.20103197103E+02  0.80830662852E+02  0.00000000000E+00 0.  1.
         21    1    1    2  506  501  0.44325579889E+02 -0.40155589229E+02  0.64641339668E+03  0.64917448177E+03  0.00000000000E+00 0. -1.
<scales pt_clust_3="32.89020" pt_clust_4="110.16445" pt_clust_5="32.89020" pt_clust_6="59.80994"></scales>
<clustering>
<clus scale="   32.890">  3  5 -1 -1</clus>
<clus scale="   59.810">  1  6  2 -1</clus>
<clus scale="  110.164">  2  4  1 -1</clus>
<clus scale="   59.810">  1  3  2 -1</clus>
</clustering>
</event>
<event>
 6    0  0.8641190E+002  0.1232583E+03  0.7546771E-02  0.1237817E+00
         21   -1    0    0  505  501  0.00000000000E+00  0.00000000000E+00  0.24812431652E+03  0.24812431652E+03  0.00000000000E+00 0. -1.
         21   -1    0    0  506  502 -0.00000000000E+00 -0.00000000000E+00 -0.69492580386E+03  0.69492580386E+03  0.00000000000E+00 0. -1.
         21    1    1    2  503  502  0.78447161194E+02 -0.23520560903E+02 -0.17962886902E+03  0.19741758906E+03  0.00000000000E+00 0. -1.
         21    1    1    2  504  503  0.31495046635E+02  0.95141505221E+02 -0.71327748185E+02  0.12301012820E+03  0.00000000000E+00 0.  1.
         21    1    1    2  505  504  0.15701159036E+02 -0.12907653287E+03  0.18007817941E+03  0.22211579960E+03  0.00000000000E+00 0. -1.
         21    1    1    2  506  501 -0.12564336686E+03  0.57455588550E+02 -0.37592304953E+03  0.40050660352E+03  0.00000000000E+00 0. -1.
<scales pt_clust_3="81.89734" pt_clust_4="14000.00000" pt_clust_5="123.25826" pt_clust_6="76.45363"></scales>
<clustering>
<clus scale="   81.897">  2  3  1 -1</clus>
<clus scale="   76.454">  2  6  1 -1</clus>
<clus scale="  123.258">  1  5  2 -1</clus>
<clus scale="  123.258">  1  3  2 -1</clus>
</clustering>
</event>
<event>
 6    0  0.8641190E+002  0.1231150E+03  0.7546771E-02  0.1238045E+00
         21   -1    0    0  506  501  0.00000000000E+00  0.00000000000E+00  0.18838179354E+03  0.18838179354E+03  0.00000000000E+00 0.  1.
         21   -1    0    0  503  502 -0.00000000000E+00 -0.00000000000E+00 -0.73332624060E+03  0.73332624060E+03  0.00000000000E+00 0. -1.
         21    1    1    2  503  504 -0.28234221008E+02  0.25753720851E+02 -0.46422454121E+03  0.46579485832E+03  0.00000000000E+00 0. -1.
         21    1    1    2  504  501  0.12075948159E+03  0.42664578205E+02 -0.18239085130E+03  0.22286664458E+03  0.00000000000E+00 0.  1.
         21    1    1    2  505  502 -0.19599310168E+02  0.33131155092E+02 -0.31972834203E+02  0.50040668698E+02  0.00000000000E+00 0.  1.
         21    1    1    2  506  505 -0.72925950411E+02 -0.10154945415E+03  0.13364377967E+03  0.18300586254E+03  0.00000000000E+00 0.  1.
<scales pt_clust_3="38.21551" pt_clust_4="14000.00000" pt_clust_5="44.11196" pt_clust_6="123.11502"></scales>
<clustering>
<clus scale="   38.216">  2  3  1 -1</clus>
<clus scale="   44.112">  2  5  1 -1</clus>
<clus scale="  123.115">  1  6  2 -1</clus>
<clus scale="  123.115">  1  3  2 -1</clus>
</clustering>
</event>
<event>
 6    0  0.8641190E+002  0.1977870E+03  0.7546771E-02  0.1151620E+00
         21   -1    0    0  504  501  0.00000000000E+00  0.00000000000E+00  0.41372658409E+03  0.41372658409E+03  0.00000000000E+00 0. -1.
         21   -1    0    0  505  502 -0.00000000000E+00 -0.00000000000E+00 -0.19735600299E+03  0.19735600299E+03  0.00000000000E+00 0. -1.
         21    1    1    2  503  501 -0.17712986401E+03  0.92455498192E+02  0.25198225117E+03  0.32158678887E+03  0.00000000000E+00 0. -1.
         21    1    1    2  504  506  0.18412497046E+03 -0.62255676416E+02  0.19397189136E+02  0.19533055301E+03  0.00000000000E+00 0. -1.
         21    1    1    2  505  503 -0.35053572572E+02 -0.18932996975E+02 -0.12030530957E+02  0.41616643301E+02  0.00000000000E+00 0. -1.
         21    1    1    2  506  502  0.28058466113E+02 -0.11266824801E+02 -0.42978328251E+02  0.52548601894E+02  0.00000000000E+00 0. -1.
<scales pt_clust_3="14000.00000" pt_clust_4="197.78699" pt_clust_5="36.61124" pt_clust_6="30.23605"></scales>
<clustering>
<clus scale="   30.236">  2  6  1 -1</clus>
<clus scale="   36.611">  2  5  1 -1</clus>
<clus scale="  197.787">  2  4  1 -1</clus>
<clus scale="  197.787">  1  3  2 -1</clus>
</clustering>
</event>
<event>
 6    0  0.8641190E+002  0.1131824E+03  0.7546771E-02  0.1254788E+00
         21   -1    0    0  504  501  0.00000000000E+00  0.00000000000E+00  0.64189170597E+03  0.64189170597E+03  0.00000000000E+00 0. -1.
         21   -1    0    0  505  502 -0.00000000000E+00 -0.00000000000E+00 -0.11198918746E+04  0.11198918746E+04  0.00000000000E+00 0. -1.
         21    1    1    2  503  506  0.21149704398E+02 -0.86977531664E+02 -0.14401930010E+02  0.90663204215E+02  0.00000000000E+00 0.  1.
         21    1    1    2  504  502 -0.38531584936E+01 -0.40182405128E+02  0.21667089747E+03  0.22039907060E+03  0.00000000000E+00 0.  1.
         21    1    1    2  505  503  0.42017658089E+02 -0.94302356738E+01 -0.10506467227E+04  0.10515288626E+04  0.00000000000E+00 0. -1.
         21    1    1    2  506  501 -0.59314203993E+02  0.13659017247E+03  0.37037758662E+03  0.39919244316E+03  0.00000000000E+00 0. -1.
<scales pt_clust_3="113.18235" pt_clust_4="40.36673" pt_clust_5="43.06817" pt_clust_6="14000.00000"></scales>
<clustering>
<clus scale="   40.367">  1  4  2 -1</clus>
<clus scale="   43.068">  2  5  1 -1</clus>
<clus scale="  113.182">  2  3  1 -1</clus>
<clus scale="   40.367">  1  3  2 -1</clus>
</clustering>
</event>
<event>
 6    0  0.8641190E+002  0.1458162E+03  0.7546771E-02  0.1205710E+00
         21   -1    0    0  503  501  0.00000000000E+00  0.00000000000E+00  0.17394270621E+03  0.17394270621E+03  0.00000000000E+00 0. -1.
         21   -1    0    0  505  502 -0.00000000000E+00 -0.00000000000E+00 -0.26997718078E+03  0.26997718078E+03  0.00000000000E+00 0. -1.
         21    1    1    2  503  502 -0.13005153584E+03 -0.48404319795E+02  0.10026556557E+03  0.17120036154E+03  0.00000000000E+00 0. -1.
         21    1    1    2  504  506  0.54791646027E+02  0.97943839867E+01 -0.24452660342E+02  0.60794629943E+02  0.00000000000E+00 0. -1.
         21    1    1    2  505  504  0.35846403145E+02 -0.23656930043E+02 -0.10076792194E+03  0.10953898415E+03  0.00000000000E+00 0. -1.
         21    1    1    2  506  501  0.39413486672E+02  0.62266865851E+02 -0.71079457863E+02  0.10238591136E+03  0.00000000000E+00 0. -1.
<scales pt_clust_3="133.52260" pt_clust_4="53.61092" pt_clust_5="42.94898" pt_clust_6="53.61092"></scales>
<clustering>
<clus scale="   42.949">  2  5  1 -1</clus>
<clus scale="   53.611">  4  6 -1 -1</clus>
<clus scale="  133.523">  1  3  2 -1</clus>
<clus scale="  133.523">  1  3  2 -1</clus>
</clustering>
</event>
<event>
 6    0  0.8641190E+002  0.1734599E+03  0.7546771E-02  0.1174287E+00
         21   -1    0    0  503  501  0.00000000000E+00  0.00000000000E+00  0.46124127436E+03  0.46124127436E+03  0.00000000000E+00 0. -1.
         21   -1    0    0  505  502 -0.00000000000E+00 -0.00000000000E+00 -0.71275287982E+03  0.71275287982E+03  0.00000000000E+00 0. -1.
         21    1    1    2  503  506  0.18030080018E+03  0.15479525151E+02  0.39073507988E+03  0.43060642923E+03  0.00000000000E+00 0. -1.
         21    1    1    2  504  501 -0.70303245380E+02  0.59304263223E+00 -0.43399044151E+01  0.70439568290E+02  0.00000000000E+00 0.  1.
         21    1    1    2  505  504 -0.12460551445E+02  0.38941087079E+02 -0.46596728194E+03  0.46775760971E+03  0.00000000000E+00 0. -1.
         21    1    1    2  506  502 -0.97537003357E+02 -0.55013654861E+02 -0.17193949898E+03  0.20519054695E+03  0.00000000000E+00 0. -1.
<scales pt_clust_3="14000.00000" pt_clust_4="72.49128" pt_clust_5="40.88611" pt_clust_6="173.45991"></scales>
<clustering>
<clus scale="   40.886">  2  5  1 -1</clus>
<clus scale="   72.491">  2  4  1 -1</clus>
<clus scale="  173.460">  2  6  1 -1</clus>
<clus scale="  173.460">  1  3  2 -1</clus>
</clustering>
</event>
<event>
 6    0  0.8641190E+002  0.1709526E+03  0.7546771E-02  0.1176858E+00
         21   -1    0    0  505  501  0.00000000000E+00  0.00000000000E+00  0.64892045288E+02  0.64892045288E+02  0.00000000000E+00 0.  1.
         21   -1    0    0  506  502 -0.00000000000E+00 -0.00000000000E+00 -0.12052681034E+04  0.12052681034E+04  0.00000000000E+00 0. -1.
         21    1    1    2  503  502  0.24543294099E+02  0.22639407652E+02 -0.25159114234E+03  0.25379720047E+03  0.00000000000E+00 0. -1.
         21    1    1    2  504  501  0.45952601357E+02 -0.26307994800E+02 -0.22095625119E+03  0.22721227322E+03  0.00000000000E+00 0. -1.
         21    1    1    2  505  503 -0.10828514597E+03  0.11829652567E+03 -0.62849500107E+02  0.17224923944E+03  0.00000000000E+00 0.  1.
         21    1    1    2  506  504  0.37789250515E+02 -0.11462793852E+03 -0.60497916447E+03  0.61690143555E+03  0.00000000000E+00 0. -1.
<scales pt_clust_3="33.39036" pt_clust_4="41.38402" pt_clust_5="160.44244" pt_clust_6="41.38402"></scales>
<clustering>
<clus scale="   33.390">  2  3  1 -1</clus>
<clus scale="   41.384">  4  6 -1 -1</clus>
<clus scale="  160.442">  1  5  2 -1</clus>
<clus scale="  160.442">  1  3  2 -1</clus>
</clustering>
</event>
<event>
 6    0  0.8641190E+002  0.1080356E+03  0.7546771E-02  0.1264252E+00
         21   -1    0    0  505  501  0.00000000000E+00  0.00000000000E+00  0.28328721323E+02  0.28328721323E+02  0.00000000000E+00 0. -1.
         21   -1    0    0  504  502 -0.00000000000E+00 -0.00000000000E+00 -0.15233476961E+04  0.15233476961E+04  0.00000000000E+00 0.  1.
         21    1    1    2  503  506  0.14730389545E+02  0.88234963920E+02 -0.30981764237E+03  0.32247382027E+03  0.00000000000E+00 0. -1.
         21    1    1    2  504  501 -0.30938295959E+02 -0.11579788354E+03 -0.84656892965E+03  0.85501185994E+03  0.00000000000E+00 0.  1.
         21    1    1    2  505  503 -0.28192433813E+02  0.44684353256E+02 -0.27733865383E+02  0.59671366996E+02  0.00000000000E+00 0. -1.
         21    1    1    2  506  502  0.44400340227E+02 -0.17121433637E+02 -0.31089853741E+03  0.31451937025E+03  0.00000000000E+00 0.  1.
<scales pt_clust_3="108.03556" pt_clust_4="14000.00000" pt_clust_5="51.46695" pt_clust_6="47.58712"></scales>
<clustering>
<clus scale="   47.587">  2  6  1 -1</clus>
<clus scale="   51.467">  1  5  2 -1</clus>
<clus scale="  108.036">  1  3  2 -1</clus>
<clus scale="   51.467">  1  3  2 -1</clus>
</clustering>
</event>
<event>
 6    0  0.8641190E+002  0.9521271E+02  0.7546771E-02  0.1290698E+00
         21   -1    0    0  503  501  0.00000000000E+00  0.00000000000E+00  0.50921525364E+03  0.50921525364E+03  0.00000000000E+00 0.  1.
         21   -1    0    0  505  502 -0.00000000000E+00 -0.00000000000E+00 -0.12569423979E+03  0.12569423979E+03  0.00000000000E+00 0. -1.
         21    1    1    2  503  502  0.85450491545E+00 -0.72921358459E+02 -0.51898499092E+02  0.89508149943E+02  0.00000000000E+00 0. -1.
         21    1    1    2  504  501  0.26022039330E+02  0.20563824756E+02  0.30455678510E+03  0.30635739385E+03  0.00000000000E+00 0.  1.
         21    1    1    2  505  506  0.82922193331E+02  0.17659948968E+02  0.51589574108E+02  0.99244385741E+02  0.00000000000E+00 0.  1.
         21    1    1    2  506  504 -0.10979873758E+03  0.34697584736E+02  0.79273153733E+02  0.13979956389E+03  0.00000000000E+00 0. -1.
<scales pt_clust_3="71.09812" pt_clust_4="33.16651" pt_clust_5="14000.00000" pt_clust_6="95.21271"></scales>
<clustering>
<clus scale="   33.167">  1  4  2 -1</clus>
<clus scale="   71.098">  2  3  1 -1</clus>
<clus scale="   95.213">  1  6  2 -1</clus>
<clus scale="   33.167">  1  3  2 -1</clus>
</clustering>
</event>
<event>
 6    0  0.8641190E+002  0.1245246E+03  0.7546771E-02  0.1235814E+00
         21   -1    0    0  504  501  0.00000000000E+00  0.00000000000E+00  0.15768633401E+04  0.15768633401E+04  0.00000000000E+00 0.  1.
         21   -1    0    0  506  502 -0.00000000000E+00 -0.00000000000E+00 -0.97743636369E+02  0.97743636369E+02  0.00000000000E+00 0. -1.
         21    1    1    2  503  501  0.13847765038E+02  0.46040828507E+02  0.79064091516E+03  0.79210136675E+03  0.00000000000E+00 0.  1.
         21    1    1    2  504  505  0.63315318401E+02 -0.69829020451E+02  0.33973724356E+02  0.10019548686E+03  0.00000000000E+00 0. -1.
         21    1    1    2  505  502  0.13728977431E+02 -0.40959177660E+02 -0.51682819995E+02  0.67359134039E+02  0.00000000000E+00 0. -1.
         21    1    1    2  506  503 -0.90892060870E+02  0.64747369604E+02  0.70618788424E+03  0.71495098885E+03  0.00000000000E+00 0.  1.
<scales pt_clust_3="47.40685" pt_clust_4="14000.00000" pt_clust_5="43.19883" pt_clust_6="124.52461"></scales>
<clustering>
<clus scale="   43.199">  2  5  1 -1</clus>
<clus scale="   47.407">  1  3  2 -1</clus>
<clus scale="  124.525">  1  6  2 -1</clus>
<clus scale="   47.407">  1  3  2 -1</clus>
</clustering>
</event>
<event>
 6    0  0.8641190E+002  0.1410953E+03  0.7546771E-02  0.1211863E+00
         21   -1    0    0  506  501  0.00000000000E+00  0.00000000000E+00  0.80681596826E+02  0.80681596826E+02  0.00000000000E+00 0. -1.
         21   -1    0    0  504  502 -0.00000000000E+00 -0.00000000000E+00 -0.56363193511E+03  0.56363193511E+03  0.00000000000E+00 0. -1.
         21    1    1    2  503  501 -0.73351546037E+02 -0.12675253560E+02 -0.58418173145E+01  0.74667517626E+02  0.00000000000E+00 0. -1.
         21    1    1    2  504  503 -0.23939634421E+02 -0.59475738897E+02 -0.98093511735E+01  0.64859023921E+02  0.00000000000E+00 0. -1.
         21    1    1    2  505  502 -0.35878621442E+02  0.19529947194E+02 -0.56296981796E+02  0.69556052744E+02  0.00000000000E+00 0. -1.
         21    1    1    2  506  505  0.13316980190E+03  0.52621045264E+02 -0.41100218800E+03  0.43523093764E+03  0.00000000000E+00 0. -1.
<scales pt_clust_3="61.40903" pt_clust_4="61.40903" pt_clust_5="40.84966" pt_clust_6="123.92145"></scales>
<clustering>
<clus scale="   40.850">  2  5  1 -1</clus>
<clus scale="   61.409">  3  4 -1 -1</clus>
<clus scale="  123.921">  2  6  1 -1</clus>
<clus scale="  141.095">  1  3  2 -1</clus>
</clustering>
</event>
<event>
 6    0  0.8641190E+002  0.7786880E+02  0.7546771E-02  0.1335211E+00
         21   -1    0    0  506  501  0.00000000000E+00  0.00000000000E+00  0.34729652836E+02  0.34729652836E+02  0.00000000000E+00 0. -1.
         21   -1    0    0  503  502 -0.00000000000E+00 -0.00000000000E+00 -0.65628332170E+03  0.65628332170E+03  0.00000000000E+00 0. -1.
         21    1    1    2  503  505  0.62560082703E+02 -0.41129390644E+02 -0.10480674732E+03  0.12880157222E+03  0.00000000000E+00 0.  1.
         21    1    1    2  504  502 -0.65391007499E+01  0.41428270788E+02 -0.27327226298E+03  0.27647204411E+03  0.00000000000E+00 0. -1.
         21    1    1    2  505  501 -0.24038265829E+01 -0.63386255329E+02 -0.76596606581E+02  0.99451676137E+02  0.00000000000E+00 0. -1.
         21    1    1    2  506  504 -0.53617155371E+02  0.63087375185E+02 -0.16687805198E+03  0.18628768207E+03  0.00000000000E+00 0. -1.
<scales pt_clust_3="77.86880" pt_clust_4="41.94117" pt_clust_5="53.96726" pt_clust_6="14000.00000"></scales>
<clustering>
<clus scale="   41.941">  2  4  1 -1</clus>
<clus scale="   53.967">  1  5  2 -1</clus>
<clus scale="   77.869">  2  3  1 -1</clus>
<clus scale="   53.967">  1  3  2 -1</clus>
</clustering>
</event>
<event>
 6    0  0.8641190E+002  0.9691518E+02  0.7546771E-02  0.1286920E+00
         21   -1    0    0  505  501  0.00000000000E+00  0.00000000000E+00  0.82299113510E+03  0.82299113510E+03  0.00000000000E+00 0. -1.
         21   -1    0    0  506  502 -0.00000000000E+00 -0.00000000000E+00 -0.26640169722E+03  0.26640169722E+03  0.00000000000E+00 0. -1.
         21    1    1    2  503  502 -0.81062821384E+02 -0.15633794002E+03  0.37300356492E+03  0.41248562635E+03  0.00000000000E+00 0. -1.
         21    1    1    2  504  503  0.27297521267E+02  0.35455873457E+02  0.16066229778E+03  0.16677723932E+03  0.00000000000E+00 0. -1.
         21    1    1    2  505  504  0.33475083750E+01  0.40309681683E+02  0.25560445618E+03  0.25878507350E+03  0.00000000000E+00 0. -1.
         21    1    1    2  506  501  0.50417791742E+02  0.80572384884E+02 -0.23268088099E+03  0.25134489315E+03  0.00000000000E+00 0. -1.
<scales pt_clust_3="96.91518" pt_clust_4="88.46057" pt_clust_5="32.18192" pt_clust_6="14000.00000"></scales>
<clustering>
<clus scale="   32.182">  4  5 -1 -1</clus>
<clus scale="   88.461">  1  4  2 -1</clus>
<clus scale="   96.915">  1  3  2 -1</clus>
<clus scale="   88.461">  1  3  2 -1</clus>
</clustering>
</event>
<event>
 6    0  0.8641190E+002  0.1941090E+03  0.7546771E-02  0.1154807E+00
         21   -1    0    0  506  501  0.00000000000E+00  0.00000000000E+00  0.46690268311E+03  0.46690268311E+03  0.00000000000E+00 0. -1.
         21   -1    0    0  504  502 -0.00000000000E+00 -0.00000000000E+00 -0.24521488633E+03  0.24521488633E+03  0.00000000000E+00 0. -1.
         21    1    1    2  503  502 -0.30844897798E+02 -0.70111653709E+02  0.20396320813E+02  0.79265765680E+02  0.00000000000E+00 0. -1.
         21    1    1    2  504  505 -0.92865193649E+02  0.71160581367E+01 -0.69222875265E+02  0.11604477125E+03  0.00000000000E+00 0. -1.
         21    1    1    2  505  501 -0.15406663071E+03 -0.62818470628E+00  0.11422964908E+03  0.19179503133E+03  0.00000000000E+00 0. -1.
         21    1    1    2  506  503  0.27777672215E+03  0.63623780279E+02  0.15628470215E+03  0.32501200119E+03  0.00000000000E+00 0. -1.
<scales pt_clust_3="76.59668" pt_clust_4="108.56731" pt_clust_5="194.10896" pt_clust_6="14000.00000"></scales>
<clustering>
<clus scale="   76.597">  2  3  1 -1</clus>
<clus scale="  108.567">  2  4  1 -1</clus>
<clus scale="  194.109">  1  5  2 -1</clus>
<clus scale="  194.109">  1  3  2 -1</clus>
</clustering>
</event>
<event>
 6    0  0.8641190E+002  0.2663551E+03  0.7546771E-02  0.1103384E+00
         21   -1    0    0  505  501  0.00000000000E+00  0.00000000000E+00  0.15274406106E+04  0.15274406106E+04  0.00000000000E+00 0. -1.
         21   -1    0    0  506  502 -0.00000000000E+00 -0.00000000000E+00 -0.14287400367E+03  0.14287400367E+03  0.00000000000E+00 0.  1.
         21    1    1    2  503  502 -0.49279470297E+02 -0.15650693380E+02 -0.31781403907E+02  0.60691581214E+02  0.00000000000E+00 0.  1.
         21    1    1    2  504  503 -0.14952913091E+03 -0.12804448134E+03  0.50874425763E+02  0.20332869298E+03  0.00000000000E+00 0.  1.
         21    1    1    2  505  504  0.21350132146E+03  0.18027892903E+03  0.13014146443E+04  0.13310760245E+04  0.00000000000E+00 0. -1.
         21    1    1    2  506  501 -0.14692720248E+02 -0.36583754308E+02  0.64058940742E+02  0.75218315566E+02  0.00000000000E+00 0.  1.
<scales pt_clust_3="48.81462" pt_clust_4="48.81462" pt_clust_5="248.54783" pt_clust_6="39.42394"></scales>
<clustering>
<clus scale="   39.424">  1  6  2 -1</clus>
<clus scale="   48.815">  3  4 -1 -1</clus>
<clus scale="  248.548">  1  5  2 -1</clus>
<clus scale="   39.424">  1  3  2 -1</clus>
</clustering>
</event>
<event>
 6    0  0.8641190E+002  0.1258664E+03  0.7546771E-02  0.1233721E+00
         21   -1    0    0  506  501  0.00000000000E+00  0.00000000000E+00  0.74287608459E+03  0.74287608459E+03  0.00000000000E+00 0. -1.
         21   -1    0    0  501  502 -0.00000000000E+00 -0.00000000000E+00 -0.84163360184E+02  0.84163360184E+02  0.00000000000E+00 0. -1.
         21    1    1    2  503  504 -0.10174793395E+03 -0.40463074105E+02  0.47826973932E+03  0.49064431718E+03  0.00000000000E+00 0. -1.
         21    1    1    2  504  505  0.20970096940E+02  0.26886368098E+02  0.17345236827E+02  0.38255444001E+02  0.00000000000E+00 0. -1.
         21    1    1    2  505  502  0.60222220322E+02  0.55645606697E+02 -0.38922761909E+02  0.90764149089E+02  0.00000000000E+00 0. -1.
         21    1    1    2  506  503  0.20555616692E+02 -0.42068900690E+02  0.20202051016E+03  0.20737553450E+03  0.00000000000E+00 0. -1.
<scales pt_clust_3="114.30485" pt_clust_4="33.98087" pt_clust_5="33.98087" pt_clust_6="46.82228"></scales>
<clustering>
<clus scale="   33.981">  4  5 -1 -1</clus>
<clus scale="   46.822">  1  6  2 -1</clus>
<clus scale="  114.305">  1  3  2 -1</clus>
<clus scale="   46.822">  1  3  2 -1</clus>
</clustering>
</event>
<event>
 6    0  0.8641190E+002  0.1333952E+03  0.7546771E-02  0.1222503E+00
         21   -1    0    0  506  501  0.00000000000E+00  0.00000000000E+00  0.15481204141E+03  0.15481204141E+03  0.00000000000E+00 0. -1.
         21   -1    0    0  504  502 -0.00000000000E+00 -0.00000000000E+00 -0.38660717302E+03  0.38660717302E+03  0.00000000000E+00 0. -1.
         21    1    1    2  503  501  0.28964138283E+02 -0.26987004154E+02  0.76909112974E+01  0.40328275643E+02  0.00000000000E+00 0.  1.
         21    1    1    2  504  503  0.79772424232E+02 -0.85453863137E+02 -0.93591664636E+02  0.14975113383E+03  0.00000000000E+00 0. -1.
         21    1    1    2  505  502 -0.14543503670E+02  0.58487839447E+02 -0.21458032554E+03  0.22288350538E+03  0.00000000000E+00 0. -1.
         21    1    1    2  506  505 -0.94193058846E+02  0.53953027845E+02  0.68685947273E+02  0.12845629958E+03  0.00000000000E+00 0. -1.
<scales pt_clust_3="38.09167" pt_clust_4="38.09167" pt_clust_5="60.26890" pt_clust_6="116.23094"></scales>
<clustering>
<clus scale="   38.092">  3  4 -1 -1</clus>
<clus scale="   60.269">  2  5  1 -1</clus>
<clus scale="  116.231">  1  6  2 -1</clus>
<clus scale="  116.231">  1  3  2 -1</clus>
</clustering>
</event>
<event>
 6    0  0.8641190E+002  0.2385398E+03  0.7546771E-02  0.1120769E+00
         21   -1    0    0  503  501  0.00000000000E+00  0.00000000000E+00  0.10039956216E+04  0.10039956216E+04  0.00000000000E+00 0.  1.
         21   -1    0    0  506  502 -0.00000000000E+00 -0.00000000000E+00 -0.73133572007E+03  0.73133572007E+03  0.00000000000E+00 0.  1.
         21    1    1    2  503  504  0.23308223471E+03 -0.57584898925E+02  0.93274748071E+03  0.96315170741E+03  0.00000000000E+00 0.  1.
         21    1    1    2  504  505 -0.20438452044E+03  0.37807789348E+02 -0.26883625725E+03  0.33981670698E+03  0.00000000000E+00 0.  1.
         21    1    1    2  505  502 -0.54902585039E+02  0.48797766966E+02 -0.38598108877E+03  0.39290828038E+03  0.00000000000E+00 0.  1.
         21    1    1    2  506  501  0.26204870763E+02 -0.29020657389E+02 -0.52702331212E+01  0.39454646927E+02  0.00000000000E+00 0.  1.
<scales pt_clust_3="14000.00000" pt_clust_4="238.53984" pt_clust_5="52.15793" pt_clust_6="39.10107"></scales>
<clustering>
<clus scale="   39.101">  2  6  1 -1</clus>
<clus scale="   52.158">  2  5  1 -1</clus>
<clus scale="  238.540">  2  4  1 -1</clus>
<clus scale="  238.540">  1  3  2 -1</clus>
</clustering>
</event>
<event>
 6    0  0.8641190E+002  0.7782283E+02  0.7546771E-02  0.1335346E+00
         21   -1    0    0  506  501  0.00000000000E+00  0.00000000000E+00  0.57156047687E+03  0.57156047687E+03  0.00000000000E+00 0. -1.
         21   -1    0    0  504  502 -0.00000000000E+00 -0.00000000000E+00 -0.86728097623E+02  0.86728097623E+02  0.00000000000E+00 0. -1.
         21    1    1    2  503  502  0.37470765348E+02 -0.12406855134E+02 -0.54230465782E+02  0.67074076431E+02  0.00000000000E+00 0. -1.
         21    1    1    2  504  501 -0.27500116345E+02 -0.77291062760E+02  0.17845303978E+03  0.19640685372E+03  0.00000000000E+00 0. -1.
         21    1    1    2  505  503 -0.60046674515E+02  0.78293598696E+02  0.16215484739E+03  0.18981487099E+03  0.00000000000E+00 0. -1.
         21    1    1    2  506  505  0.50076025512E+02  0.11404319198E+02  0.19845495786E+03  0.20499277335E+03  0.00000000000E+00 0. -1.
<scales pt_clust_3="39.47136" pt_clust_4="14000.00000" pt_clust_5="77.82283" pt_clust_6="55.65186"></scales>
<clustering>
<clus scale="   39.471">  2  3  1 -1</clus>
<clus scale="   55.652">  1  6  2 -1</clus>
<clus scale="   77.823">  2  5  1 -1</clus>
<clus scale="   55.652">  1  3  2 -1</clus>
</clustering>
</event>
<event>
 6    0  0.8641190E+002  0.1033970E+03  0.7546771E-02  0.1273311E+00
         21   -1    0    0  502  501  0.00000000000E+00  0.00000000000E+00  0.32712980339E+03  0.32712980339E+03  0.00000000000E+00 0. -1.
         21   -1    0    0  504  502 -0.00000000000E+00 -0.00000000000E+00 -0.24718108750E+03  0.24718108750E+03  0.00000000000E+00 0.  1.
         21    1    1    2  503  501 -0.10322925957E+03  0.14858257934E+02  0.27085878713E+03  0.29024391540E+03  0.00000000000E+00 0. -1.
         21    1    1    2  504  505  0.17891352965E+02  0.31186671204E+02 -0.12527015018E+02  0.38074073553E+02  0.00000000000E+00 0.  1.
         21    1    1    2  505  506 -0.83389537448E+01 -0.68422541820E+02 -0.48435750680E+02  0.84244906806E+02  0.00000000000E+00 0. -1.
         21    1    1    2  506  503  0.93676860346E+02  0.22377612682E+02 -0.12994730554E+03  0.16174799514E+03  0.00000000000E+00 0.  1.
<scales pt_clust_3="14000.00000" pt_clust_4="35.95426" pt_clust_5="59.17357" pt_clust_6="103.39698"></scales>
<clustering>
<clus scale="   35.954">  2  4  1 -1</clus>
<clus scale="   59.174">  2  5  1 -1</clus>
<clus scale="  103.397">  2  6  1 -1</clus>
<clus scale="  103.397">  1  3  2 -1</clus>
</clustering>
</event>
<event>
 6    0  0.8641190E+002  0.1330166E+03  0.7546771E-02  0.1223047E+00
         21   -1    0    0  504  501  0.00000000000E+00  0.00000000000E+00  0.10256610982E+04  0.10256610982E+04  0.00000000000E+00 0.  1.
         21   -1    0    0  506  502 -0.00000000000E+00 -0.00000000000E+00 -0.47107851819E+02  0.47107851819E+02  0.00000000000E+00 0.  1.
         21    1    1    2  503  501 -0.26858056791E+02 -0.62429822945E+02  0.29778667485E+02  0.74199777929E+02  0.00000000000E+00 0.  1.
         21    1    1    2  504  505  0.22465115320E+02  0.65666117037E+02  0.58042396586E+03  0.58455855179E+03  0.00000000000E+00 0.  1.
         21    1    1    2  505  502 -0.12356857176E+02  0.59572045071E+02  0.33588518834E+03  0.34135081693E+03  0.00000000000E+00 0.  1.
         21    1    1    2  506  503  0.16749798648E+02 -0.62808339163E+02  0.32465424685E+02  0.72659803351E+02  0.00000000000E+00 0.  1.
<scales pt_clust_3="42.70402" pt_clust_4="132.98757" pt_clust_5="40.80002" pt_clust_6="42.70402"></scales>
<clustering>
<clus scale="   40.800">  4  5 -1 -1</clus>
<clus scale="   42.704">  3  6 -1 -1</clus>
<clus scale="  132.988">  1  4  2 -1</clus>
<clus scale="  132.988">  1  3  2 -1</clus>
</clustering>
</event>
<event>
 6    0  0.8641190E+002  0.1268017E+03  0.7546771E-02  0.1232280E+00
         21   -1    0    0  506  501  0.00000000000E+00  0.00000000000E+00  0.32319935132E+03  0.32319935132E+03  0.00000000000E+00 0.  1.
         21   -1    0    0  503  502 -0.00000000000E+00 -0.00000000000E+00 -0.27415232001E+03  0.27415232001E+03  0.00000000000E+00 0.  1.
         21    1    1    2  503  501  0.13398626175E+03 -0.12542622940E+03 -0.25402741477E+02  0.18528183029E+03  0.00000000000E+00 0.  1.
         21    1    1    2  504  502 -0.10241312280E+03  0.43015838245E+02 -0.95207749275E+02  0.14629875455E+03  0.00000000000E+00 0.  1.
         21    1    1    2  505  504  0.17476536505E+02  0.64265903762E+02 -0.19597270970E+02  0.69423257947E+02  0.00000000000E+00 0.  1.
         21    1    1    2  506  505 -0.49049675456E+02  0.18144487396E+02  0.18925479304E+03  0.19634782854E+03  0.00000000000E+00 0.  1.
<scales pt_clust_3="14000.00000" pt_clust_4="126.80172" pt_clust_5="68.21573" pt_clust_6="52.29812"></scales>
<clustering>
<clus scale="   52.298">  1  6  2 -1</clus>
<clus scale="   68.216">  1  5  2 -1</clus>
<clus scale="  126.802">  2  4  1 -1</clus>
<clus scale="   52.298">  1  3  2 -1</clus>
</clustering>
</event>
<event>
 6    0  0.8641190E+002  0.1435865E+03  0.7546771E-02  0.1208583E+00
         21   -1    0    0  503  501  0.00000000000E+00  0.00000000000E+00  0.10739582474E+04  0.10739582474E+04  0.00000000000E+00 0. -1.
         21   -1    0    0  506  502 -0.00000000000E+00 -0.00000000000E+00 -0.30953791483E+03  0.30953791483E+03  0.00000000000E+00 0. -1.
         21    1    1    2  503  504 -0.16141822313E+02  0.38624318212E+02  0.86857895589E+03  0.86958714284E+03  0.00000000000E+00 0. -1.
         21    1    1    2  504  505 -0.91847637915E+02 -0.14220511414E+03  0.88889620991E+02  0.19120577344E+03  0.00000000000E+00 0. -1.
         21    1    1    2  505  502  0.12433019523E+03  0.69287462481E+02 -0.22950118263E+03  0.27005470322E+03  0.00000000000E+00 0. -1.
         21    1    1    2  506  501 -0.16340735002E+02  0.34293333442E+02  0.36452938369E+02  0.52648542760E+02  0.00000000000E+00 0. -1.
<scales pt_clust_3="73.91118" pt_clust_4="14000.00000" pt_clust_5="143.58653" pt_clust_6="37.98753"></scales>
<clustering>
<clus scale="   37.988">  1  6  2 -1</clus>
<clus scale="   73.911">  1  3  2 -1</clus>
<clus scale="  143.587">  2  5  1 -1</clus>
<clus scale="   37.988">  1  3  2 -1</clus>
</clustering>
</event>
<event>
 6    0  0.8641190E+002  0.1518091E+03  0.7546771E-02  0.1198268E+00
         21   -1    0    0  505  501  0.00000000000E+00  0.00000000000E+00  0.18586207480E+03  0.18586207480E+03  0.00000000000E+00 0.  1.
         21   -1    0    0  506  502 -0.00000000000E+00 -0.00000000000E+00 -0.84409502877E+03  0.84409502877E+03  0.00000000000E+00 0. -1.
         21    1    1    2  503  504  0.62081150216E+01  0.84040858212E+02 -0.47160483167E+03  0.47907465367E+03  0.00000000000E+00 0. -1.
         21    1    1    2  504  502 -0.26635302599E+02  0.23335148003E+02 -0.22606296515E+03  0.22881965101E+03  0.00000000000E+00 0. -1.
         21    1    1    2  505  503 -0.21264023145E+02 -0.14376493026E+03  0.14347603417E+03  0.20422019057E+03  0.00000000000E+00 0.  1.
         21    1    1    2  506  501  0.41691210722E+02  0.36388924050E+02 -0.10404119132E+03  0.11784260832E+03  0.00000000000E+00 0. -1.
<scales pt_clust_3="31.93602" pt_clust_4="31.93602" pt_clust_5="143.59274" pt_clust_6="55.33815"></scales>
<clustering>
<clus scale="   31.936">  3  4 -1 -1</clus>
<clus scale="   55.338">  2  6  1 -1</clus>
<clus scale="  143.593">  1  5  2 -1</clus>
<clus scale="  143.593">  1  3  2 -1</clus>
</clustering>
</event>
<event>
 6    0  0.8641190E+002  0.1086207E+03  0.7546771E-02  0.1263146E+00
         21   -1    0    0  503  501  0.00000000000E+00  0.00000000000E+00  0.61741595958E+02  0.61741595958E+02  0.00000000000E+00 0. -1.
         21   -1    0    0  506  502 -0.00000000000E+00 -0.00000000000E+00 -0.75895911366E+03  0.75895911366E+03  0.00000000000E+00 0. -1.
         21    1    1    2  503  505 -0.13546571700E+03 -0.17327517197E+02 -0.90476894158E+02  0.16382085249E+03  0.00000000000E+00 0. -1.
         21    1    1    2  504  501  0.80733254088E+02 -0.51207903406E+02 -0.98682448284E+02  0.13739844718E+03  0.00000000000E+00 0. -1.
         21    1    1    2  505  502  0.32937155163E+02  0.39818590179E+02 -0.43451732559E+03  0.43757934429E+03  0.00000000000E+00 0. -1.
         21    1    1    2  506  504  0.21795307746E+02  0.28716830424E+02 -0.73540849671E+02  0.81902065662E+02  0.00000000000E+00 0. -1.
<scales pt_clust_3="14000.00000" pt_clust_4="108.62072" pt_clust_5="74.73747" pt_clust_6="36.05124"></scales>
<clustering>
<clus scale="   36.051">  2  6  1 -1</clus>
<clus scale="   74.737">  2  5  1 -1</clus>
<clus scale="  108.621">  1  4  2 -1</clus>
<clus scale="  108.621">  1  3  2 -1</clus>
</clustering>
</event>
<event>
 6    0  0.8641190E+002  0.1354746E+03  0.7546771E-02  0.1219551E+00
         21   -1    0    0  506  501  0.00000000000E+00  0.00000000000E+00  0.35151412484E+03  0.35151412484E+03  0.00000000000E+00 0. -1.
         21   -1    0    0  505  502 -0.00000000000E+00 -0.00000000000E+00 -0.31914091365E+03  0.31914091365E+03  0.00000000000E+00 0. -1.
         21    1    1    2  503  502  0.42494357431E+01 -0.52539591503E+02 -0.32955229259E+02  0.62165211453E+02  0.00000000000E+00 0. -1.
         21    1    1    2  504  501  0.95101296803E+02  0.13920076910E+03 -0.73349767468E+02  0.18385129632E+03  0.00000000000E+00 0. -1.
         21    1    1    2  505  504 -0.94783581119E+02 -0.56730650412E+02 -0.12063147980E+03  0.16356725792E+03  0.00000000000E+00 0. -1.
         21    1    1    2  506  503 -0.45671514268E+01 -0.29930527187E+02  0.25930968772E+03  0.26107127279E+03  0.00000000000E+00 0. -1.
<scales pt_clust_3="57.43416" pt_clust_4="135.47465" pt_clust_5="14000.00000" pt_clust_6="30.27698"></scales>
<clustering>
<clus scale="   30.277">  1  6  2 -1</clus>
<clus scale="   57.434">  2  3  1 -1</clus>
<clus scale="  135.475">  1  4  2 -1</clus>
<clus scale="   30.277">  1  3  2 -1</clus>
</clustering>
</event>
<event>
 6    0  0.8641190E+002  0.8955405E+02  0.7546771E-02  0.1303935E+00
         21   -1    0    0  505  501  0.00000000000E+00  0.00000000000E+00  0.62228463420E+03  0.62228463420E+03  0.00000000000E+00 0. -1.
         21   -1    0    0  504  502 -0.00000000000E+00 -0.00000000000E+00 -0.44759158709E+02  0.44759158709E+02  0.00000000000E+00 0. -1.
         21    1    1    2  503  502 -0.80524235605E+02 -0.17116119196E+02  0.15591967764E+03  0.17631806468E+03  0.00000000000E+00 0. -1.
         21    1    1    2  504  501  0.82154493812E+02 -0.78234571967E+02  0.99734684308E+02  0.15105302499E+03  0.00000000000E+00 0. -1.
         21    1    1    2  505  506  0.10154599008E+02  0.29473109292E+02  0.18158340094E+03  0.18423982075E+03  0.00000000000E+00 0.  1.
         21    1    1    2  506  503 -0.11784857216E+02  0.65877581872E+02  0.14028771260E+03  0.15543288249E+03  0.00000000000E+00 0. -1.
<scales pt_clust_3="89.55405" pt_clust_4="14000.00000" pt_clust_5="31.17339" pt_clust_6="76.25651"></scales>
<clustering>
<clus scale="   31.173">  1  5  2 -1</clus>
<clus scale="   76.257">  1  6  2 -1</clus>
<clus scale="   89.554">  1  3  2 -1</clus>
<clus scale="   31.173">  1  3  2 -1</clus>
</clustering>
</event>
<event>
 6    0  0.8641190E+002  0.1115232E+03  0.7546771E-02  0.1257775E+00
         21   -1    0    0  504  501  0.00000000000E+00  0.00000000000E+00  0.11633921334E+02  0.11633921334E+02  0.00000000000E+00 0.  1.
         21   -1    0    0  506  502 -0.00000000000E+00 -0.00000000000E+00 -0.18389517622E+04  0.18389517622E+04  0.00000000000E+00 0.  1.
         21    1    1    2  503  501  0.24035334361E+02 -0.29127408913E+02 -0.21414081561E+03  0.21744514747E+03  0.00000000000E+00 0.  1.
         21    1    1    2  504  505  0.24306867755E+02  0.21999290740E+02 -0.69314785441E+02  0.76676802841E+02  0.00000000000E+00 0.  1.
         21    1    1    2  505  502 -0.28738585106E+02  0.90905317774E+02 -0.11141858133E+04  0.11182574434E+04  0.00000000000E+00 0.  1.
         21    1    1    2  506  503 -0.19603617011E+02 -0.83777199600E+02 -0.42967642650E+03  0.43820628985E+03  0.00000000000E+00 0.  1.
<scales pt_clust_3="37.08266" pt_clust_4="32.78403" pt_clust_5="99.12789" pt_clust_6="37.08266"></scales>
<clustering>
<clus scale="   32.784">  1  4  2 -1</clus>
<clus scale="   37.083">  3  6 -1 -1</clus>
<clus scale="   99.128">  2  5  1 -1</clus>
<clus scale="   32.784">  1  3  2 -1</clus>
</clustering>
</event>
<event>
 6    0  0.8641190E+002  0.1228406E+03  0.7546771E-02  0.1238483E+00
         21   -1    0    0  503  501  0.00000000000E+00  0.00000000000E+00  0.45949097834E+02  0.45949097834E+02  0.00000000000E+00 0.  1.
         21   -1    0    0  506  502 -0.00000000000E+00 -0.00000000000E+00 -0.57776502384E+03  0.57776502384E+03  0.00000000000E+00 0.  1.
         21    1    1    2  503  505  0.37838190888E+02  0.10793990977E+03 -0.83415924840E+02  0.14156613058E+03  0.00000000000E+00 0.  1.
         21    1    1    2  504  501  0.93057049498E+01 -0.62032220281E+02 -0.93924193997E+02  0.11294399814E+03  0.00000000000E+00 0.  1.
         21    1    1    2  505  502 -0.38282105494E+02  0.14340471957E+02 -0.17374797724E+03  0.17849237612E+03  0.00000000000E+00 0.  1.
         21    1    1    2  506  504 -0.88617903440E+01 -0.60248161445E+02 -0.18072782993E+03  0.19071161684E+03  0.00000000000E+00 0.  1.
<scales pt_clust_3="115.19337" pt_clust_4="42.12882" pt_clust_5="40.87993" pt_clust_6="42.12882"></scales>
<clustering>
<clus scale="   40.880">  2  5  1 -1</clus>
<clus scale="   42.129">  4  6 -1 -1</clus>
<clus scale="  115.193">  1  3  2 -1</clus>
<clus scale="  115.193">  1  3  2 -1</clus>
</clustering>
</event>
<event>
 6    0  0.8641190E+002  0.1395002E+03  0.7546771E-02  0.1214003E+00
         21   -1    0    0  506  501  0.00000000000E+00  0.00000000000E+00  0.71895575730E+03  0.71895575730E+03  0.00000000000E+00 0. -1.
         21   -1    0    0  504  502 -0.00000000000E+00 -0.00000000000E+00 -0.10244453009E+03  0.10244453009E+03  0.00000000000E+00 0.  1.
         21    1    1    2  503  502  0.70530525908E+01  0.40935821089E+02 -0.53050353423E+02  0.67378238307E+02  0.00000000000E+00 0.  1.
         21    1    1    2  504  505 -0.30748666220E+02  0.11388415130E+02  0.30586323090E+02  0.44840825524E+02  0.00000000000E+00 0. -1.
         21    1    1    2  505  501 -0.12921205918E+03 -0.44859351642E+02  0.42216770358E+03  0.44377211225E+03  0.00000000000E+00 0. -1.
         21    1    1    2  506  503  0.15290767281E+03 -0.74648845774E+01  0.21680755397E+03  0.26540911130E+03  0.00000000000E+00 0. -1.
<scales pt_clust_3="49.69477" pt_clust_4="32.78988" pt_clust_5="14000.00000" pt_clust_6="139.50023"></scales>
<clustering>
<clus scale="   32.790">  2  4  1 -1</clus>
<clus scale="   49.695">  2  3  1 -1</clus>
<clus scale="  139.500">  2  6  1 -1</clus>
<clus scale="  139.500">  1  3  2 -1</clus>
</clustering>
</event>
<event>
 6    0  0.8641190E+002  0.9747273E+02  0.7546771E-02  0.1285702E+00
         21   -1    0    0  506  501  0.00000000000E+00  0.00000000000E+00  0.60174949677E+02  0.60174949677E+02  0.00000000000E+00 0. -1.
         21   -1    0    0  504  502 -0.00000000000E+00 -0.00000000000E+00 -0.99200349501E+03  0.99200349501E+03  0.00000000000E+00 0. -1.
         21    1    1    2  503  501  0.28147677900E+02  0.74656160194E+02 -0.10094294941E+03  0.12866745144E+03  0.00000000000E+00 0. -1.
         21    1    1    2  504  503 -0.10296295850E+03 -0.45472837326E+01 -0.15860331334E+03  0.18914824772E+03  0.00000000000E+00 0. -1.
         21    1    1    2  505  502  0.88932191874E+02 -0.42170106333E+02 -0.69094425866E+03  0.69791920822E+03  0.00000000000E+00 0. -1.
         21    1    1    2  506  505 -0.14116911274E+02 -0.27938770128E+02  0.18661976080E+02  0.36443537306E+02  0.00000000000E+00 0. -1.
<scales pt_clust_3="66.57636" pt_clust_4="97.47273" pt_clust_5="14000.00000" pt_clust_6="31.30275"></scales>
<clustering>
<clus scale="   31.303">  1  6  2 -1</clus>
<clus scale="   66.576">  1  3  2 -1</clus>
<clus scale="   97.473">  1  4  2 -1</clus>
<clus scale="   31.303">  1  3  2 -1</clus>
</clustering>
</event>
<event>
 6    0  0.8641190E+002  0.1446839E+03  0.7546771E-02  0.1207162E+00
         21   -1    0    0  506  501  0.00000000000E+00  0.00000000000E+00  0.97932253714E+03  0.97932253714E+03  0.00000000000E+00 0.  1.
         21   -1    0    0  503  502 -0.00000000000E+00 -0.00000000000E+00 -0.53101471148E+03  0.53101471148E+03  0.00000000000E+00 0. -1.
         21    1    1    2  503  501  0.21991128879E+02  0.37216651581E+02 -0.78718190571E+02  0.89806694801E+02  0.00000000000E+00 0. -1.
         21    1    1    2  504  505  0.11655050039E+03 -0.30737805477E+02  0.39696591684E+03  0.41486235183E+03  0.00000000000E+00 0. -1.
         21    1    1    2  505  502 -0.15617682049E+03  0.19556292126E+02 -0.42319661019E+03  0.45151856960E+03  0.00000000000E+00 0. -1.
         21    1    1    2  506  504  0.17635191218E+02 -0.26035138230E+02  0.55325670957E+03  0.55414963239E+03  0.00000000000E+00 0.  1.
<scales pt_clust_3="43.05481" pt_clust_4="144.68395" pt_clust_5="14000.00000" pt_clust_6="31.44564"></scales>
<clustering>
<clus scale="   31.446">  1  6  2 -1</clus>
<clus scale="   43.055">  2  3  1 -1</clus>
<clus scale="  144.684">  1  4  2 -1</clus>
<clus scale="   31.446">  1  3  2 -1</clus>
</clustering>
</event>
<event>
 6    0  0.8641190E+002  0.1161804E+03  0.7546771E-02  0.1249535E+00
         21   -1    0    0  503  501  0.00000000000E+00  0.00000000000E+00  0.43571020353E+03  0.43571020353E+03  0.00000000000E+00 0. -1.
         21   -1    0    0  505  502 -0.00000000000E+00 -0.00000000000E+00 -0.34972967924E+03  0.34972967924E+03  0.00000000000E+00 0. -1.
         21    1    1    2  503  504  0.18239726892E+02 -0.11679298087E+03  0.38986980570E+03  0.40739631001E+03  0.00000000000E+00 0. -1.
         21    1    1    2  504  502 -0.27031914265E+02  0.70920046930E+02 -0.17302602549E+03  0.18894015704E+03  0.00000000000E+00 0. -1.
         21    1    1    2  505  506 -0.53197895936E+02 -0.21997910739E+00 -0.81845581017E+02  0.97615386363E+02  0.00000000000E+00 0.  1.
         21    1    1    2  506  501  0.61990083310E+02  0.46092913047E+02 -0.49017674908E+02  0.91488029355E+02  0.00000000000E+00 0.  1.
<scales pt_clust_3="116.18038" pt_clust_4="14000.00000" pt_clust_5="53.19835" pt_clust_6="66.22948"></scales>
<clustering>
<clus scale="   53.198">  2  5  1 -1</clus>
<clus scale="   66.229">  2  6  1 -1</clus>
<clus scale="  116.180">  1  3  2 -1</clus>
<clus scale="  116.180">  1  3  2 -1</clus>
</clustering>
</event>
<event>
 6    0  0.8641190E+002  0.1087945E+03  0.7546771E-02  0.1262819E+00
         21   -1    0    0  503  501  0.00000000000E+00  0.00000000000E+00  0.32313209372E+03  0.32313209372E+03  0.00000000000E+00 0. -1.
         21   -1    0    0  504  502 -0.00000000000E+00 -0.00000000000E+00 -0.63737100375E+03  0.63737100375E+03  0.00000000000E+00 0. -1.
         21    1    1    2  503  505 -0.38278252565E+02  0.46215425410E+02  0.15163993650E+03  0.16308206679E+03  0.00000000000E+00 0. -1.
         21    1    1    2  504  501 -0.10089974439E+03 -0.43435952532E+02 -0.57734443609E+03  0.58770233815E+03  0.00000000000E+00 0. -1.
         21    1    1    2  505  506  0.62757322298E+02 -0.37271998981E+02  0.35734444169E+01  0.73078402521E+02  0.00000000000E+00 0. -1.
         21    1    1    2  506  502  0.76420674657E+02  0.34492526103E+02  0.10789214513E+03  0.13664029001E+03  0.00000000000E+00 0. -1.
<scales pt_clust_3="60.00908" pt_clust_4="14000.00000" pt_clust_5="60.10731" pt_clust_6="108.79453"></scales>
<clustering>
<clus scale="   60.009">  1  3  2 -1</clus>
<clus scale="   60.107">  1  5  2 -1</clus>
<clus scale="  108.795">  1  6  2 -1</clus>
<clus scale="   60.009">  1  3  2 -1</clus>
</clustering>
</event>
<event>
 6    0  0.8641190E+002  0.1655133E+03  0.7546771E-02  0.1182609E+00
         21   -1    0    0  503  501  0.00000000000E+00  0.00000000000E+00  0.19385181245E+04  0.19385181245E+04  0.00000000000E+00 0. -1.
         21   -1    0    0  505  502 -0.00000000000E+00 -0.00000000000E+00 -0.83027348024E+02  0.83027348024E+02  0.00000000000E+00 0.  1.
         21    1    1    2  503  504 -0.24085433944E+02  0.21553354558E+02  0.21161888352E+03  0.21407290133E+03  0.00000000000E+00 0.  1.
         21    1    1    2  504  506  0.74671554729E+02  0.44276967951E+01  0.96558993116E+03  0.96848302037E+03  0.00000000000E+00 0. -1.
         21    1    1    2  505  501  0.98338409378E+02 -0.10711309970E+03  0.65121640339E+03  0.66725292276E+03  0.00000000000E+00 0. -1.
         21    1    1    2  506  502 -0.14892453016E+03  0.81132048344E+02  0.27065558352E+02  0.17173662801E+03  0.00000000000E+00 0.  1.
<scales pt_clust_3="32.32113" pt_clust_4="63.36215" pt_clust_5="165.51329" pt_clust_6="14000.00000"></scales>
<clustering>
<clus scale="   32.321">  1  3  2 -1</clus>
<clus scale="   63.362">  1  4  2 -1</clus>
<clus scale="  165.513">  1  5  2 -1</clus>
<clus scale="   32.321">  1  3  2 -1</clus>
</clustering>
</event>
<event>
 6    0  0.8641190E+002  0.1257719E+03  0.7546771E-02  0.1233868E+00
         21   -1    0    0  506  501  0.00000000000E+00  0.00000000000E+00  0.19907310445E+04  0.19907310445E+04  0.00000000000E+00 0.  1.
         21   -1    0    0  505  502 -0.00000000000E+00 -0.00000000000E+00 -0.32471002137E+02  0.32471002137E+02  0.00000000000E+00 0. -1.
         21    1    1    2  503  502 -0.19380869579E+02  0.91654177401E+02  0.81529977954E+03  0.82066426561E+03  0.00000000000E+00 0.  1.
         21    1    1    2  504  501 -0.50898842838E+02 -0.16051005668E+03  0.67791065132E+03  0.69851057378E+03  0.00000000000E+00 0.  1.
         21    1    1    2  505  504  0.15624628072E+02  0.30037964902E+02 -0.31378849663E+00  0.33860106335E+02  0.00000000000E+00 0. -1.
         21    1    1    2  506  503  0.54655084345E+02  0.38817914381E+02  0.46536340001E+03  0.47016710092E+03  0.00000000000E+00 0. -1.
<scales pt_clust_3="125.77193" pt_clust_4="14000.00000" pt_clust_5="33.85865" pt_clust_6="71.78227"></scales>
<clustering>
<clus scale="   33.859">  2  5  1 -1</clus>
<clus scale="   71.782">  1  6  2 -1</clus>
<clus scale="  125.772">  1  3  2 -1</clus>
<clus scale="   71.782">  1  3  2 -1</clus>
</clustering>
</event>
<event>
 6    0  0.8641190E+002  0.6707676E+02  0.7546771E-02  0.1370326E+00
         21   -1    0    0  504  501  0.00000000000E+00  0.00000000000E+00  0.21823250622E+03  0.21823250622E+03  0.00000000000E+00 0. -1.
         21   -1    0    0  505  502 -0.00000000000E+00 -0.00000000000E+00 -0.94958001712E+02  0.94958001712E+02  0.00000000000E+00 0. -1.
         21    1    1    2  503  501 -0.59073733477E+02  0.13914408571E+02  0.96479166400E+02  0.11398046456E+03  0.00000000000E+00 0. -1.
         21    1    1    2  504  506  0.94786248821E+02  0.64056795822E+01  0.31984384657E+02  0.10024203988E+03  0.00000000000E+00 0. -1.
         21    1    1    2  505  503 -0.57458504416E+02  0.13036573185E+02 -0.52123569347E+01  0.59148969855E+02  0.00000000000E+00 0. -1.
         21    1    1    2  506  502  0.21745989072E+02 -0.33356661338E+02  0.23310382539E-01  0.39819033636E+02  0.00000000000E+00 0. -1.
<scales pt_clust_3="14000.00000" pt_clust_4="67.07676" pt_clust_5="48.15191" pt_clust_6="39.81903"></scales>
<clustering>
<clus scale="   39.819">  2  6  1 -1</clus>
<clus scale="   48.152">  2  5  1 -1</clus>
<clus scale="   67.077">  2  4  1 -1</clus>
<clus scale="   67.077">  1  3  2 -1</clus>
</clustering>
</event>
<event>
 6    0  0.8641190E+002  0.1237135E+03  0.7546771E-02  0.1237094E+00
         21   -1    0    0  503  501  0.00000000000E+00  0.00000000000E+00  0.77264820576E+03  0.77264820576E+03  0.00000000000E+00 0. -1.
         21   -1    0    0  504  502 -0.00000000000E+00 -0.00000000000E+00 -0.61647219997E+03  0.61647219997E+03  0.00000000000E+00 0.  1.
         21    1    1    2  503  505 -0.38721163852E+02 -0.38461187057E+02  0.36956817387E+03  0.37357626608E+03  0.00000000000E+00 0. -1.
         21    1    1    2  504  501  0.85193761848E+02  0.15293243652E+03  0.35003759822E+03  0.39137274734E+03  0.00000000000E+00 0. -1.
         21    1    1    2  505  506 -0.21001030399E+02 -0.96822009654E+02 -0.52163497434E+02  0.11196684909E+03  0.00000000000E+00 0. -1.
         21    1    1    2  506  502 -0.25471567598E+02 -0.17649239804E+02 -0.51126626886E+03  0.51220454322E+03  0.00000000000E+00 0.  1.
<scales pt_clust_3="55.16034" pt_clust_4="14000.00000" pt_clust_5="123.71353" pt_clust_6="30.98865"></scales>
<clustering>
<clus scale="   30.989">  2  6  1 -1</clus>
<clus scale="   55.160">  1  3  2 -1</clus>
<clus scale="  123.714">  2  5  1 -1</clus>
<clus scale="   55.160">  1  3  2 -1</clus>
</clustering>
</event>
<event>
 6    0  0.8641190E+002  0.1103022E+03  0.7546771E-02  0.1260011E+00
         21   -1    0    0  506  501  0.00000000000E+00  0.00000000000E+00  0.40460638771E+03  0.40460638771E+03  0.00000000000E+00 0. -1.
         21   -1    0    0  504  502 -0.00000000000E+00 -0.00000000000E+00 -0.16518479316E+03  0.16518479316E+03  0.00000000000E+00 0. -1.
         21    1    1    2  503  501 -0.15137281971E+02  0.69022357477E+02  0.11028307439E+03  0.13097930994E+03  0.00000000000E+00 0. -1.
         21    1    1    2  504  503 -0.81092046590E+02  0.22380775374E+02 -0.12093177733E+03  0.14731365821E+03  0.00000000000E+00 0. -1.
         21    1    1    2  505  502  0.49927947692E+02 -0.77303103016E+01  0.57864874641E+02  0.76817324708E+02  0.00000000000E+00 0. -1.
         21    1    1    2  506  505  0.46301380870E+02 -0.83672822549E+02  0.19220542285E+03  0.21468088801E+03  0.00000000000E+00 0. -1.
<scales pt_clust_3="70.66274" pt_clust_4="85.70382" pt_clust_5="50.47040" pt_clust_6="50.47040"></scales>
<clustering>
<clus scale="   50.470">  5  6 -1 -1</clus>
<clus scale="   70.663">  1  3  2 -1</clus>
<clus scale="   85.704">  2  4  1 -1</clus>
<clus scale="   70.663">  1  3  2 -1</clus>
</clustering>
</event>
<event>
 6    0  0.8641190E+002  0.1316784E+03  0.7546771E-02  0.1224986E+00
         21   -1    0    0  503  501  0.00000000000E+00  0.00000000000E+00  0.16948510445E+03  0.16948510445E+03  0.00000000000E+00 0.  1.
         21   -1    0    0  504  502 -0.00000000000E+00 -0.00000000000E+00 -0.72810667640E+03  0.72810667640E+03  0.00000000000E+00 0.  1.
         21    1    1    2  503  506 -0.68255540615E+02  0.33221155840E+02  0.64410482049E+02  0.99554880432E+02  0.00000000000E+00 0.  1.
         21    1    1    2  504  501 -0.52086763371E+02 -0.42595377848E+02 -0.44101934977E+03  0.44612270061E+03  0.00000000000E+00 0.  1.
         21    1    1    2  505  502 -0.80513580948E+02 -0.24927803839E+02 -0.10366983417E+03  0.13360863235E+03  0.00000000000E+00 0.  1.
         21    1    1    2  506  505  0.20085588493E+03  0.34302025848E+02 -0.78342870064E+02  0.21830556745E+03  0.00000000000E+00 0.  1.
<scales pt_clust_3="77.74362" pt_clust_4="67.28594" pt_clust_5="14000.00000" pt_clust_6="131.67845"></scales>
<clustering>
<clus scale="   67.286">  2  4  1 -1</clus>
<clus scale="   77.744">  1  3  2 -1</clus>
<clus scale="  131.678">  1  6  2 -1</clus>
<clus scale="   77.744">  1  3  2 -1</clus>
</clustering>
</event>
<event>
 6    0  0.8641190E+002  0.1729191E+03  0.7546771E-02  0.1174837E+00
         21   -1    0    0  504  501  0.00000000000E+00  0.00000000000E+00  0.15322594017E+04  0.15322594017E+04  0.00000000000E+00 0.  1.
         21   -1    0    0  506  502 -0.00000000000E+00 -0.00000000000E+00 -0.15016031369E+03  0.15016031369E+03  0.00000000000E+00 0. -1.
         21    1    1    2  503  501 -0.17666194481E+03 -0.30986611897E+02  0.14162755029E+04  0.14275874449E+04  0.00000000000E+00 0.  1.
         21    1    1    2  504  505  0.11443420629E+03  0.21988840419E+01  0.99523680585E+01  0.11488721552E+03  0.00000000000E+00 0. -1.
         21    1    1    2  505  502  0.33010639906E+02  0.17297619164E+02 -0.82404791719E+02  0.90440365291E+02  0.00000000000E+00 0. -1.
         21    1    1    2  506  503  0.29217098621E+02  0.11490108691E+02  0.38276008785E+02  0.49504689658E+02  0.00000000000E+00 0.  1.
<scales pt_clust_3="14000.00000" pt_clust_4="172.91910" pt_clust_5="55.96624" pt_clust_6="31.39525"></scales>
<clustering>
<clus scale="   31.395">  2  6  1 -1</clus>
<clus scale="   55.966">  2  5  1 -1</clus>
<clus scale="  172.919">  2  4  1 -1</clus>
<clus scale="  172.919">  1  3  2 -1</clus>
</clustering>
</event>
<event>
 6    0  0.8641190E+002  0.1363760E+03  0.7546771E-02  0.1218290E+00
         21   -1    0    0  505  501  0.00000000000E+00  0.00000000000E+00  0.43568746312E+03  0.43568746312E+03  0.00000000000E+00 0. -1.
         21   -1    0    0  503  502 -0.00000000000E+00 -0.00000000000E+00 -0.33237083136E+03  0.33237083136E+03  0.00000000000E+00 0.  1.
         21    1    1    2  503  506 -0.30571502692E+02  0.44505271679E+02  0.37260331218E+02  0.65602349550E+02  0.00000000000E+00 0. -1.
         21    1    1    2  504  501 -0.63725160046E+02 -0.65757372140E+02  0.24442797661E+03  0.26101717140E+03  0.00000000000E+00 0. -1.
         21    1    1    2  505  502  0.13034642321E+03 -0.11286793373E+02 -0.29085133294E+03  0.31892331307E+03  0.00000000000E+00 0.  1.
         21    1    1    2  506  504 -0.36049760477E+02  0.32538893834E+02  0.11247965687E+03  0.12251546046E+03  0.00000000000E+00 0. -1.
<scales pt_clust_3="48.28390" pt_clust_4="91.56925" pt_clust_5="126.51629" pt_clust_6="48.28390"></scales>
<clustering>
<clus scale="   48.284">  3  6 -1 -1</clus>
<clus scale="   91.569">  1  4  2 -1</clus>
<clus scale="  126.516">  2  5  1 -1</clus>
<clus scale="   91.569">  1  3  2 -1</clus>
</clustering>
</event>
<event>
 6    0  0.8641190E+002  0.9858935E+02  0.7546771E-02  0.1283291E+00
         21   -1    0    0  503  501  0.00000000000E+00  0.00000000000E+00  0.24133581188E+03  0.24133581188E+03  0.00000000000E+00 0.  1.
         21   -1    0    0  505  502 -0.00000000000E+00 -0.00000000000E+00 -0.10687255280E+04  0.10687255280E+04  0.00000000000E+00 0.  1.
         21    1    1    2  503  506 -0.32574999622E+01 -0.69962930865E+02 -0.80145726923E+03  0.80451176337E+03  0.00000000000E+00 0.  1.
         21    1    1    2  504  501 -0.92008053779E+01  0.98544571040E+02  0.22168020569E+03  0.24277108744E+03  0.00000000000E+00 0.  1.
         21    1    1    2  505  504  0.35915456084E+02  0.14529200328E+02 -0.11709933309E+03  0.12334209118E+03  0.00000000000E+00 0.  1.
         21    1    1    2  506  502 -0.23457150744E+02 -0.43110840503E+02 -0.13051331947E+03  0.13943639786E+03  0.00000000000E+00 0. -1.
<scales pt_clust_3="98.58935" pt_clust_4="14000.00000" pt_clust_5="38.74297" pt_clust_6="44.95707"></scales>
<clustering>
<clus scale="   38.743">  2  5  1 -1</clus>
<clus scale="   44.957">  2  6  1 -1</clus>
<clus scale="   98.589">  2  3  1 -1</clus>
<clus scale="   98.589">  1  3  2 -1</clus>
</clustering>
</event>
<event>
 6    0  0.8641190E+002  0.1224837E+03  0.7546771E-02  0.1239055E+00
         21   -1    0    0  503  501  0.00000000000E+00  0.00000000000E+00  0.22171020964E+04  0.22171020964E+04  0.00000000000E+00 0.  1.
         21   -1    0    0  506  502 -0.00000000000E+00 -0.00000000000E+00 -0.48729871513E+02  0.48729871513E+02  0.00000000000E+00 0.  1.
         21    1    1    2  503  502  0.82886795391E+01 -0.29752876706E+02  0.16880838194E+04  0.16883663456E+04  0.00000000000E+00 0.  1.
         21    1    1    2  504  501  0.85362805869E+00  0.14363261612E+03  0.30153678107E+03  0.33399923268E+03  0.00000000000E+00 0.  1.
         21    1    1    2  505  504 -0.56249760208E+02 -0.10151122118E+03  0.13465651721E+03  0.17776653559E+03  0.00000000000E+00 0.  1.
         21    1    1    2  506  505  0.47107452610E+02 -0.12368518232E+02  0.44095107284E+02  0.65699854042E+02  0.00000000000E+00 0.  1.
<scales pt_clust_3="30.88585" pt_clust_4="122.48370" pt_clust_5="14000.00000" pt_clust_6="50.39669"></scales>
<clustering>
<clus scale="   30.886">  1  3  2 -1</clus>
<clus scale="   50.397">  2  6  1 -1</clus>
<clus scale="  122.484">  1  4  2 -1</clus>
<clus scale="   30.886">  1  3  2 -1</clus>
</clustering>
</event>
<event>
 6    0  0.8641190E+002  0.1650283E+03  0.7546771E-02  0.1183134E+00
         21   -1    0    0  504  501  0.00000000000E+00  0.00000000000E+00  0.12964797647E+03  0.12964797647E+03  0.00000000000E+00 0.  1.
         21   -1    0    0  506  502 -0.00000000000E+00 -0.00000000000E+00 -0.43560226126E+03  0.43560226126E+03  0.00000000000E+00 0. -1.
         21    1    1    2  503  502  0.27826891547E+02 -0.10954850177E+03 -0.12399865003E+03  0.16778222594E+03  0.00000000000E+00 0. -1.
         21    1    1    2  504  503 -0.13685943002E+03 -0.27221184085E+02 -0.13779113002E+02  0.14021897305E+03  0.00000000000E+00 0.  1.
         21    1    1    2  505  501  0.49784181093E+02  0.11611555922E+03 -0.13966902048E+03  0.18833141815E+03  0.00000000000E+00 0.  1.
         21    1    1    2  506  505  0.59248357378E+02  0.20654126638E+02 -0.28507501289E+02  0.68917620598E+02  0.00000000000E+00 0.  1.
<scales pt_clust_3="113.02748" pt_clust_4="141.19019" pt_clust_5="60.21093" pt_clust_6="60.21093"></scales>
<clustering>
<clus scale="   60.211">  5  6 -1 -1</clus>
<clus scale="  113.027">  2  3  1 -1</clus>
<clus scale="  141.190">  1  4  2 -1</clus>
<clus scale="  141.190">  1  3  2 -1</clus>
</clustering>
</event>
<event>
 6    0  0.8641190E+002  0.1079346E+03  0.7546771E-02  0.1264443E+00
         21   -1    0    0  505  501  0.00000000000E+00  0.00000000000E+00  0.50593888739E+03  0.50593888739E+03  0.00000000000E+00 0. -1.
         21   -1    0    0  504  502 -0.00000000000E+00 -0.00000000000E+00 -0.54883891770E+03  0.54883891770E+03  0.00000000000E+00 0. -1.
         21    1    1    2  503  506  0.26405621761E+02 -0.30974675445E+02 -0.96240168997E+02  0.10449333715E+03  0.00000000000E+00 0. -1.
         21    1    1    2  504  501  0.57718145935E+02  0.83937669690E+02  0.48286624827E+03  0.49349440775E+03  0.00000000000E+00 0. -1.
         21    1    1    2  505  503  0.14142683317E+01 -0.45336877697E+02 -0.49322758654E+02  0.67008709549E+02  0.00000000000E+00 0. -1.
         21    1    1    2  506  502 -0.85538036028E+02 -0.76261165477E+01 -0.38020335092E+03  0.38978135065E+03  0.00000000000E+00 0. -1.
<scales pt_clust_3="38.20945" pt_clust_4="100.11443" pt_clust_5="38.20945" pt_clust_6="85.87732"></scales>
<clustering>
<clus scale="   38.209">  3  5 -1 -1</clus>
<clus scale="   85.877">  2  6  1 -1</clus>
<clus scale="  100.114">  1  4  2 -1</clus>
<clus scale="  100.114">  1  3  2 -1</clus>
</clustering>
</event>
<event>
 6    0  0.8641190E+002  0.8828801E+02  0.7546771E-02  0.1307051E+00
         21   -1    0    0  504  501  0.00000000000E+00  0.00000000000E+00  0.40241781639E+03  0.40241781639E+03  0.00000000000E+00 0.  1.
         21   -1    0    0  503  502 -0.00000000000E+00 -0.00000000000E+00 -0.13215920135E+03  0.13215920135E+03  0.00000000000E+00 0.  1.
         21    1    1    2  503  505  0.70775125319E+00  0.90228900749E+02  0.10606456505E+03  0.13925317735E+03  0.00000000000E+00 0.  1.
         21    1    1    2  504  506  0.33905976267E+02 -0.10894055797E+02  0.50287404713E+02  0.61620765584E+02  0.00000000000E+00 0. -1.
         21    1    1    2  505  501 -0.86648738947E+02 -0.54263104060E+01  0.19424989316E+03  0.21276858273E+03  0.00000000000E+00 0.  1.
         21    1    1    2  506  502  0.52035011427E+02 -0.73908534546E+02 -0.80343247879E+02  0.12093449207E+03  0.00000000000E+00 0.  1.
<scales pt_clust_3="14000.00000" pt_clust_4="35.61314" pt_clust_5="67.77237" pt_clust_6="88.28801"></scales>
<clustering>
<clus scale="   35.613">  1  4  2 -1</clus>
<clus scale="   67.772">  1  5  2 -1</clus>
<clus scale="   88.288">  2  6  1 -1</clus>
<clus scale="   35.613">  1  3  2 -1</clus>
</clustering>
</event>
<event>
 6    0  0.8641190E+002  0.1110983E+03  0.7546771E-02  0.1258549E+00
         21   -1    0    0  504  501  0.00000000000E+00  0.00000000000E+00  0.13202322203E+03  0.13202322203E+03  0.00000000000E+00 0. -1.
         21   -1    0    0  505  502 -0.00000000000E+00 -0.00000000000E+00 -0.59771055057E+03  0.59771055057E+03  0.00000000000E+00 0. -1.
         21    1    1    2  503  501  0.57303872536E+02 -0.66716773462E+02  0.88441847410E+02  0.12472699003E+03  0.00000000000E+00 0. -1.
         21    1    1    2  504  506  0.32543663932E+02 -0.14417607527E+02 -0.23335354714E+02  0.42561675820E+02  0.00000000000E+00 0.  1.
         21    1    1    2  505  503 -0.59063312099E+02  0.13353185433E+02 -0.58079274452E+02  0.83904615595E+02  0.00000000000E+00 0. -1.
         21    1    1    2  506  502 -0.30784224370E+02  0.67781195556E+02 -0.47271454678E+03  0.47854049116E+03  0.00000000000E+00 0. -1.
<scales pt_clust_3="14000.00000" pt_clust_4="35.59435" pt_clust_5="56.87480" pt_clust_6="111.09831"></scales>
<clustering>
<clus scale="   35.594">  1  4  2 -1</clus>
<clus scale="   56.875">  2  5  1 -1</clus>
<clus scale="  111.098">  2  6  1 -1</clus>
<clus scale="   35.594">  1  3  2 -1</clus>
</clustering>
</event>
<event>
 6    0  0.8641190E+002  0.6739726E+02  0.7546771E-02  0.1369174E+00
         21   -1    0    0  503  501  0.00000000000E+00  0.00000000000E+00  0.39390191226E+03  0.39390191226E+03  0.00000000000E+00 0. -1.
         21   -1    0    0  504  502 -0.00000000000E+00 -0.00000000000E+00 -0.15455912251E+03  0.15455912251E+03  0.00000000000E+00 0. -1.
         21    1    1    2  503  505  0.53091340568E+02  0.43026005244E+02  0.27701707582E+03  0.28532155170E+03  0.00000000000E+00 0. -1.
         21    1    1    2  504  501 -0.71192022819E+02 -0.62458810305E+01  0.13577025890E+02  0.72743733578E+02  0.00000000000E+00 0. -1.
         21    1    1    2  505  506  0.46489462865E+02 -0.96208984947E+02  0.14673544115E+00  0.10685251739E+03  0.00000000000E+00 0. -1.
         21    1    1    2  506  502 -0.28388780613E+02  0.59428860734E+02 -0.51398047402E+02  0.83543232099E+02  0.00000000000E+00 0. -1.
<scales pt_clust_3="67.39726" pt_clust_4="14000.00000" pt_clust_5="66.50455" pt_clust_6="65.86131"></scales>
<clustering>
<clus scale="   65.861">  2  6  1 -1</clus>
<clus scale="   66.505">  2  5  1 -1</clus>
<clus scale="   67.397">  1  3  2 -1</clus>
<clus scale="   67.397">  1  3  2 -1</clus>
</clustering>
</event>
<event>
 6    0  0.8641190E+002  0.6376034E+02  0.7546771E-02  0.1382696E+00
         21   -1    0    0  503  501  0.00000000000E+00  0.00000000000E+00  0.69838822571E+02  0.69838822571E+02  0.00000000000E+00 0.  1.
         21   -1    0    0  505  502 -0.00000000000E+00 -0.00000000000E+00 -0.18552953733E+04  0.18552953733E+04  0.00000000000E+00 0.  1.
         21    1    1    2  503  502  0.19868053340E+02 -0.41208818708E+02 -0.20390980258E+02  0.50086908057E+02  0.00000000000E+00 0. -1.
         21    1    1    2  504  506  0.59194239837E+02 -0.42947940981E+00 -0.13608109062E+03  0.14839880629E+03  0.00000000000E+00 0.  1.
         21    1    1    2  505  504 -0.13455981462E+02 -0.44312190677E+02 -0.16172193215E+04  0.16178822477E+04  0.00000000000E+00 0.  1.
         21    1    1    2  506  501 -0.65606311715E+02  0.85950488795E+02 -0.11765158334E+02  0.10876623378E+03  0.00000000000E+00 0.  1.
<scales pt_clust_3="45.74829" pt_clust_4="14000.00000" pt_clust_5="46.51344" pt_clust_6="63.76034"></scales>
<clustering>
<clus scale="   45.748">  1  3  2 -1</clus>
<clus scale="   46.513">  2  5  1 -1</clus>
<clus scale="   63.760">  1  6  2 -1</clus>
<clus scale="   45.748">  1  3  2 -1</clus>
</clustering>
</event>
<event>
 6    0  0.8641190E+002  0.6919425E+02  0.7546771E-02  0.1362855E+00
         21   -1    0    0  505  501  0.00000000000E+00  0.00000000000E+00  0.10028999192E+03  0.10028999192E+03  0.00000000000E+00 0.  1.
         21   -1    0    0  504  502 -0.00000000000E+00 -0.00000000000E+00 -0.27135441118E+03  0.27135441118E+03  0.00000000000E+00 0.  1.
         21    1    1    2  503  506 -0.56767466570E+02 -0.54801103088E+02 -0.34007453134E+01  0.78976396658E+02  0.00000000000E+00 0.  1.
         21    1    1    2  504  501 -0.93023850080E+01  0.82921782009E+02 -0.36331644197E+01  0.83520992463E+02  0.00000000000E+00 0.  1.
         21    1    1    2  505  503  0.15964034757E+02 -0.50723306053E+02 -0.23289394458E+02  0.58052563052E+02  0.00000000000E+00 0.  1.
         21    1    1    2  506  502  0.50105816821E+02  0.22602627132E+02 -0.14074111507E+03  0.15109445093E+03  0.00000000000E+00 0.  1.
<scales pt_clust_3="69.19425" pt_clust_4="14000.00000" pt_clust_5="53.17616" pt_clust_6="54.67371"></scales>
<clustering>
<clus scale="   53.176">  1  5  2 -1</clus>
<clus scale="   54.674">  2  6  1 -1</clus>
<clus scale="   69.194">  2  3  1 -1</clus>
<clus scale="   53.176">  1  3  2 -1</clus>
</clustering>
</event>
<event>
 6    0  0.8641190E+002  0.1184664E+03  0.7546771E-02  0.1245649E+00
         21   -1    0    0  506  501  0.00000000000E+00  0.00000000000E+00  0.27239625013E+03  0.27239625013E+03  0.00000000000E+00 0. -1.
         21   -1    0    0  503  502 -0.00000000000E+00 -0.00000000000E+00 -0.26769017530E+03  0.26769017530E+03  0.00000000000E+00 0. -1.
         21    1    1    2  503  505 -0.28967864641E+02  0.54351557894E+02 -0.10004958784E+03  0.11748680374E+03  0.00000000000E+00 0. -1.
         21    1    1    2  504  501 -0.42816440131E+02  0.33189646926E+01  0.10141572507E+02  0.44126121119E+02  0.00000000000E+00 0. -1.
         21    1    1    2  505  504 -0.46656667006E+02  0.27927516620E+02 -0.11252473573E+03  0.12497442503E+03  0.00000000000E+00 0. -1.
         21    1    1    2  506  502  0.11844097178E+03 -0.85598039206E+02  0.20713882589E+03  0.25349907555E+03  0.00000000000E+00 0. -1.
<scales pt_clust_3="31.31476" pt_clust_4="42.94488" pt_clust_5="31.31476" pt_clust_6="113.68205"></scales>
<clustering>
<clus scale="   31.315">  3  5 -1 -1</clus>
<clus scale="   42.945">  1  4  2 -1</clus>
<clus scale="  113.682">  1  6  2 -1</clus>
<clus scale="   42.945">  1  3  2 -1</clus>
</clustering>
</event>
<event>
 6    0  0.8641190E+002  0.1390166E+03  0.7546771E-02  0.1214658E+00
         21   -1    0    0  503  501  0.00000000000E+00  0.00000000000E+00  0.21710322534E+03  0.21710322534E+03  0.00000000000E+00 0.  1.
         21   -1    0    0  505  502 -0.00000000000E+00 -0.00000000000E+00 -0.61262007616E+03  0.61262007616E+03  0.00000000000E+00 0. -1.
         21    1    1    2  503  502 -0.14525346377E+03  0.22489449014E+02  0.12260846848E+03  0.19140841307E+03  0.00000000000E+00 0.  1.
         21    1    1    2  504  501  0.29519952420E+01 -0.38396826288E+02  0.38923583773E+02  0.54754688554E+02  0.00000000000E+00 0.  1.
         21    1    1    2  505  506  0.34903958240E+02 -0.25662833270E+02 -0.28301035847E+03  0.28630705600E+03  0.00000000000E+00 0. -1.
         21    1    1    2  506  504  0.10739751029E+03  0.41570210544E+02 -0.27403854460E+03  0.29725314388E+03  0.00000000000E+00 0. -1.
<scales pt_clust_3="14000.00000" pt_clust_4="38.51014" pt_clust_5="43.56696" pt_clust_6="139.01656"></scales>
<clustering>
<clus scale="   38.510">  1  4  2 -1</clus>
<clus scale="   43.567">  2  5  1 -1</clus>
<clus scale="  139.017">  2  6  1 -1</clus>
<clus scale="   38.510">  1  3  2 -1</clus>
</clustering>
</event>
<event>
 6    0  0.8641190E+002  0.6735385E+02  0.7546771E-02  0.1369330E+00
         21   -1    0    0  503  501  0.00000000000E+00  0.00000000000E+00  0.15721181815E+04  0.15721181815E+04  0.00000000000E+00 0.  1.
         21   -1    0    0  504  502 -0.00000000000E+00 -0.00000000000E+00 -0.45116430908E+03  0.45116430908E+03  0.00000000000E+00 0.  1.
         21    1    1    2  503  505 -0.24382922001E+01  0.75035403907E+02  0.14813951021E+04  0.14832962299E+04  0.00000000000E+00 0.  1.
         21    1    1    2  504  506  0.22846994853E+02  0.61161842261E+02 -0.36326222729E+03  0.36908292008E+03  0.00000000000E+00 0.  1.
         21    1    1    2  505  502  0.85242285990E+01 -0.99545983024E+02 -0.39929958169E+02  0.10759399039E+03  0.00000000000E+00 0.  1.
         21    1    1    2  506  501 -0.28932931252E+02 -0.36651263144E+02  0.42750955754E+02  0.63309350168E+02  0.00000000000E+00 0.  1.
<scales pt_clust_3="49.82889" pt_clust_4="14000.00000" pt_clust_5="67.35385" pt_clust_6="46.69507"></scales>
<clustering>
<clus scale="   46.695">  1  6  2 -1</clus>
<clus scale="   49.829">  1  3  2 -1</clus>
<clus scale="   67.354">  1  5  2 -1</clus>
<clus scale="   46.695">  1  3  2 -1</clus>
</clustering>
</event>
<event>
 6    0  0.8641190E+002  0.1642876E+03  0.7546771E-02  0.1183939E+00
         21   -1    0    0  504  501  0.00000000000E+00  0.00000000000E+00  0.93793325406E+02  0.93793325406E+02  0.00000000000E+00 0. -1.
         21   -1    0    0  503  502 -0.00000000000E+00 -0.00000000000E+00 -0.15605066354E+04  0.15605066354E+04  0.00000000000E+00 0. -1.
         21    1    1    2  503  501 -0.11310688732E+03  0.74281188267E+02 -0.21170904118E+03  0.25125998688E+03  0.00000000000E+00 0. -1.
         21    1    1    2  504  505  0.36649992159E+02 -0.17836556279E+02 -0.38139609530E+02  0.55821093506E+02  0.00000000000E+00 0.  1.
         21    1    1    2  505  506  0.11239949459E+03 -0.31056570314E+02  0.12307913141E+02  0.11725886606E+03  0.00000000000E+00 0. -1.
         21    1    1    2  506  502 -0.35942599421E+02 -0.25388061674E+02 -0.12291725724E+04  0.12299600143E+04  0.00000000000E+00 0. -1.
<scales pt_clust_3="149.35629" pt_clust_4="40.45883" pt_clust_5="40.45883" pt_clust_6="44.00482"></scales>
<clustering>
<clus scale="   40.459">  4  5 -1 -1</clus>
<clus scale="   44.005">  2  6  1 -1</clus>
<clus scale="  149.356">  2  3  1 -1</clus>
<clus scale="  164.288">  1  3  2 -1</clus>
</clustering>
</event>
<event>
 6    0  0.8641190E+002  0.8967758E+02  0.7546771E-02  0.1303634E+00
         21   -1    0    0  505  501  0.00000000000E+00  0.00000000000E+00  0.76956994257E+03  0.76956994257E+03  0.00000000000E+00 0.  1.
         21   -1    0    0  503  502 -0.00000000000E+00 -0.00000000000E+00 -0.13412154279E+03  0.13412154279E+03  0.00000000000E+00 0. -1.
         21    1    1    2  503  506 -0.22726509853E+02  0.87991857252E+02 -0.10336555971E+03  0.13763538835E+03  0.00000000000E+00 0. -1.
         21    1    1    2  504  502  0.42247667644E+01 -0.71377355824E+02  0.27270582209E+03  0.28192382124E+03  0.00000000000E+00 0.  1.
         21    1    1    2  505  504 -0.52069211128E+02 -0.21101686570E+02  0.14912193419E+03  0.15935443257E+03  0.00000000000E+00 0.  1.
         21    1    1    2  506  501  0.70570954217E+02  0.44871851416E+01  0.31698620321E+03  0.32477784320E+03  0.00000000000E+00 0.  1.
<scales pt_clust_3="89.67758" pt_clust_4="14000.00000" pt_clust_5="56.18259" pt_clust_6="43.90436"></scales>
<clustering>
<clus scale="   56.183">  1  5  2 -1</clus>
<clus scale="   43.904">  1  6  2 -1</clus>
<clus scale="   89.678">  2  3  1 -1</clus>
<clus scale="   56.183">  1  3  2 -1</clus>
</clustering>
</event>
<event>
 6    0  0.8641190E+002  0.1965877E+03  0.7546771E-02  0.1152650E+00
         21   -1    0    0  505  501  0.00000000000E+00  0.00000000000E+00  0.12588558613E+04  0.12588558613E+04  0.00000000000E+00 0. -1.
         21   -1    0    0  501  502 -0.00000000000E+00 -0.00000000000E+00 -0.90258150881E+02  0.90258150881E+02  0.00000000000E+00 0. -1.
         21    1    1    2  503  502  0.12577252223E+03  0.13645367482E+03  0.11917443549E+03  0.22054677235E+03  0.00000000000E+00 0. -1.
         21    1    1    2  504  503 -0.18786758842E+03 -0.13583958681E+03  0.46645083199E+03  0.52088674661E+03  0.00000000000E+00 0. -1.
         21    1    1    2  505  506 -0.20959051811E+02  0.24386963252E+02  0.43480853233E+03  0.43599594679E+03  0.00000000000E+00 0. -1.
         21    1    1    2  506  504  0.83054117997E+02 -0.25001051260E+02  0.14816391060E+03  0.17168454643E+03  0.00000000000E+00 0. -1.
<scales pt_clust_3="14000.00000" pt_clust_4="196.58768" pt_clust_5="32.15596" pt_clust_6="81.54187"></scales>
<clustering>
<clus scale="   32.156">  1  5  2 -1</clus>
<clus scale="   81.542">  1  6  2 -1</clus>
<clus scale="  196.588">  1  4  2 -1</clus>
<clus scale="   32.156">  1  3  2 -1</clus>
</clustering>
</event>
<event>
 6    0  0.8641190E+002  0.1057231E+03  0.7546771E-02  0.1268701E+00
         21   -1    0    0  504  501  0.00000000000E+00  0.00000000000E+00  0.20789065854E+03  0.20789065854E+03  0.00000000000E+00 0.  1.
         21   -1    0    0  503  502 -0.00000000000E+00 -0.00000000000E+00 -0.72394769112E+03  0.72394769112E+03  0.00000000000E+00 0.  1.
         21    1    1    2  503  506  0.21246288677E+02 -0.27969990386E+02 -0.57889904499E+03  0.57996364493E+03  0.00000000000E+00 0.  1.
         21    1    1    2  504  505 -0.91969964155E+02 -0.11732328552E+02  0.64730057774E+02  0.11307564822E+03  0.00000000000E+00 0.  1.
         21    1    1    2  505  502 -0.47002894441E+02 -0.55641589349E+02 -0.39288903569E+02  0.82757939164E+02  0.00000000000E+00 0.  1.
         21    1    1    2  506  501  0.11772656992E+03  0.95343908287E+02  0.37400858203E+02  0.15604111736E+03  0.00000000000E+00 0.  1.
<scales pt_clust_3="35.12442" pt_clust_4="14000.00000" pt_clust_5="77.43506" pt_clust_6="105.72310"></scales>
<clustering>
<clus scale="   35.124">  2  3  1 -1</clus>
<clus scale="   77.435">  2  5  1 -1</clus>
<clus scale="  105.723">  2  6  1 -1</clus>
<clus scale="  105.723">  1  3  2 -1</clus>
</clustering>
</event>
<event>
 6    0  0.1128041E+003  0.1445917E+03  0.7546771E-02  0.1207281E+00
         21   -1    0    0  504  501  0.00000000000E+00  0.00000000000E+00  0.24575799108E+04  0.24575799108E+04  0.00000000000E+00 0.  1.
         21   -1    0    0  505  502 -0.00000000000E+00 -0.00000000000E+00 -0.10933247211E+03  0.10933247211E+03  0.00000000000E+00 0. -1.
         21    1    1    2  503  506  0.42320374700E+02 -0.57102291572E+02  0.13613204887E+04  0.13631746619E+04  0.00000000000E+00 0.  1.
         21    1    1    2  504  502  0.27000010948E+02 -0.14430251225E+02  0.10729485257E+03  0.11157696057E+03  0.00000000000E+00 0. -1.
         21    1    1    2  505  503 -0.13828734211E+03  0.52245680091E+02 -0.52806502040E+02  0.15697619799E+03  0.00000000000E+00 0. -1.
         21    1    1    2  506  501  0.68966956465E+02  0.19286862705E+02  0.93243859939E+03  0.93518456242E+03  0.00000000000E+00 0.  1.
<scales pt_clust_3="144.59171" pt_clust_4="30.61426" pt_clust_5="14000.00000" pt_clust_6="80.84761"></scales>
<clustering>
<clus scale="   30.614">  1  4  2 -1</clus>
<clus scale="   80.848">  1  6  2 -1</clus>
<clus scale="  144.592">  1  3  2 -1</clus>
<clus scale="   30.614">  1  3  2 -1</clus>
</clustering>
</event>
<event>
 6    0  0.8641190E+002  0.1218369E+03  0.7546771E-02  0.1240097E+00
         21   -1    0    0  504  501  0.00000000000E+00  0.00000000000E+00  0.57520989874E+03  0.57520989874E+03  0.00000000000E+00 0. -1.
         21   -1    0    0  503  502 -0.00000000000E+00 -0.00000000000E+00 -0.97625978686E+02  0.97625978686E+02  0.00000000000E+00 0. -1.
         21    1    1    2  503  505 -0.77412505724E+02 -0.76220920082E+02 -0.87308905003E+01  0.10898877534E+03  0.00000000000E+00 0. -1.
         21    1    1    2  504  506  0.26037687387E+02  0.61367463743E+02  0.69004232126E+02  0.95945353311E+02  0.00000000000E+00 0. -1.
         21    1    1    2  505  501  0.13481226771E+02 -0.39134922566E+02  0.39661870037E+03  0.39877271612E+03  0.00000000000E+00 0. -1.
         21    1    1    2  506  502  0.37893591566E+02  0.53988378904E+02  0.20691878060E+02  0.69129032658E+02  0.00000000000E+00 0. -1.
<scales pt_clust_3="114.16759" pt_clust_4="40.19590" pt_clust_5="41.39185" pt_clust_6="40.19590"></scales>
<clustering>
<clus scale="   41.392">  1  5  2 -1</clus>
<clus scale="   40.196">  4  6 -1 -1</clus>
<clus scale="  114.168">  2  3  1 -1</clus>
<clus scale="   41.392">  1  3  2 -1</clus>
</clustering>
</event>
<event>
 6    0  0.8641190E+002  0.1520650E+03  0.7546771E-02  0.1197958E+00
         21   -1    0    0  503  501  0.00000000000E+00  0.00000000000E+00  0.28625219613E+03  0.28625219613E+03  0.00000000000E+00 0.  1.
         21   -1    0    0  504  502 -0.00000000000E+00 -0.00000000000E+00 -0.29545906811E+03  0.29545906811E+03  0.00000000000E+00 0. -1.
         21    1    1    2  503  502  0.40399841699E+02 -0.37384861002E+02 -0.46288813888E+02  0.71919603257E+02  0.00000000000E+00 0. -1.
         21    1    1    2  504  506 -0.31656313407E+02 -0.24949238510E+02 -0.31971341344E+02  0.51446606769E+02  0.00000000000E+00 0. -1.
         21    1    1    2  505  501  0.91150267165E+01  0.14360665881E+03  0.23336600743E+03  0.27416354534E+03  0.00000000000E+00 0.  1.
         21    1    1    2  506  505 -0.17858555009E+02 -0.81272559295E+02 -0.16431272418E+03  0.18418150887E+03  0.00000000000E+00 0. -1.
<scales pt_clust_3="55.04339" pt_clust_4="39.72784" pt_clust_5="140.94462" pt_clust_6="39.72784"></scales>
<clustering>
<clus scale="   39.728">  4  6 -1 -1</clus>
<clus scale="   55.043">  2  3  1 -1</clus>
<clus scale="  140.945">  1  5  2 -1</clus>
<clus scale="  140.945">  1  3  2 -1</clus>
</clustering>
</event>
<event>
 6    0  0.8641190E+002  0.6655805E+02  0.7546771E-02  0.1372205E+00
         21   -1    0    0  506  501  0.00000000000E+00  0.00000000000E+00  0.30797135539E+02  0.30797135539E+02  0.00000000000E+00 0. -1.
         21   -1    0    0  504  502 -0.00000000000E+00 -0.00000000000E+00 -0.12556750993E+04  0.12556750993E+04  0.00000000000E+00 0. -1.
         21    1    1    2  503  501 -0.86376418801E+02  0.60851702367E+01 -0.60582812245E+03  0.61198499080E+03  0.00000000000E+00 0. -1.
         21    1    1    2  504  503  0.57926702508E+02  0.50694214565E+02 -0.36475047144E+03  0.37278453920E+03  0.00000000000E+00 0. -1.
         21    1    1    2  505  502 -0.36109566179E+02 -0.51587054040E+02 -0.21913896695E+03  0.22800660462E+03  0.00000000000E+00 0. -1.
         21    1    1    2  506  505  0.64559282472E+02 -0.51923307620E+01 -0.35160402915E+02  0.73696100203E+02  0.00000000000E+00 0. -1.
<scales pt_clust_3="14000.00000" pt_clust_4="55.39036" pt_clust_5="62.96924" pt_clust_6="66.55805"></scales>
<clustering>
<clus scale="   62.969">  2  5  1 -1</clus>
<clus scale="   55.390">  2  4  1 -1</clus>
<clus scale="   66.558">  1  6  2 -1</clus>
<clus scale="   66.558">  1  3  2 -1</clus>
</clustering>
</event>
<event>
 6    0  0.8641190E+002  0.1325610E+03  0.7546771E-02  0.1223704E+00
         21   -1    0    0  506  501  0.00000000000E+00  0.00000000000E+00  0.17487613380E+03  0.17487613380E+03  0.00000000000E+00 0. -1.
         21   -1    0    0  503  502 -0.00000000000E+00 -0.00000000000E+00 -0.44492226012E+03  0.44492226012E+03  0.00000000000E+00 0.  1.
         21    1    1    2  503  501 -0.38963683722E+02  0.84194357631E+02 -0.33574760622E+01  0.92833890102E+02  0.00000000000E+00 0. -1.
         21    1    1    2  504  502  0.82634429851E+02 -0.33688285510E+02 -0.25669170890E+03  0.27176089305E+03  0.00000000000E+00 0.  1.
         21    1    1    2  505  504  0.20850421705E+02 -0.48023855989E+02 -0.11815686241E+03  0.12923650786E+03  0.00000000000E+00 0. -1.
         21    1    1    2  506  505 -0.64521167834E+02 -0.24822161316E+01  0.10815992105E+03  0.12596710291E+03  0.00000000000E+00 0. -1.
<scales pt_clust_3="121.12368" pt_clust_4="41.25855" pt_clust_5="41.25855" pt_clust_6="64.56890"></scales>
<clustering>
<clus scale="   41.259">  4  5 -1 -1</clus>
<clus scale="   64.569">  1  6  2 -1</clus>
<clus scale="  121.124">  1  3  2 -1</clus>
<clus scale="   64.569">  1  3  2 -1</clus>
</clustering>
</event>
<event>
 6    0  0.8641190E+002  0.8647519E+02  0.7546771E-02  0.1311619E+00
         21   -1    0    0  503  501  0.00000000000E+00  0.00000000000E+00  0.66551856472E+03  0.66551856472E+03  0.00000000000E+00 0. -1.
         21   -1    0    0  505  502 -0.00000000000E+00 -0.00000000000E+00 -0.76403942205E+02  0.76403942205E+02  0.00000000000E+00 0. -1.
         21    1    1    2  503  506 -0.63010139689E+02  0.92258132856E+00  0.15209748703E+02  0.64826424516E+02  0.00000000000E+00 0. -1.
         21    1    1    2  504  501  0.89966961097E+01  0.93375483601E+02  0.52111403784E+03  0.52949009614E+03  0.00000000000E+00 0. -1.
         21    1    1    2  505  504  0.21794787502E+02 -0.64310823352E+02  0.72540988095E+02  0.99363422426E+02  0.00000000000E+00 0. -1.
         21    1    1    2  506  502  0.32218656077E+02 -0.29987241578E+02 -0.19750152124E+02  0.48242563839E+02  0.00000000000E+00 0. -1.
<scales pt_clust_3="47.18611" pt_clust_4="86.47519" pt_clust_5="14000.00000" pt_clust_6="44.01450"></scales>
<clustering>
<clus scale="   44.015">  2  6  1 -1</clus>
<clus scale="   47.186">  2  3  1 -1</clus>
<clus scale="   86.475">  1  4  2 -1</clus>
<clus scale="   86.475">  1  3  2 -1</clus>
</clustering>
</event>
<event>
 6    0  0.8641190E+002  0.8053336E+02  0.7546771E-02  0.1327545E+00
         21   -1    0    0  503  501  0.00000000000E+00  0.00000000000E+00  0.11450070314E+03  0.11450070314E+03  0.00000000000E+00 0.  1.
         21   -1    0    0  504  502 -0.00000000000E+00 -0.00000000000E+00 -0.44951420863E+03  0.44951420863E+03  0.00000000000E+00 0. -1.
         21    1    1    2  503  506  0.56870555860E+02 -0.70897534516E+02  0.73396175537E+02  0.11682345273E+03  0.00000000000E+00 0.  1.
         21    1    1    2  504  501 -0.94298660423E+01  0.68937910338E+02 -0.20250634382E+03  0.21412654469E+03  0.00000000000E+00 0. -1.
         21    1    1    2  505  502 -0.20232289098E+02 -0.40930777866E+02 -0.15324508467E+03  0.15990225162E+03  0.00000000000E+00 0. -1.
         21    1    1    2  506  505 -0.27208400720E+02  0.42890402044E+02 -0.52658252530E+02  0.73162662723E+02  0.00000000000E+00 0.  1.
<scales pt_clust_3="80.53336" pt_clust_4="46.40897" pt_clust_5="45.65823" pt_clust_6="14000.00000"></scales>
<clustering>
<clus scale="   45.658">  2  5  1 -1</clus>
<clus scale="   46.409">  2  4  1 -1</clus>
<clus scale="   80.533">  1  3  2 -1</clus>
<clus scale="   80.533">  1  3  2 -1</clus>
</clustering>
</event>
<event>
 6    0  0.8641190E+002  0.1597529E+03  0.7546771E-02  0.1188976E+00
         21   -1    0    0  506  501  0.00000000000E+00  0.00000000000E+00  0.34929978589E+03  0.34929978589E+03  0.00000000000E+00 0. -1.
         21   -1    0    0  503  502 -0.00000000000E+00 -0.00000000000E+00 -0.15858711894E+03  0.15858711894E+03  0.00000000000E+00 0. -1.
         21    1    1    2  503  505 -0.19618025985E+02 -0.15583942891E+03  0.10813447866E+02  0.15744118013E+03  0.00000000000E+00 0. -1.
         21    1    1    2  504  502  0.55640738376E+02  0.15476201191E+03  0.74487117083E+01  0.16462884135E+03  0.00000000000E+00 0. -1.
         21    1    1    2  505  501 -0.14612847608E+02 -0.28367352964E+02  0.95475625713E+02  0.10066696149E+03  0.00000000000E+00 0. -1.
         21    1    1    2  506  504 -0.21409864783E+02  0.29444769958E+02  0.76974881662E+02  0.85149921872E+02  0.00000000000E+00 0.  1.
<scales pt_clust_3="14000.00000" pt_clust_4="159.75287" pt_clust_5="31.90990" pt_clust_6="33.07962"></scales>
<clustering>
<clus scale="   31.910">  1  5  2 -1</clus>
<clus scale="   33.080">  1  6  2 -1</clus>
<clus scale="  159.753">  1  4  2 -1</clus>
<clus scale="   31.910">  1  3  2 -1</clus>
</clustering>
</event>
<event>
 6    0  0.8641190E+002  0.1099049E+03  0.7546771E-02  0.1260746E+00
         21   -1    0    0  502  501  0.00000000000E+00  0.00000000000E+00  0.18862351242E+03  0.18862351242E+03  0.00000000000E+00 0. -1.
         21   -1    0    0  503  502 -0.00000000000E+00 -0.00000000000E+00 -0.13903009699E+04  0.13903009699E+04  0.00000000000E+00 0.  1.
         21    1    1    2  503  505  0.91578941761E+02  0.63244062838E+02 -0.13445280504E+04  0.13491264553E+04  0.00000000000E+00 0.  1.
         21    1    1    2  504  506 -0.16016129986E+02 -0.73831381674E+02  0.47999835969E+02  0.89507394067E+02  0.00000000000E+00 0. -1.
         21    1    1    2  505  504 -0.68149484062E+02 -0.19187624562E+02  0.53207748752E+02  0.88563997434E+02  0.00000000000E+00 0.  1.
         21    1    1    2  506  501 -0.74133277122E+01  0.29774943398E+02  0.41643008245E+02  0.51726635477E+02  0.00000000000E+00 0.  1.
<scales pt_clust_3="109.90489" pt_clust_4="62.56063" pt_clust_5="14000.00000" pt_clust_6="30.68395"></scales>
<clustering>
<clus scale="   30.684">  1  6  2 -1</clus>
<clus scale="   62.561">  1  4  2 -1</clus>
<clus scale="  109.905">  2  3  1 -1</clus>
<clus scale="   30.684">  1  3  2 -1</clus>
</clustering>
</event>
<event>
 6    0  0.8641190E+002  0.1593632E+03  0.7546771E-02  0.1189418E+00
         21   -1    0    0  504  501  0.00000000000E+00  0.00000000000E+00  0.33444706551E+03  0.33444706551E+03  0.00000000000E+00 0.  1.
         21   -1    0    0  506  502 -0.00000000000E+00 -0.00000000000E+00 -0.34184302717E+03  0.34184302717E+03  0.00000000000E+00 0.  1.
         21    1    1    2  503  501  0.28682334826E+02 -0.13743151594E+02  0.26545282881E+03  0.26735136968E+03  0.00000000000E+00 0.  1.
         21    1    1    2  504  505 -0.96044686729E+02  0.23253516640E+02 -0.85826976076E+02  0.13088765300E+03  0.00000000000E+00 0.  1.
         21    1    1    2  505  502 -0.38730326461E+02  0.62664931795E+02 -0.94676122535E+02  0.11996041031E+03  0.00000000000E+00 0.  1.
         21    1    1    2  506  503  0.10609267836E+03 -0.72175296841E+02 -0.92345691855E+02  0.15809065969E+03  0.00000000000E+00 0.  1.
<scales pt_clust_3="31.80488" pt_clust_4="61.03791" pt_clust_5="61.03791" pt_clust_6="143.52536"></scales>
<clustering>
<clus scale="   31.805">  1  3  2 -1</clus>
<clus scale="   61.038">  4  5 -1 -1</clus>
<clus scale="  143.525">  1  6  2 -1</clus>
<clus scale="   31.805">  1  3  2 -1</clus>
</clustering>
</event>
<event>
 6    0  0.8641190E+002  0.1012124E+03  0.7546771E-02  0.1277767E+00
         21   -1    0    0  504  501  0.00000000000E+00  0.00000000000E+00  0.10423099169E+04  0.10423099169E+04  0.00000000000E+00 0.  1.
         21   -1    0    0  506  502 -0.00000000000E+00 -0.00000000000E+00 -0.59820424888E+03  0.59820424888E+03  0.00000000000E+00 0. -1.
         21    1    1    2  503  505 -0.14027993086E+03  0.51997053191E+02 -0.29296616074E+03  0.32895489643E+03  0.00000000000E+00 0. -1.
         21    1    1    2  504  502  0.68913431188E+02  0.47782147484E+01 -0.23082644289E+03  0.24094136024E+03  0.00000000000E+00 0.  1.
         21    1    1    2  505  501  0.39693606445E+02 -0.31419272245E+02  0.10105117979E+04  0.10117790503E+04  0.00000000000E+00 0.  1.
         21    1    1    2  506  503  0.31672893225E+02 -0.25355995694E+02 -0.42613526233E+02  0.58838858766E+02  0.00000000000E+00 0.  1.
<scales pt_clust_3="101.21242" pt_clust_4="14000.00000" pt_clust_5="50.67060" pt_clust_6="40.57214"></scales>
<clustering>
<clus scale="   40.572">  2  6  1 -1</clus>
<clus scale="   50.671">  1  5  2 -1</clus>
<clus scale="  101.212">  1  3  2 -1</clus>
<clus scale="   50.671">  1  3  2 -1</clus>
</clustering>
</event>
<event>
 6    0  0.8641190E+002  0.1325465E+03  0.7546771E-02  0.1223725E+00
         21   -1    0    0  506  501  0.00000000000E+00  0.00000000000E+00  0.79159599595E+03  0.79159599595E+03  0.00000000000E+00 0.  1.
         21   -1    0    0  504  502 -0.00000000000E+00 -0.00000000000E+00 -0.26165814749E+03  0.26165814749E+03  0.00000000000E+00 0. -1.
         21    1    1    2  503  501 -0.39130512777E+02 -0.11870591458E+03  0.66761347195E+03  0.67921280841E+03  0.00000000000E+00 0.  1.
         21    1    1    2  504  503  0.10142647448E+03  0.18168073437E+02 -0.20266295279E+03  0.22735364755E+03  0.00000000000E+00 0. -1.
         21    1    1    2  505  502 -0.40889883787E+02  0.34720472946E+02  0.29184500913E+01  0.53721608209E+02  0.00000000000E+00 0. -1.
         21    1    1    2  506  505 -0.21406077916E+02  0.65817368194E+02  0.62068879220E+02  0.92966079273E+02  0.00000000000E+00 0.  1.
<scales pt_clust_3="119.42908" pt_clust_4="103.04081" pt_clust_5="50.61399" pt_clust_6="50.61399"></scales>
<clustering>
<clus scale="   50.614">  5  6 -1 -1</clus>
<clus scale="  103.041">  2  4  1 -1</clus>
<clus scale="  119.429">  1  3  2 -1</clus>
<clus scale="  119.429">  1  3  2 -1</clus>
</clustering>
</event>
<event>
 6    0  0.8641190E+002  0.1806393E+03  0.7546771E-02  0.1167186E+00
         21   -1    0    0  504  501  0.00000000000E+00  0.00000000000E+00  0.93279410189E+03  0.93279410189E+03  0.00000000000E+00 0.  1.
         21   -1    0    0  505  502 -0.00000000000E+00 -0.00000000000E+00 -0.30781605737E+03  0.30781605737E+03  0.00000000000E+00 0. -1.
         21    1    1    2  503  506 -0.13626823452E+03 -0.76966409335E+02 -0.23962066563E+02  0.15832574187E+03  0.00000000000E+00 0. -1.
         21    1    1    2  504  503  0.82506060722E+02  0.16734290759E+03  0.77728932950E+03  0.79936825089E+03  0.00000000000E+00 0.  1.
         21    1    1    2  505  501  0.34706674334E+02 -0.14671191420E+03 -0.10761353004E+02  0.15114478400E+03  0.00000000000E+00 0.  1.
         21    1    1    2  506  502  0.19055499464E+02  0.56335415947E+02 -0.11758786541E+03  0.13177138249E+03  0.00000000000E+00 0. -1.
<scales pt_clust_3="180.63931" pt_clust_4="14000.00000" pt_clust_5="129.21982" pt_clust_6="59.47093"></scales>
<clustering>
<clus scale="   59.471">  2  6  1 -1</clus>
<clus scale="  129.220">  2  5  1 -1</clus>
<clus scale="  180.639">  2  3  1 -1</clus>
<clus scale="  180.639">  1  3  2 -1</clus>
</clustering>
</event>
<event>
 6    0  0.8641190E+002  0.1846074E+03  0.7546771E-02  0.1163417E+00
         21   -1    0    0  503  501  0.00000000000E+00  0.00000000000E+00  0.14740991702E+04  0.14740991702E+04  0.00000000000E+00 0.  1.
         21   -1    0    0  506  502 -0.00000000000E+00 -0.00000000000E+00 -0.57321056231E+02  0.57321056231E+02  0.00000000000E+00 0. -1.
         21    1    1    2  503  502  0.30535668622E+02 -0.16123809415E+01  0.75524633060E+03  0.75586509822E+03  0.00000000000E+00 0.  1.
         21    1    1    2  504  501 -0.44409317429E+02 -0.61805041335E+02  0.19152415770E+03  0.20609112934E+03  0.00000000000E+00 0.  1.
         21    1    1    2  505  504 -0.12474098411E+03 -0.22389264575E+02  0.33372611977E+03  0.35697999286E+03  0.00000000000E+00 0.  1.
         21    1    1    2  506  505  0.13861463292E+03  0.85806686852E+02  0.13628150595E+03  0.21248400606E+03  0.00000000000E+00 0. -1.
<scales pt_clust_3="30.57821" pt_clust_4="59.07915" pt_clust_5="59.07915" pt_clust_6="169.17204"></scales>
<clustering>
<clus scale="   30.578">  1  3  2 -1</clus>
<clus scale="   59.079">  4  5 -1 -1</clus>
<clus scale="  169.172">  2  6  1 -1</clus>
<clus scale="   30.578">  1  3  2 -1</clus>
</clustering>
</event>
<event>
 6    0  0.8641190E+002  0.9955594E+02  0.7546771E-02  0.1281233E+00
         21   -1    0    0  504  501  0.00000000000E+00  0.00000000000E+00  0.82089019914E+03  0.82089019914E+03  0.00000000000E+00 0. -1.
         21   -1    0    0  503  502 -0.00000000000E+00 -0.00000000000E+00 -0.12734504225E+04  0.12734504225E+04  0.00000000000E+00 0.  1.
         21    1    1    2  503  501 -0.70547643741E+02  0.47596770982E+02 -0.82230033383E+03  0.82669236216E+03  0.00000000000E+00 0.  1.
         21    1    1    2  504  505  0.69624497654E+02 -0.71245171710E+02  0.80200244639E+03  0.80816543429E+03  0.00000000000E+00 0. -1.
         21    1    1    2  505  506 -0.23401297722E+02  0.41425687789E+02 -0.30331445574E+02  0.56424329278E+02  0.00000000000E+00 0.  1.
         21    1    1    2  506  502  0.24324443809E+02 -0.17777287060E+02 -0.40193089032E+03  0.40305849588E+03  0.00000000000E+00 0. -1.
<scales pt_clust_3="99.55594" pt_clust_4="14000.00000" pt_clust_5="46.21583" pt_clust_6="30.12823"></scales>
<clustering>
<clus scale="   30.128">  2  6  1 -1</clus>
<clus scale="   46.216">  2  5  1 -1</clus>
<clus scale="   99.556">  2  3  1 -1</clus>
<clus scale="   99.556">  1  3  2 -1</clus>
</clustering>
</event>
<event>
 6    0  0.8641190E+002  0.1498847E+03  0.7546771E-02  0.1200615E+00
         21   -1    0    0  504  501  0.00000000000E+00  0.00000000000E+00  0.11266221414E+03  0.11266221414E+03  0.00000000000E+00 0. -1.
         21   -1    0    0  505  502 -0.00000000000E+00 -0.00000000000E+00 -0.40986609140E+03  0.40986609140E+03  0.00000000000E+00 0. -1.
         21    1    1    2  503  501  0.12547183509E+03  0.39796218796E+02  0.29029038813E+02  0.13479467914E+03  0.00000000000E+00 0. -1.
         21    1    1    2  504  502  0.23805034608E+02 -0.37573221793E+02 -0.55109161094E+02  0.70819815766E+02  0.00000000000E+00 0. -1.
         21    1    1    2  505  506 -0.10864627683E+03  0.20156875063E+02 -0.22895121773E+03  0.25422229088E+03  0.00000000000E+00 0. -1.
         21    1    1    2  506  503 -0.40630592866E+02 -0.22379872067E+02 -0.42172537253E+02  0.62691519751E+02  0.00000000000E+00 0. -1.
<scales pt_clust_3="133.52027" pt_clust_4="44.47951" pt_clust_5="44.12325" pt_clust_6="44.12325"></scales>
<clustering>
<clus scale="   44.123">  5  6 -1 -1</clus>
<clus scale="   44.480">  2  4  1 -1</clus>
<clus scale="  133.520">  1  3  2 -1</clus>
<clus scale="  133.520">  1  3  2 -1</clus>
</clustering>
</event>
<event>
 6    0  0.8641190E+002  0.9653390E+02  0.7546771E-02  0.1287758E+00
         21   -1    0    0  503  501  0.00000000000E+00  0.00000000000E+00  0.81469208288E+03  0.81469208288E+03  0.00000000000E+00 0.  1.
         21   -1    0    0  504  502 -0.00000000000E+00 -0.00000000000E+00 -0.26424849021E+02  0.26424849021E+02  0.00000000000E+00 0.  1.
         21    1    1    2  503  505  0.57710261204E+02  0.31351194183E+02  0.15188309687E+03  0.16547461056E+03  0.00000000000E+00 0.  1.
         21    1    1    2  504  506 -0.79137989637E+02  0.28144473494E+02  0.14002895031E+03  0.16328821059E+03  0.00000000000E+00 0.  1.
         21    1    1    2  505  502  0.52583847934E+02 -0.46551346129E+01  0.12514154261E+03  0.13582023792E+03  0.00000000000E+00 0.  1.
         21    1    1    2  506  501 -0.31156119501E+02 -0.54840533064E+02  0.37121364407E+03  0.37653387284E+03  0.00000000000E+00 0.  1.
<scales pt_clust_3="30.51483" pt_clust_4="90.33454" pt_clust_5="30.51483" pt_clust_6="63.07288"></scales>
<clustering>
<clus scale="   30.515">  3  5 -1 -1</clus>
<clus scale="   63.073">  1  6  2 -1</clus>
<clus scale="   90.335">  2  4  1 -1</clus>
<clus scale="   63.073">  1  3  2 -1</clus>
</clustering>
</event>
<event>
 6    0  0.8641190E+002  0.8305768E+02  0.7546771E-02  0.1320591E+00
         21   -1    0    0  503  501  0.00000000000E+00  0.00000000000E+00  0.41667983946E+02  0.41667983946E+02  0.00000000000E+00 0. -1.
         21   -1    0    0  505  502 -0.00000000000E+00 -0.00000000000E+00 -0.95582382052E+03  0.95582382052E+03  0.00000000000E+00 0. -1.
         21    1    1    2  503  506  0.75598011657E+02  0.48283423965E+02 -0.15665413993E+03  0.18051833135E+03  0.00000000000E+00 0. -1.
         21    1    1    2  504  501 -0.60016783401E+02  0.33164973212E+02 -0.61147643737E+02  0.91874719442E+02  0.00000000000E+00 0. -1.
         21    1    1    2  505  504 -0.47630997511E+02 -0.61162392914E+02 -0.95295363214E+02  0.12284444017E+03  0.00000000000E+00 0. -1.
         21    1    1    2  506  502  0.32049769255E+02 -0.20286004263E+02 -0.60105868969E+03  0.60225431350E+03  0.00000000000E+00 0. -1.
<scales pt_clust_3="83.05768" pt_clust_4="60.39293" pt_clust_5="14000.00000" pt_clust_6="37.93033"></scales>
<clustering>
<clus scale="   37.930">  2  6  1 -1</clus>
<clus scale="   60.393">  1  4  2 -1</clus>
<clus scale="   83.058">  1  3  2 -1</clus>
<clus scale="   60.393">  1  3  2 -1</clus>
</clustering>
</event>
<event>
 6    0  0.8641190E+002  0.6434306E+02  0.7546771E-02  0.1380460E+00
         21   -1    0    0  505  501  0.00000000000E+00  0.00000000000E+00  0.17284008233E+03  0.17284008233E+03  0.00000000000E+00 0.  1.
         21   -1    0    0  503  502 -0.00000000000E+00 -0.00000000000E+00 -0.10679147129E+04  0.10679147129E+04  0.00000000000E+00 0.  1.
         21    1    1    2  503  501 -0.21656336532E+01  0.37236146659E+02 -0.17561831882E+02  0.41226672510E+02  0.00000000000E+00 0.  1.
         21    1    1    2  504  502 -0.15958273522E+02  0.60187602412E+02 -0.88622500698E+03  0.88840980238E+03  0.00000000000E+00 0.  1.
         21    1    1    2  505  506 -0.49526495990E+02 -0.63365266118E+01  0.13345756500E+03  0.14249191918E+03  0.00000000000E+00 0.  1.
         21    1    1    2  506  504  0.67650403165E+02 -0.91087222460E+02 -0.12474535670E+03  0.16862640114E+03  0.00000000000E+00 0.  1.
<scales pt_clust_3="37.29907" pt_clust_4="14000.00000" pt_clust_5="57.39435" pt_clust_6="64.34306"></scales>
<clustering>
<clus scale="   37.299">  1  3  2 -1</clus>
<clus scale="   57.394">  1  5  2 -1</clus>
<clus scale="   64.343">  1  6  2 -1</clus>
<clus scale="   37.299">  1  3  2 -1</clus>
</clustering>
</event>
<event>
 6    0  0.8641190E+002  0.1130198E+03  0.7546771E-02  0.1255078E+00
         21   -1    0    0  505  501  0.00000000000E+00  0.00000000000E+00  0.77910981308E+03  0.77910981308E+03  0.00000000000E+00 0. -1.
         21   -1    0    0  503  502 -0.00000000000E+00 -0.00000000000E+00 -0.10400645702E+03  0.10400645702E+03  0.00000000000E+00 0. -1.
         21    1    1    2  503  506  0.15012495588E+03 -0.21694527673E+00  0.17733363506E+03  0.23234622348E+03  0.00000000000E+00 0. -1.
         21    1    1    2  504  502 -0.10460234975E+03 -0.18064738388E+02 -0.30988651695E+02  0.11058156664E+03  0.00000000000E+00 0. -1.
         21    1    1    2  505  504 -0.29710256392E+02  0.45621353598E+02  0.47286784368E+03  0.47599160164E+03  0.00000000000E+00 0. -1.
         21    1    1    2  506  501 -0.15812349738E+02 -0.27339669933E+02  0.55890529016E+02  0.64196878351E+02  0.00000000000E+00 0.  1.
<scales pt_clust_3="113.01980" pt_clust_4="14000.00000" pt_clust_5="48.70611" pt_clust_6="31.58303"></scales>
<clustering>
<clus scale="   31.583">  1  6  2 -1</clus>
<clus scale="   48.706">  1  5  2 -1</clus>
<clus scale="  113.020">  1  3  2 -1</clus>
<clus scale="   31.583">  1  3  2 -1</clus>
</clustering>
</event>
<event>
 6    0  0.8641190E+002  0.1218485E+03  0.7546771E-02  0.1240078E+00
         21   -1    0    0  505  501  0.00000000000E+00  0.00000000000E+00  0.11649451675E+03  0.11649451675E+03  0.00000000000E+00 0.  1.
         21   -1    0    0  503  502 -0.00000000000E+00 -0.00000000000E+00 -0.20671805018E+04  0.20671805018E+04  0.00000000000E+00 0. -1.
         21    1    1    2  503  504  0.18639569532E+02  0.47750612190E+02 -0.14814630563E+03  0.15676377895E+03  0.00000000000E+00 0. -1.
         21    1    1    2  504  501  0.30176717881E+00  0.43994993033E+02 -0.46606365120E+02  0.64092150417E+02  0.00000000000E+00 0. -1.
         21    1    1    2  505  506 -0.11166209094E+03 -0.11306439049E+02  0.70321374618E+02  0.13244377617E+03  0.00000000000E+00 0.  1.
         21    1    1    2  506  502  0.92720754231E+02 -0.80439166174E+02 -0.18262546890E+04  0.18303753131E+04  0.00000000000E+00 0. -1.
<scales pt_clust_3="104.15728" pt_clust_4="42.17819" pt_clust_5="121.84852" pt_clust_6="14000.00000"></scales>
<clustering>
<clus scale="   42.178">  3  4 -1 -1</clus>
<clus scale="  104.157">  1  3  2 -1</clus>
<clus scale="  121.849">  1  5  2 -1</clus>
<clus scale="  104.157">  1  3  2 -1</clus>
</clustering>
</event>
<event>
 6    0  0.8641190E+002  0.1066434E+03  0.7546771E-02  0.1266915E+00
         21   -1    0    0  504  501  0.00000000000E+00  0.00000000000E+00  0.24172449715E+03  0.24172449715E+03  0.00000000000E+00 0. -1.
         21   -1    0    0  506  502 -0.00000000000E+00 -0.00000000000E+00 -0.13600041937E+04  0.13600041937E+04  0.00000000000E+00 0. -1.
         21    1    1    2  503  501 -0.14549010320E+03  0.24380015707E+02  0.29993189577E+02  0.15053686165E+03  0.00000000000E+00 0. -1.
         21    1    1    2  504  502  0.17335223310E+02 -0.86964146003E+02  0.91020141889E+02  0.12707454067E+03  0.00000000000E+00 0. -1.
         21    1    1    2  505  503  0.65791321966E+02  0.68850301054E+02 -0.12873001112E+02  0.96096702123E+02  0.00000000000E+00 0. -1.
         21    1    1    2  506  505  0.62363557920E+02 -0.62661707574E+01 -0.12264200269E+04  0.12280205864E+04  0.00000000000E+00 0. -1.
<scales pt_clust_3="106.64335" pt_clust_4="91.52699" pt_clust_5="14000.00000" pt_clust_6="62.67757"></scales>
<clustering>
<clus scale="   62.678">  2  6  1 -1</clus>
<clus scale="   91.527">  1  4  2 -1</clus>
<clus scale="  106.643">  1  3  2 -1</clus>
<clus scale="   91.527">  1  3  2 -1</clus>
</clustering>
</event>
<event>
 6    0  0.8641190E+002  0.1442979E+03  0.7546771E-02  0.1207660E+00
         21   -1    0    0  506  501  0.00000000000E+00  0.00000000000E+00  0.12745200777E+03  0.12745200777E+03  0.00000000000E+00 0.  1.
         21   -1    0    0  505  502 -0.00000000000E+00 -0.00000000000E+00 -0.51919029008E+03  0.51919029008E+03  0.00000000000E+00 0.  1.
         21    1    1    2  503  501 -0.40747014007E+02 -0.78479222310E+01 -0.74031782963E+02  0.84868215030E+02  0.00000000000E+00 0.  1.
         21    1    1    2  504  502  0.58495087441E+02  0.20194329614E+02 -0.25464897754E+03  0.26206027544E+03  0.00000000000E+00 0.  1.
         21    1    1    2  505  503 -0.10244556382E+03 -0.95771674738E+02 -0.10332694698E+03  0.17419461875E+03  0.00000000000E+00 0.  1.
         21    1    1    2  506  504  0.84697490384E+02  0.83425267355E+02  0.40269425166E+02  0.12551918863E+03  0.00000000000E+00 0.  1.
<scales pt_clust_3="36.14893" pt_clust_4="61.88284" pt_clust_5="36.14893" pt_clust_6="128.08429"></scales>
<clustering>
<clus scale="   36.149">  3  5 -1 -1</clus>
<clus scale="   61.883">  2  4  1 -1</clus>
<clus scale="  128.084">  1  6  2 -1</clus>
<clus scale="  128.084">  1  3  2 -1</clus>
</clustering>
</event>
<event>
 6    0  0.8641190E+002  0.1716444E+03  0.7546771E-02  0.1176144E+00
         21   -1    0    0  504  501  0.00000000000E+00  0.00000000000E+00  0.10174174819E+03  0.10174174819E+03  0.00000000000E+00 0. -1.
         21   -1    0    0  503  502 -0.00000000000E+00 -0.00000000000E+00 -0.10835938815E+04  0.10835938815E+04  0.00000000000E+00 0.  1.
         21    1    1    2  503  506  0.30889522631E+01  0.47190991379E+02 -0.98343500159E+02  0.10912366983E+03  0.00000000000E+00 0.  1.
         21    1    1    2  504  502  0.34359044870E+02  0.61011848649E+02 -0.74875342307E+03  0.75202039747E+03  0.00000000000E+00 0.  1.
         21    1    1    2  505  501  0.13750325455E+02 -0.18081607213E+03 -0.25111506727E+02  0.18306859687E+03  0.00000000000E+00 0. -1.
         21    1    1    2  506  505 -0.51198322588E+02  0.72613232105E+02 -0.10964370336E+03  0.14112296552E+03  0.00000000000E+00 0.  1.
<scales pt_clust_3="37.88975" pt_clust_4="70.02135" pt_clust_5="163.59912" pt_clust_6="37.88975"></scales>
<clustering>
<clus scale="   37.890">  3  6 -1 -1</clus>
<clus scale="   70.021">  2  4  1 -1</clus>
<clus scale="  163.599">  1  5  2 -1</clus>
<clus scale="  163.599">  1  3  2 -1</clus>
</clustering>
</event>
<event>
 6    0  0.8641190E+002  0.1606011E+03  0.7546771E-02  0.1188020E+00
         21   -1    0    0  504  501  0.00000000000E+00  0.00000000000E+00  0.21252230257E+02  0.21252230257E+02  0.00000000000E+00 0.  1.
         21   -1    0    0  505  502 -0.00000000000E+00 -0.00000000000E+00 -0.15437242962E+04  0.15437242962E+04  0.00000000000E+00 0.  1.
         21    1    1    2  503  501  0.86999815787E+02 -0.55516414791E+02 -0.36240797106E+03  0.37681637139E+03  0.00000000000E+00 0.  1.
         21    1    1    2  504  506 -0.19940813068E+01  0.33800185766E+02 -0.49815118287E+02  0.60232673260E+02  0.00000000000E+00 0. -1.
         21    1    1    2  505  503  0.29608272442E+02 -0.51765979160E+02 -0.43700505723E+03  0.44105530995E+03  0.00000000000E+00 0.  1.
         21    1    1    2  506  502 -0.11461400692E+03  0.73482208185E+02 -0.67324391937E+03  0.68687217186E+03  0.00000000000E+00 0.  1.
<scales pt_clust_3="52.79273" pt_clust_4="33.85896" pt_clust_5="52.79273" pt_clust_6="145.07505"></scales>
<clustering>
<clus scale="   33.859">  1  4  2 -1</clus>
<clus scale="   52.793">  3  5 -1 -1</clus>
<clus scale="  145.075">  2  6  1 -1</clus>
<clus scale="   33.859">  1  3  2 -1</clus>
</clustering>
</event>
<event>
 6    0  0.8641190E+002  0.7111973E+02  0.7546771E-02  0.1356326E+00
         21   -1    0    0  504  501  0.00000000000E+00  0.00000000000E+00  0.53817583799E+03  0.53817583799E+03  0.00000000000E+00 0.  1.
         21   -1    0    0  505  502 -0.00000000000E+00 -0.00000000000E+00 -0.20597980731E+03  0.20597980731E+03  0.00000000000E+00 0. -1.
         21    1    1    2  503  502 -0.39845636806E+02  0.26936063590E+02 -0.96523068740E+02  0.10784214896E+03  0.00000000000E+00 0. -1.
         21    1    1    2  504  503  0.89148325894E+02  0.20295286264E+01 -0.10434632105E+02  0.89779867138E+02  0.00000000000E+00 0. -1.
         21    1    1    2  505  506 -0.48746808559E+02  0.43632465310E+02 -0.29874159354E+02  0.71920155526E+02  0.00000000000E+00 0. -1.
         21    1    1    2  506  501 -0.55588052881E+00 -0.72598057527E+02  0.46902789089E+03  0.47461347367E+03  0.00000000000E+00 0.  1.
<scales pt_clust_3="48.09601" pt_clust_4="71.51107" pt_clust_5="71.11973" pt_clust_6="14000.00000"></scales>
<clustering>
<clus scale="   48.096">  2  3  1 -1</clus>
<clus scale="   71.511">  2  4  1 -1</clus>
<clus scale="   71.120">  2  5  1 -1</clus>
<clus scale="   71.120">  1  3  2 -1</clus>
</clustering>
</event>
<event>
 6    0  0.8641190E+002  0.1188793E+03  0.7546771E-02  0.1244957E+00
         21   -1    0    0  503  501  0.00000000000E+00  0.00000000000E+00  0.11358823622E+04  0.11358823622E+04  0.00000000000E+00 0. -1.
         21   -1    0    0  504  502 -0.00000000000E+00 -0.00000000000E+00 -0.68864992739E+02  0.68864992739E+02  0.00000000000E+00 0.  1.
         21    1    1    2  503  505 -0.66967866646E+02  0.10116588988E+03  0.79260871701E+03  0.80184026509E+03  0.00000000000E+00 0. -1.
         21    1    1    2  504  506  0.60829671039E+02 -0.14692672798E+02  0.17378382438E+03  0.18470771811E+03  0.00000000000E+00 0.  1.
         21    1    1    2  505  502 -0.16586814637E+02 -0.48537596077E+02 -0.43617048944E+02  0.67331030078E+02  0.00000000000E+00 0.  1.
         21    1    1    2  506  501  0.22725010244E+02 -0.37935621001E+02  0.14424187701E+03  0.15086834166E+03  0.00000000000E+00 0.  1.
<scales pt_clust_3="111.41123" pt_clust_4="34.86136" pt_clust_5="51.29348" pt_clust_6="34.86136"></scales>
<clustering>
<clus scale="   34.861">  4  6 -1 -1</clus>
<clus scale="   51.293">  2  5  1 -1</clus>
<clus scale="  111.411">  1  3  2 -1</clus>
<clus scale="  111.411">  1  3  2 -1</clus>
</clustering>
</event>
<event>
 6    0  0.8641190E+002  0.1028661E+03  0.7546771E-02  0.1274382E+00
         21   -1    0    0  505  501  0.00000000000E+00  0.00000000000E+00  0.22606476546E+03  0.22606476546E+03  0.00000000000E+00 0.  1.
         21   -1    0    0  504  502 -0.00000000000E+00 -0.00000000000E+00 -0.44355896105E+03  0.44355896105E+03  0.00000000000E+00 0. -1.
         21    1    1    2  503  506  0.11917535759E+03 -0.75099725211E+01  0.50890262801E+02  0.12980363782E+03  0.00000000000E+00 0.  1.
         21    1    1    2  504  501 -0.44063379640E+02 -0.94093497654E+01  0.14347540079E+02  0.47286035937E+02  0.00000000000E+00 0. -1.
         21    1    1    2  505  503  0.26275321348E+02  0.25109263585E+02  0.94806038274E+02  0.10153350443E+03  0.00000000000E+00 0.  1.
         21    1    1    2  506  502 -0.10138729930E+03 -0.81899412984E+01 -0.37753803674E+03  0.39100054832E+03  0.00000000000E+00 0. -1.
<scales pt_clust_3="102.86611" pt_clust_4="37.88147" pt_clust_5="36.34374" pt_clust_6="14000.00000"></scales>
<clustering>
<clus scale="   36.344">  1  5  2 -1</clus>
<clus scale="   37.881">  1  4  2 -1</clus>
<clus scale="  102.866">  1  3  2 -1</clus>
<clus scale="   36.344">  1  3  2 -1</clus>
</clustering>
</event>
<event>
 6    0  0.8641190E+002  0.8428521E+02  0.7546771E-02  0.1317312E+00
         21   -1    0    0  505  501  0.00000000000E+00  0.00000000000E+00  0.82948338004E+03  0.82948338004E+03  0.00000000000E+00 0. -1.
         21   -1    0    0  503  502 -0.00000000000E+00 -0.00000000000E+00 -0.96412495605E+02  0.96412495605E+02  0.00000000000E+00 0. -1.
         21    1    1    2  503  501 -0.87087848391E+02 -0.12222414531E+02 -0.51699449920E+02  0.10201232218E+03  0.00000000000E+00 0. -1.
         21    1    1    2  504  506  0.38540676999E+02  0.63568681419E+02  0.21221947832E+03  0.22486322069E+03  0.00000000000E+00 0. -1.
         21    1    1    2  505  504 -0.20614500283E+02 -0.55058051775E+02  0.47913910002E+03  0.48273245577E+03  0.00000000000E+00 0. -1.
         21    1    1    2  506  502  0.69161671676E+02  0.37117848876E+01  0.93411756012E+02  0.11628787700E+03  0.00000000000E+00 0.  1.
<scales pt_clust_3="84.28521" pt_clust_4="38.72813" pt_clust_5="58.79070" pt_clust_6="14000.00000"></scales>
<clustering>
<clus scale="   58.791">  1  5  2 -1</clus>
<clus scale="   38.728">  1  4  2 -1</clus>
<clus scale="   84.285">  2  3  1 -1</clus>
<clus scale="   58.791">  1  3  2 -1</clus>
</clustering>
</event>
<event>
 6    0  0.8641190E+002  0.8734672E+02  0.7546771E-02  0.1309407E+00
         21   -1    0    0  504  501  0.00000000000E+00  0.00000000000E+00  0.36649402263E+03  0.36649402263E+03  0.00000000000E+00 0. -1.
         21   -1    0    0  503  502 -0.00000000000E+00 -0.00000000000E+00 -0.13053784902E+04  0.13053784902E+04  0.00000000000E+00 0. -1.
         21    1    1    2  503  501  0.34044728779E+02 -0.32633380753E+02 -0.53417185042E+03  0.53624951924E+03  0.00000000000E+00 0. -1.
         21    1    1    2  504  505 -0.22116444105E+02 -0.30279199894E+02  0.34759745338E+03  0.34961401093E+03  0.00000000000E+00 0. -1.
         21    1    1    2  505  506  0.78633665942E+02 -0.23625774834E+02 -0.15188599955E+03  0.17265800739E+03  0.00000000000E+00 0.  1.
         21    1    1    2  506  502 -0.90561950616E+02  0.86538355481E+02 -0.60042407097E+03  0.61335097527E+03  0.00000000000E+00 0.  1.
<scales pt_clust_3="47.49775" pt_clust_4="37.49623" pt_clust_5="14000.00000" pt_clust_6="87.34672"></scales>
<clustering>
<clus scale="   37.496">  1  4  2 -1</clus>
<clus scale="   47.498">  2  3  1 -1</clus>
<clus scale="   87.347">  2  6  1 -1</clus>
<clus scale="   37.496">  1  3  2 -1</clus>
</clustering>
</event>
<event>
 6    0  0.8641190E+002  0.1138230E+03  0.7546771E-02  0.1253650E+00
         21   -1    0    0  504  501  0.00000000000E+00  0.00000000000E+00  0.23527875226E+04  0.23527875226E+04  0.00000000000E+00 0.  1.
         21   -1    0    0  505  502 -0.00000000000E+00 -0.00000000000E+00 -0.47239847843E+02  0.47239847843E+02  0.00000000000E+00 0.  1.
         21    1    1    2  503  502 -0.22897824721E+02  0.71738607811E+02  0.77475874288E+03  0.77840982001E+03  0.00000000000E+00 0. -1.
         21    1    1    2  504  503 -0.27884829066E+01  0.59803246736E+02  0.36679896761E+03  0.37165264239E+03  0.00000000000E+00 0.  1.
         21    1    1    2  505  506  0.92586312163E+02 -0.47311133299E+02  0.26363164925E+02  0.10726408998E+03  0.00000000000E+00 0.  1.
         21    1    1    2  506  501 -0.66900004536E+02 -0.84230721249E+02  0.11376267993E+04  0.11427008180E+04  0.00000000000E+00 0.  1.
<scales pt_clust_3="34.83799" pt_clust_4="34.83799" pt_clust_5="103.97388" pt_clust_6="106.90675"></scales>
<clustering>
<clus scale="   34.838">  3  4 -1 -1</clus>
<clus scale="  103.974">  2  5  1 -1</clus>
<clus scale="  106.907">  1  6  2 -1</clus>
<clus scale="  106.907">  1  3  2 -1</clus>
</clustering>
</event>
<event>
 6    0  0.8641190E+002  0.9750201E+02  0.7546771E-02  0.1285638E+00
         21   -1    0    0  506  501  0.00000000000E+00  0.00000000000E+00  0.12675991526E+03  0.12675991526E+03  0.00000000000E+00 0.  1.
         21   -1    0    0  505  502 -0.00000000000E+00 -0.00000000000E+00 -0.32586563854E+03  0.32586563854E+03  0.00000000000E+00 0.  1.
         21    1    1    2  503  501 -0.66179063797E+02 -0.69315634871E+02  0.73539014679E+02  0.12079864404E+03  0.00000000000E+00 0.  1.
         21    1    1    2  504  503  0.82860889549E+02  0.73617866910E+02 -0.16778615719E+03  0.20109130237E+03  0.00000000000E+00 0.  1.
         21    1    1    2  505  504 -0.27461478420E+02  0.30778846795E+02 -0.59259481544E+02  0.72202190825E+02  0.00000000000E+00 0.  1.
         21    1    1    2  506  502  0.10779652668E+02 -0.35081078834E+02 -0.45599099227E+02  0.58533416559E+02  0.00000000000E+00 0.  1.
<scales pt_clust_3="14000.00000" pt_clust_4="97.50201" pt_clust_5="33.44443" pt_clust_6="36.69990"></scales>
<clustering>
<clus scale="   36.700">  2  6  1 -1</clus>
<clus scale="   33.444">  2  5  1 -1</clus>
<clus scale="   97.502">  2  4  1 -1</clus>
<clus scale="   97.502">  1  3  2 -1</clus>
</clustering>
</event>
<event>
 6    0  0.8641190E+002  0.1498218E+03  0.7546771E-02  0.1200692E+00
         21   -1    0    0  504  501  0.00000000000E+00  0.00000000000E+00  0.38171814584E+03  0.38171814584E+03  0.00000000000E+00 0. -1.
         21   -1    0    0  503  502 -0.00000000000E+00 -0.00000000000E+00 -0.42439975939E+03  0.42439975939E+03  0.00000000000E+00 0. -1.
         21    1    1    2  503  506  0.11428954835E+03 -0.88940908454E+02 -0.30696606475E+02  0.14803671068E+03  0.00000000000E+00 0. -1.
         21    1    1    2  504  505 -0.16803714225E+03  0.63095897036E+02  0.25678364621E+03  0.31329764499E+03  0.00000000000E+00 0. -1.
         21    1    1    2  505  502  0.16016173998E+02  0.26355472229E+02 -0.29640859342E+03  0.29800869618E+03  0.00000000000E+00 0. -1.
         21    1    1    2  506  501  0.37731419897E+02 -0.51046081085E+00  0.27639940134E+02  0.46774853376E+02  0.00000000000E+00 0.  1.
<scales pt_clust_3="14000.00000" pt_clust_4="149.82175" pt_clust_5="30.84038" pt_clust_6="38.96399"></scales>
<clustering>
<clus scale="   30.840">  2  5  1 -1</clus>
<clus scale="   38.964">  1  6  2 -1</clus>
<clus scale="  149.822">  1  4  2 -1</clus>
<clus scale="   38.964">  1  3  2 -1</clus>
</clustering>
</event>
<event>
 6    0  0.8641190E+002  0.7486152E+02  0.7546771E-02  0.1344300E+00
         21   -1    0    0  504  501  0.00000000000E+00  0.00000000000E+00  0.27751533874E+03  0.27751533874E+03  0.00000000000E+00 0. -1.
         21   -1    0    0  506  502 -0.00000000000E+00 -0.00000000000E+00 -0.11764238179E+03  0.11764238179E+03  0.00000000000E+00 0. -1.
         21    1    1    2  503  502  0.35848979781E+02  0.63868117078E+02  0.98081296421E+02  0.12241007490E+03  0.00000000000E+00 0. -1.
         21    1    1    2  504  503 -0.41735491706E+02  0.22775948126E+02  0.73243207552E+02  0.87322176642E+02  0.00000000000E+00 0. -1.
         21    1    1    2  505  501  0.53040505702E+02 -0.80513877442E+02  0.49291526818E+02  0.10828404463E+03  0.00000000000E+00 0. -1.
         21    1    1    2  506  505 -0.47153993778E+02 -0.61301877623E+01 -0.60743073837E+02  0.77141424347E+02  0.00000000000E+00 0. -1.
<scales pt_clust_3="74.86152" pt_clust_4="47.54572" pt_clust_5="14000.00000" pt_clust_6="49.16299"></scales>
<clustering>
<clus scale="   47.546">  1  4  2 -1</clus>
<clus scale="   49.163">  2  6  1 -1</clus>
<clus scale="   74.862">  1  3  2 -1</clus>
<clus scale="   47.546">  1  3  2 -1</clus>
</clustering>
</event>
<event>
 6    0  0.8641190E+002  0.1256254E+03  0.7546771E-02  0.1234095E+00
         21   -1    0    0  504  501  0.00000000000E+00  0.00000000000E+00  0.61765480773E+03  0.61765480773E+03  0.00000000000E+00 0.  1.
         21   -1    0    0  503  502 -0.00000000000E+00 -0.00000000000E+00 -0.19515139628E+03  0.19515139628E+03  0.00000000000E+00 0. -1.
         21    1    1    2  503  501 -0.11091722982E+03  0.23664613366E+02 -0.12118178294E+03  0.16597490869E+03  0.00000000000E+00 0. -1.
         21    1    1    2  504  505 -0.17506868397E+01 -0.11130064962E+03  0.45633491170E+03  0.46971528732E+03  0.00000000000E+00 0.  1.
         21    1    1    2  505  506  0.63805913632E+02  0.44309846334E+02  0.79816149936E+02  0.11137852076E+03  0.00000000000E+00 0.  1.
         21    1    1    2  506  502  0.48862003024E+02  0.43326189916E+02  0.75341327606E+01  0.65737487239E+02  0.00000000000E+00 0. -1.
<scales pt_clust_3="111.42646" pt_clust_4="111.31442" pt_clust_5="53.19350" pt_clust_6="53.19350"></scales>
<clustering>
<clus scale="   53.193">  5  6 -1 -1</clus>
<clus scale="  111.314">  1  4  2 -1</clus>
<clus scale="  111.426">  2  3  1 -1</clus>
<clus scale="  111.314">  1  3  2 -1</clus>
</clustering>
</event>
<event>
 6    0  0.8641190E+002  0.1278930E+03  0.7546771E-02  0.1230616E+00
         21   -1    0    0  503  501  0.00000000000E+00  0.00000000000E+00  0.29948494165E+03  0.29948494165E+03  0.00000000000E+00 0.  1.
         21   -1    0    0  506  502 -0.00000000000E+00 -0.00000000000E+00 -0.28331415171E+03  0.28331415171E+03  0.00000000000E+00 0.  1.
         21    1    1    2  503  504  0.57141350389E+01 -0.48932910330E+02  0.13160086352E+03  0.14051999264E+03  0.00000000000E+00 0.  1.
         21    1    1    2  504  505 -0.44087543784E+02 -0.60450764283E+02  0.10251511498E+03  0.12691475571E+03  0.00000000000E+00 0.  1.
         21    1    1    2  505  502 -0.36994425370E+02  0.23146626772E+02 -0.19336264112E+03  0.19822579252E+03  0.00000000000E+00 0.  1.
         21    1    1    2  506  501  0.75367834115E+02  0.86237047841E+02 -0.24582547443E+02  0.11713855249E+03  0.00000000000E+00 0.  1.
<scales pt_clust_3="45.57843" pt_clust_4="45.57843" pt_clust_5="43.63890" pt_clust_6="114.38038"></scales>
<clustering>
<clus scale="   43.639">  2  5  1 -1</clus>
<clus scale="   45.578">  3  4 -1 -1</clus>
<clus scale="  114.380">  2  6  1 -1</clus>
<clus scale="  127.893">  1  3  2 -1</clus>
</clustering>
</event>
<event>
 6    0  0.8641190E+002  0.1361994E+03  0.7546771E-02  0.1218536E+00
         21   -1    0    0  506  501  0.00000000000E+00  0.00000000000E+00  0.13129054690E+03  0.13129054690E+03  0.00000000000E+00 0. -1.
         21   -1    0    0  503  502 -0.00000000000E+00 -0.00000000000E+00 -0.44924173351E+03  0.44924173351E+03  0.00000000000E+00 0.  1.
         21    1    1    2  503  505  0.25620874098E+02  0.11770201221E+03 -0.31713263551E+03  0.33923929810E+03  0.00000000000E+00 0.  1.
         21    1    1    2  504  502 -0.17696541092E+02 -0.10676731248E+03  0.65986732089E+01  0.10842494671E+03  0.00000000000E+00 0. -1.
         21    1    1    2  505  501  0.40764791106E+02  0.39284731477E+02 -0.23166202916E+02  0.61169692485E+02  0.00000000000E+00 0. -1.
         21    1    1    2  506  504 -0.48689124112E+02 -0.50219431208E+02  0.15748978607E+02  0.71698343111E+02  0.00000000000E+00 0. -1.
<scales pt_clust_3="125.12869" pt_clust_4="43.24187" pt_clust_5="56.61323" pt_clust_6="43.24187"></scales>
<clustering>
<clus scale="   43.242">  4  6 -1 -1</clus>
<clus scale="   56.613">  1  5  2 -1</clus>
<clus scale="  125.129">  2  3  1 -1</clus>
<clus scale="   56.613">  1  3  2 -1</clus>
</clustering>
</event>
<event>
 6    0  0.8641190E+002  0.1580120E+03  0.7546771E-02  0.1190960E+00
         21   -1    0    0  504  501  0.00000000000E+00  0.00000000000E+00  0.24609199309E+04  0.24609199309E+04  0.00000000000E+00 0.  1.
         21   -1    0    0  503  502 -0.00000000000E+00 -0.00000000000E+00 -0.45624593598E+02  0.45624593598E+02  0.00000000000E+00 0. -1.
         21    1    1    2  503  506 -0.86208618646E+02 -0.53352470563E+02  0.10538129116E+04  0.10586784520E+04  0.00000000000E+00 0.  1.
         21    1    1    2  504  505  0.32510808497E+02 -0.52331286872E+02  0.74354163179E+03  0.74608958876E+03  0.00000000000E+00 0.  1.
         21    1    1    2  505  502  0.11230775384E+03  0.99709672395E+02  0.99850595414E+02  0.18034741957E+03  0.00000000000E+00 0. -1.
         21    1    1    2  506  501 -0.58609943689E+02  0.59740850401E+01  0.51809019855E+03  0.52142906423E+03  0.00000000000E+00 0. -1.
<scales pt_clust_3="39.19181" pt_clust_4="61.60776" pt_clust_5="149.41399" pt_clust_6="39.19181"></scales>
<clustering>
<clus scale="   39.192">  3  6 -1 -1</clus>
<clus scale="   61.608">  1  4  2 -1</clus>
<clus scale="  149.414">  2  5  1 -1</clus>
<clus scale="   61.608">  1  3  2 -1</clus>
</clustering>
</event>
<event>
 6    0  0.8641190E+002  0.2102118E+03  0.7546771E-02  0.1141398E+00
         21   -1    0    0  505  501  0.00000000000E+00  0.00000000000E+00  0.36842553470E+03  0.36842553470E+03  0.00000000000E+00 0.  1.
         21   -1    0    0  506  502 -0.00000000000E+00 -0.00000000000E+00 -0.38255269723E+03  0.38255269723E+03  0.00000000000E+00 0.  1.
         21    1    1    2  503  504  0.15226885809E+03  0.42332465070E+02  0.69857868985E+01  0.15819811617E+03  0.00000000000E+00 0.  1.
         21    1    1    2  504  501 -0.50506835577E+02 -0.64316269100E+02  0.18760364950E+03  0.20465251578E+03  0.00000000000E+00 0.  1.
         21    1    1    2  505  502 -0.16355510967E+03 -0.67621767636E+02 -0.21575040796E+03  0.27905414509E+03  0.00000000000E+00 0.  1.
         21    1    1    2  506  503  0.61793087155E+02  0.89605571666E+02  0.70338090360E+01  0.10907345490E+03  0.00000000000E+00 0. -1.
<scales pt_clust_3="74.26148" pt_clust_4="81.77728" pt_clust_5="190.21471" pt_clust_6="74.26148"></scales>
<clustering>
<clus scale="   74.261">  3  6 -1 -1</clus>
<clus scale="   81.777">  1  4  2 -1</clus>
<clus scale="  190.215">  2  5  1 -1</clus>
<clus scale="   81.777">  1  3  2 -1</clus>
</clustering>
</event>
<event>
 6    0  0.8641190E+002  0.1141578E+03  0.7546771E-02  0.1253058E+00
         21   -1    0    0  505  501  0.00000000000E+00  0.00000000000E+00  0.64217084033E+03  0.64217084033E+03  0.00000000000E+00 0. -1.
         21   -1    0    0  504  502 -0.00000000000E+00 -0.00000000000E+00 -0.10056221057E+03  0.10056221057E+03  0.00000000000E+00 0. -1.
         21    1    1    2  503  501  0.46430371450E+02 -0.11796536202E+02  0.25142817861E+03  0.25595129743E+03  0.00000000000E+00 0. -1.
         21    1    1    2  504  506  0.54267804236E+02 -0.67455247577E+02  0.27906348491E+02  0.90961361514E+02  0.00000000000E+00 0. -1.
         21    1    1    2  505  502  0.29958219623E+02 -0.11953814026E+02 -0.41638159179E+02  0.52669961957E+02  0.00000000000E+00 0. -1.
         21    1    1    2  506  503 -0.13065639531E+03  0.91205597806E+02  0.30391226184E+03  0.34315042999E+03  0.00000000000E+00 0. -1.
<scales pt_clust_3="49.25999" pt_clust_4="114.15779" pt_clust_5="32.25506" pt_clust_6="14000.00000"></scales>
<clustering>
<clus scale="   32.255">  2  5  1 -1</clus>
<clus scale="   49.260">  1  3  2 -1</clus>
<clus scale="  114.158">  2  4  1 -1</clus>
<clus scale="   49.260">  1  3  2 -1</clus>
</clustering>
</event>
<event>
 6    0  0.8641190E+002  0.8763940E+02  0.7546771E-02  0.1308671E+00
         21   -1    0    0  504  501  0.00000000000E+00  0.00000000000E+00  0.29613258576E+03  0.29613258576E+03  0.00000000000E+00 0. -1.
         21   -1    0    0  505  502 -0.00000000000E+00 -0.00000000000E+00 -0.43178376214E+03  0.43178376214E+03  0.00000000000E+00 0.  1.
         21    1    1    2  503  501  0.34268250016E+02  0.50374003206E+02  0.58342287671E+02  0.84354464546E+02  0.00000000000E+00 0.  1.
         21    1    1    2  504  506 -0.58154567694E+02 -0.13137570903E+03  0.17840665762E+03  0.22906432754E+03  0.00000000000E+00 0. -1.
         21    1    1    2  505  503 -0.21285316028E+02  0.39720161346E+02 -0.89653779890E+01  0.45947077146E+02  0.00000000000E+00 0.  1.
         21    1    1    2  506  502  0.45171633706E+02  0.41281544481E+02 -0.36343474369E+03  0.36855047867E+03  0.00000000000E+00 0.  1.
<scales pt_clust_3="61.60968" pt_clust_4="14000.00000" pt_clust_5="45.06391" pt_clust_6="87.63940"></scales>
<clustering>
<clus scale="   45.064">  2  5  1 -1</clus>
<clus scale="   61.610">  1  3  2 -1</clus>
<clus scale="   87.639">  2  6  1 -1</clus>
<clus scale="   61.610">  1  3  2 -1</clus>
</clustering>
</event>
<event>
 6    0  0.8641190E+002  0.1111442E+03  0.7546771E-02  0.1258466E+00
         21   -1    0    0  502  501  0.00000000000E+00  0.00000000000E+00  0.23185096131E+03  0.23185096131E+03  0.00000000000E+00 0.  1.
         21   -1    0    0  505  502 -0.00000000000E+00 -0.00000000000E+00 -0.48862914808E+03  0.48862914808E+03  0.00000000000E+00 0. -1.
         21    1    1    2  503  506 -0.63124331779E+02 -0.49400766648E+02  0.28615515838E+02  0.85111484270E+02  0.00000000000E+00 0.  1.
         21    1    1    2  504  503  0.80919007402E+02  0.12437252659E+03 -0.95576769718E+02  0.17649739386E+03  0.00000000000E+00 0. -1.
         21    1    1    2  505  504  0.12126265265E+02 -0.47310184143E+02 -0.31935876896E+03  0.32307169970E+03  0.00000000000E+00 0. -1.
         21    1    1    2  506  501 -0.29920940887E+02 -0.27661575802E+02  0.12954183607E+03  0.13579953156E+03  0.00000000000E+00 0.  1.
<scales pt_clust_3="14000.00000" pt_clust_4="111.14416" pt_clust_5="49.20661" pt_clust_6="40.74832"></scales>
<clustering>
<clus scale="   40.748">  1  6  2 -1</clus>
<clus scale="   49.207">  2  5  1 -1</clus>
<clus scale="  111.144">  2  4  1 -1</clus>
<clus scale="   40.748">  1  3  2 -1</clus>
</clustering>
</event>
<event>
 6    0  0.8641190E+002  0.1819743E+03  0.7546771E-02  0.1165906E+00
         21   -1    0    0  506  501  0.00000000000E+00  0.00000000000E+00  0.51813139920E+03  0.51813139920E+03  0.00000000000E+00 0.  1.
         21   -1    0    0  505  502 -0.00000000000E+00 -0.00000000000E+00 -0.77693156275E+02  0.77693156275E+02  0.00000000000E+00 0.  1.
         21    1    1    2  503  501 -0.75760516929E+02  0.69014263846E+02  0.19891142818E+03  0.22375964962E+03  0.00000000000E+00 0.  1.
         21    1    1    2  504  502  0.50631111216E+02 -0.58390666841E+01  0.22959090885E+02  0.55899230558E+02  0.00000000000E+00 0. -1.
         21    1    1    2  505  503 -0.73683454923E+02  0.22704270087E+02  0.14934720574E+03  0.16807534998E+03  0.00000000000E+00 0.  1.
         21    1    1    2  506  504  0.98812860635E+02 -0.85879467250E+02  0.69220518124E+02  0.14809032531E+03  0.00000000000E+00 0.  1.
<scales pt_clust_3="179.58449" pt_clust_4="30.36796" pt_clust_5="33.64714" pt_clust_6="30.36796"></scales>
<clustering>
<clus scale="   30.368">  4  6 -1 -1</clus>
<clus scale="   33.647">  3  5 -1 -1</clus>
<clus scale="  179.584">  1  3  2 -1</clus>
<clus scale="  179.584">  1  3  2 -1</clus>
</clustering>
</event>
<event>
 6    0  0.8641190E+002  0.9341072E+02  0.7546771E-02  0.1294796E+00
         21   -1    0    0  506  501  0.00000000000E+00  0.00000000000E+00  0.59845462520E+03  0.59845462520E+03  0.00000000000E+00 0.  1.
         21   -1    0    0  504  502 -0.00000000000E+00 -0.00000000000E+00 -0.51328998933E+03  0.51328998933E+03  0.00000000000E+00 0.  1.
         21    1    1    2  503  502 -0.38036273084E+02  0.21323080167E+02 -0.27769087589E+03  0.28109367544E+03  0.00000000000E+00 0.  1.
         21    1    1    2  504  505 -0.13584062542E+02 -0.97270977516E+02 -0.20135184001E+03  0.22402842074E+03  0.00000000000E+00 0.  1.
         21    1    1    2  505  501 -0.55503416013E+02 -0.45620634671E+01  0.34673326552E+03  0.35117716188E+03  0.00000000000E+00 0.  1.
         21    1    1    2  506  503  0.10712375164E+03  0.80509960815E+02  0.21747408625E+03  0.25544535648E+03  0.00000000000E+00 0.  1.
<scales pt_clust_3="43.60541" pt_clust_4="93.41072" pt_clust_5="56.03459" pt_clust_6="14000.00000"></scales>
<clustering>
<clus scale="   43.605">  2  3  1 -1</clus>
<clus scale="   56.035">  1  5  2 -1</clus>
<clus scale="   93.411">  2  4  1 -1</clus>
<clus scale="   56.035">  1  3  2 -1</clus>
</clustering>
</event>
<event>
 6    0  0.8641190E+002  0.9648592E+02  0.7546771E-02  0.1287864E+00
         21   -1    0    0  505  501  0.00000000000E+00  0.00000000000E+00  0.13076577332E+04  0.13076577332E+04  0.00000000000E+00 0.  1.
         21   -1    0    0  503  502 -0.00000000000E+00 -0.00000000000E+00 -0.37317635534E+02  0.37317635534E+02  0.00000000000E+00 0. -1.
         21    1    1    2  503  506 -0.13544036074E+02 -0.63886922643E+02  0.21210947262E+02  0.68665013520E+02  0.00000000000E+00 0. -1.
         21    1    1    2  504  502  0.46689011649E+02  0.12476449107E+03  0.56346815795E+03  0.57900121508E+03  0.00000000000E+00 0.  1.
         21    1    1    2  505  504 -0.66394559976E+01 -0.84675605170E+02  0.56980946001E+03  0.57610490469E+03  0.00000000000E+00 0.  1.
         21    1    1    2  506  501 -0.26505519578E+02  0.23798036743E+02  0.11585153244E+03  0.12120423544E+03  0.00000000000E+00 0. -1.
<scales pt_clust_3="64.64528" pt_clust_4="96.48592" pt_clust_5="14000.00000" pt_clust_6="35.62147"></scales>
<clustering>
<clus scale="   35.621">  1  6  2 -1</clus>
<clus scale="   64.645">  2  3  1 -1</clus>
<clus scale="   96.486">  2  4  1 -1</clus>
<clus scale="   35.621">  1  3  2 -1</clus>
</clustering>
</event>
<event>
 6    0  0.8641190E+002  0.1432764E+03  0.7546771E-02  0.1208987E+00
         21   -1    0    0  504  501  0.00000000000E+00  0.00000000000E+00  0.80185090180E+03  0.80185090180E+03  0.00000000000E+00 0. -1.
         21   -1    0    0  505  502 -0.00000000000E+00 -0.00000000000E+00 -0.22418675663E+03  0.22418675663E+03  0.00000000000E+00 0. -1.
         21    1    1    2  503  506 -0.82649688304E+02 -0.36096511695E+02 -0.26683016469E+02  0.94052711291E+02  0.00000000000E+00 0. -1.
         21    1    1    2  504  502 -0.42107904890E+02  0.14287998249E+03  0.54002318200E+03  0.56018996970E+03  0.00000000000E+00 0. -1.
         21    1    1    2  505  503 -0.19679293551E+02 -0.30520472230E+02 -0.12008287440E+03  0.12545385822E+03  0.00000000000E+00 0. -1.
         21    1    1    2  506  501  0.14443688675E+03 -0.76262998565E+02  0.18440685403E+03  0.24634111921E+03  0.00000000000E+00 0. -1.
<scales pt_clust_3="108.85306" pt_clust_4="14000.00000" pt_clust_5="36.31493" pt_clust_6="143.27638"></scales>
<clustering>
<clus scale="   36.315">  2  5  1 -1</clus>
<clus scale="  108.853">  2  3  1 -1</clus>
<clus scale="  143.276">  2  6  1 -1</clus>
<clus scale="  143.276">  1  3  2 -1</clus>
</clustering>
</event>
<event>
 6    0  0.8641190E+002  0.8748094E+02  0.7546771E-02  0.1309069E+00
         21   -1    0    0  504  501  0.00000000000E+00  0.00000000000E+00  0.35914512663E+03  0.35914512663E+03  0.00000000000E+00 0. -1.
         21   -1    0    0  505  502 -0.00000000000E+00 -0.00000000000E+00 -0.50759769050E+03  0.50759769050E+03  0.00000000000E+00 0. -1.
         21    1    1    2  503  506  0.35364823561E+02  0.23820699912E+02 -0.45639032897E+02  0.62458128483E+02  0.00000000000E+00 0. -1.
         21    1    1    2  504  503  0.87139952642E+02  0.17713121126E+01  0.33142508117E+03  0.34269387698E+03  0.00000000000E+00 0. -1.
         21    1    1    2  505  501 -0.10403962088E+03 -0.56964371949E+02 -0.30276332521E+03  0.32516889992E+03  0.00000000000E+00 0. -1.
         21    1    1    2  506  502 -0.18465155322E+02  0.31372359925E+02 -0.13147528694E+03  0.13642191174E+03  0.00000000000E+00 0. -1.
<scales pt_clust_3="43.27937" pt_clust_4="14000.00000" pt_clust_5="87.48094" pt_clust_6="36.40312"></scales>
<clustering>
<clus scale="   36.403">  2  6  1 -1</clus>
<clus scale="   43.279">  2  3  1 -1</clus>
<clus scale="   87.481">  2  5  1 -1</clus>
<clus scale="   87.481">  1  3  2 -1</clus>
</clustering>
</event>
<event>
 6    0  0.8641190E+002  0.1704245E+03  0.7546771E-02  0.1177406E+00
         21   -1    0    0  503  501  0.00000000000E+00  0.00000000000E+00  0.39877592345E+02  0.39877592345E+02  0.00000000000E+00 0.  1.
         21   -1    0    0  506  502 -0.00000000000E+00 -0.00000000000E+00 -0.20471220665E+04  0.20471220665E+04  0.00000000000E+00 0.  1.
         21    1    1    2  503  502  0.41327045632E+02 -0.13761640222E+03 -0.26489181795E+03  0.30135340396E+03  0.00000000000E+00 0.  1.
         21    1    1    2  504  505 -0.12154593870E+03  0.94682242182E+02 -0.60376511183E+03  0.62311351491E+03  0.00000000000E+00 0.  1.
         21    1    1    2  505  501 -0.47362731310E+02  0.59694328037E+02 -0.18169763995E+03  0.19702962589E+03  0.00000000000E+00 0.  1.
         21    1    1    2  506  504  0.12758162438E+03 -0.16760167999E+02 -0.95688990440E+03  0.96550311406E+03  0.00000000000E+00 0.  1.
<scales pt_clust_3="160.38624" pt_clust_4="40.52650" pt_clust_5="40.52650" pt_clust_6="128.67779"></scales>
<clustering>
<clus scale="   40.527">  4  5 -1 -1</clus>
<clus scale="  128.678">  2  6  1 -1</clus>
<clus scale="  160.386">  1  3  2 -1</clus>
<clus scale="  160.386">  1  3  2 -1</clus>
</clustering>
</event>
<event>
 6    0  0.8641190E+002  0.8247611E+02  0.7546771E-02  0.1322168E+00
         21   -1    0    0  506  501  0.00000000000E+00  0.00000000000E+00  0.48161570746E+03  0.48161570746E+03  0.00000000000E+00 0. -1.
         21   -1    0    0  504  502 -0.00000000000E+00 -0.00000000000E+00 -0.34452558954E+03  0.34452558954E+03  0.00000000000E+00 0. -1.
         21    1    1    2  503  502  0.14358567236E+02  0.52257809808E+02 -0.30641942900E+03  0.31117505300E+03  0.00000000000E+00 0. -1.
         21    1    1    2  504  501  0.42518084633E+02  0.23700029583E+01  0.18881742349E+02  0.46582449796E+02  0.00000000000E+00 0. -1.
         21    1    1    2  505  503 -0.85555176406E+02 -0.89881679959E+02  0.17427505514E+03  0.21393970984E+03  0.00000000000E+00 0. -1.
         21    1    1    2  506  505  0.28678524537E+02  0.35253867193E+02  0.25035274943E+03  0.25444408437E+03  0.00000000000E+00 0. -1.
<scales pt_clust_3="54.26673" pt_clust_4="42.58409" pt_clust_5="82.47611" pt_clust_6="14000.00000"></scales>
<clustering>
<clus scale="   42.584">  1  4  2 -1</clus>
<clus scale="   54.267">  2  3  1 -1</clus>
<clus scale="   82.476">  2  5  1 -1</clus>
<clus scale="   42.584">  1  3  2 -1</clus>
</clustering>
</event>
<event>
 6    0  0.8641190E+002  0.1364843E+03  0.7546771E-02  0.1218139E+00
         21   -1    0    0  504  501  0.00000000000E+00  0.00000000000E+00  0.11514359591E+04  0.11514359591E+04  0.00000000000E+00 0. -1.
         21   -1    0    0  506  502 -0.00000000000E+00 -0.00000000000E+00 -0.14036606177E+03  0.14036606177E+03  0.00000000000E+00 0. -1.
         21    1    1    2  503  505  0.57616970597E+01 -0.43003360852E+02  0.96238074615E+02  0.10556634503E+03  0.00000000000E+00 0. -1.
         21    1    1    2  504  502 -0.79726502075E+02  0.64229811553E+02  0.54652561336E+03  0.55603240003E+03  0.00000000000E+00 0. -1.
         21    1    1    2  505  501  0.10243533684E+03 -0.76985844810E+02  0.48290548728E+03  0.49961738178E+03  0.00000000000E+00 0. -1.
         21    1    1    2  506  503 -0.28470531830E+02  0.55759394108E+02 -0.11459927793E+03  0.13058589402E+03  0.00000000000E+00 0. -1.
<scales pt_clust_3="40.04515" pt_clust_4="117.86393" pt_clust_5="40.04515" pt_clust_6="62.60736"></scales>
<clustering>
<clus scale="   40.045">  3  5 -1 -1</clus>
<clus scale="   62.607">  2  6  1 -1</clus>
<clus scale="  117.864">  1  4  2 -1</clus>
<clus scale="  117.864">  1  3  2 -1</clus>
</clustering>
</event>
<event>
 6    0  0.8641190E+002  0.7870675E+02  0.7546771E-02  0.1332762E+00
         21   -1    0    0  506  501  0.00000000000E+00  0.00000000000E+00  0.63034171830E+03  0.63034171830E+03  0.00000000000E+00 0. -1.
         21   -1    0    0  505  502 -0.00000000000E+00 -0.00000000000E+00 -0.76743330546E+03  0.76743330546E+03  0.00000000000E+00 0. -1.
         21    1    1    2  503  502 -0.12786778457E+02 -0.33253135064E+02 -0.13519420744E+03  0.13980967928E+03  0.00000000000E+00 0. -1.
         21    1    1    2  504  501  0.12472411137E+01 -0.47794233331E+02  0.61436068336E+03  0.61621821915E+03  0.00000000000E+00 0. -1.
         21    1    1    2  505  504 -0.68997864162E+02  0.73059903282E+01 -0.21674684449E+03  0.22758136425E+03  0.00000000000E+00 0. -1.
         21    1    1    2  506  503  0.80537401506E+02  0.73741378067E+02 -0.39951121859E+03  0.41416576109E+03  0.00000000000E+00 0. -1.
<scales pt_clust_3="35.62685" pt_clust_4="47.85903" pt_clust_5="14000.00000" pt_clust_6="78.70675"></scales>
<clustering>
<clus scale="   35.627">  2  3  1 -1</clus>
<clus scale="   47.859">  1  4  2 -1</clus>
<clus scale="   78.707">  2  6  1 -1</clus>
<clus scale="   47.859">  1  3  2 -1</clus>
</clustering>
</event>
<event>
 6    0  0.8641190E+002  0.7005778E+02  0.7546771E-02  0.1359897E+00
         21   -1    0    0  506  501  0.00000000000E+00  0.00000000000E+00  0.22360888576E+03  0.22360888576E+03  0.00000000000E+00 0.  1.
         21   -1    0    0  503  502 -0.00000000000E+00 -0.00000000000E+00 -0.15225938153E+03  0.15225938153E+03  0.00000000000E+00 0.  1.
         21    1    1    2  503  501 -0.13671885970E+03 -0.35365406059E+02  0.39558154980E+02  0.14665471751E+03  0.00000000000E+00 0.  1.
         21    1    1    2  504  505  0.53688541278E+02  0.43088806304E+01  0.23269360438E+02  0.58672728350E+02  0.00000000000E+00 0.  1.
         21    1    1    2  505  502  0.60766340243E+02  0.57004435049E+01 -0.65294217660E+02  0.89377726658E+02  0.00000000000E+00 0.  1.
         21    1    1    2  506  504  0.22263978178E+02  0.25356081924E+02  0.73816206475E+02  0.81163094773E+02  0.00000000000E+00 0.  1.
<scales pt_clust_3="70.05778" pt_clust_4="61.00933" pt_clust_5="14000.00000" pt_clust_6="33.74338"></scales>
<clustering>
<clus scale="   33.743">  1  6  2 -1</clus>
<clus scale="   61.009">  1  4  2 -1</clus>
<clus scale="   70.058">  1  3  2 -1</clus>
<clus scale="   33.743">  1  3  2 -1</clus>
</clustering>
</event>
<event>
 6    0  0.8641190E+002  0.1273958E+03  0.7546771E-02  0.1231372E+00
         21   -1    0    0  504  501  0.00000000000E+00  0.00000000000E+00  0.63976452252E+02  0.63976452252E+02  0.00000000000E+00 0.  1.
         21   -1    0    0  503  502 -0.00000000000E+00 -0.00000000000E+00 -0.38486927275E+03  0.38486927275E+03  0.00000000000E+00 0.  1.
         21    1    1    2  503  501  0.16656079420E+02 -0.34506075359E+02 -0.12917905088E+03  0.13474168399E+03  0.00000000000E+00 0.  1.
         21    1    1    2  504  505 -0.69613359896E+02 -0.84807762498E+02 -0.88905771901E+02  0.14121831586E+03  0.00000000000E+00 0.  1.
         21    1    1    2  505  506  0.15920282684E+01  0.61684570005E+02 -0.48825511904E+02  0.78685775992E+02  0.00000000000E+00 0.  1.
         21    1    1    2  506  502  0.51365252207E+02  0.57629267852E+02 -0.53982485809E+02  0.94199949159E+02  0.00000000000E+00 0.  1.
<scales pt_clust_3="38.31572" pt_clust_4="118.10996" pt_clust_5="40.62351" pt_clust_6="40.62351"></scales>
<clustering>
<clus scale="   38.316">  2  3  1 -1</clus>
<clus scale="   40.624">  5  6 -1 -1</clus>
<clus scale="  118.110">  1  4  2 -1</clus>
<clus scale="  118.110">  1  3  2 -1</clus>
</clustering>
</event>
<event>
 6    0  0.8641190E+002  0.1975878E+03  0.7546771E-02  0.1151790E+00
         21   -1    0    0  504  501  0.00000000000E+00  0.00000000000E+00  0.52021399357E+03  0.52021399357E+03  0.00000000000E+00 0.  1.
         21   -1    0    0  501  502 -0.00000000000E+00 -0.00000000000E+00 -0.86978948907E+02  0.86978948907E+02  0.00000000000E+00 0. -1.
         21    1    1    2  503  502 -0.20824955288E+02  0.50619174805E+02  0.55181560634E+02  0.77723768917E+02  0.00000000000E+00 0.  1.
         21    1    1    2  504  506  0.90136761271E+02 -0.74564241762E+02  0.17814028561E+03  0.21311598542E+03  0.00000000000E+00 0.  1.
         21    1    1    2  505  503 -0.11070524954E+03  0.78191747871E+02  0.38171936088E+02  0.14080730953E+03  0.00000000000E+00 0. -1.
         21    1    1    2  506  505  0.41393443560E+02 -0.54246680914E+02  0.16174126233E+03  0.17554587861E+03  0.00000000000E+00 0.  1.
<scales pt_clust_3="45.59849" pt_clust_4="188.51678" pt_clust_5="45.59849" pt_clust_6="30.98711"></scales>
<clustering>
<clus scale="   30.987">  4  6 -1 -1</clus>
<clus scale="   45.598">  3  5 -1 -1</clus>
<clus scale="  188.517">  1  4  2 -1</clus>
<clus scale="  188.517">  1  3  2 -1</clus>
</clustering>
</event>
<event>
 6    0  0.8641190E+002  0.8710557E+02  0.7546771E-02  0.1310016E+00
         21   -1    0    0  505  501  0.00000000000E+00  0.00000000000E+00  0.96638971704E+02  0.96638971704E+02  0.00000000000E+00 0. -1.
         21   -1    0    0  503  502 -0.00000000000E+00 -0.00000000000E+00 -0.20421744616E+04  0.20421744616E+04  0.00000000000E+00 0. -1.
         21    1    1    2  503  506  0.11935180632E+02  0.55815500447E+02 -0.17269521320E+04  0.17278951024E+04  0.00000000000E+00 0. -1.
         21    1    1    2  504  502  0.18173368050E+02 -0.95270980286E+02 -0.11708508040E+03  0.15203863668E+03  0.00000000000E+00 0. -1.
         21    1    1    2  505  504 -0.10619650121E+03  0.11661188710E+01 -0.13108569336E+03  0.16870837473E+03  0.00000000000E+00 0. -1.
         21    1    1    2  506  501  0.76087952523E+02  0.38289360968E+02  0.29587415870E+02  0.90171319500E+02  0.00000000000E+00 0. -1.
<scales pt_clust_3="57.07730" pt_clust_4="75.10649" pt_clust_5="14000.00000" pt_clust_6="87.10557"></scales>
<clustering>
<clus scale="   57.077">  2  3  1 -1</clus>
<clus scale="   75.106">  2  4  1 -1</clus>
<clus scale="   87.106">  1  6  2 -1</clus>
<clus scale="   87.106">  1  3  2 -1</clus>
</clustering>
</event>
<event>
 6    0  0.8641190E+002  0.1424047E+03  0.7546771E-02  0.1210129E+00
         21   -1    0    0  503  501  0.00000000000E+00  0.00000000000E+00  0.85884873650E+03  0.85884873650E+03  0.00000000000E+00 0.  1.
         21   -1    0    0  505  502 -0.00000000000E+00 -0.00000000000E+00 -0.33942253478E+03  0.33942253478E+03  0.00000000000E+00 0. -1.
         21    1    1    2  503  504  0.12308381088E+03 -0.74364741886E+02  0.80412080314E+03  0.81687820719E+03  0.00000000000E+00 0.  1.
         21    1    1    2  504  502 -0.50865060489E+02  0.81983447580E+02 -0.24751759839E+03  0.26565673635E+03  0.00000000000E+00 0. -1.
         21    1    1    2  505  506 -0.10713087655E+02  0.32746271437E+02 -0.21197482243E+02  0.40452710584E+02  0.00000000000E+00 0. -1.
         21    1    1    2  506  501 -0.61505662735E+02 -0.40364977131E+02 -0.15979520789E+02  0.75283617155E+02  0.00000000000E+00 0. -1.
<scales pt_clust_3="142.40468" pt_clust_4="14000.00000" pt_clust_5="34.45415" pt_clust_6="72.40300"></scales>
<clustering>
<clus scale="   34.454">  2  5  1 -1</clus>
<clus scale="   72.403">  2  6  1 -1</clus>
<clus scale="  142.405">  1  3  2 -1</clus>
<clus scale="  142.405">  1  3  2 -1</clus>
</clustering>
</event>
<event>
 6    0  0.8641190E+002  0.7175557E+02  0.7546771E-02  0.1354223E+00
         21   -1    0    0  503  501  0.00000000000E+00  0.00000000000E+00  0.23646360373E+03  0.23646360373E+03  0.00000000000E+00 0. -1.
         21   -1    0    0  506  502 -0.00000000000E+00 -0.00000000000E+00 -0.38999503825E+03  0.38999503825E+03  0.00000000000E+00 0. -1.
         21    1    1    2  503  502  0.31852882824E+02 -0.12788975795E+03 -0.69468980021E+02  0.14898434656E+03  0.00000000000E+00 0. -1.
         21    1    1    2  504  505  0.39069258542E+01  0.40860135939E+02  0.15304704784E+02  0.43806948845E+02  0.00000000000E+00 0.  1.
         21    1    1    2  505  501 -0.15314913048E+02  0.37883438578E+02  0.16192874150E+03  0.16700484665E+03  0.00000000000E+00 0. -1.
         21    1    1    2  506  504 -0.20444895631E+02  0.49146183437E+02 -0.26129590078E+03  0.26666249993E+03  0.00000000000E+00 0. -1.
<scales pt_clust_3="71.75557" pt_clust_4="14000.00000" pt_clust_5="40.86198" pt_clust_6="54.75198"></scales>
<clustering>
<clus scale="   40.862">  1  5  2 -1</clus>
<clus scale="   54.752">  2  6  1 -1</clus>
<clus scale="   71.756">  2  3  1 -1</clus>
<clus scale="   40.862">  1  3  2 -1</clus>
</clustering>
</event>
<event>
 6    0  0.8641190E+002  0.1214544E+03  0.7546771E-02  0.1240717E+00
         21   -1    0    0  505  501  0.00000000000E+00  0.00000000000E+00  0.18344727686E+03  0.18344727686E+03  0.00000000000E+00 0.  1.
         21   -1    0    0  503  502 -0.00000000000E+00 -0.00000000000E+00 -0.39881087155E+03  0.39881087155E+03  0.00000000000E+00 0.  1.
         21    1    1    2  503  501  0.89424935425E+02 -0.37934701494E+02 -0.54918382528E+02  0.11158803427E+03  0.00000000000E+00 0. -1.
         21    1    1    2  504  502 -0.44124417914E+02  0.59030811382E+02 -0.18504716006E+03  0.19918346416E+03  0.00000000000E+00 0.  1.
         21    1    1    2  505  506  0.82247938964E+01 -0.31128332372E+02  0.14012238169E+03  0.14377378816E+03  0.00000000000E+00 0.  1.
         21    1    1    2  506  504 -0.53525311408E+02  0.10032222484E+02 -0.11552043379E+03  0.12771286181E+03  0.00000000000E+00 0.  1.
<scales pt_clust_3="111.96431" pt_clust_4="41.19990" pt_clust_5="32.19659" pt_clust_6="41.19990"></scales>
<clustering>
<clus scale="   32.197">  1  5  2 -1</clus>
<clus scale="   41.200">  4  6 -1 -1</clus>
<clus scale="  111.964">  1  3  2 -1</clus>
<clus scale="   32.197">  1  3  2 -1</clus>
</clustering>
</event>
<event>
 6    0  0.8641190E+002  0.1056592E+03  0.7546771E-02  0.1268826E+00
         21   -1    0    0  505  501  0.00000000000E+00  0.00000000000E+00  0.23585399105E+04  0.23585399105E+04  0.00000000000E+00 0.  1.
         21   -1    0    0  506  502 -0.00000000000E+00 -0.00000000000E+00 -0.49969712179E+03  0.49969712179E+03  0.00000000000E+00 0. -1.
         21    1    1    2  503  501  0.51094400155E+02  0.70146587018E+02  0.16795054586E+02  0.88392619918E+02  0.00000000000E+00 0. -1.
         21    1    1    2  504  502 -0.83244982249E+02 -0.19811698568E+02 -0.43433040016E+03  0.44267948560E+03  0.00000000000E+00 0. -1.
         21    1    1    2  505  504  0.61241344047E+02 -0.18109003573E+02  0.22824368764E+04  0.22833301410E+04  0.00000000000E+00 0.  1.
         21    1    1    2  506  503 -0.29090761953E+02 -0.32225884877E+02 -0.60587420854E+01  0.43834785762E+02  0.00000000000E+00 0. -1.
<scales pt_clust_3="105.65916" pt_clust_4="14000.00000" pt_clust_5="63.84501" pt_clust_6="43.41405"></scales>
<clustering>
<clus scale="   43.414">  2  6  1 -1</clus>
<clus scale="   63.845">  1  5  2 -1</clus>
<clus scale="  105.659">  1  3  2 -1</clus>
<clus scale="   63.845">  1  3  2 -1</clus>
</clustering>
</event>
<event>
 6    0  0.8641190E+002  0.7428185E+02  0.7546771E-02  0.1346109E+00
         21   -1    0    0  503  501  0.00000000000E+00  0.00000000000E+00  0.12915053725E+04  0.12915053725E+04  0.00000000000E+00 0.  1.
         21   -1    0    0  504  502 -0.00000000000E+00 -0.00000000000E+00 -0.23190351262E+03  0.23190351262E+03  0.00000000000E+00 0.  1.
         21    1    1    2  503  506 -0.55488074247E+02  0.49641827487E+02  0.12141397878E+04  0.12164204296E+04  0.00000000000E+00 0.  1.
         21    1    1    2  504  501 -0.32253552952E+02  0.48010992084E+02 -0.97875628408E+02  0.11368810701E+03  0.00000000000E+00 0.  1.
         21    1    1    2  505  502  0.47226777412E+01 -0.88294786602E+02 -0.64415480121E+02  0.10939665034E+03  0.00000000000E+00 0.  1.
         21    1    1    2  506  505  0.83018949458E+02 -0.93580329687E+01  0.77531806506E+01  0.83903698132E+02  0.00000000000E+00 0.  1.
<scales pt_clust_3="74.28185" pt_clust_4="57.83898" pt_clust_5="57.91975" pt_clust_6="14000.00000"></scales>
<clustering>
<clus scale="   57.839">  2  4  1 -1</clus>
<clus scale="   57.920">  2  5  1 -1</clus>
<clus scale="   74.282">  1  3  2 -1</clus>
<clus scale="   74.282">  1  3  2 -1</clus>
</clustering>
</event>
<event>
 6    0  0.8641190E+002  0.1971573E+03  0.7546771E-02  0.1152160E+00
         21   -1    0    0  503  501  0.00000000000E+00  0.00000000000E+00  0.25720807779E+02  0.25720807779E+02  0.00000000000E+00 0.  1.
         21   -1    0    0  505  502 -0.00000000000E+00 -0.00000000000E+00 -0.15066516537E+04  0.15066516537E+04  0.00000000000E+00 0.  1.
         21    1    1    2  503  502 -0.15391177323E+03  0.81900935717E+02 -0.95325012003E+03  0.96906263397E+03  0.00000000000E+00 0.  1.
         21    1    1    2  504  501  0.39277441355E+02 -0.44992379863E+02 -0.10654796043E+03  0.12214540317E+03  0.00000000000E+00 0.  1.
         21    1    1    2  505  506  0.76995708480E+02 -0.49003867424E+02 -0.31282455380E+03  0.32586641375E+03  0.00000000000E+00 0.  1.
         21    1    1    2  506  504  0.37638623399E+02  0.12095311570E+02 -0.10830821167E+03  0.11529801060E+03  0.00000000000E+00 0.  1.
<scales pt_clust_3="174.34620" pt_clust_4="45.00366" pt_clust_5="45.00366" pt_clust_6="34.63915"></scales>
<clustering>
<clus scale="   34.639">  5  6 -1 -1</clus>
<clus scale="   45.004">  4  5 -1 -1</clus>
<clus scale="  174.346">  2  3  1 -1</clus>
<clus scale="  197.157">  1  3  2 -1</clus>
</clustering>
</event>
<event>
 6    0  0.8641190E+002  0.1489764E+03  0.7546771E-02  0.1201736E+00
         21   -1    0    0  502  501  0.00000000000E+00  0.00000000000E+00  0.76840987162E+03  0.76840987162E+03  0.00000000000E+00 0. -1.
         21   -1    0    0  505  502 -0.00000000000E+00 -0.00000000000E+00 -0.20569421694E+03  0.20569421694E+03  0.00000000000E+00 0. -1.
         21    1    1    2  503  504  0.38592303779E+02 -0.11479891622E+03  0.34740005611E+03  0.36790617834E+03  0.00000000000E+00 0. -1.
         21    1    1    2  504  501 -0.60927503618E+02 -0.39673761298E+02  0.31076604795E+03  0.31915780516E+03  0.00000000000E+00 0. -1.
         21    1    1    2  505  506 -0.30468528955E+02 -0.83562684976E+01 -0.11076208913E+03  0.11517985444E+03  0.00000000000E+00 0. -1.
         21    1    1    2  506  503  0.52803728794E+02  0.16282894601E+03  0.15311639741E+02  0.17186025063E+03  0.00000000000E+00 0. -1.
<scales pt_clust_3="14000.00000" pt_clust_4="74.06905" pt_clust_5="31.59365" pt_clust_6="148.97642"></scales>
<clustering>
<clus scale="   31.594">  2  5  1 -1</clus>
<clus scale="   74.069">  1  4  2 -1</clus>
<clus scale="  148.976">  2  6  1 -1</clus>
<clus scale="   74.069">  1  3  2 -1</clus>
</clustering>
</event>
<event>
 6    0  0.8641190E+002  0.1654816E+03  0.7546771E-02  0.1182643E+00
         21   -1    0    0  505  501  0.00000000000E+00  0.00000000000E+00  0.35305425458E+03  0.35305425458E+03  0.00000000000E+00 0. -1.
         21   -1    0    0  504  502 -0.00000000000E+00 -0.00000000000E+00 -0.82736496456E+03  0.82736496456E+03  0.00000000000E+00 0. -1.
         21    1    1    2  503  501 -0.91887040343E+02 -0.17921637976E+02  0.27009655315E+02  0.97436824512E+02  0.00000000000E+00 0. -1.
         21    1    1    2  504  503  0.15134591939E+03 -0.76175871133E+02 -0.76269224666E+03  0.78128599998E+03  0.00000000000E+00 0. -1.
         21    1    1    2  505  506  0.21976018339E+02  0.31833944208E+02  0.12654295681E+03  0.13232333620E+03  0.00000000000E+00 0. -1.
         21    1    1    2  506  502 -0.81434897382E+02  0.62263564902E+02  0.13482892456E+03  0.16937305844E+03  0.00000000000E+00 0. -1.
<scales pt_clust_3="86.24971" pt_clust_4="14000.00000" pt_clust_5="38.68262" pt_clust_6="165.48163"></scales>
<clustering>
<clus scale="   38.683">  1  5  2 -1</clus>
<clus scale="   86.250">  1  3  2 -1</clus>
<clus scale="  165.482">  1  6  2 -1</clus>
<clus scale="   38.683">  1  3  2 -1</clus>
</clustering>
</event>
<event>
 6    0  0.8641190E+002  0.1215147E+03  0.7546771E-02  0.1240619E+00
         21   -1    0    0  504  501  0.00000000000E+00  0.00000000000E+00  0.11620159753E+03  0.11620159753E+03  0.00000000000E+00 0.  1.
         21   -1    0    0  505  502 -0.00000000000E+00 -0.00000000000E+00 -0.59479132429E+03  0.59479132429E+03  0.00000000000E+00 0.  1.
         21    1    1    2  503  501  0.52545005702E+02  0.41289526975E+02  0.73089012088E+02  0.99034369540E+02  0.00000000000E+00 0.  1.
         21    1    1    2  504  506 -0.71282762165E+02 -0.27209244139E+02 -0.33445657451E+03  0.34304923172E+03  0.00000000000E+00 0.  1.
         21    1    1    2  505  503  0.62160742224E+02  0.30724122165E+02 -0.37854168992E+02  0.78999162443E+02  0.00000000000E+00 0.  1.
         21    1    1    2  506  502 -0.43422985761E+02 -0.44804405002E+02 -0.17936799535E+03  0.18991015811E+03  0.00000000000E+00 0.  1.
<scales pt_clust_3="66.82666" pt_clust_4="37.13838" pt_clust_5="114.36420" pt_clust_6="37.13838"></scales>
<clustering>
<clus scale="   37.138">  4  6 -1 -1</clus>
<clus scale="   66.827">  1  3  2 -1</clus>
<clus scale="  114.364">  1  5  2 -1</clus>
<clus scale="   66.827">  1  3  2 -1</clus>
</clustering>
</event>
<event>
 6    0  0.8641190E+002  0.9153194E+02  0.7546771E-02  0.1299184E+00
         21   -1    0    0  503  501  0.00000000000E+00  0.00000000000E+00  0.11742515034E+03  0.11742515034E+03  0.00000000000E+00 0. -1.
         21   -1    0    0  505  502 -0.00000000000E+00 -0.00000000000E+00 -0.19376389565E+03  0.19376389565E+03  0.00000000000E+00 0. -1.
         21    1    1    2  503  502 -0.39640489029E+02  0.10944781755E+03 -0.28658754967E+02  0.11988126364E+03  0.00000000000E+00 0. -1.
         21    1    1    2  504  501  0.36822022637E+02  0.37317513930E+01  0.17772564279E+02  0.41056684724E+02  0.00000000000E+00 0. -1.
         21    1    1    2  505  506  0.15066768194E+02 -0.33937785996E+02 -0.59126390877E+02  0.69819130045E+02  0.00000000000E+00 0.  1.
         21    1    1    2  506  504 -0.12248301801E+02 -0.79241782946E+02 -0.63261637476E+01  0.80431967583E+02  0.00000000000E+00 0. -1.
<scales pt_clust_3="91.53194" pt_clust_4="37.01064" pt_clust_5="37.89264" pt_clust_6="14000.00000"></scales>
<clustering>
<clus scale="   37.011">  1  4  2 -1</clus>
<clus scale="   37.893">  2  5  1 -1</clus>
<clus scale="   91.532">  2  3  1 -1</clus>
<clus scale="   37.011">  1  3  2 -1</clus>
</clustering>
</event>
<event>
 6    0  0.8641190E+002  0.1435558E+03  0.7546771E-02  0.1208623E+00
         21   -1    0    0  503  501  0.00000000000E+00  0.00000000000E+00  0.13594752369E+04  0.13594752369E+04  0.00000000000E+00 0.  1.
         21   -1    0    0  504  502 -0.00000000000E+00 -0.00000000000E+00 -0.11318634962E+03  0.11318634962E+03  0.00000000000E+00 0.  1.
         21    1    1    2  503  505 -0.40465387997E-01  0.13344276857E+03  0.85546476810E+03  0.86580999277E+03  0.00000000000E+00 0.  1.
         21    1    1    2  504  506 -0.11234177054E+02 -0.42818446925E+02 -0.18892396065E+02  0.48130538749E+02  0.00000000000E+00 0.  1.
         21    1    1    2  505  502 -0.35745356434E+02  0.13988537772E+03  0.14636477965E+03  0.20559255368E+03  0.00000000000E+00 0.  1.
         21    1    1    2  506  501  0.47019998876E+02 -0.23050969937E+03  0.26335173560E+03  0.35312850131E+03  0.00000000000E+00 0.  1.
<scales pt_clust_3="14000.00000" pt_clust_4="44.26766" pt_clust_5="130.23959" pt_clust_6="143.55579"></scales>
<clustering>
<clus scale="   44.268">  2  4  1 -1</clus>
<clus scale="  130.240">  2  5  1 -1</clus>
<clus scale="  143.556">  2  6  1 -1</clus>
<clus scale="  143.556">  1  3  2 -1</clus>
</clustering>
</event>
<event>
 6    0  0.8641190E+002  0.1393377E+03  0.7546771E-02  0.1214223E+00
         21   -1    0    0  504  501  0.00000000000E+00  0.00000000000E+00  0.24295212848E+03  0.24295212848E+03  0.00000000000E+00 0.  1.
         21   -1    0    0  505  502 -0.00000000000E+00 -0.00000000000E+00 -0.20528219131E+03  0.20528219131E+03  0.00000000000E+00 0.  1.
         21    1    1    2  503  502  0.23102503400E+02  0.12006845371E+03 -0.86829125249E+02  0.14996484999E+03  0.00000000000E+00 0.  1.
         21    1    1    2  504  503  0.74938719017E+02 -0.68200555366E+01  0.11409793462E+03  0.13667722360E+03  0.00000000000E+00 0.  1.
         21    1    1    2  505  506 -0.42241348698E+02 -0.92365597769E+02  0.94508409950E+01  0.10200516451E+03  0.00000000000E+00 0.  1.
         21    1    1    2  506  501 -0.55799873719E+02 -0.20882800407E+02  0.95028680556E+00  0.59587081695E+02  0.00000000000E+00 0. -1.
<scales pt_clust_3="125.89043" pt_clust_4="75.24842" pt_clust_5="45.74040" pt_clust_6="45.74040"></scales>
<clustering>
<clus scale="   45.740">  5  6 -1 -1</clus>
<clus scale="   75.248">  1  4  2 -1</clus>
<clus scale="  125.890">  2  3  1 -1</clus>
<clus scale="   75.248">  1  3  2 -1</clus>
</clustering>
</event>
<event>
 6    0  0.8641190E+002  0.7367850E+02  0.7546771E-02  0.1348013E+00
         21   -1    0    0  506  501  0.00000000000E+00  0.00000000000E+00  0.57133843752E+03  0.57133843752E+03  0.00000000000E+00 0. -1.
         21   -1    0    0  503  502 -0.00000000000E+00 -0.00000000000E+00 -0.18569394747E+03  0.18569394747E+03  0.00000000000E+00 0. -1.
         21    1    1    2  503  505 -0.48950342333E+02 -0.59944826999E+02 -0.77846133788E+02  0.10977039147E+03  0.00000000000E+00 0. -1.
         21    1    1    2  504  502 -0.18857611675E+02  0.49647640967E+02 -0.18138016695E+02  0.56120276383E+02  0.00000000000E+00 0. -1.
         21    1    1    2  505  501  0.14882151221E+02 -0.53965572005E+02  0.50226135230E+03  0.50537137573E+03  0.00000000000E+00 0. -1.
         21    1    1    2  506  504  0.52925802787E+02  0.64262758037E+02 -0.20632711766E+02  0.85770341412E+02  0.00000000000E+00 0. -1.
<scales pt_clust_3="73.67850" pt_clust_4="53.10836" pt_clust_5="55.42660" pt_clust_6="14000.00000"></scales>
<clustering>
<clus scale="   53.108">  2  4  1 -1</clus>
<clus scale="   55.427">  1  5  2 -1</clus>
<clus scale="   73.678">  2  3  1 -1</clus>
<clus scale="   55.427">  1  3  2 -1</clus>
</clustering>
</event>
<event>
 6    0  0.8641190E+002  0.9319738E+02  0.7546771E-02  0.1295288E+00
         21   -1    0    0  506  501  0.00000000000E+00  0.00000000000E+00  0.27504765432E+03  0.27504765432E+03  0.00000000000E+00 0.  1.
         21   -1    0    0  504  502 -0.00000000000E+00 -0.00000000000E+00 -0.42444241792E+03  0.42444241792E+03  0.00000000000E+00 0. -1.
         21    1    1    2  503  502  0.53014407259E+02  0.71289866464E+02 -0.27987723091E+03  0.29363929713E+03  0.00000000000E+00 0. -1.
         21    1    1    2  504  505  0.28454032683E+02 -0.19003317654E+02 -0.63511180697E+02  0.72141722542E+02  0.00000000000E+00 0. -1.
         21    1    1    2  505  501 -0.44641320971E+02  0.44041745161E+02  0.21882539309E+03  0.22763364319E+03  0.00000000000E+00 0.  1.
         21    1    1    2  506  503 -0.36827118971E+02 -0.96328293970E+02 -0.24831745074E+02  0.10607540938E+03  0.00000000000E+00 0.  1.
<scales pt_clust_3="14000.00000" pt_clust_4="34.21634" pt_clust_5="62.29491" pt_clust_6="93.19738"></scales>
<clustering>
<clus scale="   34.216">  2  4  1 -1</clus>
<clus scale="   62.295">  1  5  2 -1</clus>
<clus scale="   93.197">  1  6  2 -1</clus>
<clus scale="   62.295">  1  3  2 -1</clus>
</clustering>
</event>
<event>
 6    0  0.8641190E+002  0.1065740E+03  0.7546771E-02  0.1267049E+00
         21   -1    0    0  504  501  0.00000000000E+00  0.00000000000E+00  0.13118365232E+03  0.13118365232E+03  0.00000000000E+00 0.  1.
         21   -1    0    0  506  502 -0.00000000000E+00 -0.00000000000E+00 -0.10717419682E+04  0.10717419682E+04  0.00000000000E+00 0. -1.
         21    1    1    2  503  505 -0.21173915531E+02  0.12425112337E+03 -0.59639412175E+02  0.13944007976E+03  0.00000000000E+00 0.  1.
         21    1    1    2  504  503  0.15126802010E+02  0.40586410535E+02  0.70627581159E+02  0.82851264803E+02  0.00000000000E+00 0.  1.
         21    1    1    2  505  502 -0.15481190064E+02 -0.10433639216E+03 -0.87221119690E+03  0.87856594629E+03  0.00000000000E+00 0. -1.
         21    1    1    2  506  501  0.21528303586E+02 -0.60501141745E+02 -0.79335287966E+02  0.10206832968E+03  0.00000000000E+00 0.  1.
<scales pt_clust_3="14000.00000" pt_clust_4="43.31370" pt_clust_5="106.57403" pt_clust_6="57.58738"></scales>
<clustering>
<clus scale="   43.314">  1  4  2 -1</clus>
<clus scale="   57.587">  1  6  2 -1</clus>
<clus scale="  106.574">  2  5  1 -1</clus>
<clus scale="   43.314">  1  3  2 -1</clus>
</clustering>
</event>
<event>
 6    0  0.8641190E+002  0.1047876E+03  0.7546771E-02  0.1270539E+00
         21   -1    0    0  503  501  0.00000000000E+00  0.00000000000E+00  0.11289949385E+04  0.11289949385E+04  0.00000000000E+00 0. -1.
         21   -1    0    0  506  502 -0.00000000000E+00 -0.00000000000E+00 -0.34521230285E+02  0.34521230285E+02  0.00000000000E+00 0. -1.
         21    1    1    2  503  504 -0.50249057778E+02  0.10691721437E+02  0.57879005116E+03  0.58106557636E+03  0.00000000000E+00 0. -1.
         21    1    1    2  504  505 -0.29953639704E+02  0.61763848169E+02  0.26150125386E+03  0.27036068361E+03  0.00000000000E+00 0. -1.
         21    1    1    2  505  502  0.11624428181E+03 -0.67282155057E+02  0.14810172191E+03  0.19993434291E+03  0.00000000000E+00 0. -1.
         21    1    1    2  506  501 -0.36041584332E+02 -0.51734145482E+01  0.10608068129E+03  0.11215556590E+03  0.00000000000E+00 0. -1.
<scales pt_clust_3="71.16646" pt_clust_4="104.78761" pt_clust_5="14000.00000" pt_clust_6="36.41099"></scales>
<clustering>
<clus scale="   36.411">  1  6  2 -1</clus>
<clus scale="   71.166">  1  3  2 -1</clus>
<clus scale="  104.788">  1  4  2 -1</clus>
<clus scale="   36.411">  1  3  2 -1</clus>
</clustering>
</event>
<event>
 6    0  0.8641190E+002  0.1175783E+03  0.7546771E-02  0.1247146E+00
         21   -1    0    0  506  501  0.00000000000E+00  0.00000000000E+00  0.58397321285E+03  0.58397321285E+03  0.00000000000E+00 0.  1.
         21   -1    0    0  501  502 -0.00000000000E+00 -0.00000000000E+00 -0.72850632826E+02  0.72850632826E+02  0.00000000000E+00 0. -1.
         21    1    1    2  503  504  0.11050403731E+03 -0.36993127220E+02  0.10749422028E+03  0.15853908388E+03  0.00000000000E+00 0. -1.
         21    1    1    2  504  505 -0.44188034007E+02  0.28532002867E+02  0.30484927873E+02  0.60794640919E+02  0.00000000000E+00 0. -1.
         21    1    1    2  505  502 -0.48452096531E+02  0.32776682476E+02 -0.44751256560E+01  0.58668077538E+02  0.00000000000E+00 0. -1.
         21    1    1    2  506  503 -0.17863906773E+02 -0.24315558123E+02  0.37761855753E+03  0.37882204334E+03  0.00000000000E+00 0.  1.
<scales pt_clust_3="112.11950" pt_clust_4="33.75598" pt_clust_5="33.75598" pt_clust_6="30.17226"></scales>
<clustering>
<clus scale="   30.172">  1  6  2 -1</clus>
<clus scale="   33.756">  4  5 -1 -1</clus>
<clus scale="  112.120">  1  3  2 -1</clus>
<clus scale="   30.172">  1  3  2 -1</clus>
</clustering>
</event>
<event>
 6    0  0.8641190E+002  0.9928208E+02  0.7546771E-02  0.1281813E+00
         21   -1    0    0  503  501  0.00000000000E+00  0.00000000000E+00  0.11096397832E+03  0.11096397832E+03  0.00000000000E+00 0.  1.
         21   -1    0    0  504  502 -0.00000000000E+00 -0.00000000000E+00 -0.49666515209E+03  0.49666515209E+03  0.00000000000E+00 0.  1.
         21    1    1    2  503  502  0.72084383121E+02  0.82837859272E+02 -0.22836690755E+03  0.25339635689E+03  0.00000000000E+00 0.  1.
         21    1    1    2  504  506 -0.38785474621E+02 -0.82969229817E+02 -0.17345541697E+03  0.19615042140E+03  0.00000000000E+00 0.  1.
         21    1    1    2  505  501  0.29910403007E+02 -0.18911553750E+02  0.66305331949E+02  0.75157675045E+02  0.00000000000E+00 0.  1.
         21    1    1    2  506  505 -0.63209311507E+02  0.19042924295E+02 -0.50184181196E+02  0.82924677083E+02  0.00000000000E+00 0.  1.
<scales pt_clust_3="14000.00000" pt_clust_4="99.28208" pt_clust_5="35.38756" pt_clust_6="52.28536"></scales>
<clustering>
<clus scale="   35.388">  1  5  2 -1</clus>
<clus scale="   52.285">  1  6  2 -1</clus>
<clus scale="   99.282">  2  4  1 -1</clus>
<clus scale="   35.388">  1  3  2 -1</clus>
</clustering>
</event>
<event>
 6    0  0.8641190E+002  0.8196148E+02  0.7546771E-02  0.1323575E+00
         21   -1    0    0  505  501  0.00000000000E+00  0.00000000000E+00  0.32781569829E+03  0.32781569829E+03  0.00000000000E+00 0.  1.
         21   -1    0    0  501  502 -0.00000000000E+00 -0.00000000000E+00 -0.15649480506E+03  0.15649480506E+03  0.00000000000E+00 0. -1.
         21    1    1    2  503  504 -0.57988567679E+02 -0.50185496920E+02 -0.12576138730E+02  0.77713688292E+02  0.00000000000E+00 0. -1.
         21    1    1    2  504  502  0.93532230395E+02  0.12069940124E+02 -0.36921120792E+02  0.10127749374E+03  0.00000000000E+00 0. -1.
         21    1    1    2  505  506  0.29103097549E+02  0.22820536427E+02  0.23457992926E+03  0.23747738920E+03  0.00000000000E+00 0.  1.
         21    1    1    2  506  503 -0.64646760264E+02  0.15295020369E+02 -0.13761776517E+02  0.67841932119E+02  0.00000000000E+00 0. -1.
<scales pt_clust_3="14000.00000" pt_clust_4="81.96148" pt_clust_5="36.98334" pt_clust_6="60.24101"></scales>
<clustering>
<clus scale="   36.983">  1  5  2 -1</clus>
<clus scale="   60.241">  1  6  2 -1</clus>
<clus scale="   81.961">  2  4  1 -1</clus>
<clus scale="   36.983">  1  3  2 -1</clus>
</clustering>
</event>
<event>
 6    0  0.8641190E+002  0.2108318E+03  0.7546771E-02  0.1140909E+00
         21   -1    0    0  505  501  0.00000000000E+00  0.00000000000E+00  0.50943586133E+03  0.50943586133E+03  0.00000000000E+00 0.  1.
         21   -1    0    0  504  502 -0.00000000000E+00 -0.00000000000E+00 -0.94588541473E+03  0.94588541473E+03  0.00000000000E+00 0. -1.
         21    1    1    2  503  502 -0.69447649321E+01 -0.50367431387E+02 -0.34426556177E+02  0.61402733446E+02  0.00000000000E+00 0. -1.
         21    1    1    2  504  501  0.19811221561E+03 -0.25190661481E+02 -0.79203989748E+03  0.81682936933E+03  0.00000000000E+00 0. -1.
         21    1    1    2  505  506  0.53492282077E+02 -0.24946829536E+01  0.30033507311E+03  0.30507180110E+03  0.00000000000E+00 0.  1.
         21    1    1    2  506  503 -0.24465973276E+03  0.78052775822E+02  0.89681827149E+02  0.27201737218E+03  0.00000000000E+00 0.  1.
<scales pt_clust_3="50.84396" pt_clust_4="14000.00000" pt_clust_5="53.53848" pt_clust_6="210.83177"></scales>
<clustering>
<clus scale="   50.844">  2  3  1 -1</clus>
<clus scale="   53.538">  1  5  2 -1</clus>
<clus scale="  210.832">  1  6  2 -1</clus>
<clus scale="   53.538">  1  3  2 -1</clus>
</clustering>
</event>
<event>
 6    0  0.8641190E+002  0.2008876E+03  0.7546771E-02  0.1148992E+00
         21   -1    0    0  505  501  0.00000000000E+00  0.00000000000E+00  0.21606760921E+03  0.21606760921E+03  0.00000000000E+00 0.  1.
         21   -1    0    0  504  502 -0.00000000000E+00 -0.00000000000E+00 -0.24507928693E+03  0.24507928693E+03  0.00000000000E+00 0.  1.
         21    1    1    2  503  506  0.75047552866E+02 -0.34077608045E+02 -0.27233782425E+02  0.86804939182E+02  0.00000000000E+00 0.  1.
         21    1    1    2  504  503  0.11266098716E+03  0.14094725094E+02  0.15933477333E+02  0.11465179895E+03  0.00000000000E+00 0.  1.
         21    1    1    2  505  502  0.13354234076E+01  0.30255625230E+02 -0.58635440070E+02  0.65994704681E+02  0.00000000000E+00 0.  1.
         21    1    1    2  506  501 -0.18904396343E+03 -0.10272742278E+02  0.40924067434E+02  0.19369545333E+03  0.00000000000E+00 0.  1.
<scales pt_clust_3="57.65345" pt_clust_4="57.65345" pt_clust_5="30.28508" pt_clust_6="188.50076"></scales>
<clustering>
<clus scale="   30.285">  2  5  1 -1</clus>
<clus scale="   57.653">  3  4 -1 -1</clus>
<clus scale="  188.501">  1  6  2 -1</clus>
<clus scale="  188.501">  1  3  2 -1</clus>
</clustering>
</event>
<event>
 6    0  0.8641190E+002  0.1695179E+03  0.7546771E-02  0.1178352E+00
         21   -1    0    0  503  501  0.00000000000E+00  0.00000000000E+00  0.12744957784E+03  0.12744957784E+03  0.00000000000E+00 0.  1.
         21   -1    0    0  505  502 -0.00000000000E+00 -0.00000000000E+00 -0.15977421909E+04  0.15977421909E+04  0.00000000000E+00 0. -1.
         21    1    1    2  503  502  0.52493598761E+02  0.14505174823E+02 -0.10985036915E+04  0.10998528712E+04  0.00000000000E+00 0. -1.
         21    1    1    2  504  501 -0.15290090886E+03 -0.66023478524E+02  0.58908190955E+02  0.17665775559E+03  0.00000000000E+00 0.  1.
         21    1    1    2  505  506  0.34512787589E+02  0.38046479181E+02 -0.11580647435E+03  0.12668783125E+03  0.00000000000E+00 0. -1.
         21    1    1    2  506  504  0.65894522512E+02  0.13471824520E+02 -0.31489063818E+03  0.32199331075E+03  0.00000000000E+00 0. -1.
<scales pt_clust_3="54.46079" pt_clust_4="160.17905" pt_clust_5="48.49317" pt_clust_6="48.49317"></scales>
<clustering>
<clus scale="   48.493">  5  6 -1 -1</clus>
<clus scale="   54.461">  2  3  1 -1</clus>
<clus scale="  160.179">  1  4  2 -1</clus>
<clus scale="  160.179">  1  3  2 -1</clus>
</clustering>
</event>
<event>
 6    0  0.8641190E+002  0.1451694E+03  0.7546771E-02  0.1206538E+00
         21   -1    0    0  506  501  0.00000000000E+00  0.00000000000E+00  0.50503394020E+03  0.50503394020E+03  0.00000000000E+00 0. -1.
         21   -1    0    0  505  502 -0.00000000000E+00 -0.00000000000E+00 -0.63179235439E+03  0.63179235439E+03  0.00000000000E+00 0. -1.
         21    1    1    2  503  501 -0.13041284014E+02 -0.56541648573E+02  0.15422427898E+02  0.60040689490E+02  0.00000000000E+00 0. -1.
         21    1    1    2  504  503  0.26294307059E+02 -0.58796393396E+02 -0.20075688137E+02  0.67464358844E+02  0.00000000000E+00 0. -1.
         21    1    1    2  505  504  0.96362871979E+01  0.13789360187E+03 -0.55666706764E+03  0.57357277451E+03  0.00000000000E+00 0. -1.
         21    1    1    2  506  502 -0.22889310243E+02 -0.22555559900E+02  0.43456191368E+03  0.43574847175E+03  0.00000000000E+00 0. -1.
<scales pt_clust_3="50.95240" pt_clust_4="50.95240" pt_clust_5="135.33953" pt_clust_6="32.13524"></scales>
<clustering>
<clus scale="   32.135">  1  6  2 -1</clus>
<clus scale="   50.952">  3  4 -1 -1</clus>
<clus scale="  135.340">  2  5  1 -1</clus>
<clus scale="   32.135">  1  3  2 -1</clus>
</clustering>
</event>
<event>
 6    0  0.8641190E+002  0.1369300E+03  0.7546771E-02  0.1217521E+00
         21   -1    0    0  504  501  0.00000000000E+00  0.00000000000E+00  0.59841637096E+02  0.59841637096E+02  0.00000000000E+00 0.  1.
         21   -1    0    0  503  502 -0.00000000000E+00 -0.00000000000E+00 -0.31218918120E+03  0.31218918120E+03  0.00000000000E+00 0.  1.
         21    1    1    2  503  505 -0.43863674807E+02 -0.17571659303E+02 -0.30524929769E+02  0.56254391078E+02  0.00000000000E+00 0.  1.
         21    1    1    2  504  506  0.74800399494E+02 -0.13737032491E+02 -0.45741883872E+02  0.88747539494E+02  0.00000000000E+00 0.  1.
         21    1    1    2  505  501 -0.77594554041E+02  0.39171794176E+02 -0.72631972853E+02  0.11327289065E+03  0.00000000000E+00 0.  1.
         21    1    1    2  506  502  0.46657829353E+02 -0.78631023825E+01 -0.10344875761E+03  0.11375599707E+03  0.00000000000E+00 0.  1.
<scales pt_clust_3="39.56449" pt_clust_4="46.87148" pt_clust_5="134.52937" pt_clust_6="46.87148"></scales>
<clustering>
<clus scale="   39.564">  3  5 -1 -1</clus>
<clus scale="   46.871">  4  6 -1 -1</clus>
<clus scale="  134.529">  1  3  2 -1</clus>
<clus scale="  134.529">  1  3  2 -1</clus>
</clustering>
</event>
<event>
 6    0  0.8641190E+002  0.8717962E+02  0.7546771E-02  0.1309829E+00
         21   -1    0    0  506  501  0.00000000000E+00  0.00000000000E+00  0.41995830404E+03  0.41995830404E+03  0.00000000000E+00 0.  1.
         21   -1    0    0  504  502 -0.00000000000E+00 -0.00000000000E+00 -0.12499459375E+03  0.12499459375E+03  0.00000000000E+00 0. -1.
         21    1    1    2  503  502 -0.64767763451E+01 -0.13300302732E+03  0.12264164897E+03  0.18103239481E+03  0.00000000000E+00 0.  1.
         21    1    1    2  504  505 -0.15460506551E+02  0.45044658607E+02 -0.67248174410E+02  0.82403674028E+02  0.00000000000E+00 0. -1.
         21    1    1    2  505  501  0.18884467397E+02  0.53558574431E+02  0.21492076946E+02  0.60721111447E+02  0.00000000000E+00 0.  1.
         21    1    1    2  506  503  0.30528154986E+01  0.34399794282E+02  0.21807815879E+03  0.22079571751E+03  0.00000000000E+00 0.  1.
<scales pt_clust_3="87.17962" pt_clust_4="48.81904" pt_clust_5="14000.00000" pt_clust_6="34.53499"></scales>
<clustering>
<clus scale="   34.535">  1  6  2 -1</clus>
<clus scale="   48.819">  2  4  1 -1</clus>
<clus scale="   87.180">  1  3  2 -1</clus>
<clus scale="   34.535">  1  3  2 -1</clus>
</clustering>
</event>
<event>
 6    0  0.8641190E+002  0.1070283E+03  0.7546771E-02  0.1266174E+00
         21   -1    0    0  504  501  0.00000000000E+00  0.00000000000E+00  0.50135896860E+03  0.50135896860E+03  0.00000000000E+00 0. -1.
         21   -1    0    0  503  502 -0.00000000000E+00 -0.00000000000E+00 -0.21414957445E+04  0.21414957445E+04  0.00000000000E+00 0. -1.
         21    1    1    2  503  501  0.11218677585E+03  0.62145425202E+02 -0.23103250908E+02  0.13031380108E+03  0.00000000000E+00 0. -1.
         21    1    1    2  504  506  0.40907047151E+01  0.43383352787E+02  0.39281168401E+03  0.39522129024E+03  0.00000000000E+00 0. -1.
         21    1    1    2  505  502 -0.56122645826E+02 -0.12153562403E+02 -0.20053314857E+04  0.20061534906E+04  0.00000000000E+00 0. -1.
         21    1    1    2  506  505 -0.60154834743E+02 -0.93375215586E+02 -0.45137233747E+01  0.11116613121E+03  0.00000000000E+00 0.  1.
<scales pt_clust_3="107.02835" pt_clust_4="43.57579" pt_clust_5="57.37327" pt_clust_6="14000.00000"></scales>
<clustering>
<clus scale="   43.576">  1  4  2 -1</clus>
<clus scale="   57.373">  2  5  1 -1</clus>
<clus scale="  107.028">  2  3  1 -1</clus>
<clus scale="   43.576">  1  3  2 -1</clus>
</clustering>
</event>
<event>
 6    0  0.8641190E+002  0.1021237E+03  0.7546771E-02  0.1275892E+00
         21   -1    0    0  503  501  0.00000000000E+00  0.00000000000E+00  0.40277010012E+03  0.40277010012E+03  0.00000000000E+00 0. -1.
         21   -1    0    0  505  502 -0.00000000000E+00 -0.00000000000E+00 -0.27462504619E+03  0.27462504619E+03  0.00000000000E+00 0. -1.
         21    1    1    2  503  502 -0.41619256928E+02  0.11455224137E+02  0.11920185061E+02  0.44782535873E+02  0.00000000000E+00 0. -1.
         21    1    1    2  504  501  0.18505174063E+02  0.10025425492E+03  0.34940048164E+03  0.36396985269E+03  0.00000000000E+00 0. -1.
         21    1    1    2  505  506  0.13688337165E+02 -0.44668026716E+02 -0.16907311809E+03  0.17540901472E+03  0.00000000000E+00 0. -1.
         21    1    1    2  506  504  0.94257457004E+01 -0.67041452346E+02 -0.64102494675E+02  0.93233743024E+02  0.00000000000E+00 0. -1.
<scales pt_clust_3="43.16694" pt_clust_4="14000.00000" pt_clust_5="46.52352" pt_clust_6="102.12373"></scales>
<clustering>
<clus scale="   43.167">  1  3  2 -1</clus>
<clus scale="   46.524">  2  5  1 -1</clus>
<clus scale="  102.124">  2  6  1 -1</clus>
<clus scale="   43.167">  1  3  2 -1</clus>
</clustering>
</event>
<event>
 6    0  0.8641190E+002  0.9134172E+02  0.7546771E-02  0.1299635E+00
         21   -1    0    0  505  501  0.00000000000E+00  0.00000000000E+00  0.13203984437E+03  0.13203984437E+03  0.00000000000E+00 0.  1.
         21   -1    0    0  506  502 -0.00000000000E+00 -0.00000000000E+00 -0.56195668179E+03  0.56195668179E+03  0.00000000000E+00 0.  1.
         21    1    1    2  503  501  0.10854304428E+03  0.62075092592E+02 -0.75689488652E+02  0.14616363527E+03  0.00000000000E+00 0.  1.
         21    1    1    2  504  503 -0.51960885843E+02  0.46167814437E+02 -0.13532821996E+03  0.15213522888E+03  0.00000000000E+00 0.  1.
         21    1    1    2  505  502 -0.95865779710E+01 -0.92631727525E+02  0.61081765786E+02  0.11137109828E+03  0.00000000000E+00 0.  1.
         21    1    1    2  506  504 -0.46995580466E+02 -0.15611179504E+02 -0.27998089459E+03  0.28432656373E+03  0.00000000000E+00 0.  1.
<scales pt_clust_3="91.34172" pt_clust_4="85.12828" pt_clust_5="14000.00000" pt_clust_6="49.52064"></scales>
<clustering>
<clus scale="   49.521">  2  6  1 -1</clus>
<clus scale="   85.128">  2  4  1 -1</clus>
<clus scale="   91.342">  2  3  1 -1</clus>
<clus scale="   91.342">  1  3  2 -1</clus>
</clustering>
</event>
<event>
 6    0  0.8641190E+002  0.1772990E+03  0.7546771E-02  0.1170443E+00
         21   -1    0    0  502  501  0.00000000000E+00  0.00000000000E+00  0.27234699331E+03  0.27234699331E+03  0.00000000000E+00 0. -1.
         21   -1    0    0  505  502 -0.00000000000E+00 -0.00000000000E+00 -0.45890040685E+03  0.45890040685E+03  0.00000000000E+00 0. -1.
         21    1    1    2  503  506  0.34759259810E+02  0.11546884982E+02  0.47612226750E+02  0.60070465550E+02  0.00000000000E+00 0. -1.
         21    1    1    2  504  501 -0.15091577920E+03 -0.72875004758E+02  0.77923634295E+02  0.18481999760E+03  0.00000000000E+00 0. -1.
         21    1    1    2  505  503 -0.13463927098E+02  0.34032716871E+02 -0.34735649291E+03  0.34927930989E+03  0.00000000000E+00 0. -1.
         21    1    1    2  506  504  0.12962044649E+03  0.27295402906E+02  0.35267218326E+02  0.13707762712E+03  0.00000000000E+00 0. -1.
<scales pt_clust_3="30.97080" pt_clust_4="167.23034" pt_clust_5="36.59922" pt_clust_6="30.97080"></scales>
<clustering>
<clus scale="   30.971">  3  6 -1 -1</clus>
<clus scale="   36.599">  2  5  1 -1</clus>
<clus scale="  167.230">  1  4  2 -1</clus>
<clus scale="  167.230">  1  3  2 -1</clus>
</clustering>
</event>
<event>
 6    0  0.8641190E+002  0.1283407E+03  0.7546771E-02  0.1229939E+00
         21   -1    0    0  503  501  0.00000000000E+00  0.00000000000E+00  0.35747729501E+03  0.35747729501E+03  0.00000000000E+00 0. -1.
         21   -1    0    0  506  502 -0.00000000000E+00 -0.00000000000E+00 -0.11610498181E+04  0.11610498181E+04  0.00000000000E+00 0. -1.
         21    1    1    2  503  502  0.13743218949E+03  0.85379646343E+02  0.19003898709E+02  0.16290622727E+03  0.00000000000E+00 0. -1.
         21    1    1    2  504  505 -0.12128287039E+03  0.67728135474E+02  0.29549491824E+02  0.14202044730E+03  0.00000000000E+00 0. -1.
         21    1    1    2  505  501  0.10925222748E+02 -0.12136104865E+03  0.15972043348E+03  0.20089420472E+03  0.00000000000E+00 0. -1.
         21    1    1    2  506  504 -0.27074541856E+02 -0.31746733171E+02 -0.10118463471E+04  0.10127062339E+04  0.00000000000E+00 0. -1.
<scales pt_clust_3="128.34072" pt_clust_4="14000.00000" pt_clust_5="125.95881" pt_clust_6="41.72392"></scales>
<clustering>
<clus scale="   41.724">  2  6  1 -1</clus>
<clus scale="  125.959">  1  5  2 -1</clus>
<clus scale="  128.341">  2  3  1 -1</clus>
<clus scale="  125.959">  1  3  2 -1</clus>
</clustering>
</event>
<event>
 6    0  0.8641190E+002  0.1450919E+03  0.7546771E-02  0.1206637E+00
         21   -1    0    0  505  501  0.00000000000E+00  0.00000000000E+00  0.12232831397E+03  0.12232831397E+03  0.00000000000E+00 0.  1.
         21   -1    0    0  503  502 -0.00000000000E+00 -0.00000000000E+00 -0.65606482783E+03  0.65606482783E+03  0.00000000000E+00 0. -1.
         21    1    1    2  503  504 -0.63766174828E+02  0.76127229212E+02 -0.37585276346E+03  0.38875027959E+03  0.00000000000E+00 0. -1.
         21    1    1    2  504  501 -0.13819414325E+02  0.57920316999E+02 -0.16692965437E+03  0.17723218907E+03  0.00000000000E+00 0. -1.
         21    1    1    2  505  506  0.89400279274E+00 -0.66171313935E+02  0.67466604496E+02  0.94504945643E+02  0.00000000000E+00 0.  1.
         21    1    1    2  506  502  0.76691586361E+02 -0.67876232276E+02 -0.58420700521E+02  0.11790572749E+03  0.00000000000E+00 0. -1.
<scales pt_clust_3="32.25578" pt_clust_4="32.25578" pt_clust_5="66.17735" pt_clust_6="138.98388"></scales>
<clustering>
<clus scale="   32.256">  3  4 -1 -1</clus>
<clus scale="   66.177">  1  5  2 -1</clus>
<clus scale="  138.984">  1  6  2 -1</clus>
<clus scale="   66.177">  1  3  2 -1</clus>
</clustering>
</event>
<event>
 6    0  0.8641190E+002  0.2282366E+03  0.7546771E-02  0.1127887E+00
         21   -1    0    0  505  501  0.00000000000E+00  0.00000000000E+00  0.95205110428E+03  0.95205110428E+03  0.00000000000E+00 0. -1.
         21   -1    0    0  503  502 -0.00000000000E+00 -0.00000000000E+00 -0.12475052652E+04  0.12475052652E+04  0.00000000000E+00 0. -1.
         21    1    1    2  503  504 -0.21269484466E+02 -0.50912752545E+02 -0.64447452274E+03  0.64683221148E+03  0.00000000000E+00 0. -1.
         21    1    1    2  504  501  0.85664914822E+02 -0.82662816780E+01  0.23354981093E+03  0.24890223628E+03  0.00000000000E+00 0.  1.
         21    1    1    2  505  506 -0.90508793615E+02  0.23864446990E+03  0.67181523155E+03  0.71866454628E+03  0.00000000000E+00 0. -1.
         21    1    1    2  506  502  0.26113363259E+02 -0.17946543568E+03 -0.55634468070E+03  0.58515737549E+03  0.00000000000E+00 0. -1.
<scales pt_clust_3="55.17698" pt_clust_4="85.85780" pt_clust_5="14000.00000" pt_clust_6="228.23659"></scales>
<clustering>
<clus scale="   55.177">  2  3  1 -1</clus>
<clus scale="   85.858">  1  4  2 -1</clus>
<clus scale="  228.237">  2  6  1 -1</clus>
<clus scale="   85.858">  1  3  2 -1</clus>
</clustering>
</event>
<event>
 6    0  0.8641190E+002  0.1188635E+03  0.7546771E-02  0.1244984E+00
         21   -1    0    0  503  501  0.00000000000E+00  0.00000000000E+00  0.10581255563E+03  0.10581255563E+03  0.00000000000E+00 0.  1.
         21   -1    0    0  505  502 -0.00000000000E+00 -0.00000000000E+00 -0.13339104558E+04  0.13339104558E+04  0.00000000000E+00 0. -1.
         21    1    1    2  503  506  0.38620542011E+02 -0.15395124799E+03 -0.81717061038E+03  0.83244239409E+03  0.00000000000E+00 0. -1.
         21    1    1    2  504  501  0.64528103812E+02  0.10029142616E+03  0.38306199526E+02  0.12525817844E+03  0.00000000000E+00 0.  1.
         21    1    1    2  505  504 -0.38251717667E+02  0.83469514680E+02 -0.16367943445E+03  0.18767341593E+03  0.00000000000E+00 0. -1.
         21    1    1    2  506  502 -0.64896928156E+02 -0.29809692851E+02 -0.28555405490E+03  0.29434902300E+03  0.00000000000E+00 0. -1.
<scales pt_clust_3="118.86346" pt_clust_4="14000.00000" pt_clust_5="92.58961" pt_clust_6="71.41589"></scales>
<clustering>
<clus scale="   71.416">  2  6  1 -1</clus>
<clus scale="   92.590">  2  5  1 -1</clus>
<clus scale="  118.863">  2  3  1 -1</clus>
<clus scale="  118.863">  1  3  2 -1</clus>
</clustering>
</event>
<event>
 6    0  0.8641190E+002  0.7532468E+02  0.7546771E-02  0.1342869E+00
         21   -1    0    0  504  501  0.00000000000E+00  0.00000000000E+00  0.30499768566E+03  0.30499768566E+03  0.00000000000E+00 0. -1.
         21   -1    0    0  505  502 -0.00000000000E+00 -0.00000000000E+00 -0.59046350189E+03  0.59046350189E+03  0.00000000000E+00 0. -1.
         21    1    1    2  503  506  0.37686896693E+02  0.59609598533E+02 -0.50675652623E+02  0.86842548260E+02  0.00000000000E+00 0. -1.
         21    1    1    2  504  502 -0.24603729607E+02 -0.82025485712E+02  0.25270076163E+03  0.26681678872E+03  0.00000000000E+00 0. -1.
         21    1    1    2  505  503 -0.61813570528E+02  0.21893915147E+02 -0.48867399684E+03  0.49305429337E+03  0.00000000000E+00 0. -1.
         21    1    1    2  506  501  0.48730403442E+02  0.52197203287E+00  0.11830716143E+01  0.48747557199E+02  0.00000000000E+00 0. -1.
<scales pt_clust_3="75.32468" pt_clust_4="14000.00000" pt_clust_5="65.21862" pt_clust_6="48.73320"></scales>
<clustering>
<clus scale="   48.733">  1  6  2 -1</clus>
<clus scale="   65.219">  2  5  1 -1</clus>
<clus scale="   75.325">  2  3  1 -1</clus>
<clus scale="   48.733">  1  3  2 -1</clus>
</clustering>
</event>
<event>
 6    0  0.8641190E+002  0.1405150E+03  0.7546771E-02  0.1212638E+00
         21   -1    0    0  505  501  0.00000000000E+00  0.00000000000E+00  0.11101050594E+03  0.11101050594E+03  0.00000000000E+00 0.  1.
         21   -1    0    0  503  502 -0.00000000000E+00 -0.00000000000E+00 -0.38116541605E+04  0.38116541605E+04  0.00000000000E+00 0. -1.
         21    1    1    2  503  506 -0.14110883068E+03 -0.19511472490E+02 -0.29850280167E+04  0.29884251137E+04  0.00000000000E+00 0. -1.
         21    1    1    2  504  502  0.45401911916E+01  0.33353665034E+02 -0.37840389348E+03  0.37989812701E+03  0.00000000000E+00 0. -1.
         21    1    1    2  505  504  0.16029505202E+03  0.10354499623E+02 -0.42815217492E+03  0.45729203388E+03  0.00000000000E+00 0. -1.
         21    1    1    2  506  501 -0.23726412530E+02 -0.24196692167E+02  0.90940430509E+02  0.97049391881E+02  0.00000000000E+00 0.  1.
<scales pt_clust_3="14000.00000" pt_clust_4="33.66126" pt_clust_5="140.51504" pt_clust_6="33.86437"></scales>
<clustering>
<clus scale="   33.661">  2  4  1 -1</clus>
<clus scale="   33.864">  1  6  2 -1</clus>
<clus scale="  140.515">  1  5  2 -1</clus>
<clus scale="   33.864">  1  3  2 -1</clus>
</clustering>
</event>
<event>
 6    0  0.8641190E+002  0.9828186E+02  0.7546771E-02  0.1283951E+00
         21   -1    0    0  506  501  0.00000000000E+00  0.00000000000E+00  0.17199004951E+04  0.17199004951E+04  0.00000000000E+00 0.  1.
         21   -1    0    0  503  502 -0.00000000000E+00 -0.00000000000E+00 -0.90248975596E+02  0.90248975596E+02  0.00000000000E+00 0.  1.
         21    1    1    2  503  505 -0.17236205137E+02 -0.50156624651E+02  0.24151071451E+01  0.53090550067E+02  0.00000000000E+00 0.  1.
         21    1    1    2  504  502  0.43860266603E+02 -0.63249192311E+02 -0.27536167371E+02  0.81746093655E+02  0.00000000000E+00 0.  1.
         21    1    1    2  505  501  0.12219326087E+02  0.86955939330E+02  0.18492494849E+03  0.20471415166E+03  0.00000000000E+00 0.  1.
         21    1    1    2  506  504 -0.38843387554E+02  0.26449877632E+02  0.14698476312E+04  0.14705986753E+04  0.00000000000E+00 0.  1.
<scales pt_clust_3="51.90351" pt_clust_4="14000.00000" pt_clust_5="98.28186" pt_clust_6="46.99367"></scales>
<clustering>
<clus scale="   46.994">  1  6  2 -1</clus>
<clus scale="   51.904">  2  3  1 -1</clus>
<clus scale="   98.282">  1  5  2 -1</clus>
<clus scale="   46.994">  1  3  2 -1</clus>
</clustering>
</event>
<event>
 6    0  0.8641190E+002  0.7207683E+02  0.7546771E-02  0.1353170E+00
         21   -1    0    0  504  501  0.00000000000E+00  0.00000000000E+00  0.95157930613E+03  0.95157930613E+03  0.00000000000E+00 0.  1.
         21   -1    0    0  503  502 -0.00000000000E+00 -0.00000000000E+00 -0.92558088505E+03  0.92558088505E+03  0.00000000000E+00 0.  1.
         21    1    1    2  503  505  0.81984172240E+02 -0.71120497090E+02 -0.72670252674E+03  0.73476260927E+03  0.00000000000E+00 0.  1.
         21    1    1    2  504  506 -0.14121739945E+02  0.90913843285E+02 -0.14408070916E+02  0.93125415153E+02  0.00000000000E+00 0.  1.
         21    1    1    2  505  501 -0.21142421396E+02 -0.33794080640E+02  0.90352269917E+03  0.90440163080E+03  0.00000000000E+00 0.  1.
         21    1    1    2  506  502 -0.46720010899E+02  0.14000734445E+02 -0.13641368042E+03  0.14487053596E+03  0.00000000000E+00 0.  1.
<scales pt_clust_3="72.07683" pt_clust_4="14000.00000" pt_clust_5="39.86279" pt_clust_6="49.82680"></scales>
<clustering>
<clus scale="   39.863">  1  5  2 -1</clus>
<clus scale="   49.827">  2  6  1 -1</clus>
<clus scale="   72.077">  2  3  1 -1</clus>
<clus scale="   39.863">  1  3  2 -1</clus>
</clustering>
</event>
<event>
 6    0  0.8641190E+002  0.1456283E+03  0.7546771E-02  0.1205950E+00
         21   -1    0    0  505  501  0.00000000000E+00  0.00000000000E+00  0.22179546143E+04  0.22179546143E+04  0.00000000000E+00 0. -1.
         21   -1    0    0  503  502 -0.00000000000E+00 -0.00000000000E+00 -0.12226257946E+02  0.12226257946E+02  0.00000000000E+00 0. -1.
         21    1    1    2  503  501  0.48693436089E+01  0.12917191485E+03  0.11237233778E+04  0.11311336454E+04  0.00000000000E+00 0. -1.
         21    1    1    2  504  502 -0.10312717204E+02 -0.41432551192E+02  0.11292124584E+03  0.12072371845E+03  0.00000000000E+00 0. -1.
         21    1    1    2  505  506  0.38330499361E+02  0.12288581299E+01  0.33424784833E+03  0.33644072493E+03  0.00000000000E+00 0. -1.
         21    1    1    2  506  504 -0.32887125765E+02 -0.88968221792E+02  0.63483588441E+03  0.64188278343E+03  0.00000000000E+00 0. -1.
<scales pt_clust_3="132.85416" pt_clust_4="40.62723" pt_clust_5="38.35019" pt_clust_6="40.62723"></scales>
<clustering>
<clus scale="   38.350">  1  5  2 -1</clus>
<clus scale="   40.627">  4  6 -1 -1</clus>
<clus scale="  132.854">  1  3  2 -1</clus>
<clus scale="   38.350">  1  3  2 -1</clus>
</clustering>
</event>
<event>
 6    0  0.8641190E+002  0.9593756E+02  0.7546771E-02  0.1289078E+00
         21   -1    0    0  504  501  0.00000000000E+00  0.00000000000E+00  0.67001691382E+03  0.67001691382E+03  0.00000000000E+00 0. -1.
         21   -1    0    0  506  502 -0.00000000000E+00 -0.00000000000E+00 -0.86978261305E+02  0.86978261305E+02  0.00000000000E+00 0.  1.
         21    1    1    2  503  501 -0.41905474712E+02 -0.89945947030E+02  0.57746405044E+03  0.58592753114E+03  0.00000000000E+00 0. -1.
         21    1    1    2  504  502  0.31946658079E+02 -0.38111748088E+01  0.17742066711E+02  0.36740916524E+02  0.00000000000E+00 0.  1.
         21    1    1    2  505  503 -0.24682553134E+02  0.83919470263E+02  0.15598829068E+02  0.88853977889E+02  0.00000000000E+00 0.  1.
         21    1    1    2  506  505  0.34641369767E+02  0.98376515761E+01 -0.27766293703E+02  0.45472749574E+02  0.00000000000E+00 0. -1.
<scales pt_clust_3="95.93756" pt_clust_4="32.17319" pt_clust_5="14000.00000" pt_clust_6="50.38562"></scales>
<clustering>
<clus scale="   32.173">  2  4  1 -1</clus>
<clus scale="   50.386">  2  6  1 -1</clus>
<clus scale="   95.938">  1  3  2 -1</clus>
<clus scale="   95.938">  1  3  2 -1</clus>
</clustering>
</event>
<event>
 6    0  0.8641190E+002  0.1279060E+03  0.7546771E-02  0.1230596E+00
         21   -1    0    0  504  501  0.00000000000E+00  0.00000000000E+00  0.81468976976E+02  0.81468976976E+02  0.00000000000E+00 0. -1.
         21   -1    0    0  503  502 -0.00000000000E+00 -0.00000000000E+00 -0.62964969563E+03  0.62964969563E+03  0.00000000000E+00 0.  1.
         21    1    1    2  503  506 -0.15149115855E+02 -0.51383648916E+02 -0.41137289692E+03  0.41484627925E+03  0.00000000000E+00 0.  1.
         21    1    1    2  504  505  0.58602366805E+02  0.76294604989E+02 -0.36644771193E+02  0.10294631320E+03  0.00000000000E+00 0. -1.
         21    1    1    2  505  502  0.16810825572E+02  0.54334459482E+02 -0.68114231748E+02  0.88737736675E+02  0.00000000000E+00 0. -1.
         21    1    1    2  506  501 -0.60264076522E+02 -0.79245415555E+02 -0.32048818789E+02  0.10458834348E+03  0.00000000000E+00 0. -1.
<scales pt_clust_3="53.57028" pt_clust_4="42.23491" pt_clust_5="42.23491" pt_clust_6="115.51066"></scales>
<clustering>
<clus scale="   42.235">  4  5 -1 -1</clus>
<clus scale="   53.570">  2  3  1 -1</clus>
<clus scale="  115.511">  1  6  2 -1</clus>
<clus scale="  115.511">  1  3  2 -1</clus>
</clustering>
</event>
<event>
 6    0  0.8641190E+002  0.7495536E+02  0.7546771E-02  0.1344009E+00
         21   -1    0    0  504  501  0.00000000000E+00  0.00000000000E+00  0.19593744866E+03  0.19593744866E+03  0.00000000000E+00 0. -1.
         21   -1    0    0  503  502 -0.00000000000E+00 -0.00000000000E+00 -0.63168265596E+03  0.63168265596E+03  0.00000000000E+00 0.  1.
         21    1    1    2  503  506 -0.21308165219E+02  0.31064825028E+02 -0.14792223687E+03  0.15264353710E+03  0.00000000000E+00 0. -1.
         21    1    1    2  504  502 -0.37146714890E+02 -0.11244455630E+03  0.14483195706E+03  0.18708274227E+03  0.00000000000E+00 0. -1.
         21    1    1    2  505  501  0.61523837341E+02  0.36900526960E+02 -0.22304927681E+02  0.75128831016E+02  0.00000000000E+00 0. -1.
         21    1    1    2  506  505 -0.30689572312E+01  0.44479204311E+02 -0.41034999981E+03  0.41276499423E+03  0.00000000000E+00 0.  1.
<scales pt_clust_3="37.67043" pt_clust_4="74.95536" pt_clust_5="71.61033" pt_clust_6="14000.00000"></scales>
<clustering>
<clus scale="   37.670">  2  3  1 -1</clus>
<clus scale="   71.610">  1  5  2 -1</clus>
<clus scale="   74.955">  1  4  2 -1</clus>
<clus scale="   71.610">  1  3  2 -1</clus>
</clustering>
</event>
<event>
 6    0  0.8641190E+002  0.1147286E+03  0.7546771E-02  0.1252056E+00
         21   -1    0    0  503  501  0.00000000000E+00  0.00000000000E+00  0.37492387366E+02  0.37492387366E+02  0.00000000000E+00 0.  1.
         21   -1    0    0  505  502 -0.00000000000E+00 -0.00000000000E+00 -0.89690086651E+03  0.89690086651E+03  0.00000000000E+00 0.  1.
         21    1    1    2  503  504 -0.10137772250E+02 -0.40888848344E+02 -0.18354080479E+02  0.45951546386E+02  0.00000000000E+00 0.  1.
         21    1    1    2  504  506  0.71124954170E+02 -0.79866732473E+02 -0.25206916101E+03  0.27381803446E+03  0.00000000000E+00 0.  1.
         21    1    1    2  505  501 -0.84133106547E+02  0.90313862582E+02 -0.32080794949E+03  0.34373349247E+03  0.00000000000E+00 0.  1.
         21    1    1    2  506  502  0.23145924627E+02  0.30441718235E+02 -0.26817728817E+03  0.27089018056E+03  0.00000000000E+00 0.  1.
<scales pt_clust_3="40.33456" pt_clust_4="114.72859" pt_clust_5="14000.00000" pt_clust_6="38.24176"></scales>
<clustering>
<clus scale="   38.242">  2  6  1 -1</clus>
<clus scale="   40.335">  1  3  2 -1</clus>
<clus scale="  114.729">  2  4  1 -1</clus>
<clus scale="   40.335">  1  3  2 -1</clus>
</clustering>
</event>
<event>
 6    0  0.8641190E+002  0.1154013E+03  0.7546771E-02  0.1250882E+00
         21   -1    0    0  503  501  0.00000000000E+00  0.00000000000E+00  0.42716158783E+03  0.42716158783E+03  0.00000000000E+00 0.  1.
         21   -1    0    0  505  502 -0.00000000000E+00 -0.00000000000E+00 -0.11338796250E+03  0.11338796250E+03  0.00000000000E+00 0.  1.
         21    1    1    2  503  504 -0.51261934746E+02 -0.91616972189E+02  0.23280982043E+03  0.25538572403E+03  0.00000000000E+00 0.  1.
         21    1    1    2  504  506 -0.21585822505E+02  0.11253252532E+03  0.35817221711E+02  0.12005161540E+03  0.00000000000E+00 0.  1.
         21    1    1    2  505  501  0.46525949184E+02 -0.43299503007E+02  0.88948707425E+02  0.10932238316E+03  0.00000000000E+00 0.  1.
         21    1    1    2  506  502  0.26321808066E+02  0.22383949873E+02 -0.43802124235E+02  0.55789827740E+02  0.00000000000E+00 0.  1.
<scales pt_clust_3="115.40127" pt_clust_4="14000.00000" pt_clust_5="64.43588" pt_clust_6="34.55255"></scales>
<clustering>
<clus scale="   34.553">  2  6  1 -1</clus>
<clus scale="   64.436">  1  5  2 -1</clus>
<clus scale="  115.401">  1  3  2 -1</clus>
<clus scale="   64.436">  1  3  2 -1</clus>
</clustering>
</event>
<event>
 6    0  0.8641190E+002  0.1775531E+03  0.7546771E-02  0.1170192E+00
         21   -1    0    0  502  501  0.00000000000E+00  0.00000000000E+00  0.52456778774E+03  0.52456778774E+03  0.00000000000E+00 0.  1.
         21   -1    0    0  504  502 -0.00000000000E+00 -0.00000000000E+00 -0.26353707940E+03  0.26353707940E+03  0.00000000000E+00 0. -1.
         21    1    1    2  503  501  0.65283572034E+02  0.97815457865E+00  0.72871101601E+02  0.97842214879E+02  0.00000000000E+00 0. -1.
         21    1    1    2  504  505 -0.17708018146E+03  0.22563940843E+02 -0.20928648983E+03  0.27507700179E+03  0.00000000000E+00 0. -1.
         21    1    1    2  505  506  0.51423815120E+02 -0.17121693207E+02  0.24847993343E+03  0.25432231215E+03  0.00000000000E+00 0.  1.
         21    1    1    2  506  503  0.60372794303E+02 -0.64204022150E+01  0.14896616314E+03  0.16086333832E+03  0.00000000000E+00 0.  1.
<scales pt_clust_3="65.29090" pt_clust_4="173.67232" pt_clust_5="34.88229" pt_clust_6="34.88229"></scales>
<clustering>
<clus scale="   34.882">  5  6 -1 -1</clus>
<clus scale="   65.291">  1  3  2 -1</clus>
<clus scale="  173.672">  2  4  1 -1</clus>
<clus scale="   65.291">  1  3  2 -1</clus>
</clustering>
</event>
<event>
 6    0  0.8641190E+002  0.1496261E+03  0.7546771E-02  0.1200933E+00
         21   -1    0    0  506  501  0.00000000000E+00  0.00000000000E+00  0.10209838987E+03  0.10209838987E+03  0.00000000000E+00 0.  1.
         21   -1    0    0  505  502 -0.00000000000E+00 -0.00000000000E+00 -0.70275232221E+03  0.70275232221E+03  0.00000000000E+00 0.  1.
         21    1    1    2  503  501  0.12572267049E+03  0.56329725133E+02  0.19635863902E+02  0.13915744666E+03  0.00000000000E+00 0.  1.
         21    1    1    2  504  503 -0.42674530831E+02 -0.34567569319E+02 -0.12298072251E+03  0.13468589585E+03  0.00000000000E+00 0.  1.
         21    1    1    2  505  504 -0.12305725517E+03 -0.36451157525E+02 -0.44705965717E+03  0.46511730993E+03  0.00000000000E+00 0.  1.
         21    1    1    2  506  502  0.40009115506E+02  0.14689001712E+02 -0.50249416564E+02  0.65890059644E+02  0.00000000000E+00 0.  1.
<scales pt_clust_3="141.70671" pt_clust_4="31.42052" pt_clust_5="31.42052" pt_clust_6="42.62037"></scales>
<clustering>
<clus scale="   31.421">  4  5 -1 -1</clus>
<clus scale="   42.620">  2  6  1 -1</clus>
<clus scale="  141.707">  1  3  2 -1</clus>
<clus scale="  141.707">  1  3  2 -1</clus>
</clustering>
</event>
<event>
 6    0  0.8641190E+002  0.1346148E+03  0.7546771E-02  0.1220765E+00
         21   -1    0    0  503  501  0.00000000000E+00  0.00000000000E+00  0.26274182401E+03  0.26274182401E+03  0.00000000000E+00 0. -1.
         21   -1    0    0  504  502 -0.00000000000E+00 -0.00000000000E+00 -0.21653208946E+03  0.21653208946E+03  0.00000000000E+00 0. -1.
         21    1    1    2  503  505  0.37925457758E+02  0.25302669237E+02 -0.33047442254E+01  0.45710904072E+02  0.00000000000E+00 0. -1.
         21    1    1    2  504  506 -0.13757921355E+03 -0.12883220916E+02 -0.63787651418E+02  0.15219356706E+03  0.00000000000E+00 0. -1.
         21    1    1    2  505  502  0.71773866363E+02  0.15744841249E+02 -0.65373417155E+02  0.98351774713E+02  0.00000000000E+00 0. -1.
         21    1    1    2  506  501  0.27879889426E+02 -0.28164289571E+02  0.17867554735E+03  0.18301766762E+03  0.00000000000E+00 0. -1.
<scales pt_clust_3="37.92807" pt_clust_4="125.70846" pt_clust_5="37.92807" pt_clust_6="39.62973"></scales>
<clustering>
<clus scale="   37.928">  3  5 -1 -1</clus>
<clus scale="   39.630">  1  6  2 -1</clus>
<clus scale="  125.708">  1  4  2 -1</clus>
<clus scale="   39.630">  1  3  2 -1</clus>
</clustering>
</event>
<event>
 6    0  0.8641190E+002  0.2170085E+03  0.7546771E-02  0.1136133E+00
         21   -1    0    0  506  501  0.00000000000E+00  0.00000000000E+00  0.14588421780E+03  0.14588421780E+03  0.00000000000E+00 0.  1.
         21   -1    0    0  503  502 -0.00000000000E+00 -0.00000000000E+00 -0.12804090067E+04  0.12804090067E+04  0.00000000000E+00 0. -1.
         21    1    1    2  503  504  0.90205474955E+02  0.41054803468E+02 -0.25906784368E+03  0.27737821152E+03  0.00000000000E+00 0. -1.
         21    1    1    2  504  501 -0.14927163056E+03 -0.15590366460E+03  0.42348912271E+02  0.21995772934E+03  0.00000000000E+00 0.  1.
         21    1    1    2  505  502 -0.18754371221E+01  0.45846853267E+02 -0.43819750904E+03  0.44059335917E+03  0.00000000000E+00 0. -1.
         21    1    1    2  506  505  0.60941592732E+02  0.69002007864E+02 -0.47960834841E+03  0.48836392442E+03  0.00000000000E+00 0. -1.
<scales pt_clust_3="99.10865" pt_clust_4="207.79253" pt_clust_5="44.17369" pt_clust_6="44.17369"></scales>
<clustering>
<clus scale="   44.174">  5  6 -1 -1</clus>
<clus scale="   99.109">  2  3  1 -1</clus>
<clus scale="  207.793">  1  4  2 -1</clus>
<clus scale="  207.793">  1  3  2 -1</clus>
</clustering>
</event>
<event>
 6    0  0.8641190E+002  0.7297428E+02  0.7546771E-02  0.1350261E+00
         21   -1    0    0  505  501  0.00000000000E+00  0.00000000000E+00  0.71214559341E+02  0.71214559341E+02  0.00000000000E+00 0.  1.
         21   -1    0    0  506  502 -0.00000000000E+00 -0.00000000000E+00 -0.43357181561E+03  0.43357181561E+03  0.00000000000E+00 0.  1.
         21    1    1    2  503  501 -0.41134831077E+02  0.53977411169E+02 -0.39345773113E+02  0.78445682521E+02  0.00000000000E+00 0.  1.
         21    1    1    2  504  502  0.25422924889E+02 -0.78997042951E+02 -0.28952609215E+03  0.30118468742E+03  0.00000000000E+00 0.  1.
         21    1    1    2  505  504  0.56989496907E+02  0.28536863800E+02  0.10655735326E+02  0.64619656828E+02  0.00000000000E+00 0.  1.
         21    1    1    2  506  503 -0.41277590719E+02 -0.35172320184E+01 -0.44141126341E+02  0.60536348182E+02  0.00000000000E+00 0.  1.
<scales pt_clust_3="14000.00000" pt_clust_4="72.97428" pt_clust_5="61.02099" pt_clust_6="41.42717"></scales>
<clustering>
<clus scale="   41.427">  2  6  1 -1</clus>
<clus scale="   61.021">  1  5  2 -1</clus>
<clus scale="   72.974">  2  4  1 -1</clus>
<clus scale="   61.021">  1  3  2 -1</clus>
</clustering>
</event>
<event>
 6    0  0.8641190E+002  0.9051136E+02  0.7546771E-02  0.1301618E+00
         21   -1    0    0  506  501  0.00000000000E+00  0.00000000000E+00  0.18471282688E+03  0.18471282688E+03  0.00000000000E+00 0.  1.
         21   -1    0    0  503  502 -0.00000000000E+00 -0.00000000000E+00 -0.20723918143E+03  0.20723918143E+03  0.00000000000E+00 0. -1.
         21    1    1    2  503  501  0.95467219947E+02 -0.41797995752E+02  0.49547986949E+01  0.10433413901E+03  0.00000000000E+00 0.  1.
         21    1    1    2  504  502 -0.55870806003E+02  0.69447539753E+02 -0.11018409577E+03  0.14172170865E+03  0.00000000000E+00 0. -1.
         21    1    1    2  505  504 -0.44618851979E+02  0.27467935568E+01 -0.12018205710E+02  0.46290648032E+02  0.00000000000E+00 0.  1.
         21    1    1    2  506  505  0.50224380347E+01 -0.30396337558E+02  0.94721148235E+02  0.99605512617E+02  0.00000000000E+00 0.  1.
<scales pt_clust_3="14000.00000" pt_clust_4="90.51136" pt_clust_5="43.75318" pt_clust_6="30.80848"></scales>
<clustering>
<clus scale="   30.808">  1  6  2 -1</clus>
<clus scale="   43.753">  1  5  2 -1</clus>
<clus scale="   90.511">  2  4  1 -1</clus>
<clus scale="   30.808">  1  3  2 -1</clus>
</clustering>
</event>
<event>
 6    0  0.8641190E+002  0.1210171E+03  0.7546771E-02  0.1241429E+00
         21   -1    0    0  506  501  0.00000000000E+00  0.00000000000E+00  0.13287801012E+03  0.13287801012E+03  0.00000000000E+00 0. -1.
         21   -1    0    0  504  502 -0.00000000000E+00 -0.00000000000E+00 -0.50694207912E+03  0.50694207912E+03  0.00000000000E+00 0. -1.
         21    1    1    2  503  502  0.31923996532E+02 -0.14571487669E+03 -0.23101843061E+03  0.27499360379E+03  0.00000000000E+00 0. -1.
         21    1    1    2  504  505  0.19701687887E+02  0.40087638264E+02 -0.15819727476E+03  0.16438233783E+03  0.00000000000E+00 0. -1.
         21    1    1    2  505  501 -0.53215254822E+02 -0.11798508839E+02 -0.42973516804E+02  0.69410311216E+02  0.00000000000E+00 0. -1.
         21    1    1    2  506  503  0.15895704026E+01  0.11742574726E+03  0.58125153174E+02  0.13103383642E+03  0.00000000000E+00 0. -1.
<scales pt_clust_3="121.01706" pt_clust_4="44.66738" pt_clust_5="50.29050" pt_clust_6="14000.00000"></scales>
<clustering>
<clus scale="   44.667">  2  4  1 -1</clus>
<clus scale="   50.291">  2  5  1 -1</clus>
<clus scale="  121.017">  2  3  1 -1</clus>
<clus scale="  121.017">  1  3  2 -1</clus>
</clustering>
</event>
<event>
 6    0  0.8641190E+002  0.1579260E+03  0.7546771E-02  0.1191058E+00
         21   -1    0    0  503  501  0.00000000000E+00  0.00000000000E+00  0.12421938343E+04  0.12421938343E+04  0.00000000000E+00 0. -1.
         21   -1    0    0  505  502 -0.00000000000E+00 -0.00000000000E+00 -0.21251465595E+03  0.21251465595E+03  0.00000000000E+00 0.  1.
         21    1    1    2  503  504 -0.64932038570E+02 -0.51977449057E+02  0.92342318817E+02  0.12427762746E+03  0.00000000000E+00 0. -1.
         21    1    1    2  504  502 -0.10469013165E+02  0.30858564683E+02  0.82394108270E+01  0.33611592371E+02  0.00000000000E+00 0. -1.
         21    1    1    2  505  506  0.16715060267E+03  0.75225042446E+01 -0.14337358587E+03  0.22034495040E+03  0.00000000000E+00 0.  1.
         21    1    1    2  506  501 -0.91749550932E+02  0.13596380130E+02  0.10724710346E+04  0.10764743200E+04  0.00000000000E+00 0. -1.
<scales pt_clust_3="82.32198" pt_clust_4="32.58606" pt_clust_5="157.92595" pt_clust_6="14000.00000"></scales>
<clustering>
<clus scale="   32.586">  2  4  1 -1</clus>
<clus scale="   82.322">  1  3  2 -1</clus>
<clus scale="  157.926">  2  5  1 -1</clus>
<clus scale="   82.322">  1  3  2 -1</clus>
</clustering>
</event>
<event>
 6    0  0.8641190E+002  0.1336377E+03  0.7546771E-02  0.1222156E+00
         21   -1    0    0  505  501  0.00000000000E+00  0.00000000000E+00  0.90961356513E+03  0.90961356513E+03  0.00000000000E+00 0.  1.
         21   -1    0    0  503  502 -0.00000000000E+00 -0.00000000000E+00 -0.13859003620E+03  0.13859003620E+03  0.00000000000E+00 0.  1.
         21    1    1    2  503  501  0.96158014509E+02  0.26675161301E+02  0.23217735507E+03  0.25271377524E+03  0.00000000000E+00 0.  1.
         21    1    1    2  504  502  0.28374112588E+02  0.36011869782E+02 -0.11537557326E+03  0.12415098846E+03  0.00000000000E+00 0.  1.
         21    1    1    2  505  506 -0.66631312357E+02 -0.29166326050E+02  0.21307012280E+03  0.22514280711E+03  0.00000000000E+00 0.  1.
         21    1    1    2  506  504 -0.57900814740E+02 -0.33520705032E+02  0.44115162432E+03  0.44619603052E+03  0.00000000000E+00 0.  1.
<scales pt_clust_3="120.86029" pt_clust_4="45.84697" pt_clust_5="56.52549" pt_clust_6="56.52549"></scales>
<clustering>
<clus scale="   45.847">  2  4  1 -1</clus>
<clus scale="   56.525">  5  6 -1 -1</clus>
<clus scale="  120.860">  2  3  1 -1</clus>
<clus scale="  133.638">  1  3  2 -1</clus>
</clustering>
</event>
<event>
 6    0  0.8641190E+002  0.9806903E+02  0.7546771E-02  0.1284410E+00
         21   -1    0    0  505  501  0.00000000000E+00  0.00000000000E+00  0.16453689603E+03  0.16453689603E+03  0.00000000000E+00 0.  1.
         21   -1    0    0  506  502 -0.00000000000E+00 -0.00000000000E+00 -0.47184625724E+03  0.47184625724E+03  0.00000000000E+00 0.  1.
         21    1    1    2  503  501  0.18676571547E+02 -0.30271210875E+02  0.25582566127E+02  0.43813562081E+02  0.00000000000E+00 0.  1.
         21    1    1    2  504  503  0.32922359905E+02  0.33381135324E+02  0.12649904961E+02  0.48561322807E+02  0.00000000000E+00 0. -1.
         21    1    1    2  505  502 -0.60393129559E+02 -0.79726898808E+02 -0.42302426681E+03  0.43468751857E+03  0.00000000000E+00 0.  1.
         21    1    1    2  506  504  0.87941981068E+01  0.76616974359E+02  0.77482434510E+02  0.10932074981E+03  0.00000000000E+00 0.  1.
<scales pt_clust_3="35.56910" pt_clust_4="45.62864" pt_clust_5="98.06903" pt_clust_6="14000.00000"></scales>
<clustering>
<clus scale="   35.569">  1  3  2 -1</clus>
<clus scale="   45.629">  1  4  2 -1</clus>
<clus scale="   98.069">  2  5  1 -1</clus>
<clus scale="   35.569">  1  3  2 -1</clus>
</clustering>
</event>
<event>
 6    0  0.8641190E+002  0.1182479E+03  0.7546771E-02  0.1246016E+00
         21   -1    0    0  503  501  0.00000000000E+00  0.00000000000E+00  0.23096769543E+03  0.23096769543E+03  0.00000000000E+00 0. -1.
         21   -1    0    0  506  502 -0.00000000000E+00 -0.00000000000E+00 -0.70553345165E+03  0.70553345165E+03  0.00000000000E+00 0.  1.
         21    1    1    2  503  502  0.22336688214E+01  0.59068253494E+02 -0.68017029460E+02  0.90113063114E+02  0.00000000000E+00 0.  1.
         21    1    1    2  504  505 -0.12494927194E+03  0.44946990934E+02 -0.59416793611E+02  0.14547476728E+03  0.00000000000E+00 0.  1.
         21    1    1    2  505  501  0.72132921811E+02 -0.94461412165E+02  0.15546206719E+03  0.19568998731E+03  0.00000000000E+00 0. -1.
         21    1    1    2  506  504  0.50582681304E+02 -0.95538322629E+01 -0.50259400035E+03  0.50522332937E+03  0.00000000000E+00 0.  1.
<scales pt_clust_3="59.56132" pt_clust_4="118.24794" pt_clust_5="14000.00000" pt_clust_6="51.47702"></scales>
<clustering>
<clus scale="   51.477">  2  6  1 -1</clus>
<clus scale="   59.561">  2  3  1 -1</clus>
<clus scale="  118.248">  2  4  1 -1</clus>
<clus scale="  118.248">  1  3  2 -1</clus>
</clustering>
</event>
<event>
 6    0  0.8641190E+002  0.2124635E+03  0.7546771E-02  0.1139630E+00
         21   -1    0    0  503  501  0.00000000000E+00  0.00000000000E+00  0.88352668875E+02  0.88352668875E+02  0.00000000000E+00 0.  1.
         21   -1    0    0  504  502 -0.00000000000E+00 -0.00000000000E+00 -0.35978946526E+04  0.35978946526E+04  0.00000000000E+00 0. -1.
         21    1    1    2  503  502  0.11192973109E+02 -0.43778545916E+02 -0.61916690209E+03  0.62081357618E+03  0.00000000000E+00 0.  1.
         21    1    1    2  504  505  0.54099132425E+01  0.53910659723E+02 -0.16549674617E+04  0.16558541378E+04  0.00000000000E+00 0. -1.
         21    1    1    2  505  506  0.13306061604E+03 -0.16161272228E+03 -0.11674254375E+04  0.11860463531E+04  0.00000000000E+00 0. -1.
         21    1    1    2  506  501 -0.14966350239E+03  0.15148060847E+03 -0.67982182420E+02  0.22353325439E+03  0.00000000000E+00 0.  1.
<scales pt_clust_3="45.18676" pt_clust_4="31.77958" pt_clust_5="14000.00000" pt_clust_6="212.46346"></scales>
<clustering>
<clus scale="   45.187">  2  3  1 -1</clus>
<clus scale="   31.780">  2  4  1 -1</clus>
<clus scale="  212.463">  1  6  2 -1</clus>
<clus scale="  212.463">  1  3  2 -1</clus>
</clustering>
</event>
<event>
 6    0  0.8641190E+002  0.1021121E+03  0.7546771E-02  0.1275916E+00
         21   -1    0    0  505  501  0.00000000000E+00  0.00000000000E+00  0.12233740184E+04  0.12233740184E+04  0.00000000000E+00 0. -1.
         21   -1    0    0  504  502 -0.00000000000E+00 -0.00000000000E+00 -0.14460096017E+03  0.14460096017E+03  0.00000000000E+00 0.  1.
         21    1    1    2  503  502 -0.11488149453E+03 -0.94530793678E+01 -0.99052448630E+02  0.15198192680E+03  0.00000000000E+00 0.  1.
         21    1    1    2  504  506  0.79188684229E+01  0.37692332908E+02  0.23108337377E+02  0.44915650875E+02  0.00000000000E+00 0. -1.
         21    1    1    2  505  503  0.75732415951E+02  0.38667279459E+01  0.17986377526E+03  0.19519561486E+03  0.00000000000E+00 0.  1.
         21    1    1    2  506  501  0.31230210158E+02 -0.32105981486E+02  0.97485339426E+03  0.97588178606E+03  0.00000000000E+00 0. -1.
<scales pt_clust_3="14000.00000" pt_clust_4="38.51520" pt_clust_5="102.11214" pt_clust_6="44.70722"></scales>
<clustering>
<clus scale="   38.515">  2  4  1 -1</clus>
<clus scale="   44.707">  1  6  2 -1</clus>
<clus scale="  102.112">  1  5  2 -1</clus>
<clus scale="   44.707">  1  3  2 -1</clus>
</clustering>
</event>
<event>
 6    0  0.8641190E+002  0.7199145E+02  0.7546771E-02  0.1353449E+00
         21   -1    0    0  506  501  0.00000000000E+00  0.00000000000E+00  0.11795148383E+04  0.11795148383E+04  0.00000000000E+00 0.  1.
         21   -1    0    0  505  502 -0.00000000000E+00 -0.00000000000E+00 -0.60123907689E+02  0.60123907689E+02  0.00000000000E+00 0.  1.
         21    1    1    2  503  501  0.70964664752E+02 -0.54578069497E+01  0.85274246447E+03  0.85570759142E+03  0.00000000000E+00 0.  1.
         21    1    1    2  504  503 -0.76930596207E+02 -0.27005492952E+02  0.22586941474E+03  0.24013455770E+03  0.00000000000E+00 0.  1.
         21    1    1    2  505  504  0.48914200643E+02  0.19227349149E+02  0.71951141833E+02  0.89102507209E+02  0.00000000000E+00 0. -1.
         21    1    1    2  506  502 -0.42948269187E+02  0.13235950753E+02 -0.31172090459E+02  0.54694089645E+02  0.00000000000E+00 0.  1.
<scales pt_clust_3="71.99145" pt_clust_4="14000.00000" pt_clust_5="37.72082" pt_clust_6="44.94156"></scales>
<clustering>
<clus scale="   44.942">  2  6  1 -1</clus>
<clus scale="   37.721">  2  5  1 -1</clus>
<clus scale="   71.991">  1  3  2 -1</clus>
<clus scale="   71.991">  1  3  2 -1</clus>
</clustering>
</event>
<event>
 6    0  0.8641190E+002  0.2005548E+03  0.7546771E-02  0.1149272E+00
         21   -1    0    0  503  501  0.00000000000E+00  0.00000000000E+00  0.12950368957E+04  0.12950368957E+04  0.00000000000E+00 0.  1.
         21   -1    0    0  506  502 -0.00000000000E+00 -0.00000000000E+00 -0.32005370777E+02  0.32005370777E+02  0.00000000000E+00 0.  1.
         21    1    1    2  503  505  0.49505648987E+02  0.67199893053E+02  0.14876675329E+03  0.17058189175E+03  0.00000000000E+00 0.  1.
         21    1    1    2  504  501 -0.75314043208E+02 -0.91257995850E+02  0.39091548949E+03  0.40843010031E+03  0.00000000000E+00 0.  1.
         21    1    1    2  505  502  0.10226785578E+03  0.24804458015E+02  0.30225390628E+03  0.32004905768E+03  0.00000000000E+00 0.  1.
         21    1    1    2  506  504 -0.76459461563E+02 -0.74635521806E+00  0.42109537590E+03  0.42798121677E+03  0.00000000000E+00 0.  1.
<scales pt_clust_3="67.82035" pt_clust_4="75.07692" pt_clust_5="193.12973" pt_clust_6="75.07692"></scales>
<clustering>
<clus scale="   67.820">  3  5 -1 -1</clus>
<clus scale="   75.077">  4  6 -1 -1</clus>
<clus scale="  193.130">  2  3  1 -1</clus>
<clus scale="  200.555">  1  3  2 -1</clus>
</clustering>
</event>
<event>
 6    0  0.8641190E+002  0.1247302E+03  0.7546771E-02  0.1235492E+00
         21   -1    0    0  506  501  0.00000000000E+00  0.00000000000E+00  0.33793361474E+03  0.33793361474E+03  0.00000000000E+00 0.  1.
         21   -1    0    0  503  502 -0.00000000000E+00 -0.00000000000E+00 -0.19540899330E+03  0.19540899330E+03  0.00000000000E+00 0.  1.
         21    1    1    2  503  505  0.61875955815E+02 -0.58203224176E+02  0.71752492888E+01  0.85251002427E+02  0.00000000000E+00 0.  1.
         21    1    1    2  504  502  0.40046542289E+02  0.16388600593E+03 -0.54580152328E+02  0.17731706494E+03  0.00000000000E+00 0.  1.
         21    1    1    2  505  501 -0.62679093224E+01 -0.94591594337E+02  0.75301359407E+02  0.12106672183E+03  0.00000000000E+00 0.  1.
         21    1    1    2  506  504 -0.95654588781E+02 -0.11091187421E+02  0.11462816508E+03  0.14970781884E+03  0.00000000000E+00 0.  1.
<scales pt_clust_3="84.94851" pt_clust_4="124.73015" pt_clust_5="14000.00000" pt_clust_6="90.44691"></scales>
<clustering>
<clus scale="   84.949">  2  3  1 -1</clus>
<clus scale="   90.447">  1  6  2 -1</clus>
<clus scale="  124.730">  2  4  1 -1</clus>
<clus scale="   90.447">  1  3  2 -1</clus>
</clustering>
</event>
<event>
 6    0  0.8641190E+002  0.1870924E+03  0.7546771E-02  0.1161110E+00
         21   -1    0    0  505  501  0.00000000000E+00  0.00000000000E+00  0.14232721551E+04  0.14232721551E+04  0.00000000000E+00 0.  1.
         21   -1    0    0  504  502 -0.00000000000E+00 -0.00000000000E+00 -0.71818810617E+02  0.71818810617E+02  0.00000000000E+00 0. -1.
         21    1    1    2  503  506  0.83911602233E+02  0.44132232602E+02  0.42214866913E+03  0.43266419980E+03  0.00000000000E+00 0.  1.
         21    1    1    2  504  501 -0.23810729977E+03 -0.60321616108E+02  0.80681064366E+03  0.84337251455E+03  0.00000000000E+00 0. -1.
         21    1    1    2  505  503  0.46945844909E+02  0.16389809422E+00  0.96841745488E+02  0.10762092216E+03  0.00000000000E+00 0.  1.
         21    1    1    2  506  502  0.10724985263E+03  0.16025485412E+02  0.25652286206E+02  0.11143332921E+03  0.00000000000E+00 0.  1.
<scales pt_clust_3="41.45822" pt_clust_4="177.57372" pt_clust_5="41.45822" pt_clust_6="108.44052"></scales>
<clustering>
<clus scale="   41.458">  3  5 -1 -1</clus>
<clus scale="  108.441">  2  6  1 -1</clus>
<clus scale="  177.574">  2  4  1 -1</clus>
<clus scale="  187.092">  1  3  2 -1</clus>
</clustering>
</event>
<event>
 6    0  0.8641190E+002  0.9422457E+02  0.7546771E-02  0.1292932E+00
         21   -1    0    0  503  501  0.00000000000E+00  0.00000000000E+00  0.24629902121E+03  0.24629902121E+03  0.00000000000E+00 0.  1.
         21   -1    0    0  501  502 -0.00000000000E+00 -0.00000000000E+00 -0.14373191236E+03  0.14373191236E+03  0.00000000000E+00 0.  1.
         21    1    1    2  503  504 -0.13674398079E+02  0.68229975897E+02  0.85294176145E+02  0.11007913180E+03  0.00000000000E+00 0.  1.
         21    1    1    2  504  506  0.65268997572E+02 -0.93972375431E+02  0.37477263170E+02  0.12039682156E+03  0.00000000000E+00 0.  1.
         21    1    1    2  505  502  0.20793122370E+02 -0.29433473434E+02 -0.51892224094E+02  0.63178209991E+02  0.00000000000E+00 0.  1.
         21    1    1    2  506  505 -0.72387721863E+02  0.55175872967E+02  0.31687893627E+02  0.96376770214E+02  0.00000000000E+00 0.  1.
<scales pt_clust_3="64.88417" pt_clust_4="14000.00000" pt_clust_5="36.03725" pt_clust_6="94.22457"></scales>
<clustering>
<clus scale="   36.037">  2  5  1 -1</clus>
<clus scale="   64.884">  1  3  2 -1</clus>
<clus scale="   94.225">  2  6  1 -1</clus>
<clus scale="   64.884">  1  3  2 -1</clus>
</clustering>
</event>
<event>
 6    0  0.8641190E+002  0.1087103E+03  0.7546771E-02  0.1262977E+00
         21   -1    0    0  506  501  0.00000000000E+00  0.00000000000E+00  0.56586293578E+03  0.56586293578E+03  0.00000000000E+00 0.  1.
         21   -1    0    0  505  502 -0.00000000000E+00 -0.00000000000E+00 -0.10645598717E+04  0.10645598717E+04  0.00000000000E+00 0. -1.
         21    1    1    2  503  502  0.20414949695E+02  0.26197855052E+02 -0.93757053774E+03  0.93815862785E+03  0.00000000000E+00 0. -1.
         21    1    1    2  504  501 -0.99452161686E+02  0.42845385563E+02  0.48434198889E+03  0.49629993122E+03  0.00000000000E+00 0.  1.
         21    1    1    2  505  504  0.10899643816E+03 -0.41608034843E+02 -0.80971242085E+02  0.14201335902E+03  0.00000000000E+00 0.  1.
         21    1    1    2  506  503 -0.29959226166E+02 -0.27435205772E+02  0.35502855028E+02  0.53950889366E+02  0.00000000000E+00 0. -1.
<scales pt_clust_3="33.21292" pt_clust_4="14000.00000" pt_clust_5="108.71029" pt_clust_6="38.24107"></scales>
<clustering>
<clus scale="   33.213">  2  3  1 -1</clus>
<clus scale="   38.241">  2  6  1 -1</clus>
<clus scale="  108.710">  2  5  1 -1</clus>
<clus scale="  108.710">  1  3  2 -1</clus>
</clustering>
</event>
<event>
 6    0  0.8641190E+002  0.9957815E+02  0.7546771E-02  0.1281186E+00
         21   -1    0    0  505  501  0.00000000000E+00  0.00000000000E+00  0.83245771959E+03  0.83245771959E+03  0.00000000000E+00 0. -1.
         21   -1    0    0  504  502 -0.00000000000E+00 -0.00000000000E+00 -0.58859591031E+02  0.58859591031E+02  0.00000000000E+00 0.  1.
         21    1    1    2  503  502 -0.27250592521E+02  0.21250379500E+02 -0.20740615508E+02  0.40303182918E+02  0.00000000000E+00 0.  1.
         21    1    1    2  504  506  0.31740012419E+02 -0.26441534081E+02  0.94442951091E+02  0.10308275376E+03  0.00000000000E+00 0. -1.
         21    1    1    2  505  503  0.90159133920E+02  0.37513176415E+02  0.10005730351E+03  0.13981191587E+03  0.00000000000E+00 0.  1.
         21    1    1    2  506  501 -0.94648553819E+02 -0.32322021833E+02  0.59983848947E+03  0.60811945807E+03  0.00000000000E+00 0. -1.
<scales pt_clust_3="34.55681" pt_clust_4="36.04599" pt_clust_5="14000.00000" pt_clust_6="99.57815"></scales>
<clustering>
<clus scale="   34.557">  2  3  1 -1</clus>
<clus scale="   36.046">  2  4  1 -1</clus>
<clus scale="   99.578">  1  6  2 -1</clus>
<clus scale="   99.578">  1  3  2 -1</clus>
</clustering>
</event>
<event>
 6    0  0.8641190E+002  0.8138973E+02  0.7546771E-02  0.1325153E+00
         21   -1    0    0  506  501  0.00000000000E+00  0.00000000000E+00  0.16609929780E+03  0.16609929780E+03  0.00000000000E+00 0. -1.
         21   -1    0    0  505  502 -0.00000000000E+00 -0.00000000000E+00 -0.17433524343E+04  0.17433524343E+04  0.00000000000E+00 0. -1.
         21    1    1    2  503  504 -0.35881538888E+02  0.43671868728E+02 -0.29128450094E+03  0.29671767294E+03  0.00000000000E+00 0. -1.
         21    1    1    2  504  501  0.18825514415E+02  0.45897460473E+02  0.15046749614E+03  0.15843435317E+03  0.00000000000E+00 0. -1.
         21    1    1    2  505  503 -0.66961749133E+02 -0.58101934325E+02 -0.11660953304E+04  0.11694605723E+04  0.00000000000E+00 0. -1.
         21    1    1    2  506  502  0.84017773606E+02 -0.31467394876E+02 -0.27034080127E+03  0.28483913364E+03  0.00000000000E+00 0. -1.
<scales pt_clust_3="62.83652" pt_clust_4="49.60823" pt_clust_5="81.38973" pt_clust_6="14000.00000"></scales>
<clustering>
<clus scale="   49.608">  1  4  2 -1</clus>
<clus scale="   62.837">  1  3  2 -1</clus>
<clus scale="   81.390">  2  5  1 -1</clus>
<clus scale="   49.608">  1  3  2 -1</clus>
</clustering>
</event>
<event>
 6    0  0.8641190E+002  0.1244391E+03  0.7546771E-02  0.1235948E+00
         21   -1    0    0  504  501  0.00000000000E+00  0.00000000000E+00  0.75376100750E+03  0.75376100750E+03  0.00000000000E+00 0.  1.
         21   -1    0    0  503  502 -0.00000000000E+00 -0.00000000000E+00 -0.50880396078E+03  0.50880396078E+03  0.00000000000E+00 0. -1.
         21    1    1    2  503  505  0.10443395996E+03 -0.21794194647E+02 -0.41926977147E+03  0.43262984199E+03  0.00000000000E+00 0. -1.
         21    1    1    2  504  506 -0.58670259476E+02 -0.32497724047E+02  0.17297002679E+02  0.69263899088E+02  0.00000000000E+00 0. -1.
         21    1    1    2  505  501  0.39513932168E+02  0.46004658731E+02  0.66936229868E+03  0.67210391038E+03  0.00000000000E+00 0.  1.
         21    1    1    2  506  502 -0.85277632653E+02  0.82872599630E+01 -0.22432483162E+02  0.88567316824E+02  0.00000000000E+00 0. -1.
<scales pt_clust_3="109.12343" pt_clust_4="52.91688" pt_clust_5="60.64470" pt_clust_6="52.91688"></scales>
<clustering>
<clus scale="   52.917">  4  6 -1 -1</clus>
<clus scale="   60.645">  1  5  2 -1</clus>
<clus scale="  109.123">  2  3  1 -1</clus>
<clus scale="   60.645">  1  3  2 -1</clus>
</clustering>
</event>
<event>
 6    0  0.8641190E+002  0.1366785E+03  0.7546771E-02  0.1217869E+00
         21   -1    0    0  503  501  0.00000000000E+00  0.00000000000E+00  0.26199883824E+04  0.26199883824E+04  0.00000000000E+00 0. -1.
         21   -1    0    0  505  502 -0.00000000000E+00 -0.00000000000E+00 -0.46666079222E+02  0.46666079222E+02  0.00000000000E+00 0. -1.
         21    1    1    2  503  506 -0.96735972479E+01  0.80891438160E+02  0.21336410505E+04  0.21351958074E+04  0.00000000000E+00 0. -1.
         21    1    1    2  504  502 -0.46073911400E+02 -0.84255913184E+02  0.12545921240E+03  0.15799328528E+03  0.00000000000E+00 0. -1.
         21    1    1    2  505  501  0.51669764116E+02  0.80494506766E+02  0.73422715890E+02  0.12058202748E+03  0.00000000000E+00 0. -1.
         21    1    1    2  506  504  0.40777445319E+01 -0.77130031742E+02  0.24079932437E+03  0.25288334151E+03  0.00000000000E+00 0. -1.
<scales pt_clust_3="81.46780" pt_clust_4="74.30812" pt_clust_5="108.70064" pt_clust_6="74.30812"></scales>
<clustering>
<clus scale="   74.308">  4  6 -1 -1</clus>
<clus scale="   81.468">  1  3  2 -1</clus>
<clus scale="  108.701">  2  5  1 -1</clus>
<clus scale="   81.468">  1  3  2 -1</clus>
</clustering>
</event>
<event>
 6    0  0.8641190E+002  0.1050628E+03  0.7546771E-02  0.1269996E+00
         21   -1    0    0  504  501  0.00000000000E+00  0.00000000000E+00  0.11858699439E+03  0.11858699439E+03  0.00000000000E+00 0.  1.
         21   -1    0    0  506  502 -0.00000000000E+00 -0.00000000000E+00 -0.25495959338E+03  0.25495959338E+03  0.00000000000E+00 0.  1.
         21    1    1    2  503  501 -0.16723716431E+02  0.82365685097E+02  0.15772157250E+02  0.85513447580E+02  0.00000000000E+00 0.  1.
         21    1    1    2  504  502  0.54951931385E+02  0.57436813329E+02 -0.25819785085E+02  0.83578487604E+02  0.00000000000E+00 0.  1.
         21    1    1    2  505  503 -0.55485783390E+02 -0.10324595085E+03 -0.11036379247E+03  0.16099243837E+03  0.00000000000E+00 0.  1.
         21    1    1    2  506  505  0.17257568437E+02 -0.36556547578E+02 -0.15961178693E+02  0.43462214215E+02  0.00000000000E+00 0.  1.
<scales pt_clust_3="14000.00000" pt_clust_4="76.52375" pt_clust_5="105.06279" pt_clust_6="40.42530"></scales>
<clustering>
<clus scale="   40.425">  2  6  1 -1</clus>
<clus scale="   76.524">  1  4  2 -1</clus>
<clus scale="  105.063">  2  5  1 -1</clus>
<clus scale="   76.524">  1  3  2 -1</clus>
</clustering>
</event>
<event>
 6    0  0.8641190E+002  0.1798715E+03  0.7546771E-02  0.1167927E+00
         21   -1    0    0  506  501  0.00000000000E+00  0.00000000000E+00  0.23627703733E+04  0.23627703733E+04  0.00000000000E+00 0.  1.
         21   -1    0    0  505  502 -0.00000000000E+00 -0.00000000000E+00 -0.21709933163E+03  0.21709933163E+03  0.00000000000E+00 0. -1.
         21    1    1    2  503  504  0.89062772040E+02 -0.55565071065E+02 -0.52601079743E+02  0.11741604693E+03  0.00000000000E+00 0. -1.
         21    1    1    2  504  501 -0.37757268870E+02  0.15054743324E+01  0.22213093640E+04  0.22216307452E+04  0.00000000000E+00 0.  1.
         21    1    1    2  505  503  0.53425014358E+02 -0.59172898341E+02  0.16904356417E+02  0.81494915934E+02  0.00000000000E+00 0. -1.
         21    1    1    2  506  502 -0.10473051753E+03  0.11323249507E+03 -0.39941598962E+02  0.15932799682E+03  0.00000000000E+00 0. -1.
<scales pt_clust_3="59.31758" pt_clust_4="37.78727" pt_clust_5="59.31758" pt_clust_6="165.92171"></scales>
<clustering>
<clus scale="   37.787">  1  4  2 -1</clus>
<clus scale="   59.318">  3  5 -1 -1</clus>
<clus scale="  165.922">  2  6  1 -1</clus>
<clus scale="   37.787">  1  3  2 -1</clus>
</clustering>
</event>
<event>
 6    0  0.8641190E+002  0.9414788E+02  0.7546771E-02  0.1293107E+00
         21   -1    0    0  503  501  0.00000000000E+00  0.00000000000E+00  0.63243621376E+03  0.63243621376E+03  0.00000000000E+00 0.  1.
         21   -1    0    0  501  502 -0.00000000000E+00 -0.00000000000E+00 -0.69317876856E+02  0.69317876856E+02  0.00000000000E+00 0.  1.
         21    1    1    2  503  506  0.42351264478E+02 -0.44690269803E+02  0.29850747769E+03  0.30479101702E+03  0.00000000000E+00 0.  1.
         21    1    1    2  504  502 -0.39423590386E+02  0.13508017516E+01 -0.14033380340E+02  0.41868602891E+02  0.00000000000E+00 0.  1.
         21    1    1    2  505  504  0.74896855042E+02  0.85321194636E+02  0.83752219197E+02  0.14108040037E+03  0.00000000000E+00 0.  1.
         21    1    1    2  506  505 -0.77824529134E+02 -0.41981726584E+02  0.19489202036E+03  0.21401407034E+03  0.00000000000E+00 0.  1.
<scales pt_clust_3="59.47303" pt_clust_4="39.44673" pt_clust_5="14000.00000" pt_clust_6="94.14788"></scales>
<clustering>
<clus scale="   39.447">  2  4  1 -1</clus>
<clus scale="   59.473">  1  3  2 -1</clus>
<clus scale="   94.148">  1  6  2 -1</clus>
<clus scale="   59.473">  1  3  2 -1</clus>
</clustering>
</event>
<event>
 6    0  0.8641190E+002  0.1509520E+03  0.7546771E-02  0.1199308E+00
         21   -1    0    0  506  501  0.00000000000E+00  0.00000000000E+00  0.96829224007E+02  0.96829224007E+02  0.00000000000E+00 0.  1.
         21   -1    0    0  503  502 -0.00000000000E+00 -0.00000000000E+00 -0.31689812239E+03  0.31689812239E+03  0.00000000000E+00 0.  1.
         21    1    1    2  503  504 -0.61725979040E+02 -0.11612903822E+02 -0.15685254764E+03  0.16896058039E+03  0.00000000000E+00 0.  1.
         21    1    1    2  504  501 -0.67525047509E+02 -0.29978302059E+02 -0.59567033987E+02  0.94902909193E+02  0.00000000000E+00 0. -1.
         21    1    1    2  505  502  0.30214051041E+02  0.39283167245E+02 -0.10148467933E+02  0.50587029074E+02  0.00000000000E+00 0.  1.
         21    1    1    2  506  505  0.99036975508E+02  0.23080386358E+01  0.64991511787E+01  0.99276827741E+02  0.00000000000E+00 0.  1.
<scales pt_clust_3="60.81807" pt_clust_4="60.81807" pt_clust_5="44.79041" pt_clust_6="149.81942"></scales>
<clustering>
<clus scale="   44.790">  5  6 -1 -1</clus>
<clus scale="   60.818">  3  4 -1 -1</clus>
<clus scale="  149.819">  1  5  2 -1</clus>
<clus scale="  149.819">  1  3  2 -1</clus>
</clustering>
</event>
<event>
 6    0  0.8641190E+002  0.1116322E+03  0.7546771E-02  0.1257577E+00
         21   -1    0    0  505  501  0.00000000000E+00  0.00000000000E+00  0.14772678936E+03  0.14772678936E+03  0.00000000000E+00 0.  1.
         21   -1    0    0  504  502 -0.00000000000E+00 -0.00000000000E+00 -0.13752032018E+03  0.13752032018E+03  0.00000000000E+00 0.  1.
         21    1    1    2  503  501 -0.89140907328E+02  0.78290334486E+02 -0.12808951031E+02  0.11932957328E+03  0.00000000000E+00 0.  1.
         21    1    1    2  504  503  0.38394648897E+02 -0.32190120888E+01 -0.30090556302E+02  0.48887142290E+02  0.00000000000E+00 0.  1.
         21    1    1    2  505  506  0.42684021774E+02 -0.23116177067E+02  0.11252244106E+02  0.49828670004E+02  0.00000000000E+00 0.  1.
         21    1    1    2  506  502  0.80622366575E+01 -0.51955145330E+02  0.41853732409E+02  0.67201723957E+02  0.00000000000E+00 0.  1.
<scales pt_clust_3="98.97866" pt_clust_4="38.52935" pt_clust_5="50.87380" pt_clust_6="50.87380"></scales>
<clustering>
<clus scale="   38.529">  2  4  1 -1</clus>
<clus scale="   50.874">  5  6 -1 -1</clus>
<clus scale="   98.979">  2  3  1 -1</clus>
<clus scale="  111.632">  1  3  2 -1</clus>
</clustering>
</event>
<event>
 6    0  0.8641190E+002  0.1352977E+03  0.7546771E-02  0.1219800E+00
         21   -1    0    0  506  501  0.00000000000E+00  0.00000000000E+00  0.71834150884E+03  0.71834150884E+03  0.00000000000E+00 0. -1.
         21   -1    0    0  503  502 -0.00000000000E+00 -0.00000000000E+00 -0.78585221771E+03  0.78585221771E+03  0.00000000000E+00 0. -1.
         21    1    1    2  503  504  0.10223827920E+03  0.11196299458E+03  0.52809532738E+03  0.54942975228E+03  0.00000000000E+00 0. -1.
         21    1    1    2  504  505 -0.99578026556E+02  0.64302959527E-01  0.12071817834E+03  0.15648854939E+03  0.00000000000E+00 0. -1.
         21    1    1    2  505  501  0.28971201287E+02  0.19547897169E+02  0.26099694156E+02  0.43619317083E+02  0.00000000000E+00 0.  1.
         21    1    1    2  506  502 -0.31631453929E+02 -0.13157519471E+03 -0.74242390875E+03  0.75465610779E+03  0.00000000000E+00 0. -1.
<scales pt_clust_3="135.29769" pt_clust_4="93.78951" pt_clust_5="34.94926" pt_clust_6="14000.00000"></scales>
<clustering>
<clus scale="   34.949">  1  5  2 -1</clus>
<clus scale="   93.790">  1  4  2 -1</clus>
<clus scale="  135.298">  1  3  2 -1</clus>
<clus scale="   34.949">  1  3  2 -1</clus>
</clustering>
</event>
<event>
 6    0  0.8641190E+002  0.9264880E+02  0.7546771E-02  0.1296561E+00
         21   -1    0    0  506  501  0.00000000000E+00  0.00000000000E+00  0.24152447025E+03  0.24152447025E+03  0.00000000000E+00 0. -1.
         21   -1    0    0  505  502 -0.00000000000E+00 -0.00000000000E+00 -0.14630512106E+03  0.14630512106E+03  0.00000000000E+00 0. -1.
         21    1    1    2  503  504 -0.52322968088E+02  0.52130121322E+02  0.57627175028E+01  0.74084083659E+02  0.00000000000E+00 0. -1.
         21    1    1    2  504  501  0.37313295922E+02 -0.10002603659E+03  0.10847074480E+03  0.15219524476E+03  0.00000000000E+00 0. -1.
         21    1    1    2  505  503 -0.41082425371E+02  0.28045848212E+02 -0.68157568601E+02  0.84378844706E+02  0.00000000000E+00 0. -1.
         21    1    1    2  506  502  0.56092097537E+02  0.19850067060E+02  0.49143455481E+02  0.77171418187E+02  0.00000000000E+00 0. -1.
<scales pt_clust_3="92.64880" pt_clust_4="14000.00000" pt_clust_5="49.74269" pt_clust_6="54.22187"></scales>
<clustering>
<clus scale="   49.743">  2  5  1 -1</clus>
<clus scale="   54.222">  1  6  2 -1</clus>
<clus scale="   92.649">  2  3  1 -1</clus>
<clus scale="   54.222">  1  3  2 -1</clus>
</clustering>
</event>
<event>
 6    0  0.8641190E+002  0.2030026E+03  0.7546771E-02  0.1147230E+00
         21   -1    0    0  504  501  0.00000000000E+00  0.00000000000E+00  0.23358333812E+03  0.23358333812E+03  0.00000000000E+00 0. -1.
         21   -1    0    0  506  502 -0.00000000000E+00 -0.00000000000E+00 -0.20633670700E+03  0.20633670700E+03  0.00000000000E+00 0. -1.
         21    1    1    2  503  502  0.62239625633E+02  0.15815974980E+03  0.15348479349E+02  0.17065712195E+03  0.00000000000E+00 0. -1.
         21    1    1    2  504  503 -0.33554961779E+02  0.31868892569E+02  0.28565618926E+02  0.54383419883E+02  0.00000000000E+00 0.  1.
         21    1    1    2  505  501  0.25516040388E+02 -0.10266867635E+03  0.16024856988E+02  0.10699869841E+03  0.00000000000E+00 0. -1.
         21    1    1    2  506  505 -0.54200704242E+02 -0.87359966018E+02 -0.32692324144E+02  0.10788080488E+03  0.00000000000E+00 0. -1.
<scales pt_clust_3="179.57822" pt_clust_4="46.27701" pt_clust_5="90.98876" pt_clust_6="90.98876"></scales>
<clustering>
<clus scale="   46.277">  1  4  2 -1</clus>
<clus scale="   90.989">  5  6 -1 -1</clus>
<clus scale="  179.578">  1  3  2 -1</clus>
<clus scale="   46.277">  1  3  2 -1</clus>
</clustering>
</event>
<event>
 6    0  0.8641190E+002  0.8049799E+02  0.7546771E-02  0.1327644E+00
         21   -1    0    0  504  501  0.00000000000E+00  0.00000000000E+00  0.13650406954E+03  0.13650406954E+03  0.00000000000E+00 0. -1.
         21   -1    0    0  505  502 -0.00000000000E+00 -0.00000000000E+00 -0.14298019880E+04  0.14298019880E+04  0.00000000000E+00 0.  1.
         21    1    1    2  503  502  0.51165847406E+01 -0.80794899468E+02 -0.27827739470E+03  0.28981425710E+03  0.00000000000E+00 0. -1.
         21    1    1    2  504  503 -0.54128391728E+02 -0.19620004914E+01  0.11855681365E+03  0.13034358557E+03  0.00000000000E+00 0. -1.
         21    1    1    2  505  506 -0.24658191989E+02  0.17122062351E+02 -0.73242663249E+03  0.73304158370E+03  0.00000000000E+00 0.  1.
         21    1    1    2  506  501  0.73669998976E+02  0.65634837608E+02 -0.40115070497E+03  0.41310663122E+03  0.00000000000E+00 0. -1.
<scales pt_clust_3="80.49799" pt_clust_4="54.36724" pt_clust_5="30.01985" pt_clust_6="14000.00000"></scales>
<clustering>
<clus scale="   30.020">  2  5  1 -1</clus>
<clus scale="   54.367">  1  4  2 -1</clus>
<clus scale="   80.498">  2  3  1 -1</clus>
<clus scale="   54.367">  1  3  2 -1</clus>
</clustering>
</event>
<event>
 6    0  0.8641190E+002  0.8897154E+02  0.7546771E-02  0.1305362E+00
         21   -1    0    0  503  501  0.00000000000E+00  0.00000000000E+00  0.40096104305E+03  0.40096104305E+03  0.00000000000E+00 0.  1.
         21   -1    0    0  505  502 -0.00000000000E+00 -0.00000000000E+00 -0.89783621672E+02  0.89783621672E+02  0.00000000000E+00 0.  1.
         21    1    1    2  503  504 -0.32659095478E+02 -0.46827801047E+02  0.53467370314E+02  0.78219045997E+02  0.00000000000E+00 0.  1.
         21    1    1    2  504  502 -0.19811959000E+02 -0.79552310431E+02 -0.16550664330E+02  0.83636166244E+02  0.00000000000E+00 0.  1.
         21    1    1    2  505  506  0.84380518514E+02  0.12314811444E+03  0.23092493708E+03  0.27497610180E+03  0.00000000000E+00 0.  1.
         21    1    1    2  506  501 -0.31909464037E+02  0.32319970397E+01  0.43335778315E+02  0.53913350685E+02  0.00000000000E+00 0.  1.
<scales pt_clust_3="60.23551" pt_clust_4="88.97154" pt_clust_5="14000.00000" pt_clust_6="32.07273"></scales>
<clustering>
<clus scale="   32.073">  1  6  2 -1</clus>
<clus scale="   60.236">  1  3  2 -1</clus>
<clus scale="   88.972">  2  4  1 -1</clus>
<clus scale="   32.073">  1  3  2 -1</clus>
</clustering>
</event>
<event>
 6    0  0.1264363E+003  0.9943796E+02  0.7546771E-02  0.1281482E+00
         21   -1    0    0  506  501  0.00000000000E+00  0.00000000000E+00  0.58016580962E+03  0.58016580962E+03  0.00000000000E+00 0.  1.
         21   -1    0    0  503  502 -0.00000000000E+00 -0.00000000000E+00 -0.18605354695E+04  0.18605354695E+04  0.00000000000E+00 0. -1.
         21    1    1    2  503  501 -0.28050715643E+02 -0.16662757792E+02  0.17759169983E+02  0.37146712692E+02  0.00000000000E+00 0.  1.
         21    1    1    2  504  502  0.99005655751E+02 -0.86292657822E+01 -0.18362892160E+04  0.18389765276E+04  0.00000000000E+00 0. -1.
         21    1    1    2  505  504 -0.11619514796E+03 -0.48861058702E+01  0.36604944156E+03  0.38407991370E+03  0.00000000000E+00 0.  1.
         21    1    1    2  506  505  0.45240207852E+02  0.30178129445E+02  0.17211094464E+03  0.18049812511E+03  0.00000000000E+00 0.  1.
<scales pt_clust_3="32.62653" pt_clust_4="99.43796" pt_clust_5="14000.00000" pt_clust_6="43.99230"></scales>
<clustering>
<clus scale="   32.627">  1  3  2 -1</clus>
<clus scale="   43.992">  1  6  2 -1</clus>
<clus scale="   99.438">  2  4  1 -1</clus>
<clus scale="   32.627">  1  3  2 -1</clus>
</clustering>
</event>
<event>
 6    0  0.8641190E+002  0.7724559E+02  0.7546771E-02  0.1337055E+00
         21   -1    0    0  503  501  0.00000000000E+00  0.00000000000E+00  0.46253998077E+03  0.46253998077E+03  0.00000000000E+00 0.  1.
         21   -1    0    0  505  502 -0.00000000000E+00 -0.00000000000E+00 -0.98780527377E+02  0.98780527377E+02  0.00000000000E+00 0.  1.
         21    1    1    2  503  506 -0.39576651693E+02  0.49044797540E+01  0.37775735905E+02  0.54930606260E+02  0.00000000000E+00 0.  1.
         21    1    1    2  504  502  0.64715750219E+02 -0.51970552171E+02  0.14224904908E+03  0.16469322567E+03  0.00000000000E+00 0.  1.
         21    1    1    2  505  501  0.44223758409E+02  0.39728966359E+02 -0.62212963655E+02  0.86049894959E+02  0.00000000000E+00 0.  1.
         21    1    1    2  506  504 -0.69362856935E+02  0.73371060580E+01  0.24594763207E+03  0.25564678126E+03  0.00000000000E+00 0.  1.
<scales pt_clust_3="39.87938" pt_clust_4="77.24559" pt_clust_5="58.70564" pt_clust_6="14000.00000"></scales>
<clustering>
<clus scale="   39.879">  1  3  2 -1</clus>
<clus scale="   58.706">  2  5  1 -1</clus>
<clus scale="   77.246">  2  4  1 -1</clus>
<clus scale="   39.879">  1  3  2 -1</clus>
</clustering>
</event>
<event>
 6    0  0.8641190E+002  0.1041498E+03  0.7546771E-02  0.1271804E+00
         21   -1    0    0  505  501  0.00000000000E+00  0.00000000000E+00  0.61173543413E+02  0.61173543413E+02  0.00000000000E+00 0.  1.
         21   -1    0    0  503  502 -0.00000000000E+00 -0.00000000000E+00 -0.27406156811E+04  0.27406156811E+04  0.00000000000E+00 0. -1.
         21    1    1    2  503  504 -0.15511895326E+02  0.99625366956E+02 -0.12621046578E+04  0.12661255861E+04  0.00000000000E+00 0. -1.
         21    1    1    2  504  501  0.44355992053E+02  0.38101642991E+02 -0.55578575549E+03  0.55885328597E+03  0.00000000000E+00 0.  1.
         21    1    1    2  505  506 -0.34276519327E+02 -0.27849784743E+02  0.45325883324E+02  0.63284484564E+02  0.00000000000E+00 0.  1.
         21    1    1    2  506  502  0.54324225987E+01 -0.10987722520E+03 -0.90687760780E+03  0.91352586792E+03  0.00000000000E+00 0.  1.
<scales pt_clust_3="104.14977" pt_clust_4="48.61599" pt_clust_5="44.16436" pt_clust_6="14000.00000"></scales>
<clustering>
<clus scale="   44.164">  1  5  2 -1</clus>
<clus scale="   48.616">  1  4  2 -1</clus>
<clus scale="  104.150">  2  3  1 -1</clus>
<clus scale="   44.164">  1  3  2 -1</clus>
</clustering>
</event>
<event>
 6    0  0.8641190E+002  0.1077574E+03  0.7546771E-02  0.1264780E+00
         21   -1    0    0  505  501  0.00000000000E+00  0.00000000000E+00  0.49993123202E+02  0.49993123202E+02  0.00000000000E+00 0.  1.
         21   -1    0    0  504  502 -0.00000000000E+00 -0.00000000000E+00 -0.95689325292E+03  0.95689325292E+03  0.00000000000E+00 0. -1.
         21    1    1    2  503  506  0.21218216133E+02  0.85875040059E+02 -0.58694690682E+03  0.59357510614E+03  0.00000000000E+00 0. -1.
         21    1    1    2  504  501 -0.24437081516E+02 -0.28845423071E+02 -0.15930542205E+03  0.16372979839E+03  0.00000000000E+00 0. -1.
         21    1    1    2  505  503 -0.19363895429E+02 -0.93619922718E+02 -0.13829811216E+02  0.96596656537E+02  0.00000000000E+00 0.  1.
         21    1    1    2  506  502  0.22582760811E+02  0.36590305730E+02 -0.14681798963E+03  0.15298481506E+03  0.00000000000E+00 0. -1.
<scales pt_clust_3="31.37014" pt_clust_4="37.80515" pt_clust_5="97.91405" pt_clust_6="31.37014"></scales>
<clustering>
<clus scale="   31.370">  3  6 -1 -1</clus>
<clus scale="   37.805">  2  4  1 -1</clus>
<clus scale="   97.914">  1  5  2 -1</clus>
<clus scale="   97.914">  1  3  2 -1</clus>
</clustering>
</event>
<event>
 6    0  0.8641190E+002  0.1687040E+03  0.7546771E-02  0.1179206E+00
         21   -1    0    0  503  501  0.00000000000E+00  0.00000000000E+00  0.12427951468E+04  0.12427951468E+04  0.00000000000E+00 0. -1.
         21   -1    0    0  505  502 -0.00000000000E+00 -0.00000000000E+00 -0.21308601958E+03  0.21308601958E+03  0.00000000000E+00 0. -1.
         21    1    1    2  503  504  0.33119557124E+02 -0.50649689705E+02  0.22129112284E+03  0.22941677615E+03  0.00000000000E+00 0. -1.
         21    1    1    2  504  506  0.12389109562E+03 -0.98203547751E+01  0.74777764586E+03  0.75803486106E+03  0.00000000000E+00 0. -1.
         21    1    1    2  505  501 -0.69521762148E+02 -0.89702808481E+02  0.21036847009E+03  0.23902879005E+03  0.00000000000E+00 0. -1.
         21    1    1    2  506  502 -0.87488890598E+02  0.15017285296E+03 -0.14972811153E+03  0.22940073916E+03  0.00000000000E+00 0. -1.
<scales pt_clust_3="60.51691" pt_clust_4="168.70405" pt_clust_5="118.52543" pt_clust_6="14000.00000"></scales>
<clustering>
<clus scale="   60.517">  1  3  2 -1</clus>
<clus scale="  118.525">  1  5  2 -1</clus>
<clus scale="  168.704">  1  4  2 -1</clus>
<clus scale="   60.517">  1  3  2 -1</clus>
</clustering>
</event>
<event>
 6    0  0.8641190E+002  0.8491746E+02  0.7546771E-02  0.1315649E+00
         21   -1    0    0  504  501  0.00000000000E+00  0.00000000000E+00  0.17028984757E+04  0.17028984757E+04  0.00000000000E+00 0.  1.
         21   -1    0    0  505  502 -0.00000000000E+00 -0.00000000000E+00 -0.35183210524E+02  0.35183210524E+02  0.00000000000E+00 0.  1.
         21    1    1    2  503  502  0.77074390918E+01 -0.88056771916E+02  0.11525115669E+03  0.14524540893E+03  0.00000000000E+00 0.  1.
         21    1    1    2  504  506  0.10468870931E+02  0.64820664445E+02  0.11628223632E+04  0.11646747032E+04  0.00000000000E+00 0.  1.
         21    1    1    2  505  501 -0.91266330527E+02  0.18650043675E+02  0.28936931790E+03  0.30399337058E+03  0.00000000000E+00 0.  1.
         21    1    1    2  506  503  0.73090020504E+02  0.45860637966E+01  0.10027242733E+03  0.12416820350E+03  0.00000000000E+00 0.  1.
<scales pt_clust_3="73.11745" pt_clust_4="65.66061" pt_clust_5="14000.00000" pt_clust_6="84.91746"></scales>
<clustering>
<clus scale="   65.661">  1  4  2 -1</clus>
<clus scale="   73.117">  2  3  1 -1</clus>
<clus scale="   84.917">  2  6  1 -1</clus>
<clus scale="   65.661">  1  3  2 -1</clus>
</clustering>
</event>
<event>
 6    0  0.8641190E+002  0.1030116E+03  0.7546771E-02  0.1274087E+00
         21   -1    0    0  505  501  0.00000000000E+00  0.00000000000E+00  0.54990548836E+03  0.54990548836E+03  0.00000000000E+00 0.  1.
         21   -1    0    0  504  502 -0.00000000000E+00 -0.00000000000E+00 -0.57414756157E+03  0.57414756157E+03  0.00000000000E+00 0.  1.
         21    1    1    2  503  501  0.17176427902E+02 -0.71314812280E+02 -0.61736298651E+02  0.95875975599E+02  0.00000000000E+00 0. -1.
         21    1    1    2  504  506 -0.65555714109E+02  0.46392120488E+02 -0.44439492738E+03  0.45159343660E+03  0.00000000000E+00 0.  1.
         21    1    1    2  505  502 -0.62515035994E+01  0.55655900820E+02  0.50624672303E+03  0.50933525813E+03  0.00000000000E+00 0.  1.
         21    1    1    2  506  503  0.54630789807E+02 -0.30733209028E+02 -0.24357570205E+02  0.67248379596E+02  0.00000000000E+00 0. -1.
<scales pt_clust_3="55.67406" pt_clust_4="83.57077" pt_clust_5="56.00590" pt_clust_6="55.67406"></scales>
<clustering>
<clus scale="   55.674">  3  6 -1 -1</clus>
<clus scale="   56.006">  1  5  2 -1</clus>
<clus scale="   83.571">  2  4  1 -1</clus>
<clus scale="   56.006">  1  3  2 -1</clus>
</clustering>
</event>
<event>
 6    0  0.8641190E+002  0.9474903E+02  0.7546771E-02  0.1291742E+00
         21   -1    0    0  504  501  0.00000000000E+00  0.00000000000E+00  0.74823009914E+02  0.74823009914E+02  0.00000000000E+00 0.  1.
         21   -1    0    0  503  502 -0.00000000000E+00 -0.00000000000E+00 -0.83165215146E+03  0.83165215146E+03  0.00000000000E+00 0.  1.
         21    1    1    2  503  506 -0.22865833758E+02  0.30136912979E+02 -0.72730812598E+02  0.81980796401E+02  0.00000000000E+00 0.  1.
         21    1    1    2  504  502  0.92389675118E+02 -0.85046177103E+01 -0.22646013937E+03  0.24472918771E+03  0.00000000000E+00 0.  1.
         21    1    1    2  505  501 -0.27183989157E+02 -0.93995439460E+02  0.15665318384E+02  0.99093461469E+02  0.00000000000E+00 0.  1.
         21    1    1    2  506  505 -0.42339852203E+02  0.72363144192E+02 -0.47330350796E+03  0.48067171580E+03  0.00000000000E+00 0.  1.
<scales pt_clust_3="37.82962" pt_clust_4="85.25267" pt_clust_5="94.74903" pt_clust_6="14000.00000"></scales>
<clustering>
<clus scale="   37.830">  2  3  1 -1</clus>
<clus scale="   85.253">  2  4  1 -1</clus>
<clus scale="   94.749">  1  5  2 -1</clus>
<clus scale="   94.749">  1  3  2 -1</clus>
</clustering>
</event>
<event>
 6    0  0.8641190E+002  0.1422173E+03  0.7546771E-02  0.1210376E+00
         21   -1    0    0  503  501  0.00000000000E+00  0.00000000000E+00  0.12607084241E+03  0.12607084241E+03  0.00000000000E+00 0. -1.
         21   -1    0    0  505  502 -0.00000000000E+00 -0.00000000000E+00 -0.75180338129E+03  0.75180338129E+03  0.00000000000E+00 0. -1.
         21    1    1    2  503  506  0.23075453770E+02 -0.31837148343E+02  0.96773401407E+02  0.10445655461E+03  0.00000000000E+00 0. -1.
         21    1    1    2  504  502 -0.46004006485E+02  0.10772041483E+03 -0.31840703610E+03  0.33926847336E+03  0.00000000000E+00 0. -1.
         21    1    1    2  505  501  0.14486414013E+02 -0.11022134157E+03 -0.21787525655E+03  0.24459809432E+03  0.00000000000E+00 0. -1.
         21    1    1    2  506  504  0.84421387009E+01  0.34338075087E+02 -0.18622364763E+03  0.18955110140E+03  0.00000000000E+00 0. -1.
<scales pt_clust_3="39.32023" pt_clust_4="32.06827" pt_clust_5="129.68909" pt_clust_6="32.06827"></scales>
<clustering>
<clus scale="   32.068">  4  6 -1 -1</clus>
<clus scale="   39.320">  1  3  2 -1</clus>
<clus scale="  129.689">  1  5  2 -1</clus>
<clus scale="   39.320">  1  3  2 -1</clus>
</clustering>
</event>
<event>
 6    0  0.8641190E+002  0.1254372E+03  0.7546771E-02  0.1234388E+00
         21   -1    0    0  505  501  0.00000000000E+00  0.00000000000E+00  0.24238595832E+03  0.24238595832E+03  0.00000000000E+00 0. -1.
         21   -1    0    0  504  502 -0.00000000000E+00 -0.00000000000E+00 -0.53678154090E+03  0.53678154090E+03  0.00000000000E+00 0.  1.
         21    1    1    2  503  501 -0.14618006135E+02 -0.12621246315E+03  0.17186498368E+03  0.21373077592E+03  0.00000000000E+00 0. -1.
         21    1    1    2  504  503  0.79156587173E+02 -0.49846892978E+02 -0.73184241919E+02  0.11877041424E+03  0.00000000000E+00 0. -1.
         21    1    1    2  505  506 -0.69138930778E+02  0.11605607015E+03 -0.17877257306E+03  0.22407328276E+03  0.00000000000E+00 0. -1.
         21    1    1    2  506  502  0.46003497401E+01  0.60003285979E+02 -0.21430375128E+03  0.22259302630E+03  0.00000000000E+00 0.  1.
<scales pt_clust_3="14000.00000" pt_clust_4="86.57776" pt_clust_5="125.43716" pt_clust_6="60.17938"></scales>
<clustering>
<clus scale="   60.179">  2  6  1 -1</clus>
<clus scale="   86.578">  2  4  1 -1</clus>
<clus scale="  125.437">  2  5  1 -1</clus>
<clus scale="  125.437">  1  3  2 -1</clus>
</clustering>
</event>
<event>
 6    0  0.8641190E+002  0.2193391E+03  0.7546771E-02  0.1134377E+00
         21   -1    0    0  503  501  0.00000000000E+00  0.00000000000E+00  0.22509206918E+03  0.22509206918E+03  0.00000000000E+00 0. -1.
         21   -1    0    0  506  502 -0.00000000000E+00 -0.00000000000E+00 -0.32896476506E+03  0.32896476506E+03  0.00000000000E+00 0.  1.
         21    1    1    2  503  502 -0.77592304468E+01 -0.37852481544E+02  0.28607964481E+02  0.48077350675E+02  0.00000000000E+00 0. -1.
         21    1    1    2  504  505 -0.33820230153E+02  0.11426986637E+03 -0.13005935341E+02  0.11987729010E+03  0.00000000000E+00 0.  1.
         21    1    1    2  505  501 -0.54433239542E+02  0.10116625806E+03  0.47309536001E+02  0.12424082072E+03  0.00000000000E+00 0. -1.
         21    1    1    2  506  504  0.96012700142E+02 -0.17758364288E+03 -0.16678426102E+03  0.26186137274E+03  0.00000000000E+00 0.  1.
<scales pt_clust_3="38.63957" pt_clust_4="62.62132" pt_clust_5="62.62132" pt_clust_6="209.50924"></scales>
<clustering>
<clus scale="   38.640">  1  3  2 -1</clus>
<clus scale="   62.621">  4  5 -1 -1</clus>
<clus scale="  209.509">  2  6  1 -1</clus>
<clus scale="   38.640">  1  3  2 -1</clus>
</clustering>
</event>
<event>
 6    0  0.8641190E+002  0.1286466E+03  0.7546771E-02  0.1229478E+00
         21   -1    0    0  503  501  0.00000000000E+00  0.00000000000E+00  0.38080076544E+02  0.38080076544E+02  0.00000000000E+00 0.  1.
         21   -1    0    0  501  502 -0.00000000000E+00 -0.00000000000E+00 -0.70164546070E+03  0.70164546070E+03  0.00000000000E+00 0. -1.
         21    1    1    2  503  505  0.19596863507E+02 -0.57655766912E+02 -0.33904454598E+02  0.69697464509E+02  0.00000000000E+00 0.  1.
         21    1    1    2  504  502  0.11604926655E+02  0.68715174086E+02 -0.30414974858E+03  0.31203127894E+03  0.00000000000E+00 0. -1.
         21    1    1    2  505  506 -0.75946310083E+01 -0.64835278363E+02 -0.69556621760E+02  0.95390855805E+02  0.00000000000E+00 0.  1.
         21    1    1    2  506  504 -0.23607159153E+02  0.53775871189E+02 -0.25595455922E+03  0.26260593799E+03  0.00000000000E+00 0. -1.
<scales pt_clust_3="36.16237" pt_clust_4="128.41766" pt_clust_5="36.16237" pt_clust_6="33.64215"></scales>
<clustering>
<clus scale="   33.642">  4  6 -1 -1</clus>
<clus scale="   36.162">  3  5 -1 -1</clus>
<clus scale="  128.418">  2  4  1 -1</clus>
<clus scale="  128.647">  1  3  2 -1</clus>
</clustering>
</event>
<event>
 6    0  0.8641190E+002  0.7845664E+02  0.7546771E-02  0.1333489E+00
         21   -1    0    0  503  501  0.00000000000E+00  0.00000000000E+00  0.75858393659E+02  0.75858393659E+02  0.00000000000E+00 0. -1.
         21   -1    0    0  504  502 -0.00000000000E+00 -0.00000000000E+00 -0.15039342849E+04  0.15039342849E+04  0.00000000000E+00 0.  1.
         21    1    1    2  503  506  0.42653822377E+02  0.65580026321E+02  0.44251260477E+02  0.89879154810E+02  0.00000000000E+00 0. -1.
         21    1    1    2  504  501 -0.72297526232E+02 -0.51226570976E+02 -0.42491358175E+03  0.43405373611E+03  0.00000000000E+00 0.  1.
         21    1    1    2  505  502 -0.48409138960E+01 -0.40692645516E+02 -0.92632370948E+03  0.92722971296E+03  0.00000000000E+00 0.  1.
         21    1    1    2  506  505  0.34484617751E+02  0.26339190172E+02 -0.12108986049E+03  0.12863007469E+03  0.00000000000E+00 0.  1.
<scales pt_clust_3="78.45664" pt_clust_4="14000.00000" pt_clust_5="40.97958" pt_clust_6="37.75665"></scales>
<clustering>
<clus scale="   40.980">  2  5  1 -1</clus>
<clus scale="   37.757">  2  6  1 -1</clus>
<clus scale="   78.457">  1  3  2 -1</clus>
<clus scale="   78.457">  1  3  2 -1</clus>
</clustering>
</event>
<event>
 6    0  0.8641190E+002  0.9018682E+02  0.7546771E-02  0.1302400E+00
         21   -1    0    0  503  501  0.00000000000E+00  0.00000000000E+00  0.10543947353E+04  0.10543947353E+04  0.00000000000E+00 0.  1.
         21   -1    0    0  505  502 -0.00000000000E+00 -0.00000000000E+00 -0.96621481942E+03  0.96621481942E+03  0.00000000000E+00 0. -1.
         21    1    1    2  503  506  0.72478969855E+02  0.53065431625E+02  0.10218040976E+04  0.10257449756E+04  0.00000000000E+00 0.  1.
         21    1    1    2  504  502  0.99873041227E+02  0.18181002936E+02 -0.41874212829E+03  0.43087137667E+03  0.00000000000E+00 0. -1.
         21    1    1    2  505  501 -0.61242945940E+02  0.39678592134E+02 -0.17473836255E+03  0.18936363021E+03  0.00000000000E+00 0.  1.
         21    1    1    2  506  504 -0.11110906514E+03 -0.11092502669E+03 -0.34014369091E+03  0.37462957220E+03  0.00000000000E+00 0. -1.
<scales pt_clust_3="14000.00000" pt_clust_4="77.60492" pt_clust_5="72.97321" pt_clust_6="90.18682"></scales>
<clustering>
<clus scale="   72.973">  2  5  1 -1</clus>
<clus scale="   77.605">  2  4  1 -1</clus>
<clus scale="   90.187">  2  6  1 -1</clus>
<clus scale="   90.187">  1  3  2 -1</clus>
</clustering>
</event>
<event>
 6    0  0.8641190E+002  0.1150216E+03  0.7546771E-02  0.1251543E+00
         21   -1    0    0  504  501  0.00000000000E+00  0.00000000000E+00  0.26890987119E+02  0.26890987119E+02  0.00000000000E+00 0.  1.
         21   -1    0    0  506  502 -0.00000000000E+00 -0.00000000000E+00 -0.17169625259E+04  0.17169625259E+04  0.00000000000E+00 0. -1.
         21    1    1    2  503  505 -0.41944266069E+02  0.74873845206E+00 -0.37425374497E+02  0.56218686587E+02  0.00000000000E+00 0. -1.
         21    1    1    2  504  503  0.36019726428E+02 -0.35476009715E+02 -0.13206520742E+03  0.14141141032E+03  0.00000000000E+00 0.  1.
         21    1    1    2  505  502 -0.62513361975E+02 -0.45982483953E+02 -0.12842115975E+03  0.15004767085E+03  0.00000000000E+00 0.  1.
         21    1    1    2  506  501  0.68437901616E+02  0.80709755216E+02 -0.13921597971E+04  0.13961757453E+04  0.00000000000E+00 0. -1.
<scales pt_clust_3="33.55836" pt_clust_4="50.55658" pt_clust_5="33.55836" pt_clust_6="105.57804"></scales>
<clustering>
<clus scale="   33.558">  3  5 -1 -1</clus>
<clus scale="   50.557">  1  4  2 -1</clus>
<clus scale="  105.578">  2  6  1 -1</clus>
<clus scale="   50.557">  1  3  2 -1</clus>
</clustering>
</event>
<event>
 6    0  0.8641190E+002  0.1162374E+03  0.7546771E-02  0.1249436E+00
         21   -1    0    0  506  501  0.00000000000E+00  0.00000000000E+00  0.38527688494E+03  0.38527688494E+03  0.00000000000E+00 0. -1.
         21   -1    0    0  501  502 -0.00000000000E+00 -0.00000000000E+00 -0.46789360735E+03  0.46789360735E+03  0.00000000000E+00 0.  1.
         21    1    1    2  503  504 -0.36833205489E+02 -0.10693466138E+03  0.15716324705E+01  0.11311134717E+03  0.00000000000E+00 0. -1.
         21    1    1    2  504  505 -0.74679835473E+02  0.53530611987E+02  0.69799254251E+01  0.92148378200E+02  0.00000000000E+00 0. -1.
         21    1    1    2  505  502  0.12504660183E+03  0.21913343312E+02 -0.35750546288E+03  0.37937712534E+03  0.00000000000E+00 0.  1.
         21    1    1    2  506  503 -0.13533560866E+02  0.31490706077E+02  0.26633718257E+03  0.26853364158E+03  0.00000000000E+00 0. -1.
<scales pt_clust_3="101.37954" pt_clust_4="14000.00000" pt_clust_5="116.23744" pt_clust_6="34.27567"></scales>
<clustering>
<clus scale="   34.276">  1  6  2 -1</clus>
<clus scale="  101.380">  1  3  2 -1</clus>
<clus scale="  116.237">  2  5  1 -1</clus>
<clus scale="   34.276">  1  3  2 -1</clus>
</clustering>
</event>
<event>
 6    0  0.8641190E+002  0.1676621E+03  0.7546771E-02  0.1180308E+00
         21   -1    0    0  506  501  0.00000000000E+00  0.00000000000E+00  0.26718135063E+03  0.26718135063E+03  0.00000000000E+00 0.  1.
         21   -1    0    0  505  502 -0.00000000000E+00 -0.00000000000E+00 -0.89005004039E+03  0.89005004039E+03  0.00000000000E+00 0.  1.
         21    1    1    2  503  501 -0.15788665145E+03 -0.14825243490E+02  0.17887243380E+03  0.23904671118E+03  0.00000000000E+00 0.  1.
         21    1    1    2  504  502  0.14624191922E+03 -0.79001253638E+02 -0.50535625033E+03  0.53198950813E+03  0.00000000000E+00 0.  1.
         21    1    1    2  505  503 -0.59820569942E+02  0.13888533069E+03 -0.12928806288E+03  0.19895486642E+03  0.00000000000E+00 0. -1.
         21    1    1    2  506  504  0.71465302177E+02 -0.45058833558E+02 -0.16709681034E+03  0.18724030529E+03  0.00000000000E+00 0.  1.
<scales pt_clust_3="160.62223" pt_clust_4="34.27339" pt_clust_5="151.22049" pt_clust_6="34.27339"></scales>
<clustering>
<clus scale="   34.273">  4  6 -1 -1</clus>
<clus scale="  151.220">  2  5  1 -1</clus>
<clus scale="  160.622">  1  3  2 -1</clus>
<clus scale="  160.622">  1  3  2 -1</clus>
</clustering>
</event>
<event>
 6    0  0.8641190E+002  0.8644010E+02  0.7546771E-02  0.1311709E+00
         21   -1    0    0  503  501  0.00000000000E+00  0.00000000000E+00  0.67597343305E+02  0.67597343305E+02  0.00000000000E+00 0.  1.
         21   -1    0    0  506  502 -0.00000000000E+00 -0.00000000000E+00 -0.83089367192E+03  0.83089367192E+03  0.00000000000E+00 0. -1.
         21    1    1    2  503  502  0.48272908986E+02  0.32158228638E+02 -0.30686749473E+03  0.31230127238E+03  0.00000000000E+00 0.  1.
         21    1    1    2  504  505 -0.43787659168E+02  0.74197432313E+01 -0.18925306644E+03  0.19439427677E+03  0.00000000000E+00 0.  1.
         21    1    1    2  505  501  0.59889875690E+02  0.20402645573E+02  0.38260266422E+02  0.73938576827E+02  0.00000000000E+00 0.  1.
         21    1    1    2  506  504 -0.64375125507E+02 -0.59980617442E+02 -0.30543603387E+03  0.31785688924E+03  0.00000000000E+00 0. -1.
<scales pt_clust_3="58.00367" pt_clust_4="40.32823" pt_clust_5="65.19028" pt_clust_6="40.32823"></scales>
<clustering>
<clus scale="   40.328">  4  6 -1 -1</clus>
<clus scale="   58.004">  2  3  1 -1</clus>
<clus scale="   65.190">  1  5  2 -1</clus>
<clus scale="   65.190">  1  3  2 -1</clus>
</clustering>
</event>
<event>
 6    0  0.8641190E+002  0.3460860E+03  0.7546771E-02  0.1064233E+00
         21   -1    0    0  506  501  0.00000000000E+00  0.00000000000E+00  0.44649858631E+03  0.44649858631E+03  0.00000000000E+00 0. -1.
         21   -1    0    0  503  502 -0.00000000000E+00 -0.00000000000E+00 -0.46348275443E+03  0.46348275443E+03  0.00000000000E+00 0. -1.
         21    1    1    2  503  501 -0.28240960381E+02 -0.17259327638E+02  0.14801738785E+01  0.33130456509E+02  0.00000000000E+00 0.  1.
         21    1    1    2  504  505 -0.63924129025E+02  0.14277017003E+03  0.51169043373E+02  0.16458398075E+03  0.00000000000E+00 0. -1.
         21    1    1    2  505  502  0.90054408188E+02 -0.29980285013E+03 -0.29311720614E+03  0.42884640830E+03  0.00000000000E+00 0. -1.
         21    1    1    2  506  504  0.21106812186E+01  0.17429200774E+03  0.22348382077E+03  0.28342049517E+03  0.00000000000E+00 0. -1.
<scales pt_clust_3="33.09738" pt_clust_4="140.57538" pt_clust_5="314.40582" pt_clust_6="140.57538"></scales>
<clustering>
<clus scale="   33.097">  1  3  2 -1</clus>
<clus scale="  140.575">  4  6 -1 -1</clus>
<clus scale="  314.406">  2  5  1 -1</clus>
<clus scale="   33.097">  1  3  2 -1</clus>
</clustering>
</event>
<event>
 6    0  0.8641190E+002  0.1075574E+03  0.7546771E-02  0.1265161E+00
         21   -1    0    0  506  501  0.00000000000E+00  0.00000000000E+00  0.41157138732E+03  0.41157138732E+03  0.00000000000E+00 0. -1.
         21   -1    0    0  504  502 -0.00000000000E+00 -0.00000000000E+00 -0.10418110301E+03  0.10418110301E+03  0.00000000000E+00 0. -1.
         21    1    1    2  503  505 -0.27427941517E+02  0.11999790030E+03  0.28099106204E+02  0.12625905045E+03  0.00000000000E+00 0. -1.
         21    1    1    2  504  501  0.10489796454E+02 -0.87378610944E+02  0.72941635166E+02  0.11430459143E+03  0.00000000000E+00 0. -1.
         21    1    1    2  505  502  0.21602139510E+02  0.21150019478E+02 -0.24000507739E+02  0.38600519777E+02  0.00000000000E+00 0. -1.
         21    1    1    2  506  503 -0.46639944478E+01 -0.53769308829E+02  0.23035005068E+03  0.23658832867E+03  0.00000000000E+00 0. -1.
<scales pt_clust_3="107.55736" pt_clust_4="14000.00000" pt_clust_5="30.23203" pt_clust_6="52.99623"></scales>
<clustering>
<clus scale="   30.232">  2  5  1 -1</clus>
<clus scale="   52.996">  1  6  2 -1</clus>
<clus scale="  107.557">  1  3  2 -1</clus>
<clus scale="   52.996">  1  3  2 -1</clus>
</clustering>
</event>
<event>
 6    0  0.8641190E+002  0.1694461E+03  0.7546771E-02  0.1178427E+00
         21   -1    0    0  503  501  0.00000000000E+00  0.00000000000E+00  0.15422674533E+03  0.15422674533E+03  0.00000000000E+00 0.  1.
         21   -1    0    0  506  502 -0.00000000000E+00 -0.00000000000E+00 -0.29281186323E+03  0.29281186323E+03  0.00000000000E+00 0.  1.
         21    1    1    2  503  504  0.43863542216E+02 -0.89539599922E+01  0.46064202790E+02  0.64234683107E+02  0.00000000000E+00 0.  1.
         21    1    1    2  504  502  0.52961971223E+02 -0.14003270280E+03 -0.63210328689E+02  0.16251053474E+03  0.00000000000E+00 0.  1.
         21    1    1    2  505  501 -0.76594226572E+02  0.83455963055E+02 -0.90806831539E+02  0.14518076308E+03  0.00000000000E+00 0.  1.
         21    1    1    2  506  505 -0.20231286867E+02  0.65530699736E+02 -0.30632160464E+02  0.75112627640E+02  0.00000000000E+00 0. -1.
<scales pt_clust_3="44.76811" pt_clust_4="162.79566" pt_clust_5="36.57534" pt_clust_6="36.57534"></scales>
<clustering>
<clus scale="   36.575">  5  6 -1 -1</clus>
<clus scale="   44.768">  1  3  2 -1</clus>
<clus scale="  162.796">  1  4  2 -1</clus>
<clus scale="   44.768">  1  3  2 -1</clus>
</clustering>
</event>
<event>
 6    0  0.8641190E+002  0.7730936E+02  0.7546771E-02  0.1336865E+00
         21   -1    0    0  506  501  0.00000000000E+00  0.00000000000E+00  0.51453628429E+03  0.51453628429E+03  0.00000000000E+00 0. -1.
         21   -1    0    0  504  502 -0.00000000000E+00 -0.00000000000E+00 -0.65131262440E+02  0.65131262440E+02  0.00000000000E+00 0. -1.
         21    1    1    2  503  502 -0.36819622192E+02  0.44004853667E+02  0.10087601787E+02  0.58256943229E+02  0.00000000000E+00 0. -1.
         21    1    1    2  504  501  0.36002074487E+02  0.12934750767E+02  0.74977843554E+02  0.84173239030E+02  0.00000000000E+00 0. -1.
         21    1    1    2  505  503  0.93080292242E+02 -0.11332227725E+02  0.49558911567E+02  0.10605869085E+03  0.00000000000E+00 0. -1.
         21    1    1    2  506  505 -0.92262744537E+02 -0.45607376709E+02  0.31478066494E+03  0.33117867362E+03  0.00000000000E+00 0. -1.
<scales pt_clust_3="56.41183" pt_clust_4="38.25516" pt_clust_5="14000.00000" pt_clust_6="77.30936"></scales>
<clustering>
<clus scale="   38.255">  1  4  2 -1</clus>
<clus scale="   56.412">  2  3  1 -1</clus>
<clus scale="   77.309">  1  6  2 -1</clus>
<clus scale="   38.255">  1  3  2 -1</clus>
</clustering>
</event>
<event>
 6    0  0.8641190E+002  0.1267829E+03  0.7546771E-02  0.1232309E+00
         21   -1    0    0  505  501  0.00000000000E+00  0.00000000000E+00  0.71893055256E+02  0.71893055256E+02  0.00000000000E+00 0. -1.
         21   -1    0    0  504  502 -0.00000000000E+00 -0.00000000000E+00 -0.87612475714E+03  0.87612475714E+03  0.00000000000E+00 0. -1.
         21    1    1    2  503  501 -0.10251264877E+03  0.10061957951E+03 -0.20480912969E+03  0.25015979401E+03  0.00000000000E+00 0. -1.
         21    1    1    2  504  503  0.65735063549E+02 -0.81858560822E+02 -0.45406399240E+03  0.46604295055E+03  0.00000000000E+00 0. -1.
         21    1    1    2  505  506  0.66104180668E+02  0.38424312455E+02 -0.40370071335E+01  0.76566885244E+02  0.00000000000E+00 0. -1.
         21    1    1    2  506  502 -0.29326595447E+02 -0.57185331139E+02 -0.14132157266E+03  0.15524818259E+03  0.00000000000E+00 0. -1.
<scales pt_clust_3="14000.00000" pt_clust_4="126.78292" pt_clust_5="73.49031" pt_clust_6="64.26672"></scales>
<clustering>
<clus scale="   64.267">  2  6  1 -1</clus>
<clus scale="   73.490">  1  5  2 -1</clus>
<clus scale="  126.783">  2  4  1 -1</clus>
<clus scale="   73.490">  1  3  2 -1</clus>
</clustering>
</event>
<event>
 6    0  0.8641190E+002  0.1135544E+03  0.7546771E-02  0.1254126E+00
         21   -1    0    0  506  501  0.00000000000E+00  0.00000000000E+00  0.14909817299E+04  0.14909817299E+04  0.00000000000E+00 0. -1.
         21   -1    0    0  503  502 -0.00000000000E+00 -0.00000000000E+00 -0.27691327824E+03  0.27691327824E+03  0.00000000000E+00 0. -1.
         21    1    1    2  503  505  0.20722349934E+02 -0.27994456921E+02  0.31698103286E+01  0.34973605799E+02  0.00000000000E+00 0. -1.
         21    1    1    2  504  501  0.73339672949E+02 -0.50032751822E+02  0.14063033853E+04  0.14091029754E+04  0.00000000000E+00 0. -1.
         21    1    1    2  505  504 -0.21232479411E+02 -0.80464401443E+02 -0.53182772083E+02  0.98761051675E+02  0.00000000000E+00 0. -1.
         21    1    1    2  506  502 -0.72829543473E+02  0.15849161019E+03 -0.14222197182E+03  0.22505737529E+03  0.00000000000E+00 0. -1.
<scales pt_clust_3="34.82966" pt_clust_4="88.95697" pt_clust_5="113.55439" pt_clust_6="14000.00000"></scales>
<clustering>
<clus scale="   34.830">  2  3  1 -1</clus>
<clus scale="   88.957">  1  4  2 -1</clus>
<clus scale="  113.554">  1  5  2 -1</clus>
<clus scale="   88.957">  1  3  2 -1</clus>
</clustering>
</event>
<event>
 6    0  0.8641190E+002  0.2865868E+03  0.7546771E-02  0.1092145E+00
         21   -1    0    0  505  501  0.00000000000E+00  0.00000000000E+00  0.30601254110E+03  0.30601254110E+03  0.00000000000E+00 0.  1.
         21   -1    0    0  504  502 -0.00000000000E+00 -0.00000000000E+00 -0.55601289684E+03  0.55601289684E+03  0.00000000000E+00 0.  1.
         21    1    1    2  503  506 -0.92795495701E+02  0.25539655362E+03  0.13032719552E+03  0.30136950993E+03  0.00000000000E+00 0.  1.
         21    1    1    2  504  503 -0.40929789152E+02  0.92068819357E+00 -0.38283809988E+02  0.56051274864E+02  0.00000000000E+00 0.  1.
         21    1    1    2  505  502  0.11346987730E+03 -0.27953215229E+03 -0.35940585465E+03  0.46924002981E+03  0.00000000000E+00 0.  1.
         21    1    1    2  506  501  0.20255407552E+02  0.23214910476E+02  0.17362113377E+02  0.35364623346E+02  0.00000000000E+00 0. -1.
<scales pt_clust_3="286.58676" pt_clust_4="40.32044" pt_clust_5="14000.00000" pt_clust_6="30.80931"></scales>
<clustering>
<clus scale="   30.809">  1  6  2 -1</clus>
<clus scale="   40.320">  2  4  1 -1</clus>
<clus scale="  286.587">  1  3  2 -1</clus>
<clus scale="   30.809">  1  3  2 -1</clus>
</clustering>
</event>
<event>
 6    0  0.8641190E+002  0.2193674E+03  0.7546771E-02  0.1134356E+00
         21   -1    0    0  504  501  0.00000000000E+00  0.00000000000E+00  0.29143471585E+03  0.29143471585E+03  0.00000000000E+00 0.  1.
         21   -1    0    0  505  502 -0.00000000000E+00 -0.00000000000E+00 -0.34488464458E+03  0.34488464458E+03  0.00000000000E+00 0.  1.
         21    1    1    2  503  502  0.50363660561E+01  0.38458551637E+02 -0.18251901657E+03  0.18659479250E+03  0.00000000000E+00 0.  1.
         21    1    1    2  504  506  0.62206733985E+01 -0.11417578593E+03  0.39138939967E+02  0.12085803032E+03  0.00000000000E+00 0.  1.
         21    1    1    2  505  501 -0.96573566290E+02  0.15964639709E+03  0.94399130302E+02  0.20910433188E+03  0.00000000000E+00 0.  1.
         21    1    1    2  506  503  0.85316526836E+02 -0.83929162797E+02 -0.44689824320E+01  0.11976220574E+03  0.00000000000E+00 0.  1.
<scales pt_clust_3="38.78692" pt_clust_4="92.36547" pt_clust_5="197.61227" pt_clust_6="92.36547"></scales>
<clustering>
<clus scale="   38.787">  2  3  1 -1</clus>
<clus scale="   92.365">  4  6 -1 -1</clus>
<clus scale="  197.612">  1  5  2 -1</clus>
<clus scale="  197.612">  1  3  2 -1</clus>
</clustering>
</event>
<event>
 6    0  0.8641190E+002  0.8895242E+02  0.7546771E-02  0.1305409E+00
         21   -1    0    0  504  501  0.00000000000E+00  0.00000000000E+00  0.30297256911E+03  0.30297256911E+03  0.00000000000E+00 0. -1.
         21   -1    0    0  505  502 -0.00000000000E+00 -0.00000000000E+00 -0.48028750695E+03  0.48028750695E+03  0.00000000000E+00 0.  1.
         21    1    1    2  503  501  0.63221721327E+01 -0.53715486388E+02  0.11465118567E+03  0.12676836243E+03  0.00000000000E+00 0.  1.
         21    1    1    2  504  502 -0.35215336029E+01  0.38907820463E+02 -0.42402811267E+03  0.42582397775E+03  0.00000000000E+00 0.  1.
         21    1    1    2  505  506  0.57599051736E+02 -0.66397432257E+02  0.62989733868E+02  0.10813869032E+03  0.00000000000E+00 0. -1.
         21    1    1    2  506  503 -0.60399690266E+02  0.81205098182E+02  0.69072255288E+02  0.12252904556E+03  0.00000000000E+00 0. -1.
<scales pt_clust_3="49.81258" pt_clust_4="39.06686" pt_clust_5="88.95242" pt_clust_6="14000.00000"></scales>
<clustering>
<clus scale="   39.067">  2  4  1 -1</clus>
<clus scale="   49.813">  1  3  2 -1</clus>
<clus scale="   88.952">  2  5  1 -1</clus>
<clus scale="   49.813">  1  3  2 -1</clus>
</clustering>
</event>
<event>
 6    0  0.8641190E+002  0.1410272E+03  0.7546771E-02  0.1211953E+00
         21   -1    0    0  504  501  0.00000000000E+00  0.00000000000E+00  0.28162169471E+02  0.28162169471E+02  0.00000000000E+00 0.  1.
         21   -1    0    0  503  502 -0.00000000000E+00 -0.00000000000E+00 -0.19524566932E+04  0.19524566932E+04  0.00000000000E+00 0.  1.
         21    1    1    2  503  505 -0.13336229612E+03 -0.94567841394E+02 -0.11345012637E+04  0.11462206140E+04  0.00000000000E+00 0.  1.
         21    1    1    2  504  506  0.39061014716E+02 -0.40591241700E+02 -0.11811461679E+03  0.13086051533E+03  0.00000000000E+00 0. -1.
         21    1    1    2  505  501  0.42455600298E+02  0.19216764489E+02 -0.47404783331E+02  0.66475375266E+02  0.00000000000E+00 0.  1.
         21    1    1    2  506  502  0.51845681109E+02  0.11594231860E+03 -0.62427385995E+03  0.63706235810E+03  0.00000000000E+00 0.  1.
<scales pt_clust_3="14000.00000" pt_clust_4="63.47165" pt_clust_5="46.60217" pt_clust_6="141.02722"></scales>
<clustering>
<clus scale="   46.602">  1  5  2 -1</clus>
<clus scale="   63.472">  1  4  2 -1</clus>
<clus scale="  141.027">  1  6  2 -1</clus>
<clus scale="   46.602">  1  3  2 -1</clus>
</clustering>
</event>
<event>
 6    0  0.8641190E+002  0.1229053E+03  0.7546771E-02  0.1238380E+00
         21   -1    0    0  505  501  0.00000000000E+00  0.00000000000E+00  0.14248686644E+04  0.14248686644E+04  0.00000000000E+00 0. -1.
         21   -1    0    0  503  502 -0.00000000000E+00 -0.00000000000E+00 -0.92965812242E+02  0.92965812242E+02  0.00000000000E+00 0. -1.
         21    1    1    2  503  501 -0.41380498342E+02  0.44665063268E+01  0.13935374547E+03  0.14543645244E+03  0.00000000000E+00 0. -1.
         21    1    1    2  504  506  0.67778174072E+02  0.13816648110E+03  0.12880442285E+03  0.20068491902E+03  0.00000000000E+00 0. -1.
         21    1    1    2  505  504 -0.46127598022E+01 -0.31746789265E+02  0.10580790671E+04  0.10585652783E+04  0.00000000000E+00 0. -1.
         21    1    1    2  506  502 -0.21784915927E+02 -0.11088619816E+03  0.56656166936E+01  0.11314782683E+03  0.00000000000E+00 0. -1.
<scales pt_clust_3="43.88327" pt_clust_4="14000.00000" pt_clust_5="32.08015" pt_clust_6="122.90533"></scales>
<clustering>
<clus scale="   32.080">  1  5  2 -1</clus>
<clus scale="   43.883">  1  3  2 -1</clus>
<clus scale="  122.905">  2  6  1 -1</clus>
<clus scale="   32.080">  1  3  2 -1</clus>
</clustering>
</event>
<event>
 6    0  0.8641190E+002  0.1265477E+03  0.7546771E-02  0.1232670E+00
         21   -1    0    0  505  501  0.00000000000E+00  0.00000000000E+00  0.42462755025E+03  0.42462755025E+03  0.00000000000E+00 0. -1.
         21   -1    0    0  504  502 -0.00000000000E+00 -0.00000000000E+00 -0.92257690144E+03  0.92257690144E+03  0.00000000000E+00 0.  1.
         21    1    1    2  503  501  0.29686045174E+02 -0.93317727863E+01  0.14706855049E+03  0.15032465468E+03  0.00000000000E+00 0. -1.
         21    1    1    2  504  506 -0.35503537958E+02  0.26432680603E+02 -0.83509906647E+03  0.83627127096E+03  0.00000000000E+00 0.  1.
         21    1    1    2  505  502  0.47226950430E+02 -0.10686122784E+03  0.22682751669E+03  0.25514785751E+03  0.00000000000E+00 0. -1.
         21    1    1    2  506  503 -0.41409457646E+02  0.89760320024E+02 -0.36746351902E+02  0.10546066855E+03  0.00000000000E+00 0. -1.
<scales pt_clust_3="31.11821" pt_clust_4="44.20030" pt_clust_5="126.54772" pt_clust_6="14000.00000"></scales>
<clustering>
<clus scale="   31.118">  1  3  2 -1</clus>
<clus scale="   44.200">  2  4  1 -1</clus>
<clus scale="  126.548">  1  5  2 -1</clus>
<clus scale="   31.118">  1  3  2 -1</clus>
</clustering>
</event>
<event>
 6    0  0.8641190E+002  0.3467736E+03  0.7546771E-02  0.1063947E+00
         21   -1    0    0  503  501  0.00000000000E+00  0.00000000000E+00  0.14715585327E+04  0.14715585327E+04  0.00000000000E+00 0. -1.
         21   -1    0    0  506  502 -0.00000000000E+00 -0.00000000000E+00 -0.47121791682E+03  0.47121791682E+03  0.00000000000E+00 0.  1.
         21    1    1    2  503  504 -0.40986000008E+01  0.11267738174E+03  0.54272918838E+03  0.55431756494E+03  0.00000000000E+00 0. -1.
         21    1    1    2  504  505  0.97757637659E+01  0.23684849506E+03  0.76826249414E+03  0.80400250937E+03  0.00000000000E+00 0. -1.
         21    1    1    2  505  502  0.16915068565E+02 -0.19464133369E+03 -0.36890226042E+03  0.41744490183E+03  0.00000000000E+00 0.  1.
         21    1    1    2  506  501 -0.22592232330E+02 -0.15488454311E+03  0.58251193746E+02  0.16701147335E+03  0.00000000000E+00 0.  1.
<scales pt_clust_3="44.34140" pt_clust_4="44.34140" pt_clust_5="340.76130" pt_clust_6="156.52358"></scales>
<clustering>
<clus scale="   44.341">  3  4 -1 -1</clus>
<clus scale="  156.524">  2  6  1 -1</clus>
<clus scale="  340.761">  2  5  1 -1</clus>
<clus scale="  346.774">  1  3  2 -1</clus>
</clustering>
</event>
<event>
 6    0  0.8641190E+002  0.1618496E+03  0.7546771E-02  0.1186624E+00
         21   -1    0    0  504  501  0.00000000000E+00  0.00000000000E+00  0.40091984647E+03  0.40091984647E+03  0.00000000000E+00 0.  1.
         21   -1    0    0  503  502 -0.00000000000E+00 -0.00000000000E+00 -0.13008575852E+03  0.13008575852E+03  0.00000000000E+00 0.  1.
         21    1    1    2  503  506 -0.67117453680E+02 -0.65938012254E+02  0.25447596107E+03  0.27131271406E+03  0.00000000000E+00 0.  1.
         21    1    1    2  504  505  0.62675015203E+02  0.47751925391E+02  0.30578713565E+01  0.78852739245E+02  0.00000000000E+00 0.  1.
         21    1    1    2  505  502  0.39019523227E+02  0.60330559073E+02 -0.57118345934E+02  0.91786736477E+02  0.00000000000E+00 0.  1.
         21    1    1    2  506  501 -0.34577084750E+02 -0.42144472210E+02  0.70418601458E+02  0.89053415201E+02  0.00000000000E+00 0.  1.
<scales pt_clust_3="155.90789" pt_clust_4="61.67682" pt_clust_5="61.67682" pt_clust_6="36.37487"></scales>
<clustering>
<clus scale="   36.375">  3  6 -1 -1</clus>
<clus scale="   61.677">  4  5 -1 -1</clus>
<clus scale="  155.908">  1  3  2 -1</clus>
<clus scale="  155.908">  1  3  2 -1</clus>
</clustering>
</event>
<event>
 6    0  0.8641190E+002  0.6483943E+02  0.7546771E-02  0.1378577E+00
         21   -1    0    0  505  501  0.00000000000E+00  0.00000000000E+00  0.71103851250E+02  0.71103851250E+02  0.00000000000E+00 0.  1.
         21   -1    0    0  506  502 -0.00000000000E+00 -0.00000000000E+00 -0.81597616305E+03  0.81597616305E+03  0.00000000000E+00 0.  1.
         21    1    1    2  503  504  0.30028645128E+02 -0.59898875596E+02 -0.92242551269E+02  0.11401001312E+03  0.00000000000E+00 0. -1.
         21    1    1    2  504  501 -0.62296958472E+02  0.34136674033E+01  0.33755071812E+02  0.70936373131E+02  0.00000000000E+00 0.  1.
         21    1    1    2  505  502  0.60864181383E+02  0.83968088044E+02 -0.56483665054E+03  0.57427826894E+03  0.00000000000E+00 0.  1.
         21    1    1    2  506  503 -0.28595868039E+02 -0.27482879851E+02 -0.12154818181E+03  0.12785535912E+03  0.00000000000E+00 0. -1.
<scales pt_clust_3="64.83943" pt_clust_4="63.12268" pt_clust_5="14000.00000" pt_clust_6="39.66147"></scales>
<clustering>
<clus scale="   39.661">  2  6  1 -1</clus>
<clus scale="   63.123">  1  4  2 -1</clus>
<clus scale="   64.839">  1  3  2 -1</clus>
<clus scale="   63.123">  1  3  2 -1</clus>
</clustering>
</event>
<event>
 6    0  0.8641190E+002  0.1063462E+03  0.7546771E-02  0.1267490E+00
         21   -1    0    0  502  501  0.00000000000E+00  0.00000000000E+00  0.77010723820E+03  0.77010723820E+03  0.00000000000E+00 0.  1.
         21   -1    0    0  506  502 -0.00000000000E+00 -0.00000000000E+00 -0.17016318706E+03  0.17016318706E+03  0.00000000000E+00 0.  1.
         21    1    1    2  503  504  0.88695094699E+02 -0.63624439514E+02  0.24612723924E+03  0.26924618293E+03  0.00000000000E+00 0.  1.
         21    1    1    2  504  505  0.15563928678E+02  0.54875454249E+02  0.35182802570E+03  0.35642181614E+03  0.00000000000E+00 0.  1.
         21    1    1    2  505  501 -0.11747197713E+02 -0.43380805137E+02  0.13622288879E+03  0.14344534269E+03  0.00000000000E+00 0.  1.
         21    1    1    2  506  503 -0.92511825664E+02  0.52129790401E+02 -0.13423410258E+03  0.17115708350E+03  0.00000000000E+00 0.  1.
<scales pt_clust_3="106.34621" pt_clust_4="31.79137" pt_clust_5="44.94320" pt_clust_6="14000.00000"></scales>
<clustering>
<clus scale="   44.943">  1  5  2 -1</clus>
<clus scale="   31.791">  1  4  2 -1</clus>
<clus scale="  106.346">  1  3  2 -1</clus>
<clus scale="   44.943">  1  3  2 -1</clus>
</clustering>
</event>
<event>
 6    0  0.8641190E+002  0.1023978E+03  0.7546771E-02  0.1275333E+00
         21   -1    0    0  506  501  0.00000000000E+00  0.00000000000E+00  0.90616834250E+02  0.90616834250E+02  0.00000000000E+00 0. -1.
         21   -1    0    0  503  502 -0.00000000000E+00 -0.00000000000E+00 -0.15895154163E+04  0.15895154163E+04  0.00000000000E+00 0.  1.
         21    1    1    2  503  504 -0.67334485722E+02  0.49367290777E+02 -0.63221364971E+03  0.63770303532E+03  0.00000000000E+00 0.  1.
         21    1    1    2  504  505 -0.25387924147E+02  0.27606919899E+02 -0.65029095035E+03  0.65137163650E+03  0.00000000000E+00 0.  1.
         21    1    1    2  505  501  0.18425376504E+02 -0.88068912077E+02  0.57678985524E+02  0.10687606441E+03  0.00000000000E+00 0. -1.
         21    1    1    2  506  502  0.74297033365E+02  0.11094701401E+02 -0.27407296750E+03  0.28418151431E+03  0.00000000000E+00 0.  1.
<scales pt_clust_3="32.64918" pt_clust_4="32.64918" pt_clust_5="90.06846" pt_clust_6="75.12085"></scales>
<clustering>
<clus scale="   32.649">  3  4 -1 -1</clus>
<clus scale="   75.121">  2  6  1 -1</clus>
<clus scale="   90.068">  1  5  2 -1</clus>
<clus scale="   90.068">  1  3  2 -1</clus>
</clustering>
</event>
<event>
 6    0  0.8641190E+002  0.1038433E+03  0.7546771E-02  0.1272416E+00
         21   -1    0    0  506  501  0.00000000000E+00  0.00000000000E+00  0.58108972062E+03  0.58108972062E+03  0.00000000000E+00 0. -1.
         21   -1    0    0  504  502 -0.00000000000E+00 -0.00000000000E+00 -0.91223895333E+02  0.91223895333E+02  0.00000000000E+00 0. -1.
         21    1    1    2  503  501  0.78021103427E+01 -0.36186414973E+02  0.86563837234E+02  0.94146839942E+02  0.00000000000E+00 0. -1.
         21    1    1    2  504  503 -0.96835872393E+02  0.43319412266E+02 -0.34601153296E+02  0.11158403771E+03  0.00000000000E+00 0. -1.
         21    1    1    2  505  502  0.10698508311E+03  0.26854497304E+02  0.22909746497E+03  0.25426879574E+03  0.00000000000E+00 0. -1.
         21    1    1    2  506  505 -0.17951321063E+02 -0.33987494597E+02  0.20880567638E+03  0.21231394256E+03  0.00000000000E+00 0. -1.
<scales pt_clust_3="37.01796" pt_clust_4="103.84328" pt_clust_5="14000.00000" pt_clust_6="51.62273"></scales>
<clustering>
<clus scale="   37.018">  1  3  2 -1</clus>
<clus scale="   51.623">  1  6  2 -1</clus>
<clus scale="  103.843">  2  4  1 -1</clus>
<clus scale="   37.018">  1  3  2 -1</clus>
</clustering>
</event>
<event>
 6    0  0.8641190E+002  0.1490488E+03  0.7546771E-02  0.1201647E+00
         21   -1    0    0  505  501  0.00000000000E+00  0.00000000000E+00  0.24716645572E+03  0.24716645572E+03  0.00000000000E+00 0. -1.
         21   -1    0    0  506  502 -0.00000000000E+00 -0.00000000000E+00 -0.21992188378E+03  0.21992188378E+03  0.00000000000E+00 0. -1.
         21    1    1    2  503  501 -0.38987606934E+02  0.12935387730E+03 -0.46568432062E+02  0.14290233704E+03  0.00000000000E+00 0. -1.
         21    1    1    2  504  502 -0.38546311974E+01 -0.16172472258E+03  0.53690780773E+02  0.17044777504E+03  0.00000000000E+00 0. -1.
         21    1    1    2  505  504  0.65608520754E+02  0.10516650628E+02  0.68850023644E+02  0.95683873729E+02  0.00000000000E+00 0. -1.
         21    1    1    2  506  503 -0.22766282622E+02  0.21854194647E+02 -0.48727800425E+02  0.58054353690E+02  0.00000000000E+00 0. -1.
<scales pt_clust_3="149.04882" pt_clust_4="14000.00000" pt_clust_5="64.94533" pt_clust_6="31.55803"></scales>
<clustering>
<clus scale="   31.558">  2  6  1 -1</clus>
<clus scale="   64.945">  1  5  2 -1</clus>
<clus scale="  149.049">  2  3  1 -1</clus>
<clus scale="   64.945">  1  3  2 -1</clus>
</clustering>
</event>
<event>
 6    0  0.8641190E+002  0.9231171E+02  0.7546771E-02  0.1297348E+00
         21   -1    0    0  506  501  0.00000000000E+00  0.00000000000E+00  0.75785768467E+03  0.75785768467E+03  0.00000000000E+00 0. -1.
         21   -1    0    0  504  502 -0.00000000000E+00 -0.00000000000E+00 -0.79409181866E+02  0.79409181866E+02  0.00000000000E+00 0. -1.
         21    1    1    2  503  501  0.16094776670E+02 -0.29127714961E+02  0.30318573265E+03  0.30500664599E+03  0.00000000000E+00 0.  1.
         21    1    1    2  504  505  0.22742990285E+02  0.29242436264E+02 -0.51223470566E+02  0.63215564717E+02  0.00000000000E+00 0. -1.
         21    1    1    2  505  503 -0.11287329112E+03  0.98694561114E+01  0.31576441167E+03  0.33547719697E+03  0.00000000000E+00 0. -1.
         21    1    1    2  506  502  0.74035524165E+02 -0.99841774145E+01  0.11072182904E+03  0.13356745885E+03  0.00000000000E+00 0. -1.
<scales pt_clust_3="33.27861" pt_clust_4="36.87439" pt_clust_5="92.31171" pt_clust_6="14000.00000"></scales>
<clustering>
<clus scale="   33.279">  1  3  2 -1</clus>
<clus scale="   36.874">  2  4  1 -1</clus>
<clus scale="   92.312">  1  5  2 -1</clus>
<clus scale="   33.279">  1  3  2 -1</clus>
</clustering>
</event>
<event>
 6    0  0.8641190E+002  0.6617110E+02  0.7546771E-02  0.1373620E+00
         21   -1    0    0  503  501  0.00000000000E+00  0.00000000000E+00  0.81525528409E+03  0.81525528409E+03  0.00000000000E+00 0.  1.
         21   -1    0    0  505  502 -0.00000000000E+00 -0.00000000000E+00 -0.30168702199E+02  0.30168702199E+02  0.00000000000E+00 0.  1.
         21    1    1    2  503  506  0.29850593579E+02 -0.38811181362E+02  0.36884432098E+03  0.37207996299E+03  0.00000000000E+00 0.  1.
         21    1    1    2  504  501  0.21735659556E+02  0.72678026092E+02  0.26202129949E+03  0.27278140655E+03  0.00000000000E+00 0.  1.
         21    1    1    2  505  504 -0.22668527411E+02 -0.73202212870E+02  0.73233637600E+02  0.10599807442E+03  0.00000000000E+00 0.  1.
         21    1    1    2  506  502 -0.28917725724E+02  0.39335368140E+02  0.80987323822E+02  0.94564542338E+02  0.00000000000E+00 0.  1.
<scales pt_clust_3="45.58550" pt_clust_4="66.17110" pt_clust_5="14000.00000" pt_clust_6="48.82116"></scales>
<clustering>
<clus scale="   48.821">  2  6  1 -1</clus>
<clus scale="   45.586">  1  3  2 -1</clus>
<clus scale="   66.171">  1  4  2 -1</clus>
<clus scale="   45.586">  1  3  2 -1</clus>
</clustering>
</event>
<event>
 6    0  0.8641190E+002  0.3022199E+03  0.7546771E-02  0.1084136E+00
         21   -1    0    0  505  501  0.00000000000E+00  0.00000000000E+00  0.12073709300E+04  0.12073709300E+04  0.00000000000E+00 0. -1.
         21   -1    0    0  506  502 -0.00000000000E+00 -0.00000000000E+00 -0.11746203409E+03  0.11746203409E+03  0.00000000000E+00 0. -1.
         21    1    1    2  503  501 -0.16298878208E+03  0.17028351877E+03  0.25799246937E+03  0.34945948850E+03  0.00000000000E+00 0. -1.
         21    1    1    2  504  502 -0.30314022596E+01 -0.65239859475E+02  0.34186107442E+02  0.73716474455E+02  0.00000000000E+00 0. -1.
         21    1    1    2  505  504  0.24224067579E+03 -0.12206120845E+03  0.77381346454E+03  0.81997973239E+03  0.00000000000E+00 0. -1.
         21    1    1    2  506  503 -0.76220491452E+02  0.17017549156E+02  0.23916854520E+02  0.81677268726E+02  0.00000000000E+00 0. -1.
<scales pt_clust_3="71.01149" pt_clust_4="65.31025" pt_clust_5="277.90934" pt_clust_6="71.01149"></scales>
<clustering>
<clus scale="   65.310">  2  4  1 -1</clus>
<clus scale="   71.011">  3  6 -1 -1</clus>
<clus scale="  277.909">  1  5  2 -1</clus>
<clus scale="  277.909">  1  3  2 -1</clus>
</clustering>
</event>
<event>
 6    0  0.8641190E+002  0.9354439E+02  0.7546771E-02  0.1294489E+00
         21   -1    0    0  504  501  0.00000000000E+00  0.00000000000E+00  0.37075857798E+02  0.37075857798E+02  0.00000000000E+00 0. -1.
         21   -1    0    0  505  502 -0.00000000000E+00 -0.00000000000E+00 -0.21339308201E+04  0.21339308201E+04  0.00000000000E+00 0. -1.
         21    1    1    2  503  501 -0.34592074935E+02 -0.13900182311E+02  0.12522322700E+02  0.39327284198E+02  0.00000000000E+00 0. -1.
         21    1    1    2  504  502  0.45709280830E+02 -0.54728651122E+02 -0.26743069051E+03  0.27677380265E+03  0.00000000000E+00 0. -1.
         21    1    1    2  505  506  0.40925074510E+01  0.10634723787E+03 -0.17619800373E+04  0.17651912461E+04  0.00000000000E+00 0. -1.
         21    1    1    2  506  503 -0.15209713346E+02 -0.37718404435E+02 -0.79966557235E+02  0.89714344947E+02  0.00000000000E+00 0.  1.
<scales pt_clust_3="37.28038" pt_clust_4="93.54439" pt_clust_5="14000.00000" pt_clust_6="53.27067"></scales>
<clustering>
<clus scale="   37.280">  1  3  2 -1</clus>
<clus scale="   53.271">  1  6  2 -1</clus>
<clus scale="   93.544">  1  4  2 -1</clus>
<clus scale="   37.280">  1  3  2 -1</clus>
</clustering>
</event>
<event>
 6    0  0.8641190E+002  0.1107111E+03  0.7546771E-02  0.1259259E+00
         21   -1    0    0  504  501  0.00000000000E+00  0.00000000000E+00  0.97127614894E+02  0.97127614894E+02  0.00000000000E+00 0. -1.
         21   -1    0    0  506  502 -0.00000000000E+00 -0.00000000000E+00 -0.25544237504E+03  0.25544237504E+03  0.00000000000E+00 0.  1.
         21    1    1    2  503  502  0.80553248704E+02  0.58216169710E+02 -0.29951350709E+02  0.10380285016E+03  0.00000000000E+00 0. -1.
         21    1    1    2  504  503  0.24737359103E+02 -0.72581914720E+02 -0.44689749277E+01  0.76811737493E+02  0.00000000000E+00 0. -1.
         21    1    1    2  505  501 -0.52652468369E+02 -0.15146030537E+02 -0.36808764232E+02  0.66004316455E+02  0.00000000000E+00 0. -1.
         21    1    1    2  506  505 -0.52638139439E+02  0.29511775547E+02 -0.87085670277E+02  0.10595108582E+03  0.00000000000E+00 0.  1.
<scales pt_clust_3="96.59508" pt_clust_4="76.68162" pt_clust_5="51.54390" pt_clust_6="51.54390"></scales>
<clustering>
<clus scale="   51.544">  5  6 -1 -1</clus>
<clus scale="   76.682">  1  4  2 -1</clus>
<clus scale="   96.595">  1  3  2 -1</clus>
<clus scale="   76.682">  1  3  2 -1</clus>
</clustering>
</event>
<event>
 6    0  0.8641190E+002  0.7313675E+02  0.7546771E-02  0.1349740E+00
         21   -1    0    0  505  501  0.00000000000E+00  0.00000000000E+00  0.90249688685E+02  0.90249688685E+02  0.00000000000E+00 0.  1.
         21   -1    0    0  506  502 -0.00000000000E+00 -0.00000000000E+00 -0.64543135224E+03  0.64543135224E+03  0.00000000000E+00 0.  1.
         21    1    1    2  503  502  0.30715617108E+02 -0.86302915984E+01 -0.46928289190E+03  0.47036620169E+03  0.00000000000E+00 0.  1.
         21    1    1    2  504  503  0.45902366552E+02  0.24509555657E+02 -0.78959408205E+02  0.94563913401E+02  0.00000000000E+00 0.  1.
         21    1    1    2  505  504  0.26676881693E+02  0.43307512852E+02 -0.91472453474E+01  0.51680448757E+02  0.00000000000E+00 0.  1.
         21    1    1    2  506  501 -0.10329486535E+03 -0.59186776910E+02  0.22078818893E+01  0.11907047708E+03  0.00000000000E+00 0.  1.
<scales pt_clust_3="31.90503" pt_clust_4="14000.00000" pt_clust_5="52.65068" pt_clust_6="73.13675"></scales>
<clustering>
<clus scale="   31.905">  2  3  1 -1</clus>
<clus scale="   52.651">  1  5  2 -1</clus>
<clus scale="   73.137">  1  6  2 -1</clus>
<clus scale="   52.651">  1  3  2 -1</clus>
</clustering>
</event>
<event>
 6    0  0.8641190E+002  0.2863895E+03  0.7546771E-02  0.1092249E+00
         21   -1    0    0  506  501  0.00000000000E+00  0.00000000000E+00  0.30996338841E+04  0.30996338841E+04  0.00000000000E+00 0.  1.
         21   -1    0    0  503  502 -0.00000000000E+00 -0.00000000000E+00 -0.27947631560E+04  0.27947631560E+04  0.00000000000E+00 0. -1.
         21    1    1    2  503  504 -0.42373278224E+02 -0.26050995431E+02 -0.11409835630E+04  0.11420672660E+04  0.00000000000E+00 0. -1.
         21    1    1    2  504  501 -0.17318374176E+02  0.84639569055E+02 -0.96649661264E+02  0.12963386809E+03  0.00000000000E+00 0.  1.
         21    1    1    2  505  502  0.15811147037E+03  0.21051776759E+03 -0.15221116611E+04  0.15447138494E+04  0.00000000000E+00 0. -1.
         21    1    1    2  506  505 -0.98419817965E+02 -0.26910634121E+03  0.30646156134E+04  0.30779820567E+04  0.00000000000E+00 0.  1.
<scales pt_clust_3="49.74082" pt_clust_4="85.28784" pt_clust_5="286.38953" pt_clust_6="14000.00000"></scales>
<clustering>
<clus scale="   49.741">  2  3  1 -1</clus>
<clus scale="   85.288">  2  4  1 -1</clus>
<clus scale="  286.390">  2  5  1 -1</clus>
<clus scale="  286.390">  1  3  2 -1</clus>
</clustering>
</event>
<event>
 6    0  0.8641190E+002  0.1129875E+03  0.7546771E-02  0.1255135E+00
         21   -1    0    0  504  501  0.00000000000E+00  0.00000000000E+00  0.13011429251E+04  0.13011429251E+04  0.00000000000E+00 0. -1.
         21   -1    0    0  505  502 -0.00000000000E+00 -0.00000000000E+00 -0.17307729161E+02  0.17307729161E+02  0.00000000000E+00 0. -1.
         21    1    1    2  503  501 -0.40927477009E+02 -0.63503442529E+01  0.54472556374E+03  0.54629783547E+03  0.00000000000E+00 0.  1.
         21    1    1    2  504  506  0.57770419372E+02 -0.14961106339E+02  0.18585358654E+03  0.19519941519E+03  0.00000000000E+00 0. -1.
         21    1    1    2  505  503 -0.61312007180E+02  0.72755940117E+02  0.34480357258E+03  0.35768993935E+03  0.00000000000E+00 0. -1.
         21    1    1    2  506  502  0.44469064817E+02 -0.51444489525E+02  0.20845247309E+03  0.21926346428E+03  0.00000000000E+00 0. -1.
<scales pt_clust_3="41.41721" pt_clust_4="35.54395" pt_clust_5="106.42645" pt_clust_6="35.54395"></scales>
<clustering>
<clus scale="   35.544">  4  6 -1 -1</clus>
<clus scale="   41.417">  1  3  2 -1</clus>
<clus scale="  106.426">  2  5  1 -1</clus>
<clus scale="   41.417">  1  3  2 -1</clus>
</clustering>
</event>
<event>
 6    0  0.8641190E+002  0.1058772E+03  0.7546771E-02  0.1268401E+00
         21   -1    0    0  504  501  0.00000000000E+00  0.00000000000E+00  0.91317144039E+03  0.91317144039E+03  0.00000000000E+00 0.  1.
         21   -1    0    0  505  502 -0.00000000000E+00 -0.00000000000E+00 -0.32633814810E+02  0.32633814810E+02  0.00000000000E+00 0.  1.
         21    1    1    2  503  502  0.10496953236E+02  0.10138281104E+03  0.29532883725E+03  0.31242244240E+03  0.00000000000E+00 0.  1.
         21    1    1    2  504  503  0.52416005364E+02  0.32311897963E+02  0.23875833142E+03  0.24657055216E+03  0.00000000000E+00 0.  1.
         21    1    1    2  505  506 -0.32231922466E+02 -0.21709395032E+02  0.28123691417E+02  0.47970164451E+02  0.00000000000E+00 0.  1.
         21    1    1    2  506  501 -0.30681036135E+02 -0.11198531398E+03  0.31832676549E+03  0.33884209619E+03  0.00000000000E+00 0.  1.
<scales pt_clust_3="105.87717" pt_clust_4="54.89728" pt_clust_5="38.86122" pt_clust_6="14000.00000"></scales>
<clustering>
<clus scale="   38.861">  2  5  1 -1</clus>
<clus scale="   54.897">  1  4  2 -1</clus>
<clus scale="  105.877">  2  3  1 -1</clus>
<clus scale="   54.897">  1  3  2 -1</clus>
</clustering>
</event>
<event>
 6    0  0.1277844E+003  0.8220341E+02  0.7546771E-02  0.1322912E+00
         21   -1    0    0  503  501  0.00000000000E+00  0.00000000000E+00  0.86496949878E+03  0.86496949878E+03  0.00000000000E+00 0. -1.
         21   -1    0    0  504  502 -0.00000000000E+00 -0.00000000000E+00 -0.64280185707E+03  0.64280185707E+03  0.00000000000E+00 0.  1.
         21    1    1    2  503  502 -0.10101382756E+03  0.50810004360E+02  0.63766263142E+02  0.12981365959E+03  0.00000000000E+00 0. -1.
         21    1    1    2  504  506  0.72755268136E+02 -0.36347976557E+02 -0.60080832992E+03  0.60628801221E+03  0.00000000000E+00 0.  1.
         21    1    1    2  505  501 -0.34181595833E+02 -0.15892679842E+02  0.59162875068E+03  0.59282842155E+03  0.00000000000E+00 0. -1.
         21    1    1    2  506  505  0.62440155257E+02  0.14306520393E+01  0.16758095781E+03  0.17884126250E+03  0.00000000000E+00 0. -1.
<scales pt_clust_3="82.20341" pt_clust_4="14000.00000" pt_clust_5="37.69561" pt_clust_6="41.64317"></scales>
<clustering>
<clus scale="   37.696">  1  5  2 -1</clus>
<clus scale="   41.643">  1  6  2 -1</clus>
<clus scale="   82.203">  1  3  2 -1</clus>
<clus scale="   37.696">  1  3  2 -1</clus>
</clustering>
</event>
<event>
 6    0  0.8641190E+002  0.8159706E+02  0.7546771E-02  0.1324579E+00
         21   -1    0    0  505  501  0.00000000000E+00  0.00000000000E+00  0.46870360168E+04  0.46870360168E+04  0.00000000000E+00 0. -1.
         21   -1    0    0  504  502 -0.00000000000E+00 -0.00000000000E+00 -0.10382318578E+02  0.10382318578E+02  0.00000000000E+00 0. -1.
         21    1    1    2  503  506 -0.41068406857E+02  0.68163185682E+02  0.24332487515E+03  0.25600747800E+03  0.00000000000E+00 0. -1.
         21    1    1    2  504  503  0.20373977071E+02  0.31435411803E+02  0.37339275150E+03  0.37526714609E+03  0.00000000000E+00 0. -1.
         21    1    1    2  505  502  0.50733325202E+02 -0.21287464860E+02  0.28422148751E+03  0.28949763455E+03  0.00000000000E+00 0. -1.
         21    1    1    2  506  501 -0.30038895416E+02 -0.78311132625E+02  0.37757145840E+04  0.37766460767E+04  0.00000000000E+00 0. -1.
<scales pt_clust_3="81.59706" pt_clust_4="37.46043" pt_clust_5="57.79351" pt_clust_6="14000.00000"></scales>
<clustering>
<clus scale="   37.460">  2  4  1 -1</clus>
<clus scale="   57.794">  2  5  1 -1</clus>
<clus scale="   81.597">  2  3  1 -1</clus>
<clus scale="   81.597">  1  3  2 -1</clus>
</clustering>
</event>
<event>
 6    0  0.8641190E+002  0.1293349E+03  0.7546771E-02  0.1228446E+00
         21   -1    0    0  503  501  0.00000000000E+00  0.00000000000E+00  0.21976282708E+03  0.21976282708E+03  0.00000000000E+00 0.  1.
         21   -1    0    0  504  502 -0.00000000000E+00 -0.00000000000E+00 -0.62083711245E+03  0.62083711245E+03  0.00000000000E+00 0.  1.
         21    1    1    2  503  506  0.46980908679E+02  0.12398484023E+03  0.17979580089E+03  0.22339645566E+03  0.00000000000E+00 0.  1.
         21    1    1    2  504  501  0.26360911757E+02 -0.26186255284E+02 -0.36292470405E+02  0.51939975381E+02  0.00000000000E+00 0.  1.
         21    1    1    2  505  502 -0.39309071788E+02 -0.43823249527E+02 -0.99314238985E+02  0.11545128145E+03  0.00000000000E+00 0.  1.
         21    1    1    2  506  505 -0.34032748648E+02 -0.53975335416E+02 -0.44526337687E+03  0.44981222704E+03  0.00000000000E+00 0.  1.
<scales pt_clust_3="129.33485" pt_clust_4="37.15666" pt_clust_5="59.62389" pt_clust_6="14000.00000"></scales>
<clustering>
<clus scale="   37.157">  2  4  1 -1</clus>
<clus scale="   59.624">  2  5  1 -1</clus>
<clus scale="  129.335">  1  3  2 -1</clus>
<clus scale="  129.335">  1  3  2 -1</clus>
</clustering>
</event>
<event>
 6    0  0.8641190E+002  0.2948040E+03  0.7546771E-02  0.1087867E+00
         21   -1    0    0  503  501  0.00000000000E+00  0.00000000000E+00  0.19497263249E+03  0.19497263249E+03  0.00000000000E+00 0.  1.
         21   -1    0    0  504  502 -0.00000000000E+00 -0.00000000000E+00 -0.69766580507E+03  0.69766580507E+03  0.00000000000E+00 0.  1.
         21    1    1    2  503  506 -0.20665509963E+03 -0.23576039705E+02 -0.18766106136E+03  0.28014073928E+03  0.00000000000E+00 0.  1.
         21    1    1    2  504  505 -0.15268155718E+02  0.37609349361E+02 -0.20912613053E+03  0.21302891402E+03  0.00000000000E+00 0.  1.
         21    1    1    2  505  501  0.28878812192E+03 -0.47949740529E+02 -0.32497513346E+02  0.29454005730E+03  0.00000000000E+00 0.  1.
         21    1    1    2  506  502 -0.66864866573E+02  0.33916430873E+02 -0.73408467346E+02  0.10492872697E+03  0.00000000000E+00 0.  1.
<scales pt_clust_3="44.29015" pt_clust_4="40.59039" pt_clust_5="285.84663" pt_clust_6="44.29015"></scales>
<clustering>
<clus scale="   40.590">  2  4  1 -1</clus>
<clus scale="   44.290">  3  6 -1 -1</clus>
<clus scale="  285.847">  1  5  2 -1</clus>
<clus scale="  285.847">  1  3  2 -1</clus>
</clustering>
</event>
<event>
 6    0  0.8641190E+002  0.1175055E+03  0.7546771E-02  0.1247270E+00
         21   -1    0    0  504  501  0.00000000000E+00  0.00000000000E+00  0.15742711547E+04  0.15742711547E+04  0.00000000000E+00 0.  1.
         21   -1    0    0  503  502 -0.00000000000E+00 -0.00000000000E+00 -0.25380234770E+03  0.25380234770E+03  0.00000000000E+00 0.  1.
         21    1    1    2  503  506  0.70481602796E+02 -0.12826412601E+03 -0.11409470016E+03  0.18557193473E+03  0.00000000000E+00 0.  1.
         21    1    1    2  504  502 -0.76785713340E+02  0.59917987929E+02 -0.47368320904E+02  0.10830498085E+03  0.00000000000E+00 0.  1.
         21    1    1    2  505  501 -0.36414423221E+02 -0.11710199815E+02  0.14282577089E+04  0.14287698282E+04  0.00000000000E+00 0.  1.
         21    1    1    2  506  505  0.42718533766E+02  0.80056337896E+02  0.53674119174E+02  0.10542675862E+03  0.00000000000E+00 0.  1.
<scales pt_clust_3="117.50552" pt_clust_4="14000.00000" pt_clust_5="38.25100" pt_clust_6="77.12612"></scales>
<clustering>
<clus scale="   38.251">  1  5  2 -1</clus>
<clus scale="   77.126">  1  6  2 -1</clus>
<clus scale="  117.506">  1  3  2 -1</clus>
<clus scale="   38.251">  1  3  2 -1</clus>
</clustering>
</event>
<event>
 6    0  0.8641190E+002  0.1120401E+03  0.7546771E-02  0.1256838E+00
         21   -1    0    0  502  501  0.00000000000E+00  0.00000000000E+00  0.19679405987E+03  0.19679405987E+03  0.00000000000E+00 0. -1.
         21   -1    0    0  503  502 -0.00000000000E+00 -0.00000000000E+00 -0.35023449694E+03  0.35023449694E+03  0.00000000000E+00 0. -1.
         21    1    1    2  503  506 -0.45502540263E+02 -0.19155142156E+02 -0.19199973256E+03  0.19824554962E+03  0.00000000000E+00 0. -1.
         21    1    1    2  504  501 -0.49091325605E+02  0.11080320944E+03  0.10290452759E+03  0.15898632416E+03  0.00000000000E+00 0. -1.
         21    1    1    2  505  504  0.11049100132E+03 -0.38471921039E+02 -0.19867254038E+02  0.11867206017E+03  0.00000000000E+00 0. -1.
         21    1    1    2  506  505 -0.15897135454E+02 -0.53176146245E+02 -0.44477978059E+02  0.71124622863E+02  0.00000000000E+00 0. -1.
<scales pt_clust_3="49.37004" pt_clust_4="112.04010" pt_clust_5="14000.00000" pt_clust_6="68.68144"></scales>
<clustering>
<clus scale="   49.370">  2  3  1 -1</clus>
<clus scale="   68.681">  2  6  1 -1</clus>
<clus scale="  112.040">  1  4  2 -1</clus>
<clus scale="  112.040">  1  3  2 -1</clus>
</clustering>
</event>
<event>
 6    0  0.8641190E+002  0.1711701E+03  0.7546771E-02  0.1176633E+00
         21   -1    0    0  506  501  0.00000000000E+00  0.00000000000E+00  0.84280088370E+03  0.84280088370E+03  0.00000000000E+00 0.  1.
         21   -1    0    0  504  502 -0.00000000000E+00 -0.00000000000E+00 -0.32709601639E+03  0.32709601639E+03  0.00000000000E+00 0. -1.
         21    1    1    2  503  501  0.13163071750E+03 -0.94905616104E+02  0.79379980414E+03  0.81021716275E+03  0.00000000000E+00 0.  1.
         21    1    1    2  504  505 -0.82773782163E+02  0.11621618148E+02 -0.93818313164E+02  0.12565204697E+03  0.00000000000E+00 0. -1.
         21    1    1    2  505  503 -0.74162651134E+02  0.63630379575E+02 -0.84345934715E+02  0.12908586573E+03  0.00000000000E+00 0. -1.
         21    1    1    2  506  502  0.25305715794E+02  0.19653618381E+02 -0.99930688945E+02  0.10494182465E+03  0.00000000000E+00 0. -1.
<scales pt_clust_3="162.61060" pt_clust_4="46.82130" pt_clust_5="46.82130" pt_clust_6="32.04129"></scales>
<clustering>
<clus scale="   32.041">  2  6  1 -1</clus>
<clus scale="   46.821">  4  5 -1 -1</clus>
<clus scale="  162.611">  1  3  2 -1</clus>
<clus scale="  162.611">  1  3  2 -1</clus>
</clustering>
</event>
<event>
 6    0  0.8641190E+002  0.1300686E+03  0.7546771E-02  0.1227354E+00
         21   -1    0    0  505  501  0.00000000000E+00  0.00000000000E+00  0.41581433373E+03  0.41581433373E+03  0.00000000000E+00 0. -1.
         21   -1    0    0  503  502 -0.00000000000E+00 -0.00000000000E+00 -0.10330866348E+03  0.10330866348E+03  0.00000000000E+00 0. -1.
         21    1    1    2  503  506  0.12430235174E+03 -0.38324696619E+02 -0.98794177754E+01  0.13045098663E+03  0.00000000000E+00 0. -1.
         21    1    1    2  504  502  0.24230092325E+02  0.36410572465E+02  0.51707213169E+02  0.67723430620E+02  0.00000000000E+00 0. -1.
         21    1    1    2  505  504 -0.23683727190E+02 -0.34500419879E+02  0.55249845682E+02  0.69309042363E+02  0.00000000000E+00 0. -1.
         21    1    1    2  506  501 -0.12484871687E+03  0.36414544033E+02  0.21542802917E+03  0.25163953759E+03  0.00000000000E+00 0. -1.
<scales pt_clust_3="130.06864" pt_clust_4="36.66836" pt_clust_5="41.84732" pt_clust_6="14000.00000"></scales>
<clustering>
<clus scale="   41.847">  1  5  2 -1</clus>
<clus scale="   36.668">  1  4  2 -1</clus>
<clus scale="  130.069">  2  3  1 -1</clus>
<clus scale="   41.847">  1  3  2 -1</clus>
</clustering>
</event>
<event>
 6    0  0.8641190E+002  0.1146748E+03  0.7546771E-02  0.1252150E+00
         21   -1    0    0  506  501  0.00000000000E+00  0.00000000000E+00  0.39872690403E+03  0.39872690403E+03  0.00000000000E+00 0.  1.
         21   -1    0    0  503  502 -0.00000000000E+00 -0.00000000000E+00 -0.10875784955E+03  0.10875784955E+03  0.00000000000E+00 0. -1.
         21    1    1    2  503  505 -0.11379889420E+03  0.47571072621E+02  0.21438952081E+03  0.24733795080E+03  0.00000000000E+00 0.  1.
         21    1    1    2  504  502  0.62264861798E+02 -0.98709218741E+02 -0.25994047995E+02  0.11956635568E+03  0.00000000000E+00 0. -1.
         21    1    1    2  505  501  0.52998196495E+01  0.47153097545E+02  0.33064306291E+02  0.57833822690E+02  0.00000000000E+00 0.  1.
         21    1    1    2  506  504  0.46234212749E+02  0.39850485752E+01  0.68509275369E+02  0.82746624416E+02  0.00000000000E+00 0. -1.
<scales pt_clust_3="114.67476" pt_clust_4="14000.00000" pt_clust_5="49.15194" pt_clust_6="46.40564"></scales>
<clustering>
<clus scale="   46.406">  1  6  2 -1</clus>
<clus scale="   49.152">  1  5  2 -1</clus>
<clus scale="  114.675">  1  3  2 -1</clus>
<clus scale="   46.406">  1  3  2 -1</clus>
</clustering>
</event>
<event>
 6    0  0.8641190E+002  0.1635417E+03  0.7546771E-02  0.1184755E+00
         21   -1    0    0  503  501  0.00000000000E+00  0.00000000000E+00  0.23231620676E+03  0.23231620676E+03  0.00000000000E+00 0.  1.
         21   -1    0    0  505  502 -0.00000000000E+00 -0.00000000000E+00 -0.16636835458E+04  0.16636835458E+04  0.00000000000E+00 0.  1.
         21    1    1    2  503  506  0.13903312990E+01  0.10611836647E+03 -0.41831604345E+02  0.11407420324E+03  0.00000000000E+00 0.  1.
         21    1    1    2  504  501  0.55171853391E+01 -0.16982722681E+03  0.12055550738E+03  0.20833952256E+03  0.00000000000E+00 0.  1.
         21    1    1    2  505  504 -0.21031530671E+02 -0.10979644346E+03 -0.91807164671E+02  0.14465870096E+03  0.00000000000E+00 0.  1.
         21    1    1    2  506  502  0.14124014033E+02  0.17350530380E+03 -0.14182840774E+04  0.14289273258E+04  0.00000000000E+00 0.  1.
<scales pt_clust_3="106.12747" pt_clust_4="81.15606" pt_clust_5="14000.00000" pt_clust_6="163.54173"></scales>
<clustering>
<clus scale="  106.127">  1  3  2 -1</clus>
<clus scale="   81.156">  1  4  2 -1</clus>
<clus scale="  163.542">  2  6  1 -1</clus>
<clus scale="  106.127">  1  3  2 -1</clus>
</clustering>
</event>
<event>
 6    0  0.8641190E+002  0.2329653E+03  0.7546771E-02  0.1124570E+00
         21   -1    0    0  502  501  0.00000000000E+00  0.00000000000E+00  0.14133624037E+03  0.14133624037E+03  0.00000000000E+00 0.  1.
         21   -1    0    0  503  502 -0.00000000000E+00 -0.00000000000E+00 -0.12077558331E+04  0.12077558331E+04  0.00000000000E+00 0. -1.
         21    1    1    2  503  504  0.15943979904E+03 -0.11372067459E+03 -0.10968064411E+04  0.11141534053E+04  0.00000000000E+00 0. -1.
         21    1    1    2  504  505 -0.24441438346E+02  0.51182875884E+02  0.36383641660E+02  0.67385755710E+02  0.00000000000E+00 0.  1.
         21    1    1    2  505  506 -0.35863339831E+02  0.57438839131E+02 -0.85552849102E+01  0.68253881094E+02  0.00000000000E+00 0.  1.
         21    1    1    2  506  501 -0.99135020861E+02  0.50989595786E+01  0.25584916127E+01  0.99299031361E+02  0.00000000000E+00 0.  1.
<scales pt_clust_3="195.84035" pt_clust_4="42.81336" pt_clust_5="99.18524" pt_clust_6="99.18524"></scales>
<clustering>
<clus scale="   42.813">  4  5 -1 -1</clus>
<clus scale="   99.185">  4  6 -1 -1</clus>
<clus scale="  195.840">  2  3  1 -1</clus>
<clus scale="  232.965">  1  3  2 -1</clus>
</clustering>
</event>
<event>
 6    0  0.8641190E+002  0.2104558E+03  0.7546771E-02  0.1141206E+00
         21   -1    0    0  503  501  0.00000000000E+00  0.00000000000E+00  0.25061643340E+04  0.25061643340E+04  0.00000000000E+00 0. -1.
         21   -1    0    0  504  502 -0.00000000000E+00 -0.00000000000E+00 -0.82432357822E+02  0.82432357822E+02  0.00000000000E+00 0. -1.
         21    1    1    2  503  506  0.75929170331E+02 -0.22478302363E+03  0.21515267753E+04  0.21645692669E+04  0.00000000000E+00 0. -1.
         21    1    1    2  504  501  0.24360005210E+02  0.13397451946E+03  0.19263699050E+03  0.23590589612E+03  0.00000000000E+00 0. -1.
         21    1    1    2  505  502  0.19284376791E+02  0.26634729868E+02  0.49489712078E+01  0.33253395907E+02  0.00000000000E+00 0. -1.
         21    1    1    2  506  505 -0.11957355233E+03  0.64173774307E+02  0.74619239255E+02  0.15486813292E+03  0.00000000000E+00 0. -1.
<scales pt_clust_3="210.45583" pt_clust_4="14000.00000" pt_clust_5="32.88307" pt_clust_6="134.49264"></scales>
<clustering>
<clus scale="   32.883">  2  5  1 -1</clus>
<clus scale="  134.493">  2  6  1 -1</clus>
<clus scale="  210.456">  1  3  2 -1</clus>
<clus scale="  210.456">  1  3  2 -1</clus>
</clustering>
</event>
<event>
 6    0  0.8641190E+002  0.1834027E+03  0.7546771E-02  0.1164550E+00
         21   -1    0    0  505  501  0.00000000000E+00  0.00000000000E+00  0.64975613561E+03  0.64975613561E+03  0.00000000000E+00 0. -1.
         21   -1    0    0  506  502 -0.00000000000E+00 -0.00000000000E+00 -0.28550085147E+03  0.28550085147E+03  0.00000000000E+00 0. -1.
         21    1    1    2  503  502 -0.15130939102E+02  0.26181832692E+02 -0.40514819801E+02  0.50555754417E+02  0.00000000000E+00 0.  1.
         21    1    1    2  504  503  0.21806156074E+02 -0.47511730950E+02  0.63699883176E+01  0.52663552594E+02  0.00000000000E+00 0. -1.
         21    1    1    2  505  504 -0.61435815381E+02  0.17441035534E+03  0.56785441964E+03  0.59720346061E+03  0.00000000000E+00 0. -1.
         21    1    1    2  506  501  0.54760598410E+02 -0.15308045708E+03 -0.16945430401E+03  0.23483421946E+03  0.00000000000E+00 0. -1.
<scales pt_clust_3="30.23960" pt_clust_4="49.37357" pt_clust_5="183.40267" pt_clust_6="14000.00000"></scales>
<clustering>
<clus scale="   30.240">  2  3  1 -1</clus>
<clus scale="   49.374">  2  4  1 -1</clus>
<clus scale="  183.403">  1  5  2 -1</clus>
<clus scale="  183.403">  1  3  2 -1</clus>
</clustering>
</event>
<event>
 6    0  0.8641190E+002  0.8399222E+02  0.7546771E-02  0.1318089E+00
         21   -1    0    0  505  501  0.00000000000E+00  0.00000000000E+00  0.25375231202E+03  0.25375231202E+03  0.00000000000E+00 0. -1.
         21   -1    0    0  503  502 -0.00000000000E+00 -0.00000000000E+00 -0.17178411285E+03  0.17178411285E+03  0.00000000000E+00 0. -1.
         21    1    1    2  503  506 -0.78775651558E+02 -0.30080570379E+02  0.60434024725E+01  0.84539734481E+02  0.00000000000E+00 0. -1.
         21    1    1    2  504  502 -0.16878683909E+02  0.69681194464E+02 -0.10307282171E+03  0.12555622409E+03  0.00000000000E+00 0. -1.
         21    1    1    2  505  504  0.68948644467E+02 -0.55177301258E+02  0.12213145873E+03  0.15071344784E+03  0.00000000000E+00 0. -1.
         21    1    1    2  506  501  0.26705691001E+02  0.15576677173E+02  0.56866159673E+02  0.64727018467E+02  0.00000000000E+00 0. -1.
<scales pt_clust_3="83.99222" pt_clust_4="72.23263" pt_clust_5="14000.00000" pt_clust_6="30.91645"></scales>
<clustering>
<clus scale="   30.916">  1  6  2 -1</clus>
<clus scale="   72.233">  2  4  1 -1</clus>
<clus scale="   83.992">  2  3  1 -1</clus>
<clus scale="   30.916">  1  3  2 -1</clus>
</clustering>
</event>
<event>
 6    0  0.8641190E+002  0.1932969E+03  0.7546771E-02  0.1155521E+00
         21   -1    0    0  503  501  0.00000000000E+00  0.00000000000E+00  0.72886947459E+03  0.72886947459E+03  0.00000000000E+00 0. -1.
         21   -1    0    0  505  502 -0.00000000000E+00 -0.00000000000E+00 -0.75780864134E+03  0.75780864134E+03  0.00000000000E+00 0. -1.
         21    1    1    2  503  502  0.70787043028E+01 -0.38956283989E+02 -0.74802934800E+02  0.84635566823E+02  0.00000000000E+00 0. -1.
         21    1    1    2  504  501  0.53850990713E+02 -0.39387236168E+02  0.57189335567E+03  0.57577191129E+03  0.00000000000E+00 0. -1.
         21    1    1    2  505  506 -0.88994025351E+02  0.21996644830E+03 -0.61327525190E+03  0.65758019247E+03  0.00000000000E+00 0. -1.
         21    1    1    2  506  504  0.28064330335E+02 -0.14162292814E+03  0.87245664290E+02  0.16869044534E+03  0.00000000000E+00 0.  1.
<scales pt_clust_3="39.59419" pt_clust_4="66.80010" pt_clust_5="193.29690" pt_clust_6="14000.00000"></scales>
<clustering>
<clus scale="   39.594">  2  3  1 -1</clus>
<clus scale="   66.800">  1  4  2 -1</clus>
<clus scale="  193.297">  2  5  1 -1</clus>
<clus scale="   66.800">  1  3  2 -1</clus>
</clustering>
</event>
<event>
 6    0  0.8641190E+002  0.1358438E+03  0.7546771E-02  0.1219033E+00
         21   -1    0    0  505  501  0.00000000000E+00  0.00000000000E+00  0.12907317332E+03  0.12907317332E+03  0.00000000000E+00 0.  1.
         21   -1    0    0  503  502 -0.00000000000E+00 -0.00000000000E+00 -0.16382311300E+04  0.16382311300E+04  0.00000000000E+00 0. -1.
         21    1    1    2  503  501  0.76711324304E+01  0.35001119665E+02 -0.34399034550E+02  0.49671100536E+02  0.00000000000E+00 0.  1.
         21    1    1    2  504  502  0.12383150797E+03  0.62355011479E+02 -0.15256006523E+04  0.15318876395E+04  0.00000000000E+00 0. -1.
         21    1    1    2  505  506 -0.52393420796E+02 -0.41467212488E+02  0.58194484469E+02  0.88606987743E+02  0.00000000000E+00 0.  1.
         21    1    1    2  506  504 -0.79109219608E+02 -0.55888918655E+02 -0.73527542915E+01  0.97138575505E+02  0.00000000000E+00 0.  1.
<scales pt_clust_3="35.83189" pt_clust_4="135.84384" pt_clust_5="51.89659" pt_clust_6="14000.00000"></scales>
<clustering>
<clus scale="   35.832">  1  3  2 -1</clus>
<clus scale="   51.897">  1  5  2 -1</clus>
<clus scale="  135.844">  2  4  1 -1</clus>
<clus scale="   35.832">  1  3  2 -1</clus>
</clustering>
</event>
<event>
 6    0  0.8641190E+002  0.1639443E+03  0.7546771E-02  0.1184314E+00
         21   -1    0    0  505  501  0.00000000000E+00  0.00000000000E+00  0.57436306563E+03  0.57436306563E+03  0.00000000000E+00 0.  1.
         21   -1    0    0  503  502 -0.00000000000E+00 -0.00000000000E+00 -0.42861611798E+03  0.42861611798E+03  0.00000000000E+00 0.  1.
         21    1    1    2  503  504 -0.16773848237E+03  0.30316741200E+02 -0.36220069749E+03  0.40030569385E+03  0.00000000000E+00 0.  1.
         21    1    1    2  504  501  0.56300733956E+02  0.13232725264E+02  0.38837660441E+03  0.39265922187E+03  0.00000000000E+00 0.  1.
         21    1    1    2  505  506 -0.14737416694E+02 -0.43701205644E+02  0.38106323263E+02  0.59825401780E+02  0.00000000000E+00 0.  1.
         21    1    1    2  506  502  0.12617516511E+03  0.15173918083E+00  0.81464717466E+02  0.15018886612E+03  0.00000000000E+00 0. -1.
<scales pt_clust_3="14000.00000" pt_clust_4="49.26325" pt_clust_5="46.11927" pt_clust_6="163.94429"></scales>
<clustering>
<clus scale="   46.119">  1  5  2 -1</clus>
<clus scale="   49.263">  1  4  2 -1</clus>
<clus scale="  163.944">  1  6  2 -1</clus>
<clus scale="   46.119">  1  3  2 -1</clus>
</clustering>
</event>
<event>
 6    0  0.8641190E+002  0.1217810E+03  0.7546771E-02  0.1240188E+00
         21   -1    0    0  505  501  0.00000000000E+00  0.00000000000E+00  0.38163813535E+03  0.38163813535E+03  0.00000000000E+00 0. -1.
         21   -1    0    0  503  502 -0.00000000000E+00 -0.00000000000E+00 -0.29065763953E+03  0.29065763953E+03  0.00000000000E+00 0.  1.
         21    1    1    2  503  506  0.35809193972E+02  0.16531243542E+02 -0.63804027254E+02  0.75010227834E+02  0.00000000000E+00 0.  1.
         21    1    1    2  504  501 -0.10064301779E+03  0.49782741493E+02  0.35431975844E+03  0.37168512157E+03  0.00000000000E+00 0. -1.
         21    1    1    2  505  502  0.14335138581E+01 -0.30868850901E+02 -0.79559248821E+02  0.85349956010E+02  0.00000000000E+00 0.  1.
         21    1    1    2  506  504  0.63400309960E+02 -0.35445134133E+02 -0.11997598654E+03  0.14025046946E+03  0.00000000000E+00 0.  1.
<scales pt_clust_3="32.09154" pt_clust_4="111.66375" pt_clust_5="30.90212" pt_clust_6="32.09154"></scales>
<clustering>
<clus scale="   30.902">  2  5  1 -1</clus>
<clus scale="   32.092">  3  6 -1 -1</clus>
<clus scale="  111.664">  1  4  2 -1</clus>
<clus scale="  111.664">  1  3  2 -1</clus>
</clustering>
</event>
<event>
 6    0  0.8641190E+002  0.6892633E+02  0.7546771E-02  0.1363783E+00
         21   -1    0    0  504  501  0.00000000000E+00  0.00000000000E+00  0.28523130620E+03  0.28523130620E+03  0.00000000000E+00 0.  1.
         21   -1    0    0  503  502 -0.00000000000E+00 -0.00000000000E+00 -0.10518302890E+04  0.10518302890E+04  0.00000000000E+00 0. -1.
         21    1    1    2  503  505  0.39976274129E+02 -0.24544022059E+02 -0.86857387530E+03  0.86983969119E+03  0.00000000000E+00 0. -1.
         21    1    1    2  504  502 -0.32081349020E+02  0.69609216151E+02  0.25197225052E+01  0.76687710421E+02  0.00000000000E+00 0. -1.
         21    1    1    2  505  506 -0.73064825831E+02 -0.65110387338E+02 -0.12339118650E+03  0.15749036865E+03  0.00000000000E+00 0.  1.
         21    1    1    2  506  501  0.65169900722E+02  0.20045193246E+02  0.22284635650E+03  0.23304382493E+03  0.00000000000E+00 0.  1.
<scales pt_clust_3="46.90961" pt_clust_4="68.92517" pt_clust_5="68.92633" pt_clust_6="14000.00000"></scales>
<clustering>
<clus scale="   46.910">  2  3  1 -1</clus>
<clus scale="   68.925">  2  4  1 -1</clus>
<clus scale="   68.926">  2  5  1 -1</clus>
<clus scale="   68.926">  1  3  2 -1</clus>
</clustering>
</event>
<event>
 6    0  0.8641190E+002  0.1109770E+03  0.7546771E-02  0.1258771E+00
         21   -1    0    0  506  501  0.00000000000E+00  0.00000000000E+00  0.11293304287E+04  0.11293304287E+04  0.00000000000E+00 0.  1.
         21   -1    0    0  504  502 -0.00000000000E+00 -0.00000000000E+00 -0.21044392305E+03  0.21044392305E+03  0.00000000000E+00 0. -1.
         21    1    1    2  503  501 -0.32798955784E+02  0.29492385624E+02  0.50307155341E+03  0.50500154471E+03  0.00000000000E+00 0.  1.
         21    1    1    2  504  505  0.82609845729E+02 -0.29556159987E+02  0.17332616228E+03  0.19426762915E+03  0.00000000000E+00 0.  1.
         21    1    1    2  505  503  0.63285850521E+02 -0.71410428055E+01  0.42278280874E+03  0.42755279994E+03  0.00000000000E+00 0.  1.
         21    1    1    2  506  502 -0.11309674047E+03  0.72048171685E+01 -0.18029401875E+03  0.21295237799E+03  0.00000000000E+00 0. -1.
<scales pt_clust_3="44.10864" pt_clust_4="14000.00000" pt_clust_5="42.97016" pt_clust_6="110.97705"></scales>
<clustering>
<clus scale="   44.109">  1  3  2 -1</clus>
<clus scale="   42.970">  1  5  2 -1</clus>
<clus scale="  110.977">  2  6  1 -1</clus>
<clus scale="   44.109">  1  3  2 -1</clus>
</clustering>
</event>
<event>
 6    0  0.8641190E+002  0.1696980E+03  0.7546771E-02  0.1178163E+00
         21   -1    0    0  506  501  0.00000000000E+00  0.00000000000E+00  0.36610431783E+03  0.36610431783E+03  0.00000000000E+00 0.  1.
         21   -1    0    0  505  502 -0.00000000000E+00 -0.00000000000E+00 -0.34704943194E+03  0.34704943194E+03  0.00000000000E+00 0.  1.
         21    1    1    2  503  504  0.31780730477E+02 -0.95606526405E+02  0.68907476901E+02  0.12206089912E+03  0.00000000000E+00 0.  1.
         21    1    1    2  504  502  0.59670210381E+01 -0.10301212447E+03  0.50711182661E+02  0.11497272361E+03  0.00000000000E+00 0.  1.
         21    1    1    2  505  501 -0.37952011858E+02  0.15766843973E+03 -0.26279207116E+03  0.30880311649E+03  0.00000000000E+00 0.  1.
         21    1    1    2  506  503  0.20426034274E+00  0.40950211146E+02  0.16222829749E+03  0.16731701056E+03  0.00000000000E+00 0.  1.
<scales pt_clust_3="31.27957" pt_clust_4="31.27957" pt_clust_5="166.71939" pt_clust_6="40.95072"></scales>
<clustering>
<clus scale="   31.280">  3  4 -1 -1</clus>
<clus scale="   40.951">  1  6  2 -1</clus>
<clus scale="  166.719">  2  5  1 -1</clus>
<clus scale="   40.951">  1  3  2 -1</clus>
</clustering>
</event>
<event>
 6    0  0.8641190E+002  0.8585565E+02  0.7546771E-02  0.1313210E+00
         21   -1    0    0  506  501  0.00000000000E+00  0.00000000000E+00  0.14834530617E+04  0.14834530617E+04  0.00000000000E+00 0.  1.
         21   -1    0    0  505  502 -0.00000000000E+00 -0.00000000000E+00 -0.32542436735E+02  0.32542436735E+02  0.00000000000E+00 0.  1.
         21    1    1    2  503  504  0.92204804129E+02 -0.29160868437E+02  0.94804380657E+03  0.95296334732E+03  0.00000000000E+00 0.  1.
         21    1    1    2  504  501 -0.21079103459E+02  0.30350278031E+02  0.19075160139E+03  0.19429781628E+03  0.00000000000E+00 0. -1.
         21    1    1    2  505  503 -0.10986815876E+03 -0.42803034785E+01  0.31098759854E+03  0.32985242117E+03  0.00000000000E+00 0.  1.
         21    1    1    2  506  502  0.38742458089E+02  0.30908938847E+01  0.11276184249E+01  0.38881913625E+02  0.00000000000E+00 0.  1.
<scales pt_clust_3="85.85565" pt_clust_4="36.95224" pt_clust_5="14000.00000" pt_clust_6="38.58052"></scales>
<clustering>
<clus scale="   36.952">  1  4  2 -1</clus>
<clus scale="   38.581">  2  6  1 -1</clus>
<clus scale="   85.856">  1  3  2 -1</clus>
<clus scale="   36.952">  1  3  2 -1</clus>
</clustering>
</event>
<event>
 6    0  0.8641190E+002  0.8744727E+02  0.7546771E-02  0.1309154E+00
         21   -1    0    0  503  501  0.00000000000E+00  0.00000000000E+00  0.52139409525E+03  0.52139409525E+03  0.00000000000E+00 0. -1.
         21   -1    0    0  506  502 -0.00000000000E+00 -0.00000000000E+00 -0.11500769773E+03  0.11500769773E+03  0.00000000000E+00 0.  1.
         21    1    1    2  503  505 -0.19426084599E+02  0.33140334925E+02  0.70853236027E+02  0.80596746940E+02  0.00000000000E+00 0.  1.
         21    1    1    2  504  501 -0.61084638121E+02  0.25358449373E+01  0.24482593987E+03  0.25234401986E+03  0.00000000000E+00 0. -1.
         21    1    1    2  505  502 -0.38497114797E+02 -0.69085681187E+01 -0.82527929033E+02  0.91326968808E+02  0.00000000000E+00 0.  1.
         21    1    1    2  506  504  0.11900783752E+03 -0.28767611744E+02  0.17323515065E+03  0.21213405737E+03  0.00000000000E+00 0. -1.
<scales pt_clust_3="38.41425" pt_clust_4="14000.00000" pt_clust_5="39.24468" pt_clust_6="87.44727"></scales>
<clustering>
<clus scale="   38.414">  1  3  2 -1</clus>
<clus scale="   39.245">  2  5  1 -1</clus>
<clus scale="   87.447">  2  6  1 -1</clus>
<clus scale="   38.414">  1  3  2 -1</clus>
</clustering>
</event>
<event>
 6    0  0.8641190E+002  0.6712007E+02  0.7546771E-02  0.1370170E+00
         21   -1    0    0  506  501  0.00000000000E+00  0.00000000000E+00  0.51921988660E+03  0.51921988660E+03  0.00000000000E+00 0.  1.
         21   -1    0    0  503  502 -0.00000000000E+00 -0.00000000000E+00 -0.56463822185E+02  0.56463822185E+02  0.00000000000E+00 0.  1.
         21    1    1    2  503  504  0.77778678496E+02 -0.13827108640E+02  0.67713134041E+02  0.10404700997E+03  0.00000000000E+00 0.  1.
         21    1    1    2  504  501 -0.18050839830E+02 -0.64759193697E+02  0.39072755611E+02  0.77757740565E+02  0.00000000000E+00 0.  1.
         21    1    1    2  505  502 -0.51471323601E+02  0.34308438993E+02  0.37706804183E+02  0.72444249055E+02  0.00000000000E+00 0.  1.
         21    1    1    2  506  505 -0.82565150642E+01  0.44277863344E+02  0.31826337058E+03  0.32143470920E+03  0.00000000000E+00 0.  1.
<scales pt_clust_3="14000.00000" pt_clust_4="55.68480" pt_clust_5="67.12007" pt_clust_6="45.04108"></scales>
<clustering>
<clus scale="   45.041">  1  6  2 -1</clus>
<clus scale="   55.685">  1  4  2 -1</clus>
<clus scale="   67.120">  2  5  1 -1</clus>
<clus scale="   45.041">  1  3  2 -1</clus>
</clustering>
</event>
<event>
 6    0  0.8641190E+002  0.8338903E+02  0.7546771E-02  0.1319700E+00
         21   -1    0    0  503  501  0.00000000000E+00  0.00000000000E+00  0.13463126109E+03  0.13463126109E+03  0.00000000000E+00 0.  1.
         21   -1    0    0  506  502 -0.00000000000E+00 -0.00000000000E+00 -0.86160123479E+03  0.86160123479E+03  0.00000000000E+00 0. -1.
         21    1    1    2  503  502  0.71776466135E+01 -0.35661140867E+02 -0.45775045539E+03  0.45919354850E+03  0.00000000000E+00 0. -1.
         21    1    1    2  504  501  0.33485456361E+02 -0.75506409249E+02  0.10687940476E+03  0.13507664782E+03  0.00000000000E+00 0.  1.
         21    1    1    2  505  504 -0.62439567768E+01  0.10668097408E+03 -0.29442662659E+03  0.31322013931E+03  0.00000000000E+00 0. -1.
         21    1    1    2  506  505 -0.34419146198E+02  0.44865760405E+01 -0.81672296485E+02  0.88742160232E+02  0.00000000000E+00 0.  1.
<scales pt_clust_3="35.53349" pt_clust_4="83.38903" pt_clust_5="14000.00000" pt_clust_6="34.71033"></scales>
<clustering>
<clus scale="   34.710">  2  6  1 -1</clus>
<clus scale="   35.533">  2  3  1 -1</clus>
<clus scale="   83.389">  1  4  2 -1</clus>
<clus scale="   83.389">  1  3  2 -1</clus>
</clustering>
</event>
<event>
 6    0  0.8641190E+002  0.9680127E+02  0.7546771E-02  0.1287170E+00
         21   -1    0    0  504  501  0.00000000000E+00  0.00000000000E+00  0.92629440134E+02  0.92629440134E+02  0.00000000000E+00 0.  1.
         21   -1    0    0  503  502 -0.00000000000E+00 -0.00000000000E+00 -0.25851495205E+03  0.25851495205E+03  0.00000000000E+00 0.  1.
         21    1    1    2  503  506  0.21423170670E+02 -0.88776103129E+02 -0.12391564681E+03  0.15393257048E+03  0.00000000000E+00 0.  1.
         21    1    1    2  504  505  0.23588745789E+02  0.23819746437E+02  0.10357453989E+01  0.33539260826E+02  0.00000000000E+00 0.  1.
         21    1    1    2  505  502 -0.29412598194E+02  0.10799648630E+03 -0.34344163240E+02  0.11708058565E+03  0.00000000000E+00 0.  1.
         21    1    1    2  506  501 -0.15599318265E+02 -0.43040129612E+02 -0.86614472565E+01  0.46591975231E+02  0.00000000000E+00 0. -1.
<scales pt_clust_3="14000.00000" pt_clust_4="33.52326" pt_clust_5="96.80127" pt_clust_6="38.28335"></scales>
<clustering>
<clus scale="   33.523">  1  4  2 -1</clus>
<clus scale="   38.283">  1  6  2 -1</clus>
<clus scale="   96.801">  1  5  2 -1</clus>
<clus scale="   33.523">  1  3  2 -1</clus>
</clustering>
</event>
<event>
 6    0  0.8641190E+002  0.5580530E+02  0.7546771E-02  0.1416329E+00
         21   -1    0    0  506  501  0.00000000000E+00  0.00000000000E+00  0.36089276766E+03  0.36089276766E+03  0.00000000000E+00 0.  1.
         21   -1    0    0  503  502 -0.00000000000E+00 -0.00000000000E+00 -0.15163046516E+03  0.15163046516E+03  0.00000000000E+00 0.  1.
         21    1    1    2  503  501 -0.78461632461E+01 -0.38982311137E+02  0.95117250421E+01  0.40885887205E+02  0.00000000000E+00 0. -1.
         21    1    1    2  504  502 -0.19816074178E+01  0.91738412516E+02 -0.10527798862E+03  0.13965428023E+03  0.00000000000E+00 0.  1.
         21    1    1    2  505  504 -0.43040039874E+02 -0.49691004311E+02  0.96005029249E+02  0.11635551806E+03  0.00000000000E+00 0.  1.
         21    1    1    2  506  505  0.52867810538E+02 -0.30650970683E+01  0.20902353683E+03  0.21562754731E+03  0.00000000000E+00 0.  1.
<scales pt_clust_3="39.76409" pt_clust_4="55.80530" pt_clust_5="14000.00000" pt_clust_6="52.82979"></scales>
<clustering>
<clus scale="   39.764">  2  3  1 -1</clus>
<clus scale="   52.830">  1  6  2 -1</clus>
<clus scale="   55.805">  2  4  1 -1</clus>
<clus scale="   52.830">  1  3  2 -1</clus>
</clustering>
</event>
<event>
 6    0  0.8641190E+002  0.1207193E+03  0.7546771E-02  0.1241915E+00
         21   -1    0    0  503  501  0.00000000000E+00  0.00000000000E+00  0.29857659041E+03  0.29857659041E+03  0.00000000000E+00 0. -1.
         21   -1    0    0  504  502 -0.00000000000E+00 -0.00000000000E+00 -0.17874030319E+04  0.17874030319E+04  0.00000000000E+00 0. -1.
         21    1    1    2  503  505 -0.11915309779E+02 -0.44591452392E+02  0.78426457952E+02  0.91000448023E+02  0.00000000000E+00 0. -1.
         21    1    1    2  504  506  0.12041876944E+03 -0.87261217393E+01 -0.17509080763E+04  0.17550657871E+04  0.00000000000E+00 0. -1.
         21    1    1    2  505  502 -0.11806820527E+03  0.22604854772E+02  0.15928616855E+03  0.19955742042E+03  0.00000000000E+00 0. -1.
         21    1    1    2  506  501  0.95647456034E+01  0.30712719358E+02  0.24369008335E+02  0.40355966797E+02  0.00000000000E+00 0. -1.
<scales pt_clust_3="35.93066" pt_clust_4="120.71927" pt_clust_5="14000.00000" pt_clust_6="32.16762"></scales>
<clustering>
<clus scale="   32.168">  1  6  2 -1</clus>
<clus scale="   35.931">  1  3  2 -1</clus>
<clus scale="  120.719">  2  4  1 -1</clus>
<clus scale="   32.168">  1  3  2 -1</clus>
</clustering>
</event>
<event>
 6    0  0.8641190E+002  0.1297019E+03  0.7546771E-02  0.1227899E+00
         21   -1    0    0  504  501  0.00000000000E+00  0.00000000000E+00  0.42997129435E+03  0.42997129435E+03  0.00000000000E+00 0.  1.
         21   -1    0    0  505  502 -0.00000000000E+00 -0.00000000000E+00 -0.23114352777E+03  0.23114352777E+03  0.00000000000E+00 0.  1.
         21    1    1    2  503  506 -0.46083035293E+02 -0.13175320622E+02 -0.19196209465E+02  0.51630704751E+02  0.00000000000E+00 0.  1.
         21    1    1    2  504  503  0.55333040455E+02 -0.23956041793E+01  0.35894067075E+03  0.36318850395E+03  0.00000000000E+00 0.  1.
         21    1    1    2  505  501  0.36486028761E+02  0.98291966723E+02 -0.54223299972E+02  0.11803688947E+03  0.00000000000E+00 0. -1.
         21    1    1    2  506  502 -0.45736033922E+02 -0.82721041922E+02 -0.86693394732E+02  0.12825872394E+03  0.00000000000E+00 0.  1.
<scales pt_clust_3="42.25230" pt_clust_4="55.38487" pt_clust_5="115.33358" pt_clust_6="42.25230"></scales>
<clustering>
<clus scale="   42.252">  3  6 -1 -1</clus>
<clus scale="   55.385">  1  4  2 -1</clus>
<clus scale="  115.334">  2  5  1 -1</clus>
<clus scale="   55.385">  1  3  2 -1</clus>
</clustering>
</event>
<event>
 6    0  0.8641190E+002  0.1551605E+03  0.7546771E-02  0.1194271E+00
         21   -1    0    0  505  501  0.00000000000E+00  0.00000000000E+00  0.13521153696E+04  0.13521153696E+04  0.00000000000E+00 0. -1.
         21   -1    0    0  506  502 -0.00000000000E+00 -0.00000000000E+00 -0.46358979530E+03  0.46358979530E+03  0.00000000000E+00 0.  1.
         21    1    1    2  503  502 -0.81354920362E+02  0.50244834829E+02 -0.10979546110E+03  0.14559604999E+03  0.00000000000E+00 0.  1.
         21    1    1    2  504  503  0.11083381454E+03 -0.94163580543E+02  0.39392177321E+03  0.41991103552E+03  0.00000000000E+00 0. -1.
         21    1    1    2  505  504  0.38115075197E+02  0.22948632198E+02  0.92287842997E+03  0.92395021251E+03  0.00000000000E+00 0. -1.
         21    1    1    2  506  501 -0.67593969371E+02  0.20970113515E+02 -0.31847916776E+03  0.32624786689E+03  0.00000000000E+00 0.  1.
<scales pt_clust_3="155.16054" pt_clust_4="14000.00000" pt_clust_5="44.49043" pt_clust_6="70.50451"></scales>
<clustering>
<clus scale="   44.490">  1  5  2 -1</clus>
<clus scale="   70.505">  2  6  1 -1</clus>
<clus scale="  155.161">  2  3  1 -1</clus>
<clus scale="   44.490">  1  3  2 -1</clus>
</clustering>
</event>
<event>
 6    0  0.8641190E+002  0.1359110E+03  0.7546771E-02  0.1218939E+00
         21   -1    0    0  505  501  0.00000000000E+00  0.00000000000E+00  0.20897125446E+03  0.20897125446E+03  0.00000000000E+00 0.  1.
         21   -1    0    0  506  502 -0.00000000000E+00 -0.00000000000E+00 -0.28198259675E+03  0.28198259675E+03  0.00000000000E+00 0.  1.
         21    1    1    2  503  502  0.23380895588E+02  0.19122737333E+02 -0.12953327940E+03  0.13300832994E+03  0.00000000000E+00 0.  1.
         21    1    1    2  504  501 -0.10689426611E+03 -0.88384249690E+02  0.11749093937E+03  0.18177535740E+03  0.00000000000E+00 0.  1.
         21    1    1    2  505  503  0.79736063645E+02  0.10332719342E+03 -0.42651922141E+02  0.13730817604E+03  0.00000000000E+00 0.  1.
         21    1    1    2  506  504  0.37773068797E+01 -0.34065681065E+02 -0.18317080129E+02  0.38861987831E+02  0.00000000000E+00 0.  1.
<scales pt_clust_3="30.20506" pt_clust_4="135.91096" pt_clust_5="14000.00000" pt_clust_6="31.52663"></scales>
<clustering>
<clus scale="   30.205">  2  3  1 -1</clus>
<clus scale="   31.527">  2  6  1 -1</clus>
<clus scale="  135.911">  1  4  2 -1</clus>
<clus scale="  135.911">  1  3  2 -1</clus>
</clustering>
</event>
<event>
 6    0  0.8641190E+002  0.5935935E+02  0.7546771E-02  0.1400540E+00
         21   -1    0    0  506  501  0.00000000000E+00  0.00000000000E+00  0.12417308361E+03  0.12417308361E+03  0.00000000000E+00 0.  1.
         21   -1    0    0  504  502 -0.00000000000E+00 -0.00000000000E+00 -0.28216529538E+03  0.28216529538E+03  0.00000000000E+00 0. -1.
         21    1    1    2  503  501 -0.41357087199E+02 -0.15427267534E+02 -0.16485673109E+02  0.47118856767E+02  0.00000000000E+00 0. -1.
         21    1    1    2  504  503 -0.53254566320E+02 -0.28535282199E+02 -0.18223907065E+03  0.19199320310E+03  0.00000000000E+00 0. -1.
         21    1    1    2  505  502  0.21656626448E+02  0.66339465922E+02 -0.16656383465E+02  0.71745169301E+02  0.00000000000E+00 0. -1.
         21    1    1    2  506  505  0.72955027071E+02 -0.22376916189E+02  0.57388915455E+02  0.95481149816E+02  0.00000000000E+00 0.  1.
<scales pt_clust_3="44.14079" pt_clust_4="14000.00000" pt_clust_5="59.35935" pt_clust_6="55.05854"></scales>
<clustering>
<clus scale="   44.141">  1  3  2 -1</clus>
<clus scale="   55.059">  1  6  2 -1</clus>
<clus scale="   59.359">  1  5  2 -1</clus>
<clus scale="   44.141">  1  3  2 -1</clus>
</clustering>
</event>
<event>
 6    0  0.8641190E+002  0.2651576E+03  0.7546771E-02  0.1104083E+00
         21   -1    0    0  505  501  0.00000000000E+00  0.00000000000E+00  0.35361136628E+03  0.35361136628E+03  0.00000000000E+00 0. -1.
         21   -1    0    0  501  502 -0.00000000000E+00 -0.00000000000E+00 -0.39152746620E+03  0.39152746620E+03  0.00000000000E+00 0. -1.
         21    1    1    2  503  506 -0.76623793374E+02  0.38239115261E+02 -0.99462718326E+01  0.86211159198E+02  0.00000000000E+00 0. -1.
         21    1    1    2  504  502  0.18244828741E+03  0.40938372222E+02 -0.86077651897E+02  0.20584627773E+03  0.00000000000E+00 0. -1.
         21    1    1    2  505  503 -0.29737791068E+02  0.17678544152E+03  0.49211380559E+02  0.18590101810E+03  0.00000000000E+00 0. -1.
         21    1    1    2  506  504 -0.76086702971E+02 -0.25596292901E+03  0.88964432503E+01  0.26718037746E+03  0.00000000000E+00 0. -1.
<scales pt_clust_3="84.52136" pt_clust_4="186.98483" pt_clust_5="84.52136" pt_clust_6="235.27349"></scales>
<clustering>
<clus scale="   84.521">  3  5 -1 -1</clus>
<clus scale="  186.985">  2  4  1 -1</clus>
<clus scale="  235.273">  2  6  1 -1</clus>
<clus scale="  265.158">  1  3  2 -1</clus>
</clustering>
</event>
<event>
 6    0  0.8641190E+002  0.1674380E+03  0.7546771E-02  0.1180546E+00
         21   -1    0    0  503  501  0.00000000000E+00  0.00000000000E+00  0.38525181073E+03  0.38525181073E+03  0.00000000000E+00 0. -1.
         21   -1    0    0  506  502 -0.00000000000E+00 -0.00000000000E+00 -0.16722089957E+03  0.16722089957E+03  0.00000000000E+00 0.  1.
         21    1    1    2  503  502 -0.38781689968E+02 -0.15170848809E+03  0.16994459024E+03  0.23108580352E+03  0.00000000000E+00 0. -1.
         21    1    1    2  504  501  0.29938699536E+02 -0.32390683237E+01  0.13097834287E+03  0.13439547461E+03  0.00000000000E+00 0. -1.
         21    1    1    2  505  504  0.14253841282E+02  0.10022236951E+03 -0.19537321908E+02  0.10309899267E+03  0.00000000000E+00 0.  1.
         21    1    1    2  506  505 -0.54108508497E+01  0.54725186902E+02 -0.63354700048E+02  0.83892439508E+02  0.00000000000E+00 0.  1.
<scales pt_clust_3="155.00876" pt_clust_4="30.11341" pt_clust_5="46.49269" pt_clust_6="46.49269"></scales>
<clustering>
<clus scale="   30.113">  1  4  2 -1</clus>
<clus scale="   46.493">  5  6 -1 -1</clus>
<clus scale="  155.009">  1  3  2 -1</clus>
<clus scale="   30.113">  1  3  2 -1</clus>
</clustering>
</event>
<event>
 6    0  0.8641190E+002  0.1179145E+03  0.7546771E-02  0.1246578E+00
         21   -1    0    0  504  501  0.00000000000E+00  0.00000000000E+00  0.74112166240E+03  0.74112166240E+03  0.00000000000E+00 0. -1.
         21   -1    0    0  505  502 -0.00000000000E+00 -0.00000000000E+00 -0.49633457802E+03  0.49633457802E+03  0.00000000000E+00 0. -1.
         21    1    1    2  503  501  0.64185985806E+02 -0.55358284085E+02  0.54074683116E+02  0.10054079642E+03  0.00000000000E+00 0. -1.
         21    1    1    2  504  506  0.71444962023E+02  0.22115808660E+02  0.63242931575E+03  0.63683618853E+03  0.00000000000E+00 0. -1.
         21    1    1    2  505  503 -0.64228076184E+02 -0.77743858455E+02 -0.22093761114E+03  0.24286370934E+03  0.00000000000E+00 0. -1.
         21    1    1    2  506  502 -0.71402871645E+02  0.11098633388E+03 -0.22077930334E+03  0.25721554613E+03  0.00000000000E+00 0. -1.
<scales pt_clust_3="14000.00000" pt_clust_4="74.78965" pt_clust_5="94.49756" pt_clust_6="117.91450"></scales>
<clustering>
<clus scale="   74.790">  1  4  2 -1</clus>
<clus scale="   94.498">  2  5  1 -1</clus>
<clus scale="  117.915">  2  6  1 -1</clus>
<clus scale="   74.790">  1  3  2 -1</clus>
</clustering>
</event>
<event>
 6    0  0.8641190E+002  0.1206946E+03  0.7546771E-02  0.1241956E+00
         21   -1    0    0  503  501  0.00000000000E+00  0.00000000000E+00  0.15723324624E+04  0.15723324624E+04  0.00000000000E+00 0.  1.
         21   -1    0    0  505  502 -0.00000000000E+00 -0.00000000000E+00 -0.25623478952E+03  0.25623478952E+03  0.00000000000E+00 0. -1.
         21    1    1    2  503  504  0.18263764156E+02  0.12590012007E+03  0.46634881569E+02  0.13549618996E+03  0.00000000000E+00 0. -1.
         21    1    1    2  504  502 -0.10811356633E+03 -0.43140857040E+02 -0.93592969013E+02  0.14936304971E+03  0.00000000000E+00 0. -1.
         21    1    1    2  505  506  0.63944032168E+02 -0.99528457204E+02 -0.51351557780E+02  0.12896408620E+03  0.00000000000E+00 0. -1.
         21    1    1    2  506  501  0.25905770005E+02  0.16769194173E+02  0.14144073181E+04  0.14147439261E+04  0.00000000000E+00 0.  1.
<scales pt_clust_3="14000.00000" pt_clust_4="111.05655" pt_clust_5="120.69463" pt_clust_6="30.85960"></scales>
<clustering>
<clus scale="   30.860">  1  6  2 -1</clus>
<clus scale="  111.057">  2  4  1 -1</clus>
<clus scale="  120.695">  2  5  1 -1</clus>
<clus scale="   30.860">  1  3  2 -1</clus>
</clustering>
</event>
<event>
 6    0  0.8641190E+002  0.1102340E+03  0.7546771E-02  0.1260137E+00
         21   -1    0    0  503  501  0.00000000000E+00  0.00000000000E+00  0.28482863447E+04  0.28482863447E+04  0.00000000000E+00 0. -1.
         21   -1    0    0  504  502 -0.00000000000E+00 -0.00000000000E+00 -0.13768536122E+02  0.13768536122E+02  0.00000000000E+00 0. -1.
         21    1    1    2  503  506  0.38321821829E+02 -0.52236287156E+02  0.10187387440E+04  0.10207966596E+04  0.00000000000E+00 0. -1.
         21    1    1    2  504  505 -0.16793929457E+02  0.97279973315E+02  0.85172090535E+03  0.85742284194E+03  0.00000000000E+00 0. -1.
         21    1    1    2  505  501 -0.45865908420E+02  0.30510513966E+02  0.79675172594E+03  0.79865379597E+03  0.00000000000E+00 0. -1.
         21    1    1    2  506  502  0.24338016049E+02 -0.75554200126E+02  0.16730643334E+03  0.18518158337E+03  0.00000000000E+00 0. -1.
<scales pt_clust_3="64.78574" pt_clust_4="52.13627" pt_clust_5="52.13627" pt_clust_6="85.32510"></scales>
<clustering>
<clus scale="   52.136">  4  5 -1 -1</clus>
<clus scale="   64.786">  1  3  2 -1</clus>
<clus scale="   85.325">  2  6  1 -1</clus>
<clus scale="   64.786">  1  3  2 -1</clus>
</clustering>
</event>
<event>
 6    0  0.8641190E+002  0.1075611E+03  0.7546771E-02  0.1265154E+00
         21   -1    0    0  504  501  0.00000000000E+00  0.00000000000E+00  0.33414101353E+03  0.33414101353E+03  0.00000000000E+00 0. -1.
         21   -1    0    0  505  502 -0.00000000000E+00 -0.00000000000E+00 -0.53685739879E+03  0.53685739879E+03  0.00000000000E+00 0. -1.
         21    1    1    2  503  506 -0.59326821643E+01  0.65974243663E+02  0.15111982122E+03  0.16499999367E+03  0.00000000000E+00 0. -1.
         21    1    1    2  504  502  0.64867034027E+02 -0.57056766469E+02  0.52725163215E+02  0.10120844599E+03  0.00000000000E+00 0. -1.
         21    1    1    2  505  503 -0.82314652674E+02 -0.58824174209E+02 -0.49245253067E+03  0.50273798392E+03  0.00000000000E+00 0. -1.
         21    1    1    2  506  501  0.23380300812E+02  0.49906697015E+02  0.85891160967E+02  0.10205198874E+03  0.00000000000E+00 0. -1.
<scales pt_clust_3="34.24767" pt_clust_4="86.38985" pt_clust_5="100.79511" pt_clust_6="34.24767"></scales>
<clustering>
<clus scale="   34.248">  3  6 -1 -1</clus>
<clus scale="   86.390">  1  4  2 -1</clus>
<clus scale="  100.795">  2  5  1 -1</clus>
<clus scale="   86.390">  1  3  2 -1</clus>
</clustering>
</event>
<event>
 6    0  0.8641190E+002  0.1253225E+03  0.7546771E-02  0.1234566E+00
         21   -1    0    0  505  501  0.00000000000E+00  0.00000000000E+00  0.96761586247E+02  0.96761586247E+02  0.00000000000E+00 0.  1.
         21   -1    0    0  504  502 -0.00000000000E+00 -0.00000000000E+00 -0.81983505424E+03  0.81983505424E+03  0.00000000000E+00 0. -1.
         21    1    1    2  503  501  0.34022522402E+02  0.18011044391E+02 -0.90150743119E+02  0.98025946746E+02  0.00000000000E+00 0. -1.
         21    1    1    2  504  503  0.21066641963E+02 -0.26992890462E+02 -0.77405553014E+02  0.84640647307E+02  0.00000000000E+00 0. -1.
         21    1    1    2  505  506 -0.10558454394E+03  0.74230323067E+02  0.38126578189E+02  0.13458035795E+03  0.00000000000E+00 0.  1.
         21    1    1    2  506  502  0.50495379580E+02 -0.65248476996E+02 -0.59364375005E+03  0.59934968848E+03  0.00000000000E+00 0. -1.
<scales pt_clust_3="39.49267" pt_clust_4="34.24061" pt_clust_5="125.32253" pt_clust_6="14000.00000"></scales>
<clustering>
<clus scale="   34.241">  2  4  1 -1</clus>
<clus scale="   39.493">  2  3  1 -1</clus>
<clus scale="  125.323">  1  5  2 -1</clus>
<clus scale="  125.323">  1  3  2 -1</clus>
</clustering>
</event>
<event>
 6    0  0.8641190E+002  0.1230410E+03  0.7546771E-02  0.1238163E+00
         21   -1    0    0  503  501  0.00000000000E+00  0.00000000000E+00  0.28822180815E+03  0.28822180815E+03  0.00000000000E+00 0. -1.
         21   -1    0    0  505  502 -0.00000000000E+00 -0.00000000000E+00 -0.30694995235E+03  0.30694995235E+03  0.00000000000E+00 0. -1.
         21    1    1    2  503  504 -0.39315935553E+02 -0.55558620615E+02  0.13025425926E-01  0.68062495420E+02  0.00000000000E+00 0. -1.
         21    1    1    2  504  502 -0.10507801182E+02 -0.29444195932E+02 -0.52594786872E+02  0.61184852422E+02  0.00000000000E+00 0.  1.
         21    1    1    2  505  506  0.13352423518E+03 -0.81040234732E+01 -0.17629907934E+03  0.22130468127E+03  0.00000000000E+00 0. -1.
         21    1    1    2  506  501 -0.83700498443E+02  0.93106840020E+02  0.21015269660E+03  0.24461973139E+03  0.00000000000E+00 0. -1.
<scales pt_clust_3="72.16785" pt_clust_4="31.26299" pt_clust_5="14000.00000" pt_clust_6="123.04101"></scales>
<clustering>
<clus scale="   31.263">  2  4  1 -1</clus>
<clus scale="   72.168">  2  3  1 -1</clus>
<clus scale="  123.041">  1  6  2 -1</clus>
<clus scale="  123.041">  1  3  2 -1</clus>
</clustering>
</event>
<event>
 6    0  0.8641190E+002  0.1061072E+03  0.7546771E-02  0.1267953E+00
         21   -1    0    0  503  501  0.00000000000E+00  0.00000000000E+00  0.31895452688E+03  0.31895452688E+03  0.00000000000E+00 0.  1.
         21   -1    0    0  504  502 -0.00000000000E+00 -0.00000000000E+00 -0.10988899783E+04  0.10988899783E+04  0.00000000000E+00 0. -1.
         21    1    1    2  503  505  0.11357350683E+03  0.73536260361E+02  0.16988952113E+03  0.21718419011E+03  0.00000000000E+00 0.  1.
         21    1    1    2  504  506 -0.79162252735E+02  0.25977668138E+02 -0.10437207661E+03  0.13354786361E+03  0.00000000000E+00 0.  1.
         21    1    1    2  505  502 -0.28225101917E+02 -0.55399962903E+02 -0.95074982067E+03  0.95278068504E+03  0.00000000000E+00 0. -1.
         21    1    1    2  506  501 -0.61861521807E+01 -0.44113965596E+02  0.10529692476E+03  0.11433176638E+03  0.00000000000E+00 0.  1.
<scales pt_clust_3="14000.00000" pt_clust_4="106.10716" pt_clust_5="62.38018" pt_clust_6="44.54560"></scales>
<clustering>
<clus scale="   44.546">  1  6  2 -1</clus>
<clus scale="   62.380">  2  5  1 -1</clus>
<clus scale="  106.107">  2  4  1 -1</clus>
<clus scale="   44.546">  1  3  2 -1</clus>
</clustering>
</event>
<event>
 6    0  0.8641190E+002  0.1140149E+03  0.7546771E-02  0.1253310E+00
         21   -1    0    0  504  501  0.00000000000E+00  0.00000000000E+00  0.88646495458E+03  0.88646495458E+03  0.00000000000E+00 0.  1.
         21   -1    0    0  505  502 -0.00000000000E+00 -0.00000000000E+00 -0.49449237092E+02  0.49449237092E+02  0.00000000000E+00 0.  1.
         21    1    1    2  503  506  0.63443880151E+02  0.23997552683E+02  0.33289904896E+03  0.33973929013E+03  0.00000000000E+00 0.  1.
         21    1    1    2  504  503  0.17477685125E+02 -0.33336144881E+02  0.33288775043E+03  0.33500898856E+03  0.00000000000E+00 0.  1.
         21    1    1    2  505  501 -0.10007851411E+03 -0.31103184037E+02  0.24309869926E+02  0.10758292996E+03  0.00000000000E+00 0.  1.
         21    1    1    2  506  502  0.19156948834E+02  0.40441776235E+02  0.14691904818E+03  0.15358298301E+03  0.00000000000E+00 0.  1.
<scales pt_clust_3="33.94115" pt_clust_4="37.63998" pt_clust_5="104.08299" pt_clust_6="33.94115"></scales>
<clustering>
<clus scale="   37.640">  1  4  2 -1</clus>
<clus scale="   33.941">  3  6 -1 -1</clus>
<clus scale="  104.083">  2  5  1 -1</clus>
<clus scale="   37.640">  1  3  2 -1</clus>
</clustering>
</event>
<event>
 6    0  0.8641190E+002  0.7343636E+02  0.7546771E-02  0.1348783E+00
         21   -1    0    0  505  501  0.00000000000E+00  0.00000000000E+00  0.84194647877E+02  0.84194647877E+02  0.00000000000E+00 0.  1.
         21   -1    0    0  504  502 -0.00000000000E+00 -0.00000000000E+00 -0.48248496256E+03  0.48248496256E+03  0.00000000000E+00 0. -1.
         21    1    1    2  503  501 -0.45460706771E+02 -0.25009589810E+02 -0.37501337302E+02  0.64019573117E+02  0.00000000000E+00 0. -1.
         21    1    1    2  504  503  0.11343824097E+03 -0.28636028490E+02 -0.19803118466E+03  0.23001001443E+03  0.00000000000E+00 0. -1.
         21    1    1    2  505  506 -0.35769423560E+02 -0.52402670650E+01  0.43025804829E+02  0.56197259202E+02  0.00000000000E+00 0.  1.
         21    1    1    2  506  502 -0.32208110637E+02  0.58885885365E+02 -0.20578359755E+03  0.21645276369E+03  0.00000000000E+00 0. -1.
<scales pt_clust_3="65.05113" pt_clust_4="73.43636" pt_clust_5="36.15124" pt_clust_6="14000.00000"></scales>
<clustering>
<clus scale="   36.151">  1  5  2 -1</clus>
<clus scale="   65.051">  1  3  2 -1</clus>
<clus scale="   73.436">  1  4  2 -1</clus>
<clus scale="   36.151">  1  3  2 -1</clus>
</clustering>
</event>
<event>
 6    0  0.8641190E+002  0.2838885E+03  0.7546771E-02  0.1093584E+00
         21   -1    0    0  505  501  0.00000000000E+00  0.00000000000E+00  0.79610375287E+02  0.79610375287E+02  0.00000000000E+00 0. -1.
         21   -1    0    0  504  502 -0.00000000000E+00 -0.00000000000E+00 -0.14710827554E+04  0.14710827554E+04  0.00000000000E+00 0.  1.
         21    1    1    2  503  506  0.18122988997E+02  0.29457865842E+02 -0.11999612131E+03  0.12488105429E+03  0.00000000000E+00 0. -1.
         21    1    1    2  504  501  0.33297813341E+02 -0.32946109300E+02 -0.13336246753E+02  0.48703654573E+02  0.00000000000E+00 0.  1.
         21    1    1    2  505  503  0.16617049521E+03  0.16753216562E+03 -0.30407937726E+03  0.38489469685E+03  0.00000000000E+00 0. -1.
         21    1    1    2  506  502 -0.21759129755E+03 -0.16404392216E+03 -0.95406063477E+03  0.99221372495E+03  0.00000000000E+00 0.  1.
<scales pt_clust_3="32.62568" pt_clust_4="46.84219" pt_clust_5="32.62568" pt_clust_6="270.79612"></scales>
<clustering>
<clus scale="   32.626">  3  5 -1 -1</clus>
<clus scale="   46.842">  1  4  2 -1</clus>
<clus scale="  270.796">  2  6  1 -1</clus>
<clus scale="   46.842">  1  3  2 -1</clus>
</clustering>
</event>
<event>
 6    0  0.8641190E+002  0.1381756E+03  0.7546771E-02  0.1215805E+00
         21   -1    0    0  503  501  0.00000000000E+00  0.00000000000E+00  0.10322538896E+03  0.10322538896E+03  0.00000000000E+00 0. -1.
         21   -1    0    0  506  502 -0.00000000000E+00 -0.00000000000E+00 -0.82988920525E+03  0.82988920525E+03  0.00000000000E+00 0.  1.
         21    1    1    2  503  504  0.11837690752E+03  0.11555270869E+03 -0.13338466243E+03  0.21250173856E+03  0.00000000000E+00 0.  1.
         21    1    1    2  504  505 -0.76056734621E+02 -0.97024915365E+02 -0.12459665842E+03  0.17527917267E+03  0.00000000000E+00 0. -1.
         21    1    1    2  505  502 -0.23534202532E+02  0.30918932690E+02 -0.48760878506E+03  0.48915454241E+03  0.00000000000E+00 0.  1.
         21    1    1    2  506  501 -0.18785970365E+02 -0.49446726015E+02  0.18926289618E+02  0.56179140567E+02  0.00000000000E+00 0. -1.
<scales pt_clust_3="138.17563" pt_clust_4="14000.00000" pt_clust_5="38.85665" pt_clust_6="51.80578"></scales>
<clustering>
<clus scale="   38.857">  2  5  1 -1</clus>
<clus scale="   51.806">  1  6  2 -1</clus>
<clus scale="  138.176">  1  3  2 -1</clus>
<clus scale="   51.806">  1  3  2 -1</clus>
</clustering>
</event>
<event>
 6    0  0.8641190E+002  0.1369026E+03  0.7546771E-02  0.1217559E+00
         21   -1    0    0  502  501  0.00000000000E+00  0.00000000000E+00  0.23650474522E+03  0.23650474522E+03  0.00000000000E+00 0. -1.
         21   -1    0    0  505  502 -0.00000000000E+00 -0.00000000000E+00 -0.10182262840E+04  0.10182262840E+04  0.00000000000E+00 0.  1.
         21    1    1    2  503  504 -0.13934199161E+02  0.32879237608E+02 -0.13668261666E+02  0.38236468834E+02  0.00000000000E+00 0. -1.
         21    1    1    2  504  501 -0.35446480962E+02 -0.13604108152E+03  0.16900299705E+03  0.21983093933E+03  0.00000000000E+00 0. -1.
         21    1    1    2  505  506  0.10243978070E+02  0.45185609098E+02 -0.92442195701E+03  0.92558232100E+03  0.00000000000E+00 0.  1.
         21    1    1    2  506  503  0.39136702053E+02  0.57976234811E+02 -0.12634317180E+02  0.71081300080E+02  0.00000000000E+00 0.  1.
<scales pt_clust_3="34.77402" pt_clust_4="127.95955" pt_clust_5="46.33226" pt_clust_6="34.77402"></scales>
<clustering>
<clus scale="   34.774">  3  6 -1 -1</clus>
<clus scale="   46.332">  2  5  1 -1</clus>
<clus scale="  127.960">  1  4  2 -1</clus>
<clus scale="  127.960">  1  3  2 -1</clus>
</clustering>
</event>
<event>
 6    0  0.8641190E+002  0.1943988E+03  0.7546771E-02  0.1154553E+00
         21   -1    0    0  504  501  0.00000000000E+00  0.00000000000E+00  0.61946838381E+03  0.61946838381E+03  0.00000000000E+00 0. -1.
         21   -1    0    0  503  502 -0.00000000000E+00 -0.00000000000E+00 -0.10553206650E+03  0.10553206650E+03  0.00000000000E+00 0. -1.
         21    1    1    2  503  506 -0.12079704095E+03  0.13078195813E+03  0.57114611985E+02  0.18697038422E+03  0.00000000000E+00 0. -1.
         21    1    1    2  504  505  0.69624707968E+02 -0.76855019614E+02  0.17230166029E+03  0.20110235239E+03  0.00000000000E+00 0.  1.
         21    1    1    2  505  502  0.99826977547E+02 -0.58915296673E+02  0.12680095411E+03  0.17179906749E+03  0.00000000000E+00 0. -1.
         21    1    1    2  506  501 -0.48654644562E+02  0.49883581598E+01  0.15771909093E+03  0.16512864621E+03  0.00000000000E+00 0. -1.
<scales pt_clust_3="188.00335" pt_clust_4="46.77577" pt_clust_5="46.77577" pt_clust_6="48.90969"></scales>
<clustering>
<clus scale="   46.776">  4  5 -1 -1</clus>
<clus scale="   48.910">  1  6  2 -1</clus>
<clus scale="  188.003">  2  3  1 -1</clus>
<clus scale="   48.910">  1  3  2 -1</clus>
</clustering>
</event>
<event>
 6    0  0.8641190E+002  0.1100421E+03  0.7546771E-02  0.1260492E+00
         21   -1    0    0  505  501  0.00000000000E+00  0.00000000000E+00  0.17062151214E+03  0.17062151214E+03  0.00000000000E+00 0. -1.
         21   -1    0    0  504  502 -0.00000000000E+00 -0.00000000000E+00 -0.21070331610E+03  0.21070331610E+03  0.00000000000E+00 0. -1.
         21    1    1    2  503  501  0.74272215031E+02  0.21770997687E+02 -0.28694660523E+02  0.82545271266E+02  0.00000000000E+00 0. -1.
         21    1    1    2  504  506 -0.67875043662E+02  0.17201087259E+02 -0.37995771910E+02  0.79665410550E+02  0.00000000000E+00 0. -1.
         21    1    1    2  505  502  0.46843958355E+02 -0.26317972386E+02  0.10823678039E+03  0.12083953300E+03  0.00000000000E+00 0. -1.
         21    1    1    2  506  503 -0.53241129723E+02 -0.12654112561E+02 -0.81628151921E+02  0.98274613431E+02  0.00000000000E+00 0. -1.
<scales pt_clust_3="97.19207" pt_clust_4="45.62045" pt_clust_5="53.73074" pt_clust_6="45.62045"></scales>
<clustering>
<clus scale="   45.620">  4  6 -1 -1</clus>
<clus scale="   53.731">  1  5  2 -1</clus>
<clus scale="   97.192">  1  3  2 -1</clus>
<clus scale="   53.731">  1  3  2 -1</clus>
</clustering>
</event>
<event>
 6    0  0.8641190E+002  0.7565758E+02  0.7546771E-02  0.1341847E+00
         21   -1    0    0  506  501  0.00000000000E+00  0.00000000000E+00  0.65138878993E+03  0.65138878993E+03  0.00000000000E+00 0. -1.
         21   -1    0    0  505  502 -0.00000000000E+00 -0.00000000000E+00 -0.12435697808E+03  0.12435697808E+03  0.00000000000E+00 0. -1.
         21    1    1    2  503  504 -0.57745847646E+02 -0.23211698312E+02  0.45497544595E+01  0.62402452872E+02  0.00000000000E+00 0. -1.
         21    1    1    2  504  502  0.27231295219E+02 -0.25397410346E+02 -0.41535861860E+01  0.37467641636E+02  0.00000000000E+00 0.  1.
         21    1    1    2  505  501  0.32136392674E+02  0.10347927858E+03 -0.33222074441E+02  0.11333320370E+03  0.00000000000E+00 0. -1.
         21    1    1    2  506  503 -0.16218402470E+01 -0.54870169923E+02  0.55985771802E+03  0.56254246981E+03  0.00000000000E+00 0. -1.
<scales pt_clust_3="14000.00000" pt_clust_4="37.23670" pt_clust_5="75.65758" pt_clust_6="55.21400"></scales>
<clustering>
<clus scale="   37.237">  2  4  1 -1</clus>
<clus scale="   55.214">  1  6  2 -1</clus>
<clus scale="   75.658">  2  5  1 -1</clus>
<clus scale="   55.214">  1  3  2 -1</clus>
</clustering>
</event>
<event>
 6    0  0.8641190E+002  0.3358375E+03  0.7546771E-02  0.1068583E+00
         21   -1    0    0  505  501  0.00000000000E+00  0.00000000000E+00  0.16311363474E+03  0.16311363474E+03  0.00000000000E+00 0.  1.
         21   -1    0    0  504  502 -0.00000000000E+00 -0.00000000000E+00 -0.69017777139E+03  0.69017777139E+03  0.00000000000E+00 0.  1.
         21    1    1    2  503  501 -0.53023077963E+02  0.99919328264E+02 -0.62085323379E+02  0.12903451607E+03  0.00000000000E+00 0.  1.
         21    1    1    2  504  503  0.26918828213E+02  0.20421088277E+03 -0.31007223368E+03  0.37225192820E+03  0.00000000000E+00 0.  1.
         21    1    1    2  505  506 -0.12227718891E+02 -0.23913704969E+03 -0.13049455557E+03  0.27269923850E+03  0.00000000000E+00 0.  1.
         21    1    1    2  506  502  0.38331968641E+02 -0.64993161343E+02 -0.24412024025E+02  0.79305723364E+02  0.00000000000E+00 0.  1.
<scales pt_clust_3="103.77538" pt_clust_4="103.77538" pt_clust_5="316.08772" pt_clust_6="46.06809"></scales>
<clustering>
<clus scale="   46.068">  5  6 -1 -1</clus>
<clus scale="  103.775">  3  4 -1 -1</clus>
<clus scale="  316.088">  1  5  2 -1</clus>
<clus scale="  316.088">  1  3  2 -1</clus>
</clustering>
</event>
<event>
 6    0  0.8641190E+002  0.2003337E+03  0.7546771E-02  0.1149458E+00
         21   -1    0    0  505  501  0.00000000000E+00  0.00000000000E+00  0.73197481179E+03  0.73197481179E+03  0.00000000000E+00 0. -1.
         21   -1    0    0  506  502 -0.00000000000E+00 -0.00000000000E+00 -0.41593232632E+03  0.41593232632E+03  0.00000000000E+00 0.  1.
         21    1    1    2  503  501 -0.11307447803E+03  0.11502469172E+02  0.22315031528E+03  0.25042804872E+03  0.00000000000E+00 0. -1.
         21    1    1    2  504  503 -0.84951182402E+02 -0.13852647313E+03  0.24011888826E+03  0.28993683389E+03  0.00000000000E+00 0. -1.
         21    1    1    2  505  502  0.87751808975E+01  0.42488651817E+02  0.19918511395E+03  0.20385533829E+03  0.00000000000E+00 0.  1.
         21    1    1    2  506  504  0.18925047954E+03  0.84535352140E+02 -0.34641183200E+03  0.40368691720E+03  0.00000000000E+00 0.  1.
<scales pt_clust_3="113.32996" pt_clust_4="200.33365" pt_clust_5="43.38536" pt_clust_6="14000.00000"></scales>
<clustering>
<clus scale="   43.385">  1  5  2 -1</clus>
<clus scale="  113.330">  1  3  2 -1</clus>
<clus scale="  200.334">  1  4  2 -1</clus>
<clus scale="   43.385">  1  3  2 -1</clus>
</clustering>
</event>
<event>
 6    0  0.8641190E+002  0.9771986E+02  0.7546771E-02  0.1285165E+00
         21   -1    0    0  503  501  0.00000000000E+00  0.00000000000E+00  0.17809098606E+03  0.17809098606E+03  0.00000000000E+00 0.  1.
         21   -1    0    0  506  502 -0.00000000000E+00 -0.00000000000E+00 -0.41591517641E+03  0.41591517641E+03  0.00000000000E+00 0. -1.
         21    1    1    2  503  504  0.49061354206E+02 -0.15044539557E+02  0.10174651302E+03  0.11395484877E+03  0.00000000000E+00 0.  1.
         21    1    1    2  504  502 -0.21803588431E+02 -0.78923557397E+02 -0.46246344674E+02  0.94037486017E+02  0.00000000000E+00 0.  1.
         21    1    1    2  505  501 -0.55447701723E+02 -0.53639887360E+01  0.17577724982E+02  0.58414008740E+02  0.00000000000E+00 0. -1.
         21    1    1    2  506  505  0.28189935949E+02  0.99332085690E+02 -0.31090208368E+03  0.32759981894E+03  0.00000000000E+00 0. -1.
<scales pt_clust_3="51.31622" pt_clust_4="97.71986" pt_clust_5="31.90619" pt_clust_6="14000.00000"></scales>
<clustering>
<clus scale="   51.316">  1  3  2 -1</clus>
<clus scale="   31.906">  1  5  2 -1</clus>
<clus scale="   97.720">  1  4  2 -1</clus>
<clus scale="   51.316">  1  3  2 -1</clus>
</clustering>
</event>
<event>
 6    0  0.8641190E+002  0.8557586E+02  0.7546771E-02  0.1313933E+00
         21   -1    0    0  504  501  0.00000000000E+00  0.00000000000E+00  0.15832539519E+03  0.15832539519E+03  0.00000000000E+00 0. -1.
         21   -1    0    0  505  502 -0.00000000000E+00 -0.00000000000E+00 -0.76073051386E+03  0.76073051386E+03  0.00000000000E+00 0.  1.
         21    1    1    2  503  502  0.26036949878E+02 -0.18967491334E+02 -0.33900869871E+03  0.34053573423E+03  0.00000000000E+00 0.  1.
         21    1    1    2  504  503  0.57093124914E+02  0.44371910760E+02 -0.36008244766E+03  0.36727082717E+03  0.00000000000E+00 0.  1.
         21    1    1    2  505  506 -0.10924100488E+03  0.16352111735E+02  0.91827458042E+01  0.11083912453E+03  0.00000000000E+00 0. -1.
         21    1    1    2  506  501  0.26110930090E+02 -0.41756531161E+02  0.87503281901E+02  0.10041022313E+03  0.00000000000E+00 0. -1.
<scales pt_clust_3="32.21317" pt_clust_4="14000.00000" pt_clust_5="85.57586" pt_clust_6="49.70675"></scales>
<clustering>
<clus scale="   32.213">  2  3  1 -1</clus>
<clus scale="   49.707">  1  6  2 -1</clus>
<clus scale="   85.576">  1  5  2 -1</clus>
<clus scale="   49.707">  1  3  2 -1</clus>
</clustering>
</event>
<event>
 6    0  0.8641190E+002  0.1278454E+03  0.7546771E-02  0.1230688E+00
         21   -1    0    0  505  501  0.00000000000E+00  0.00000000000E+00  0.87017326524E+02  0.87017326524E+02  0.00000000000E+00 0. -1.
         21   -1    0    0  504  502 -0.00000000000E+00 -0.00000000000E+00 -0.32643277537E+03  0.32643277537E+03  0.00000000000E+00 0. -1.
         21    1    1    2  503  502  0.39965216396E+02 -0.78923972204E+02 -0.53267339009E+02  0.10326481160E+03  0.00000000000E+00 0. -1.
         21    1    1    2  504  506  0.33387613585E+02  0.11723304774E+03 -0.11457648918E+03  0.16729044233E+03  0.00000000000E+00 0. -1.
         21    1    1    2  505  503 -0.47648423037E+02 -0.68815210216E+02 -0.45963604216E+02  0.95491142456E+02  0.00000000000E+00 0. -1.
         21    1    1    2  506  501 -0.25704406945E+02  0.30506134677E+02 -0.25608016451E+02  0.47403705507E+02  0.00000000000E+00 0. -1.
<scales pt_clust_3="108.57474" pt_clust_4="38.61353" pt_clust_5="83.70129" pt_clust_6="38.61353"></scales>
<clustering>
<clus scale="   38.614">  4  6 -1 -1</clus>
<clus scale="   83.701">  1  5  2 -1</clus>
<clus scale="  108.575">  2  3  1 -1</clus>
<clus scale="   83.701">  1  3  2 -1</clus>
</clustering>
</event>
<event>
 6    0  0.8641190E+002  0.1570017E+03  0.7546771E-02  0.1192124E+00
         21   -1    0    0  504  501  0.00000000000E+00  0.00000000000E+00  0.93071809862E+02  0.93071809862E+02  0.00000000000E+00 0. -1.
         21   -1    0    0  505  502 -0.00000000000E+00 -0.00000000000E+00 -0.18055269395E+04  0.18055269395E+04  0.00000000000E+00 0.  1.
         21    1    1    2  503  501 -0.11658869890E+02  0.88185732893E+02 -0.12872401491E+03  0.15646892582E+03  0.00000000000E+00 0. -1.
         21    1    1    2  504  506 -0.61264171564E+02 -0.54323794976E-01  0.59244469862E+02  0.85224461733E+02  0.00000000000E+00 0. -1.
         21    1    1    2  505  503 -0.25006309265E+02  0.31205722708E+02 -0.12840663596E+03  0.13448931850E+03  0.00000000000E+00 0. -1.
         21    1    1    2  506  502  0.97929350719E+02 -0.11933713181E+03 -0.15145689486E+04  0.15224160433E+04  0.00000000000E+00 0.  1.
<scales pt_clust_3="36.36648" pt_clust_4="61.26420" pt_clust_5="36.36648" pt_clust_6="147.33519"></scales>
<clustering>
<clus scale="   36.366">  3  5 -1 -1</clus>
<clus scale="   61.264">  1  4  2 -1</clus>
<clus scale="  147.335">  2  6  1 -1</clus>
<clus scale="   61.264">  1  3  2 -1</clus>
</clustering>
</event>
<event>
 6    0  0.8641190E+002  0.1206100E+03  0.7546771E-02  0.1242094E+00
         21   -1    0    0  505  501  0.00000000000E+00  0.00000000000E+00  0.65393499154E+03  0.65393499154E+03  0.00000000000E+00 0.  1.
         21   -1    0    0  504  502 -0.00000000000E+00 -0.00000000000E+00 -0.13525348000E+04  0.13525348000E+04  0.00000000000E+00 0. -1.
         21    1    1    2  503  502  0.35105954857E+02  0.13662782221E+03 -0.10984049391E+03  0.17878625219E+03  0.00000000000E+00 0. -1.
         21    1    1    2  504  506  0.29764644165E+02 -0.31702982866E+02 -0.11980124466E+04  0.11988014162E+04  0.00000000000E+00 0. -1.
         21    1    1    2  505  503 -0.79235663972E+01 -0.70691786808E+02  0.46052790205E+03  0.46598933485E+03  0.00000000000E+00 0.  1.
         21    1    1    2  506  501 -0.56947032624E+02 -0.34233052537E+02  0.14872523008E+03  0.16289278828E+03  0.00000000000E+00 0.  1.
<scales pt_clust_3="14000.00000" pt_clust_4="43.48578" pt_clust_5="120.61002" pt_clust_6="66.05161"></scales>
<clustering>
<clus scale="   43.486">  2  4  1 -1</clus>
<clus scale="   66.052">  1  6  2 -1</clus>
<clus scale="  120.610">  1  5  2 -1</clus>
<clus scale="   66.052">  1  3  2 -1</clus>
</clustering>
</event>
<event>
 6    0  0.8641190E+002  0.1492049E+03  0.7546771E-02  0.1201453E+00
         21   -1    0    0  506  501  0.00000000000E+00  0.00000000000E+00  0.48483054672E+03  0.48483054672E+03  0.00000000000E+00 0.  1.
         21   -1    0    0  503  502 -0.00000000000E+00 -0.00000000000E+00 -0.18491428136E+03  0.18491428136E+03  0.00000000000E+00 0.  1.
         21    1    1    2  503  504  0.83564363590E+02 -0.78294971605E+01 -0.37369652857E+02  0.91873798455E+02  0.00000000000E+00 0.  1.
         21    1    1    2  504  505  0.79134524058E+02  0.27922381232E+02 -0.79902565410E+02  0.11587213742E+03  0.00000000000E+00 0.  1.
         21    1    1    2  505  501 -0.77658430861E+02 -0.35058998725E+02  0.32374000427E+03  0.33476492594E+03  0.00000000000E+00 0.  1.
         21    1    1    2  506  502 -0.85040456786E+02  0.14966114654E+02  0.93448479351E+02  0.12723396626E+03  0.00000000000E+00 0.  1.
<scales pt_clust_3="50.30430" pt_clust_4="50.30430" pt_clust_5="85.20543" pt_clust_6="140.46766"></scales>
<clustering>
<clus scale="   50.304">  3  4 -1 -1</clus>
<clus scale="   85.205">  1  5  2 -1</clus>
<clus scale="  140.468">  1  6  2 -1</clus>
<clus scale="   85.205">  1  3  2 -1</clus>
</clustering>
</event>
<event>
 6    0  0.8641190E+002  0.1379002E+03  0.7546771E-02  0.1216183E+00
         21   -1    0    0  503  501  0.00000000000E+00  0.00000000000E+00  0.32460800846E+03  0.32460800846E+03  0.00000000000E+00 0. -1.
         21   -1    0    0  506  502 -0.00000000000E+00 -0.00000000000E+00 -0.20269176603E+03  0.20269176603E+03  0.00000000000E+00 0. -1.
         21    1    1    2  503  502  0.52208338785E+02 -0.20296933590E+02  0.23051870253E+03  0.23722678679E+03  0.00000000000E+00 0. -1.
         21    1    1    2  504  501  0.20419378387E+02  0.74162671470E+02 -0.47396461440E+02  0.90351964065E+02  0.00000000000E+00 0. -1.
         21    1    1    2  505  504 -0.25271391404E+02  0.58696549646E+02 -0.18272104633E+01  0.63931735953E+02  0.00000000000E+00 0.  1.
         21    1    1    2  506  505 -0.47356325768E+02 -0.11256228753E+03 -0.59378788203E+02  0.13578928769E+03  0.00000000000E+00 0. -1.
<scales pt_clust_3="56.01496" pt_clust_4="55.48292" pt_clust_5="55.48292" pt_clust_6="123.73800"></scales>
<clustering>
<clus scale="   55.483">  4  5 -1 -1</clus>
<clus scale="   56.015">  1  3  2 -1</clus>
<clus scale="  123.738">  2  6  1 -1</clus>
<clus scale="   56.015">  1  3  2 -1</clus>
</clustering>
</event>
<event>
 6    0  0.8641190E+002  0.7532765E+02  0.7546771E-02  0.1342859E+00
         21   -1    0    0  503  501  0.00000000000E+00  0.00000000000E+00  0.26602692735E+04  0.26602692735E+04  0.00000000000E+00 0. -1.
         21   -1    0    0  506  502 -0.00000000000E+00 -0.00000000000E+00 -0.10678160334E+03  0.10678160334E+03  0.00000000000E+00 0. -1.
         21    1    1    2  503  504  0.32378451583E+02  0.45548812253E+02  0.50684515652E+03  0.50991672958E+03  0.00000000000E+00 0. -1.
         21    1    1    2  504  505 -0.93466071293E+02 -0.81897772375E+02  0.20068964942E+04  0.20107403338E+04  0.00000000000E+00 0. -1.
         21    1    1    2  505  502  0.75195257183E+02  0.32230622610E+00 -0.86346114485E+02  0.11449926668E+03  0.00000000000E+00 0. -1.
         21    1    1    2  506  501 -0.14107637473E+02  0.36026653896E+02  0.12609213400E+03  0.13189454683E+03  0.00000000000E+00 0.  1.
<scales pt_clust_3="60.49053" pt_clust_4="75.32765" pt_clust_5="14000.00000" pt_clust_6="38.69038"></scales>
<clustering>
<clus scale="   38.690">  1  6  2 -1</clus>
<clus scale="   60.491">  1  3  2 -1</clus>
<clus scale="   75.328">  1  4  2 -1</clus>
<clus scale="   38.690">  1  3  2 -1</clus>
</clustering>
</event>
<event>
 6    0  0.8641190E+002  0.1158124E+03  0.7546771E-02  0.1250170E+00
         21   -1    0    0  506  501  0.00000000000E+00  0.00000000000E+00  0.17404889092E+03  0.17404889092E+03  0.00000000000E+00 0.  1.
         21   -1    0    0  504  502 -0.00000000000E+00 -0.00000000000E+00 -0.12290590663E+04  0.12290590663E+04  0.00000000000E+00 0. -1.
         21    1    1    2  503  502 -0.56446237004E+02 -0.27012135764E+02 -0.86942474222E+02  0.10712061881E+03  0.00000000000E+00 0. -1.
         21    1    1    2  504  505 -0.19259508928E+02  0.41994072514E+02 -0.10069462368E+04  0.10080055330E+04  0.00000000000E+00 0. -1.
         21    1    1    2  505  501  0.95370233776E+02 -0.12120575833E+03 -0.33660186522E+02  0.15785856169E+03  0.00000000000E+00 0. -1.
         21    1    1    2  506  503 -0.19664487843E+02  0.10622382158E+03  0.72538722123E+02  0.13012324373E+03  0.00000000000E+00 0.  1.
<scales pt_clust_3="65.45050" pt_clust_4="46.19990" pt_clust_5="115.81245" pt_clust_6="14000.00000"></scales>
<clustering>
<clus scale="   46.200">  2  4  1 -1</clus>
<clus scale="   65.451">  2  3  1 -1</clus>
<clus scale="  115.812">  2  5  1 -1</clus>
<clus scale="  115.812">  1  3  2 -1</clus>
</clustering>
</event>
<event>
 6    0  0.8641190E+002  0.1879461E+03  0.7546771E-02  0.1160327E+00
         21   -1    0    0  504  501  0.00000000000E+00  0.00000000000E+00  0.32892088015E+03  0.32892088015E+03  0.00000000000E+00 0. -1.
         21   -1    0    0  506  502 -0.00000000000E+00 -0.00000000000E+00 -0.33048287048E+03  0.33048287048E+03  0.00000000000E+00 0. -1.
         21    1    1    2  503  502 -0.19977311102E+03  0.24817073982E+02 -0.19798062518E+03  0.28234997962E+03  0.00000000000E+00 0. -1.
         21    1    1    2  504  505  0.27686516545E+02 -0.45632900362E+02  0.48610831137E+02  0.72193612582E+02  0.00000000000E+00 0. -1.
         21    1    1    2  505  503  0.12010179709E+03 -0.59254138094E+02  0.15996403242E+03  0.20862403077E+03  0.00000000000E+00 0. -1.
         21    1    1    2  506  501  0.51984797389E+02  0.80069964474E+02 -0.12156228712E+02  0.96236127660E+02  0.00000000000E+00 0. -1.
<scales pt_clust_3="181.13904" pt_clust_4="31.64357" pt_clust_5="31.64357" pt_clust_6="95.46527"></scales>
<clustering>
<clus scale="   31.644">  4  5 -1 -1</clus>
<clus scale="   95.465">  2  6  1 -1</clus>
<clus scale="  181.139">  2  3  1 -1</clus>
<clus scale="  187.946">  1  3  2 -1</clus>
</clustering>
</event>
<event>
 6    0  0.8641190E+002  0.8000977E+02  0.7546771E-02  0.1329024E+00
         21   -1    0    0  506  501  0.00000000000E+00  0.00000000000E+00  0.12143239588E+04  0.12143239588E+04  0.00000000000E+00 0.  1.
         21   -1    0    0  504  502 -0.00000000000E+00 -0.00000000000E+00 -0.10703223414E+03  0.10703223414E+03  0.00000000000E+00 0. -1.
         21    1    1    2  503  501 -0.47165155018E+02  0.27403501690E+02  0.40496270783E+02  0.67937115777E+02  0.00000000000E+00 0. -1.
         21    1    1    2  504  503 -0.29975867902E+02  0.23946363823E+02 -0.27411167158E+02  0.47152445130E+02  0.00000000000E+00 0. -1.
         21    1    1    2  505  502  0.85273322828E+02  0.29366051517E+02 -0.17275568001E+02  0.91827827033E+02  0.00000000000E+00 0. -1.
         21    1    1    2  506  505 -0.81322999080E+01 -0.80715917030E+02  0.11114821891E+04  0.11144388050E+04  0.00000000000E+00 0.  1.
<scales pt_clust_3="62.02291" pt_clust_4="38.36640" pt_clust_5="14000.00000" pt_clust_6="80.00977"></scales>
<clustering>
<clus scale="   38.366">  2  4  1 -1</clus>
<clus scale="   62.023">  2  3  1 -1</clus>
<clus scale="   80.010">  1  6  2 -1</clus>
<clus scale="   80.010">  1  3  2 -1</clus>
</clustering>
</event>
<event>
 6    0  0.8641190E+002  0.1250192E+03  0.7546771E-02  0.1235039E+00
         21   -1    0    0  502  501  0.00000000000E+00  0.00000000000E+00  0.23380366291E+03  0.23380366291E+03  0.00000000000E+00 0.  1.
         21   -1    0    0  503  502 -0.00000000000E+00 -0.00000000000E+00 -0.39829646304E+03  0.39829646304E+03  0.00000000000E+00 0. -1.
         21    1    1    2  503  504 -0.67851500736E+02  0.55246257603E+02 -0.27820251487E+03  0.29163781375E+03  0.00000000000E+00 0. -1.
         21    1    1    2  504  505  0.50985441906E+02 -0.16169793021E+03 -0.11413581746E+02  0.16992941408E+03  0.00000000000E+00 0.  1.
         21    1    1    2  505  506 -0.87016914010E+01  0.66372798951E+02  0.85886318393E+02  0.10889227503E+03  0.00000000000E+00 0.  1.
         21    1    1    2  506  501  0.25567750231E+02  0.40078873656E+02  0.39236978093E+02  0.61640623093E+02  0.00000000000E+00 0.  1.
<scales pt_clust_3="87.49843" pt_clust_4="117.56103" pt_clust_5="35.84488" pt_clust_6="35.84488"></scales>
<clustering>
<clus scale="   35.845">  5  6 -1 -1</clus>
<clus scale="   87.498">  2  3  1 -1</clus>
<clus scale="  117.561">  2  4  1 -1</clus>
<clus scale="  125.019">  1  3  2 -1</clus>
</clustering>
</event>
<event>
 6    0  0.8641190E+002  0.3214818E+03  0.7546771E-02  0.1074969E+00
         21   -1    0    0  503  501  0.00000000000E+00  0.00000000000E+00  0.36506612652E+03  0.36506612652E+03  0.00000000000E+00 0. -1.
         21   -1    0    0  506  502 -0.00000000000E+00 -0.00000000000E+00 -0.11078469901E+04  0.11078469901E+04  0.00000000000E+00 0. -1.
         21    1    1    2  503  505 -0.14566123866E+03 -0.82439615212E+02 -0.31501986563E+03  0.35672258457E+03  0.00000000000E+00 0. -1.
         21    1    1    2  504  501 -0.33238739189E+02  0.34553265102E+02  0.25906126077E+03  0.26346058291E+03  0.00000000000E+00 0. -1.
         21    1    1    2  505  502 -0.69268458279E+02 -0.13083147266E+03 -0.42532533020E+03  0.45035167376E+03  0.00000000000E+00 0. -1.
         21    1    1    2  506  504  0.24816843612E+03  0.17871782277E+03 -0.26149692848E+03  0.40237827534E+03  0.00000000000E+00 0. -1.
<scales pt_clust_3="99.82710" pt_clust_4="47.94520" pt_clust_5="99.82710" pt_clust_6="302.93899"></scales>
<clustering>
<clus scale="   47.945">  1  4  2 -1</clus>
<clus scale="   99.827">  3  5 -1 -1</clus>
<clus scale="  302.939">  1  6  2 -1</clus>
<clus scale="   47.945">  1  3  2 -1</clus>
</clustering>
</event>
<event>
 6    0  0.8641190E+002  0.7720114E+02  0.7546771E-02  0.1337187E+00
         21   -1    0    0  504  501  0.00000000000E+00  0.00000000000E+00  0.15019713380E+03  0.15019713380E+03  0.00000000000E+00 0.  1.
         21   -1    0    0  505  502 -0.00000000000E+00 -0.00000000000E+00 -0.10870363113E+04  0.10870363113E+04  0.00000000000E+00 0. -1.
         21    1    1    2  503  502  0.46953521486E+01 -0.77196161821E+02 -0.10254191591E+04  0.10283315349E+04  0.00000000000E+00 0. -1.
         21    1    1    2  504  503  0.13242792800E+02  0.72706550162E+02  0.32941040919E+02  0.80911841991E+02  0.00000000000E+00 0. -1.
         21    1    1    2  505  506 -0.58650481153E+02  0.45228707712E+01 -0.27417183083E+00  0.58825253673E+02  0.00000000000E+00 0.  1.
         21    1    1    2  506  501  0.40712336204E+02 -0.33259112117E-01  0.55913112509E+02  0.69164814579E+02  0.00000000000E+00 0.  1.
<scales pt_clust_3="14000.00000" pt_clust_4="77.20114" pt_clust_5="45.27897" pt_clust_6="40.71235"></scales>
<clustering>
<clus scale="   40.712">  1  6  2 -1</clus>
<clus scale="   45.279">  1  5  2 -1</clus>
<clus scale="   77.201">  1  4  2 -1</clus>
<clus scale="   40.712">  1  3  2 -1</clus>
</clustering>
</event>
<event>
 6    0  0.8641190E+002  0.2694915E+03  0.7546771E-02  0.1101571E+00
         21   -1    0    0  503  501  0.00000000000E+00  0.00000000000E+00  0.12899741447E+04  0.12899741447E+04  0.00000000000E+00 0. -1.
         21   -1    0    0  505  502 -0.00000000000E+00 -0.00000000000E+00 -0.89985194315E+03  0.89985194315E+03  0.00000000000E+00 0. -1.
         21    1    1    2  503  506 -0.16212803300E+03  0.21912010273E+03  0.10328894049E+04  0.10682507390E+04  0.00000000000E+00 0. -1.
         21    1    1    2  504  501 -0.82451233428E+02 -0.89846715901E+02  0.16758716234E+03  0.20725852270E+03  0.00000000000E+00 0. -1.
         21    1    1    2  505  504  0.11383234985E+03 -0.41220447996E+02 -0.39255976594E+02  0.12727121003E+03  0.00000000000E+00 0. -1.
         21    1    1    2  506  502  0.13074691658E+03 -0.88052938830E+02 -0.77109838911E+03  0.78704561616E+03  0.00000000000E+00 0. -1.
<scales pt_clust_3="269.49147" pt_clust_4="120.84387" pt_clust_5="121.06581" pt_clust_6="14000.00000"></scales>
<clustering>
<clus scale="  121.066">  2  5  1 -1</clus>
<clus scale="  120.844">  1  4  2 -1</clus>
<clus scale="  269.491">  1  3  2 -1</clus>
<clus scale="  120.844">  1  3  2 -1</clus>
</clustering>
</event>
<event>
 6    0  0.8641190E+002  0.1576380E+03  0.7546771E-02  0.1191390E+00
         21   -1    0    0  504  501  0.00000000000E+00  0.00000000000E+00  0.46823193385E+03  0.46823193385E+03  0.00000000000E+00 0.  1.
         21   -1    0    0  506  502 -0.00000000000E+00 -0.00000000000E+00 -0.42688327409E+03  0.42688327409E+03  0.00000000000E+00 0.  1.
         21    1    1    2  503  505  0.25114571373E+02 -0.51946068001E+02  0.61954714380E+01  0.58030332950E+02  0.00000000000E+00 0. -1.
         21    1    1    2  504  503  0.26080052833E+02  0.47701902576E+02  0.35962192940E+03  0.36370808730E+03  0.00000000000E+00 0.  1.
         21    1    1    2  505  502 -0.10624025610E+03 -0.13785654642E+03 -0.96046033382E+02  0.19878697125E+03  0.00000000000E+00 0.  1.
         21    1    1    2  506  501  0.55045631897E+02  0.14210071185E+03 -0.22842270769E+03  0.27458981643E+03  0.00000000000E+00 0.  1.
<scales pt_clust_3="49.98877" pt_clust_4="54.36580" pt_clust_5="157.63796" pt_clust_6="14000.00000"></scales>
<clustering>
<clus scale="   54.366">  1  4  2 -1</clus>
<clus scale="   49.989">  1  3  2 -1</clus>
<clus scale="  157.638">  1  5  2 -1</clus>
<clus scale="   54.366">  1  3  2 -1</clus>
</clustering>
</event>
<event>
 6    0  0.8641190E+002  0.2508963E+03  0.7546771E-02  0.1112740E+00
         21   -1    0    0  504  501  0.00000000000E+00  0.00000000000E+00  0.12004490448E+03  0.12004490448E+03  0.00000000000E+00 0. -1.
         21   -1    0    0  505  502 -0.00000000000E+00 -0.00000000000E+00 -0.15826987133E+04  0.15826987133E+04  0.00000000000E+00 0. -1.
         21    1    1    2  503  501 -0.71621630330E+02  0.28873691833E+03 -0.15701031348E+03  0.33637910826E+03  0.00000000000E+00 0. -1.
         21    1    1    2  504  506  0.80218997482E+02 -0.10766675341E+03 -0.83364416659E+03  0.84438724164E+03  0.00000000000E+00 0. -1.
         21    1    1    2  505  503  0.22263094714E+02 -0.18207505401E+03 -0.33904579593E+03  0.38548543736E+03  0.00000000000E+00 0.  1.
         21    1    1    2  506  502 -0.30860461866E+02  0.10048890868E+01 -0.13295353285E+03  0.13649183054E+03  0.00000000000E+00 0. -1.
<scales pt_clust_3="14000.00000" pt_clust_4="123.90727" pt_clust_5="250.89625" pt_clust_6="30.87682"></scales>
<clustering>
<clus scale="   30.877">  2  6  1 -1</clus>
<clus scale="  123.907">  2  4  1 -1</clus>
<clus scale="  250.896">  2  5  1 -1</clus>
<clus scale="  250.896">  1  3  2 -1</clus>
</clustering>
</event>
<event>
 6    0  0.8641190E+002  0.1574943E+03  0.7546771E-02  0.1191555E+00
         21   -1    0    0  503  501  0.00000000000E+00  0.00000000000E+00  0.22045806700E+04  0.22045806700E+04  0.00000000000E+00 0.  1.
         21   -1    0    0  504  502 -0.00000000000E+00 -0.00000000000E+00 -0.26897442246E+03  0.26897442246E+03  0.00000000000E+00 0.  1.
         21    1    1    2  503  506 -0.38925269984E+02 -0.26745973018E+02 -0.13949222577E+02  0.49245350304E+02  0.00000000000E+00 0. -1.
         21    1    1    2  504  505  0.13944043556E+03  0.99176624253E+02 -0.83769193031E+02  0.19051749412E+03  0.00000000000E+00 0.  1.
         21    1    1    2  505  501 -0.10957594322E+03 -0.11280577221E+03  0.21262564346E+04  0.21320643648E+04  0.00000000000E+00 0.  1.
         21    1    1    2  506  502  0.90607776439E+01  0.40375120978E+02 -0.92931771489E+02  0.10172788328E+03  0.00000000000E+00 0.  1.
<scales pt_clust_3="41.96568" pt_clust_4="157.49427" pt_clust_5="14000.00000" pt_clust_6="41.37932"></scales>
<clustering>
<clus scale="   41.379">  2  6  1 -1</clus>
<clus scale="   41.966">  2  3  1 -1</clus>
<clus scale="  157.494">  2  4  1 -1</clus>
<clus scale="  157.494">  1  3  2 -1</clus>
</clustering>
</event>
<event>
 6    0  0.8641190E+002  0.1066083E+03  0.7546771E-02  0.1266983E+00
         21   -1    0    0  506  501  0.00000000000E+00  0.00000000000E+00  0.83607622867E+03  0.83607622867E+03  0.00000000000E+00 0. -1.
         21   -1    0    0  505  502 -0.00000000000E+00 -0.00000000000E+00 -0.90334378781E+03  0.90334378781E+03  0.00000000000E+00 0. -1.
         21    1    1    2  503  502 -0.52897929771E+02 -0.45835815728E+02 -0.62133139792E+03  0.62526140055E+03  0.00000000000E+00 0. -1.
         21    1    1    2  504  503 -0.49097540627E+01 -0.81720066990E+02 -0.11711060759E+03  0.14288866100E+03  0.00000000000E+00 0. -1.
         21    1    1    2  505  501  0.32856351491E+02  0.23186232209E+02 -0.14377125456E+03  0.14928936611E+03  0.00000000000E+00 0. -1.
         21    1    1    2  506  504  0.24951332343E+02  0.10436965051E+03  0.81494570092E+03  0.82198058881E+03  0.00000000000E+00 0. -1.
<scales pt_clust_3="37.18387" pt_clust_4="14000.00000" pt_clust_5="40.21369" pt_clust_6="106.60829"></scales>
<clustering>
<clus scale="   40.214">  2  5  1 -1</clus>
<clus scale="   37.184">  2  3  1 -1</clus>
<clus scale="  106.608">  1  6  2 -1</clus>
<clus scale="  106.608">  1  3  2 -1</clus>
</clustering>
</event>
<event>
 6    0  0.8641190E+002  0.6941741E+02  0.7546771E-02  0.1362085E+00
         21   -1    0    0  503  501  0.00000000000E+00  0.00000000000E+00  0.26202190630E+02  0.26202190630E+02  0.00000000000E+00 0. -1.
         21   -1    0    0  504  502 -0.00000000000E+00 -0.00000000000E+00 -0.11126287777E+04  0.11126287777E+04  0.00000000000E+00 0.  1.
         21    1    1    2  503  506 -0.34209350466E+02 -0.34479746194E+02 -0.11189053096E+03  0.12197796307E+03  0.00000000000E+00 0.  1.
         21    1    1    2  504  505  0.85522679601E+02 -0.48764494387E+02 -0.56435441082E+03  0.57287695507E+03  0.00000000000E+00 0.  1.
         21    1    1    2  505  501 -0.16452008033E+02  0.70332383753E+02 -0.66159078392E+02  0.97950683644E+02  0.00000000000E+00 0. -1.
         21    1    1    2  506  502 -0.34861321102E+02  0.12911856827E+02 -0.34402256695E+03  0.34602536659E+03  0.00000000000E+00 0.  1.
<scales pt_clust_3="51.17531" pt_clust_4="14000.00000" pt_clust_5="69.41741" pt_clust_6="37.17563"></scales>
<clustering>
<clus scale="   37.176">  2  6  1 -1</clus>
<clus scale="   51.175">  1  3  2 -1</clus>
<clus scale="   69.417">  1  5  2 -1</clus>
<clus scale="   51.175">  1  3  2 -1</clus>
</clustering>
</event>
<event>
 6    0  0.8641190E+002  0.1167348E+03  0.7546771E-02  0.1248583E+00
         21   -1    0    0  504  501  0.00000000000E+00  0.00000000000E+00  0.55100476937E+03  0.55100476937E+03  0.00000000000E+00 0.  1.
         21   -1    0    0  503  502 -0.00000000000E+00 -0.00000000000E+00 -0.94192247612E+03  0.94192247612E+03  0.00000000000E+00 0.  1.
         21    1    1    2  503  505  0.36397599105E+02  0.52387446535E+02 -0.49785533340E+03  0.50192545539E+03  0.00000000000E+00 0.  1.
         21    1    1    2  504  502 -0.20204184282E+03 -0.96640435849E+02 -0.32031170056E+03  0.39084506599E+03  0.00000000000E+00 0.  1.
         21    1    1    2  505  506  0.66161571507E+02 -0.12954568307E+02 -0.65633811599E+02  0.94090231211E+02  0.00000000000E+00 0.  1.
         21    1    1    2  506  501  0.99482672212E+02  0.57207557622E+02  0.49288313880E+03  0.50606649290E+03  0.00000000000E+00 0.  1.
<scales pt_clust_3="63.79051" pt_clust_4="116.73481" pt_clust_5="72.82120" pt_clust_6="14000.00000"></scales>
<clustering>
<clus scale="   63.791">  2  3  1 -1</clus>
<clus scale="   72.821">  2  5  1 -1</clus>
<clus scale="  116.735">  2  4  1 -1</clus>
<clus scale="  116.735">  1  3  2 -1</clus>
</clustering>
</event>
<event>
 6    0  0.8641190E+002  0.1282524E+03  0.7546771E-02  0.1230072E+00
         21   -1    0    0  503  501  0.00000000000E+00  0.00000000000E+00  0.11008522808E+04  0.11008522808E+04  0.00000000000E+00 0. -1.
         21   -1    0    0  506  502 -0.00000000000E+00 -0.00000000000E+00 -0.11272629968E+03  0.11272629968E+03  0.00000000000E+00 0.  1.
         21    1    1    2  503  504 -0.26957819119E+02  0.49824101000E+02  0.30954270172E+03  0.31468372891E+03  0.00000000000E+00 0. -1.
         21    1    1    2  504  502 -0.30638803455E+02  0.62924904111E+02  0.69531173722E+03  0.69882522261E+03  0.00000000000E+00 0. -1.
         21    1    1    2  505  501  0.31389883258E+02  0.69292124994E+01  0.50846151383E+02  0.60155381033E+02  0.00000000000E+00 0. -1.
         21    1    1    2  506  505  0.26206739316E+02 -0.11967821761E+03 -0.67574609219E+02  0.13991424791E+03  0.00000000000E+00 0.  1.
<scales pt_clust_3="33.98254" pt_clust_4="33.98254" pt_clust_5="32.14559" pt_clust_6="122.51713"></scales>
<clustering>
<clus scale="   32.146">  1  5  2 -1</clus>
<clus scale="   33.983">  3  4 -1 -1</clus>
<clus scale="  122.517">  2  6  1 -1</clus>
<clus scale="   32.146">  1  3  2 -1</clus>
</clustering>
</event>
<event>
 6    0  0.8641190E+002  0.2044628E+03  0.7546771E-02  0.1146027E+00
         21   -1    0    0  504  501  0.00000000000E+00  0.00000000000E+00  0.58144510471E+03  0.58144510471E+03  0.00000000000E+00 0. -1.
         21   -1    0    0  506  502 -0.00000000000E+00 -0.00000000000E+00 -0.10792550657E+03  0.10792550657E+03  0.00000000000E+00 0. -1.
         21    1    1    2  503  502 -0.32920678622E+02 -0.26412131919E+02 -0.17693372109E+02  0.45764912434E+02  0.00000000000E+00 0.  1.
         21    1    1    2  504  505 -0.50741083881E+02  0.17126796921E+02  0.35143092718E+02  0.64054833791E+02  0.00000000000E+00 0. -1.
         21    1    1    2  505  503 -0.10895642252E+03 -0.64737306034E+02  0.77954252105E+02  0.14879276266E+03  0.00000000000E+00 0. -1.
         21    1    1    2  506  501  0.19261818502E+03  0.74022641033E+02  0.37811562543E+03  0.43075810240E+03  0.00000000000E+00 0. -1.
<scales pt_clust_3="42.20630" pt_clust_4="43.47662" pt_clust_5="43.47662" pt_clust_6="192.51494"></scales>
<clustering>
<clus scale="   42.206">  2  3  1 -1</clus>
<clus scale="   43.477">  4  5 -1 -1</clus>
<clus scale="  192.515">  1  6  2 -1</clus>
<clus scale="  192.515">  1  3  2 -1</clus>
</clustering>
</event>
<event>
 6    0  0.8641190E+002  0.1126837E+03  0.7546771E-02  0.1255679E+00
         21   -1    0    0  505  501  0.00000000000E+00  0.00000000000E+00  0.11111354917E+03  0.11111354917E+03  0.00000000000E+00 0. -1.
         21   -1    0    0  506  502 -0.00000000000E+00 -0.00000000000E+00 -0.38007338951E+03  0.38007338951E+03  0.00000000000E+00 0.  1.
         21    1    1    2  503  502  0.81380616105E+02 -0.53447857875E+02 -0.13414459025E+03  0.16575358000E+03  0.00000000000E+00 0.  1.
         21    1    1    2  504  501 -0.84250048647E+02 -0.18493648665E+02  0.54340670123E+02  0.10194603556E+03  0.00000000000E+00 0. -1.
         21    1    1    2  505  503  0.44610667955E+02  0.20800205963E+02 -0.53969980112E+02  0.73044637152E+02  0.00000000000E+00 0.  1.
         21    1    1    2  506  504 -0.41741235413E+02  0.51141300578E+02 -0.13518594010E+03  0.15044268596E+03  0.00000000000E+00 0.  1.
<scales pt_clust_3="48.73376" pt_clust_4="89.44156" pt_clust_5="48.73376" pt_clust_6="66.01336"></scales>
<clustering>
<clus scale="   48.734">  3  5 -1 -1</clus>
<clus scale="   66.013">  2  6  1 -1</clus>
<clus scale="   89.442">  1  4  2 -1</clus>
<clus scale="   89.442">  1  3  2 -1</clus>
</clustering>
</event>
<event>
 6    0  0.8641190E+002  0.8735685E+02  0.7546771E-02  0.1309382E+00
         21   -1    0    0  505  501  0.00000000000E+00  0.00000000000E+00  0.48544582386E+03  0.48544582386E+03  0.00000000000E+00 0. -1.
         21   -1    0    0  504  502 -0.00000000000E+00 -0.00000000000E+00 -0.20214121386E+03  0.20214121386E+03  0.00000000000E+00 0. -1.
         21    1    1    2  503  501 -0.28211791961E+02 -0.67288120777E+02  0.11472313263E+03  0.13595952914E+03  0.00000000000E+00 0. -1.
         21    1    1    2  504  503 -0.15467193832E+02  0.37823180917E+02 -0.16044781897E+03  0.16556971254E+03  0.00000000000E+00 0. -1.
         21    1    1    2  505  506 -0.52938261861E+02 -0.30782033056E+02  0.22017996121E+03  0.22853710518E+03  0.00000000000E+00 0. -1.
         21    1    1    2  506  502  0.96617247654E+02  0.60246972916E+02  0.10884933512E+03  0.15752069085E+03  0.00000000000E+00 0. -1.
<scales pt_clust_3="14000.00000" pt_clust_4="40.86352" pt_clust_5="60.78860" pt_clust_6="87.35685"></scales>
<clustering>
<clus scale="   40.864">  2  4  1 -1</clus>
<clus scale="   60.789">  1  5  2 -1</clus>
<clus scale="   87.357">  1  6  2 -1</clus>
<clus scale="   60.789">  1  3  2 -1</clus>
</clustering>
</event>
<event>
 6    0  0.8641190E+002  0.2253628E+03  0.7546771E-02  0.1129947E+00
         21   -1    0    0  504  501  0.00000000000E+00  0.00000000000E+00  0.61801259606E+03  0.61801259606E+03  0.00000000000E+00 0.  1.
         21   -1    0    0  506  502 -0.00000000000E+00 -0.00000000000E+00 -0.28033235754E+03  0.28033235754E+03  0.00000000000E+00 0.  1.
         21    1    1    2  503  505  0.63808403584E+02  0.45269711778E+02  0.82971170593E+02  0.11403979271E+03  0.00000000000E+00 0.  1.
         21    1    1    2  504  503  0.46801063766E+02  0.93776408764E+00  0.29304916366E+03  0.29676426890E+03  0.00000000000E+00 0.  1.
         21    1    1    2  505  502  0.60854874666E+02  0.10293595953E+03  0.15039138013E+03  0.19213717691E+03  0.00000000000E+00 0.  1.
         21    1    1    2  506  501 -0.17146434202E+03 -0.14914343539E+03 -0.18873147586E+03  0.29540371508E+03  0.00000000000E+00 0.  1.
<scales pt_clust_3="34.12989" pt_clust_4="46.81046" pt_clust_5="34.12989" pt_clust_6="221.37748"></scales>
<clustering>
<clus scale="   34.130">  3  5 -1 -1</clus>
<clus scale="   46.810">  1  4  2 -1</clus>
<clus scale="  221.377">  2  6  1 -1</clus>
<clus scale="   46.810">  1  3  2 -1</clus>
</clustering>
</event>
<event>
 6    0  0.8641190E+002  0.1131189E+03  0.7546771E-02  0.1254901E+00
         21   -1    0    0  502  501  0.00000000000E+00  0.00000000000E+00  0.39758739837E+03  0.39758739837E+03  0.00000000000E+00 0. -1.
         21   -1    0    0  503  502 -0.00000000000E+00 -0.00000000000E+00 -0.17040280405E+03  0.17040280405E+03  0.00000000000E+00 0.  1.
         21    1    1    2  503  505  0.63047774118E+02 -0.10676415422E+01 -0.11997185544E+03  0.13553378832E+03  0.00000000000E+00 0.  1.
         21    1    1    2  504  501  0.54998812261E+02 -0.69168016516E+02  0.21760716562E+03  0.23486583912E+03  0.00000000000E+00 0. -1.
         21    1    1    2  505  506 -0.86240093339E+02  0.76303338955E+02  0.88065921009E+02  0.14496606388E+03  0.00000000000E+00 0.  1.
         21    1    1    2  506  504 -0.31806493039E+02 -0.60676808973E+01  0.41483363128E+02  0.52624511089E+02  0.00000000000E+00 0.  1.
<scales pt_clust_3="63.05681" pt_clust_4="96.97893" pt_clust_5="30.87941" pt_clust_6="30.87941"></scales>
<clustering>
<clus scale="   30.879">  5  6 -1 -1</clus>
<clus scale="   63.057">  2  3  1 -1</clus>
<clus scale="   96.979">  1  4  2 -1</clus>
<clus scale="   96.979">  1  3  2 -1</clus>
</clustering>
</event>
<event>
 6    0  0.8641190E+002  0.8624643E+02  0.7546771E-02  0.1312205E+00
         21   -1    0    0  503  501  0.00000000000E+00  0.00000000000E+00  0.58702798980E+03  0.58702798980E+03  0.00000000000E+00 0. -1.
         21   -1    0    0  504  502 -0.00000000000E+00 -0.00000000000E+00 -0.44406695413E+03  0.44406695413E+03  0.00000000000E+00 0.  1.
         21    1    1    2  503  506  0.63643432141E+02 -0.53386753666E+02  0.56450303104E+03  0.57058242522E+03  0.00000000000E+00 0. -1.
         21    1    1    2  504  505  0.27692109517E+02  0.38846746850E+02 -0.13956859710E+03  0.14749683375E+03  0.00000000000E+00 0.  1.
         21    1    1    2  505  501 -0.12184980135E+02  0.46785705428E+02 -0.12937492082E+03  0.13811316414E+03  0.00000000000E+00 0.  1.
         21    1    1    2  506  502 -0.79150561523E+02 -0.32245698613E+02 -0.15259847745E+03  0.17490252081E+03  0.00000000000E+00 0.  1.
<scales pt_clust_3="83.07004" pt_clust_4="40.58300" pt_clust_5="40.58300" pt_clust_6="75.95643"></scales>
<clustering>
<clus scale="   40.583">  4  5 -1 -1</clus>
<clus scale="   83.070">  1  3  2 -1</clus>
<clus scale="   75.956">  1  6  2 -1</clus>
<clus scale="   83.070">  1  3  2 -1</clus>
</clustering>
</event>
<event>
 6    0  0.8641190E+002  0.2945081E+03  0.7546771E-02  0.1088019E+00
         21   -1    0    0  506  501  0.00000000000E+00  0.00000000000E+00  0.59766236096E+03  0.59766236096E+03  0.00000000000E+00 0. -1.
         21   -1    0    0  504  502 -0.00000000000E+00 -0.00000000000E+00 -0.70767891860E+03  0.70767891860E+03  0.00000000000E+00 0. -1.
         21    1    1    2  503  505 -0.10274751810E+03 -0.30423386800E+03  0.24056583866E+03  0.40123212938E+03  0.00000000000E+00 0. -1.
         21    1    1    2  504  503  0.74251805930E+02  0.26105987591E+03  0.94686948733E+02  0.28745644497E+03  0.00000000000E+00 0. -1.
         21    1    1    2  505  501 -0.74517965084E+01  0.32049384901E+02  0.81837347643E+02  0.88204556645E+02  0.00000000000E+00 0. -1.
         21    1    1    2  506  502  0.35947508676E+02  0.11124607190E+02 -0.52710669267E+03  0.52844814856E+03  0.00000000000E+00 0. -1.
<scales pt_clust_3="14000.00000" pt_clust_4="294.50811" pt_clust_5="32.90429" pt_clust_6="37.63262"></scales>
<clustering>
<clus scale="   32.904">  1  5  2 -1</clus>
<clus scale="   37.633">  2  6  1 -1</clus>
<clus scale="  294.508">  2  4  1 -1</clus>
<clus scale="   32.904">  1  3  2 -1</clus>
</clustering>
</event>
<event>
 6    0  0.8641190E+002  0.1251965E+03  0.7546771E-02  0.1234762E+00
         21   -1    0    0  506  501  0.00000000000E+00  0.00000000000E+00  0.11144333973E+04  0.11144333973E+04  0.00000000000E+00 0. -1.
         21   -1    0    0  505  502 -0.00000000000E+00 -0.00000000000E+00 -0.78492600798E+02  0.78492600798E+02  0.00000000000E+00 0.  1.
         21    1    1    2  503  502  0.64197844881E+02  0.14471296798E+03  0.56533228886E+03  0.58708074676E+03  0.00000000000E+00 0. -1.
         21    1    1    2  504  501 -0.46989345186E+02 -0.84428595581E+02  0.28092020652E+03  0.29707296872E+03  0.00000000000E+00 0. -1.
         21    1    1    2  505  504 -0.62266828086E+02 -0.75218571326E+02 -0.14874892648E+02  0.98773750478E+02  0.00000000000E+00 0.  1.
         21    1    1    2  506  503  0.45058328392E+02  0.14934198928E+02  0.20456319378E+03  0.20999853214E+03  0.00000000000E+00 0. -1.
<scales pt_clust_3="39.38059" pt_clust_4="96.62394" pt_clust_5="102.47918" pt_clust_6="39.38059"></scales>
<clustering>
<clus scale="   39.381">  3  6 -1 -1</clus>
<clus scale="   96.624">  1  4  2 -1</clus>
<clus scale="  102.479">  2  5  1 -1</clus>
<clus scale="   96.624">  1  3  2 -1</clus>
</clustering>
</event>
<event>
 6    0  0.8641190E+002  0.1570387E+03  0.7546771E-02  0.1192081E+00
         21   -1    0    0  503  501  0.00000000000E+00  0.00000000000E+00  0.16832499571E+03  0.16832499571E+03  0.00000000000E+00 0.  1.
         21   -1    0    0  505  502 -0.00000000000E+00 -0.00000000000E+00 -0.10690421876E+04  0.10690421876E+04  0.00000000000E+00 0. -1.
         21    1    1    2  503  504 -0.29937551166E+02 -0.13733319869E+03 -0.73935799402E+02  0.15881803067E+03  0.00000000000E+00 0.  1.
         21    1    1    2  504  502  0.94892979564E+02  0.12311047979E+03 -0.88166544600E+03  0.89526243442E+03  0.00000000000E+00 0. -1.
         21    1    1    2  505  506 -0.24839346654E+02  0.26144316231E+02 -0.54962913114E+02  0.65737662199E+02  0.00000000000E+00 0.  1.
         21    1    1    2  506  501 -0.40116081744E+02 -0.11921597323E+02  0.10984696663E+03  0.11754905603E+03  0.00000000000E+00 0.  1.
<scales pt_clust_3="14000.00000" pt_clust_4="157.03869" pt_clust_5="36.06270" pt_clust_6="41.91267"></scales>
<clustering>
<clus scale="   36.063">  2  5  1 -1</clus>
<clus scale="   41.913">  1  6  2 -1</clus>
<clus scale="  157.039">  2  4  1 -1</clus>
<clus scale="   41.913">  1  3  2 -1</clus>
</clustering>
</event>
<event>
 6    0  0.8641190E+002  0.1848770E+03  0.7546771E-02  0.1163165E+00
         21   -1    0    0  503  501  0.00000000000E+00  0.00000000000E+00  0.10173008287E+04  0.10173008287E+04  0.00000000000E+00 0. -1.
         21   -1    0    0  506  502 -0.00000000000E+00 -0.00000000000E+00 -0.21592316003E+03  0.21592316003E+03  0.00000000000E+00 0. -1.
         21    1    1    2  503  505 -0.11045599579E+02  0.46965344890E+02  0.43575158062E+02  0.65011870384E+02  0.00000000000E+00 0. -1.
         21    1    1    2  504  501 -0.27002658362E+02 -0.14832152024E+02  0.13978084174E+03  0.14313566994E+03  0.00000000000E+00 0.  1.
         21    1    1    2  505  502  0.62768232192E+02 -0.17636935219E+03 -0.15208026904E+03  0.24119371384E+03  0.00000000000E+00 0. -1.
         21    1    1    2  506  504 -0.24719974251E+02  0.14423615932E+03  0.77010193793E+03  0.78388273459E+03  0.00000000000E+00 0. -1.
<scales pt_clust_3="47.77039" pt_clust_4="30.80806" pt_clust_5="14000.00000" pt_clust_6="184.87702"></scales>
<clustering>
<clus scale="   30.808">  1  4  2 -1</clus>
<clus scale="   47.770">  1  3  2 -1</clus>
<clus scale="  184.877">  1  6  2 -1</clus>
<clus scale="   30.808">  1  3  2 -1</clus>
</clustering>
</event>
<event>
 6    0  0.8641190E+002  0.1280747E+03  0.7546771E-02  0.1230341E+00
         21   -1    0    0  504  501  0.00000000000E+00  0.00000000000E+00  0.12796498466E+04  0.12796498466E+04  0.00000000000E+00 0. -1.
         21   -1    0    0  506  502 -0.00000000000E+00 -0.00000000000E+00 -0.29375249874E+03  0.29375249874E+03  0.00000000000E+00 0. -1.
         21    1    1    2  503  502 -0.74196286893E+02  0.77247956709E+02 -0.15116667012E+03  0.18526655921E+03  0.00000000000E+00 0. -1.
         21    1    1    2  504  505  0.91417329858E+02 -0.67605699959E+02  0.12114839505E+04  0.12168077174E+04  0.00000000000E+00 0. -1.
         21    1    1    2  505  503  0.80220723549E+00  0.53227005654E+02 -0.89569851750E+02  0.10419460643E+03  0.00000000000E+00 0. -1.
         21    1    1    2  506  501 -0.18023250200E+02 -0.62869262405E+02  0.15149919213E+02  0.67133462262E+02  0.00000000000E+00 0.  1.
<scales pt_clust_3="41.24766" pt_clust_4="113.92906" pt_clust_5="41.24766" pt_clust_6="65.40169"></scales>
<clustering>
<clus scale="   41.248">  3  5 -1 -1</clus>
<clus scale="   65.402">  2  6  1 -1</clus>
<clus scale="  113.929">  1  4  2 -1</clus>
<clus scale="  113.929">  1  3  2 -1</clus>
</clustering>
</event>
<event>
 6    0  0.8641190E+002  0.1047176E+03  0.7546771E-02  0.1270677E+00
         21   -1    0    0  504  501  0.00000000000E+00  0.00000000000E+00  0.48414659147E+03  0.48414659147E+03  0.00000000000E+00 0.  1.
         21   -1    0    0  505  502 -0.00000000000E+00 -0.00000000000E+00 -0.10470968097E+03  0.10470968097E+03  0.00000000000E+00 0.  1.
         21    1    1    2  503  502  0.15024459417E+02  0.27391312142E+02  0.15837752281E+02  0.35026457984E+02  0.00000000000E+00 0.  1.
         21    1    1    2  504  503  0.57683119619E+02  0.88564135703E+02  0.37851301662E+03  0.39299243272E+03  0.00000000000E+00 0.  1.
         21    1    1    2  505  506 -0.27176348624E+01 -0.43366560958E+02 -0.37623291852E+02  0.57476571212E+02  0.00000000000E+00 0.  1.
         21    1    1    2  506  501 -0.69989944174E+02 -0.72588886887E+02  0.22709433447E+02  0.10336081052E+03  0.00000000000E+00 0.  1.
<scales pt_clust_3="31.24129" pt_clust_4="14000.00000" pt_clust_5="30.05780" pt_clust_6="104.71761"></scales>
<clustering>
<clus scale="   31.241">  2  3  1 -1</clus>
<clus scale="   30.058">  2  5  1 -1</clus>
<clus scale="  104.718">  2  6  1 -1</clus>
<clus scale="  104.718">  1  3  2 -1</clus>
</clustering>
</event>
<event>
 6    0  0.8641190E+002  0.1116592E+03  0.7546771E-02  0.1257528E+00
         21   -1    0    0  503  501  0.00000000000E+00  0.00000000000E+00  0.13399301720E+04  0.13399301720E+04  0.00000000000E+00 0. -1.
         21   -1    0    0  506  502 -0.00000000000E+00 -0.00000000000E+00 -0.11624833133E+03  0.11624833133E+03  0.00000000000E+00 0.  1.
         21    1    1    2  503  504  0.13019310332E+03 -0.31577072464E+02 -0.28693458808E+01  0.13399846568E+03  0.00000000000E+00 0.  1.
         21    1    1    2  504  502  0.10069916570E+02 -0.37687626048E+02 -0.23267995304E+02  0.45422020896E+02  0.00000000000E+00 0.  1.
         21    1    1    2  505  501 -0.11069200011E+03 -0.82758066750E+01  0.10991937741E+04  0.11047842146E+04  0.00000000000E+00 0. -1.
         21    1    1    2  506  505 -0.29571019780E+02  0.77540505187E+02  0.15062540774E+03  0.17197380211E+03  0.00000000000E+00 0.  1.
<scales pt_clust_3="14000.00000" pt_clust_4="39.00975" pt_clust_5="111.65918" pt_clust_6="77.93262"></scales>
<clustering>
<clus scale="   39.010">  2  4  1 -1</clus>
<clus scale="   77.933">  2  6  1 -1</clus>
<clus scale="  111.659">  1  5  2 -1</clus>
<clus scale="  111.659">  1  3  2 -1</clus>
</clustering>
</event>
<event>
 6    0  0.8641190E+002  0.7231887E+02  0.7546771E-02  0.1352381E+00
         21   -1    0    0  505  501  0.00000000000E+00  0.00000000000E+00  0.63569741124E+02  0.63569741124E+02  0.00000000000E+00 0. -1.
         21   -1    0    0  506  502 -0.00000000000E+00 -0.00000000000E+00 -0.77123616960E+03  0.77123616960E+03  0.00000000000E+00 0. -1.
         21    1    1    2  503  502 -0.24802018781E+02  0.66734740350E+02 -0.62806771575E+03  0.63208996295E+03  0.00000000000E+00 0. -1.
         21    1    1    2  504  503  0.16464909021E+02 -0.94330772141E+02 -0.19160555179E+02  0.97655080137E+02  0.00000000000E+00 0. -1.
         21    1    1    2  505  504 -0.27812249102E+02 -0.13171408905E+02 -0.15624192091E+02  0.34512643932E+02  0.00000000000E+00 0. -1.
         21    1    1    2  506  501  0.36149358862E+02  0.40767440697E+02 -0.44813965458E+02  0.70548223700E+02  0.00000000000E+00 0. -1.
<scales pt_clust_3="14000.00000" pt_clust_4="72.31887" pt_clust_5="30.77348" pt_clust_6="47.84305"></scales>
<clustering>
<clus scale="   30.773">  1  5  2 -1</clus>
<clus scale="   47.843">  1  6  2 -1</clus>
<clus scale="   72.319">  1  4  2 -1</clus>
<clus scale="   30.773">  1  3  2 -1</clus>
</clustering>
</event>
<event>
 6    0  0.8641190E+002  0.9306691E+02  0.7546771E-02  0.1295590E+00
         21   -1    0    0  506  501  0.00000000000E+00  0.00000000000E+00  0.17982999645E+03  0.17982999645E+03  0.00000000000E+00 0. -1.
         21   -1    0    0  505  502 -0.00000000000E+00 -0.00000000000E+00 -0.21389897907E+03  0.21389897907E+03  0.00000000000E+00 0. -1.
         21    1    1    2  503  501 -0.25095308614E+02  0.18529866695E+02  0.62421285046E+02  0.69782141705E+02  0.00000000000E+00 0. -1.
         21    1    1    2  504  502  0.31330457593E+02  0.23751222472E+02 -0.12447782410E+03  0.13053906248E+03  0.00000000000E+00 0. -1.
         21    1    1    2  505  503 -0.52137363044E+02 -0.99829391899E+02  0.38554460495E+02  0.11904057517E+03  0.00000000000E+00 0. -1.
         21    1    1    2  506  504  0.45902214065E+02  0.57548302732E+02 -0.10566904071E+02  0.74367196162E+02  0.00000000000E+00 0. -1.
<scales pt_clust_3="31.19504" pt_clust_4="39.08915" pt_clust_5="93.06691" pt_clust_6="14000.00000"></scales>
<clustering>
<clus scale="   31.195">  1  3  2 -1</clus>
<clus scale="   39.089">  2  4  1 -1</clus>
<clus scale="   93.067">  1  5  2 -1</clus>
<clus scale="   31.195">  1  3  2 -1</clus>
</clustering>
</event>
<event>
 6    0  0.8641190E+002  0.1064900E+03  0.7546771E-02  0.1267211E+00
         21   -1    0    0  506  501  0.00000000000E+00  0.00000000000E+00  0.55300021417E+02  0.55300021417E+02  0.00000000000E+00 0. -1.
         21   -1    0    0  504  502 -0.00000000000E+00 -0.00000000000E+00 -0.10249580340E+04  0.10249580340E+04  0.00000000000E+00 0.  1.
         21    1    1    2  503  501 -0.99925623683E+02 -0.30017784813E+02 -0.26512534201E+03  0.28491690832E+03  0.00000000000E+00 0. -1.
         21    1    1    2  504  503  0.90570645214E+02  0.61355719502E+02 -0.54622065181E+03  0.55706782940E+03  0.00000000000E+00 0.  1.
         21    1    1    2  505  502 -0.15342038122E+02 -0.64895109385E+02 -0.17953126743E+03  0.19151561122E+03  0.00000000000E+00 0. -1.
         21    1    1    2  506  505  0.24697016591E+02  0.33557174695E+02  0.21219248655E+02  0.46757706482E+02  0.00000000000E+00 0. -1.
<scales pt_clust_3="106.48999" pt_clust_4="14000.00000" pt_clust_5="56.09206" pt_clust_6="41.66565"></scales>
<clustering>
<clus scale="   41.666">  1  6  2 -1</clus>
<clus scale="   56.092">  1  5  2 -1</clus>
<clus scale="  106.490">  1  3  2 -1</clus>
<clus scale="   41.666">  1  3  2 -1</clus>
</clustering>
</event>
<event>
 6    0  0.8641190E+002  0.1473898E+03  0.7546771E-02  0.1203718E+00
         21   -1    0    0  503  501  0.00000000000E+00  0.00000000000E+00  0.14374817297E+03  0.14374817297E+03  0.00000000000E+00 0. -1.
         21   -1    0    0  504  502 -0.00000000000E+00 -0.00000000000E+00 -0.38989150915E+03  0.38989150915E+03  0.00000000000E+00 0. -1.
         21    1    1    2  503  502 -0.69764854438E+02 -0.89979239805E+02 -0.58791988390E+02  0.12814014363E+03  0.00000000000E+00 0. -1.
         21    1    1    2  504  505  0.61712662147E+02  0.25811463076E+02 -0.98415846346E+02  0.11899732395E+03  0.00000000000E+00 0. -1.
         21    1    1    2  505  506  0.37980953334E+02  0.83672093712E+02 -0.17259680569E+03  0.19553319262E+03  0.00000000000E+00 0. -1.
         21    1    1    2  506  501 -0.29928761043E+02 -0.19504316982E+02  0.83661304257E+02  0.90969021917E+02  0.00000000000E+00 0. -1.
<scales pt_clust_3="134.78733" pt_clust_4="50.05812" pt_clust_5="50.05812" pt_clust_6="35.72323"></scales>
<clustering>
<clus scale="   35.723">  1  6  2 -1</clus>
<clus scale="   50.058">  4  5 -1 -1</clus>
<clus scale="  134.787">  1  3  2 -1</clus>
<clus scale="   35.723">  1  3  2 -1</clus>
</clustering>
</event>
<event>
 6    0  0.8641190E+002  0.7765110E+02  0.7546771E-02  0.1335853E+00
         21   -1    0    0  506  501  0.00000000000E+00  0.00000000000E+00  0.17184112140E+04  0.17184112140E+04  0.00000000000E+00 0. -1.
         21   -1    0    0  503  502 -0.00000000000E+00 -0.00000000000E+00 -0.72262557797E+02  0.72262557797E+02  0.00000000000E+00 0.  1.
         21    1    1    2  503  505  0.39484340353E+01  0.66180105096E+02  0.30580950490E+03  0.31291348602E+03  0.00000000000E+00 0. -1.
         21    1    1    2  504  502  0.37400064516E+02 -0.69910590218E+02 -0.39413218928E+02  0.88541839131E+02  0.00000000000E+00 0.  1.
         21    1    1    2  505  501  0.58722705106E+02 -0.13535721594E+02  0.53601112717E+03  0.53938807949E+03  0.00000000000E+00 0.  1.
         21    1    1    2  506  504 -0.10007120366E+03  0.17266206717E+02  0.84374124304E+03  0.84983036714E+03  0.00000000000E+00 0. -1.
<scales pt_clust_3="14000.00000" pt_clust_4="77.65110" pt_clust_5="60.26252" pt_clust_6="58.44712"></scales>
<clustering>
<clus scale="   60.263">  1  5  2 -1</clus>
<clus scale="   58.447">  1  6  2 -1</clus>
<clus scale="   77.651">  2  4  1 -1</clus>
<clus scale="   60.263">  1  3  2 -1</clus>
</clustering>
</event>
<event>
 6    0  0.8641190E+002  0.1292086E+03  0.7546771E-02  0.1228635E+00
         21   -1    0    0  506  501  0.00000000000E+00  0.00000000000E+00  0.13852602986E+04  0.13852602986E+04  0.00000000000E+00 0.  1.
         21   -1    0    0  505  502 -0.00000000000E+00 -0.00000000000E+00 -0.38808460000E+03  0.38808460000E+03  0.00000000000E+00 0.  1.
         21    1    1    2  503  502 -0.40796065830E+02 -0.14300239364E+02 -0.37510836397E+03  0.37759118177E+03  0.00000000000E+00 0.  1.
         21    1    1    2  504  501 -0.36088610278E+02 -0.28624072796E+02  0.29599723957E+03  0.29955982903E+03  0.00000000000E+00 0.  1.
         21    1    1    2  505  504 -0.47184458151E+02 -0.21874942862E+02  0.13708528135E+03  0.14661944134E+03  0.00000000000E+00 0.  1.
         21    1    1    2  506  503  0.12406913426E+03  0.64799255022E+02  0.93920154167E+03  0.94957444647E+03  0.00000000000E+00 0.  1.
<scales pt_clust_3="43.22980" pt_clust_4="42.41125" pt_clust_5="42.41125" pt_clust_6="121.09477"></scales>
<clustering>
<clus scale="   42.411">  4  5 -1 -1</clus>
<clus scale="   43.230">  2  3  1 -1</clus>
<clus scale="  121.095">  1  6  2 -1</clus>
<clus scale="  121.095">  1  3  2 -1</clus>
</clustering>
</event>
<event>
 6    0  0.8641190E+002  0.1158465E+03  0.7546771E-02  0.1250111E+00
         21   -1    0    0  504  501  0.00000000000E+00  0.00000000000E+00  0.82345598002E+03  0.82345598002E+03  0.00000000000E+00 0. -1.
         21   -1    0    0  505  502 -0.00000000000E+00 -0.00000000000E+00 -0.11023172509E+03  0.11023172509E+03  0.00000000000E+00 0.  1.
         21    1    1    2  503  501 -0.64677718085E+02 -0.45087336716E+01  0.63704087481E+03  0.64033164225E+03  0.00000000000E+00 0. -1.
         21    1    1    2  504  506 -0.55126143975E+02 -0.10006992640E+02  0.98636025881E+02  0.11343763596E+03  0.00000000000E+00 0. -1.
         21    1    1    2  505  503 -0.51118781111E+00 -0.44390140821E+02 -0.88680355246E+01  0.45270166436E+02  0.00000000000E+00 0.  1.
         21    1    1    2  506  502  0.12031504987E+03  0.58905867132E+02 -0.13584610232E+02  0.13464826045E+03  0.00000000000E+00 0.  1.
<scales pt_clust_3="115.84648" pt_clust_4="56.90973" pt_clust_5="44.39308" pt_clust_6="14000.00000"></scales>
<clustering>
<clus scale="   44.393">  2  5  1 -1</clus>
<clus scale="   56.910">  1  4  2 -1</clus>
<clus scale="  115.846">  1  3  2 -1</clus>
<clus scale="   56.910">  1  3  2 -1</clus>
</clustering>
</event>
<event>
 6    0  0.8641190E+002  0.9091182E+02  0.7546771E-02  0.1300658E+00
         21   -1    0    0  503  501  0.00000000000E+00  0.00000000000E+00  0.68400111887E+03  0.68400111887E+03  0.00000000000E+00 0. -1.
         21   -1    0    0  506  502 -0.00000000000E+00 -0.00000000000E+00 -0.60632640041E+02  0.60632640041E+02  0.00000000000E+00 0. -1.
         21    1    1    2  503  502 -0.94832216942E+02  0.23873366943E+02  0.28246157262E+03  0.29891073421E+03  0.00000000000E+00 0. -1.
         21    1    1    2  504  501 -0.31797674221E+02 -0.61553772546E+02  0.23889727908E+03  0.24874056556E+03  0.00000000000E+00 0. -1.
         21    1    1    2  505  504  0.78625138538E+02  0.24643146191E+02  0.11871595534E+03  0.14450839116E+03  0.00000000000E+00 0. -1.
         21    1    1    2  506  505  0.48004752625E+02  0.13037259412E+02 -0.16706328218E+02  0.52474067977E+02  0.00000000000E+00 0. -1.
<scales pt_clust_3="14000.00000" pt_clust_4="63.30929" pt_clust_5="90.91182" pt_clust_6="49.74361"></scales>
<clustering>
<clus scale="   49.744">  2  6  1 -1</clus>
<clus scale="   63.309">  1  4  2 -1</clus>
<clus scale="   90.912">  2  5  1 -1</clus>
<clus scale="   63.309">  1  3  2 -1</clus>
</clustering>
</event>
<event>
 6    0  0.8641190E+002  0.9633386E+02  0.7546771E-02  0.1288200E+00
         21   -1    0    0  504  501  0.00000000000E+00  0.00000000000E+00  0.45691730223E+02  0.45691730223E+02  0.00000000000E+00 0. -1.
         21   -1    0    0  506  502 -0.00000000000E+00 -0.00000000000E+00 -0.11528925701E+04  0.11528925701E+04  0.00000000000E+00 0. -1.
         21    1    1    2  503  502  0.73794750774E+02 -0.32608627724E+02 -0.15743818477E+03  0.17690610466E+03  0.00000000000E+00 0. -1.
         21    1    1    2  504  503  0.25406117660E+02 -0.49880345764E+02 -0.80446290342E+02  0.98005741352E+02  0.00000000000E+00 0. -1.
         21    1    1    2  505  501 -0.46837453374E+02  0.57641648351E+02 -0.26488357961E+02  0.78853914111E+02  0.00000000000E+00 0. -1.
         21    1    1    2  506  505 -0.52363415060E+02  0.24847325138E+02 -0.84282800680E+03  0.84481854019E+03  0.00000000000E+00 0. -1.
<scales pt_clust_3="40.31317" pt_clust_4="40.31317" pt_clust_5="83.29440" pt_clust_6="57.95961"></scales>
<clustering>
<clus scale="   40.313">  3  4 -1 -1</clus>
<clus scale="   57.960">  2  6  1 -1</clus>
<clus scale="   83.294">  1  5  2 -1</clus>
<clus scale="   83.294">  1  3  2 -1</clus>
</clustering>
</event>
<event>
 6    0  0.8641190E+002  0.9123538E+02  0.7546771E-02  0.1299887E+00
         21   -1    0    0  505  501  0.00000000000E+00  0.00000000000E+00  0.18991208671E+03  0.18991208671E+03  0.00000000000E+00 0. -1.
         21   -1    0    0  503  502 -0.00000000000E+00 -0.00000000000E+00 -0.63947691157E+03  0.63947691157E+03  0.00000000000E+00 0. -1.
         21    1    1    2  503  501  0.27231692894E+02  0.25022179731E+02 -0.12519917833E+02  0.39043858914E+02  0.00000000000E+00 0.  1.
         21    1    1    2  504  506  0.78145951527E+02 -0.54260158861E+02  0.11905469712E+03  0.15239742611E+03  0.00000000000E+00 0. -1.
         21    1    1    2  505  504 -0.13919134627E+02  0.35443002913E+02  0.27641240678E+02  0.47053022756E+02  0.00000000000E+00 0.  1.
         21    1    1    2  506  502 -0.91458509794E+02 -0.62050237831E+01 -0.58374084483E+03  0.59089469049E+03  0.00000000000E+00 0. -1.
<scales pt_clust_3="36.98208" pt_clust_4="14000.00000" pt_clust_5="41.54282" pt_clust_6="91.23538"></scales>
<clustering>
<clus scale="   36.982">  1  3  2 -1</clus>
<clus scale="   41.543">  1  5  2 -1</clus>
<clus scale="   91.235">  2  6  1 -1</clus>
<clus scale="   36.982">  1  3  2 -1</clus>
</clustering>
</event>
<event>
 6    0  0.8641190E+002  0.8103638E+02  0.7546771E-02  0.1326136E+00
         21   -1    0    0  504  501  0.00000000000E+00  0.00000000000E+00  0.11320325663E+04  0.11320325663E+04  0.00000000000E+00 0. -1.
         21   -1    0    0  505  502 -0.00000000000E+00 -0.00000000000E+00 -0.11854407814E+03  0.11854407814E+03  0.00000000000E+00 0.  1.
         21    1    1    2  503  502 -0.47308922746E+02 -0.12754973877E+02 -0.59355475661E+02  0.76966850143E+02  0.00000000000E+00 0.  1.
         21    1    1    2  504  503 -0.87873783632E+02  0.19864600906E+02  0.49734500839E+02  0.10290736025E+03  0.00000000000E+00 0.  1.
         21    1    1    2  505  506  0.86291216858E+02  0.24703114494E+02  0.65006172377E+02  0.11082517954E+03  0.00000000000E+00 0.  1.
         21    1    1    2  506  501  0.48891489520E+02 -0.31812741522E+02  0.95810329056E+03  0.95987725447E+03  0.00000000000E+00 0. -1.
<scales pt_clust_3="48.99820" pt_clust_4="81.03638" pt_clust_5="14000.00000" pt_clust_6="57.75828"></scales>
<clustering>
<clus scale="   48.998">  2  3  1 -1</clus>
<clus scale="   57.758">  1  6  2 -1</clus>
<clus scale="   81.036">  1  4  2 -1</clus>
<clus scale="   57.758">  1  3  2 -1</clus>
</clustering>
</event>
<event>
 6    0  0.8641190E+002  0.1166360E+03  0.7546771E-02  0.1248752E+00
         21   -1    0    0  505  501  0.00000000000E+00  0.00000000000E+00  0.57344805791E+03  0.57344805791E+03  0.00000000000E+00 0. -1.
         21   -1    0    0  506  502 -0.00000000000E+00 -0.00000000000E+00 -0.15332766753E+03  0.15332766753E+03  0.00000000000E+00 0.  1.
         21    1    1    2  503  504  0.62135614629E+02  0.66072086983E+02 -0.30527200039E+02  0.95698825624E+02  0.00000000000E+00 0.  1.
         21    1    1    2  504  501 -0.59056548423E+02 -0.27877198131E+02  0.10733965037E+03  0.12564479547E+03  0.00000000000E+00 0.  1.
         21    1    1    2  505  502 -0.32133807805E+02 -0.67061817282E+02  0.41567744264E+03  0.42227669278E+03  0.00000000000E+00 0. -1.
         21    1    1    2  506  503  0.29054741600E+02  0.28866928430E+02 -0.72369502595E+02  0.83155411564E+02  0.00000000000E+00 0.  1.
<scales pt_clust_3="14000.00000" pt_clust_4="60.65332" pt_clust_5="116.63598" pt_clust_6="40.95702"></scales>
<clustering>
<clus scale="   40.957">  2  6  1 -1</clus>
<clus scale="   60.653">  1  4  2 -1</clus>
<clus scale="  116.636">  1  5  2 -1</clus>
<clus scale="   60.653">  1  3  2 -1</clus>
</clustering>
</event>
<event>
 6    0  0.8641190E+002  0.1482768E+03  0.7546771E-02  0.1202607E+00
         21   -1    0    0  503  501  0.00000000000E+00  0.00000000000E+00  0.13980127008E+04  0.13980127008E+04  0.00000000000E+00 0. -1.
         21   -1    0    0  506  502 -0.00000000000E+00 -0.00000000000E+00 -0.65638095387E+03  0.65638095387E+03  0.00000000000E+00 0.  1.
         21    1    1    2  503  505  0.18460162441E+03  0.84168026434E+02  0.29277024216E+03  0.35619718009E+03  0.00000000000E+00 0.  1.
         21    1    1    2  504  501 -0.44735848096E+02 -0.44083352696E+02  0.10528556486E+04  0.10547272894E+04  0.00000000000E+00 0. -1.
         21    1    1    2  505  502 -0.20775944646E+02  0.33995943708E+02 -0.23464192617E+02  0.46237781085E+02  0.00000000000E+00 0.  1.
         21    1    1    2  506  504 -0.11908983166E+03 -0.74080617447E+02 -0.58052995121E+03  0.59723140418E+03  0.00000000000E+00 0.  1.
<scales pt_clust_3="148.27678" pt_clust_4="62.79273" pt_clust_5="39.84174" pt_clust_6="14000.00000"></scales>
<clustering>
<clus scale="   39.842">  2  5  1 -1</clus>
<clus scale="   62.793">  1  4  2 -1</clus>
<clus scale="  148.277">  1  3  2 -1</clus>
<clus scale="   62.793">  1  3  2 -1</clus>
</clustering>
</event>
<event>
 6    0  0.8641190E+002  0.7871236E+02  0.7546771E-02  0.1332746E+00
         21   -1    0    0  504  501  0.00000000000E+00  0.00000000000E+00  0.45945531384E+02  0.45945531384E+02  0.00000000000E+00 0.  1.
         21   -1    0    0  506  502 -0.00000000000E+00 -0.00000000000E+00 -0.96330140362E+03  0.96330140362E+03  0.00000000000E+00 0.  1.
         21    1    1    2  503  501  0.35951690274E+02  0.13615927852E+01 -0.17319824221E+02  0.39929366130E+02  0.00000000000E+00 0.  1.
         21    1    1    2  504  505 -0.62984227919E+02  0.60986702388E+02 -0.72914046806E+02  0.11403003576E+03  0.00000000000E+00 0.  1.
         21    1    1    2  505  502  0.94923972027E+02 -0.26749040045E+02 -0.19486022791E+03  0.21839546705E+03  0.00000000000E+00 0.  1.
         21    1    1    2  506  503 -0.67891434381E+02 -0.35599255128E+02 -0.63226177331E+03  0.63689206606E+03  0.00000000000E+00 0.  1.
<scales pt_clust_3="35.97746" pt_clust_4="78.71236" pt_clust_5="14000.00000" pt_clust_6="74.49566"></scales>
<clustering>
<clus scale="   35.977">  1  3  2 -1</clus>
<clus scale="   74.496">  2  6  1 -1</clus>
<clus scale="   78.712">  1  4  2 -1</clus>
<clus scale="   35.977">  1  3  2 -1</clus>
</clustering>
</event>
<event>
 6    0  0.8641190E+002  0.1088881E+03  0.7546771E-02  0.1262643E+00
         21   -1    0    0  505  501  0.00000000000E+00  0.00000000000E+00  0.16225403003E+03  0.16225403003E+03  0.00000000000E+00 0. -1.
         21   -1    0    0  506  502 -0.00000000000E+00 -0.00000000000E+00 -0.51242026865E+03  0.51242026865E+03  0.00000000000E+00 0.  1.
         21    1    1    2  503  502  0.46887005537E+02  0.23759306440E+02 -0.96699818511E+02  0.11006248603E+03  0.00000000000E+00 0.  1.
         21    1    1    2  504  501  0.48760452080E+02 -0.64959035350E+02 -0.14917394697E+03  0.16985324376E+03  0.00000000000E+00 0.  1.
         21    1    1    2  505  503 -0.65912886050E+02  0.91525004703E+02  0.11899033022E+03  0.16395131509E+03  0.00000000000E+00 0. -1.
         21    1    1    2  506  504 -0.29734571567E+02 -0.50325275793E+02 -0.22328280336E+03  0.23080725380E+03  0.00000000000E+00 0.  1.
<scales pt_clust_3="52.56326" pt_clust_4="14000.00000" pt_clust_5="108.88806" pt_clust_6="37.32197"></scales>
<clustering>
<clus scale="   52.563">  2  3  1 -1</clus>
<clus scale="   37.322">  2  6  1 -1</clus>
<clus scale="  108.888">  1  5  2 -1</clus>
<clus scale="  108.888">  1  3  2 -1</clus>
</clustering>
</event>
<event>
 6    0  0.8641190E+002  0.1222215E+03  0.7546771E-02  0.1239477E+00
         21   -1    0    0  506  501  0.00000000000E+00  0.00000000000E+00  0.11049554705E+03  0.11049554705E+03  0.00000000000E+00 0. -1.
         21   -1    0    0  505  502 -0.00000000000E+00 -0.00000000000E+00 -0.58982657137E+03  0.58982657137E+03  0.00000000000E+00 0. -1.
         21    1    1    2  503  501 -0.10854216728E+03 -0.56961344491E+02  0.41227027051E+02  0.12932774104E+03  0.00000000000E+00 0. -1.
         21    1    1    2  504  502  0.34507074096E+02  0.30486776574E+02 -0.20284745342E+03  0.20800786300E+03  0.00000000000E+00 0. -1.
         21    1    1    2  505  503 -0.49278741830E+02  0.44792404025E+01 -0.10632945108E+03  0.11727919747E+03  0.00000000000E+00 0.  1.
         21    1    1    2  506  504  0.12331383501E+03  0.21995327515E+02 -0.21138114686E+03  0.24570731691E+03  0.00000000000E+00 0. -1.
<scales pt_clust_3="122.22154" pt_clust_4="46.04543" pt_clust_5="41.44970" pt_clust_6="14000.00000"></scales>
<clustering>
<clus scale="   46.045">  2  4  1 -1</clus>
<clus scale="   41.450">  2  5  1 -1</clus>
<clus scale="  122.222">  1  3  2 -1</clus>
<clus scale="  122.222">  1  3  2 -1</clus>
</clustering>
</event>
<event>
 6    0  0.8641190E+002  0.8593866E+02  0.7546771E-02  0.1312996E+00
         21   -1    0    0  506  501  0.00000000000E+00  0.00000000000E+00  0.37182281442E+02  0.37182281442E+02  0.00000000000E+00 0.  1.
         21   -1    0    0  504  502 -0.00000000000E+00 -0.00000000000E+00 -0.89054443664E+03  0.89054443664E+03  0.00000000000E+00 0.  1.
         21    1    1    2  503  505  0.95916916478E+01  0.93548653647E+02 -0.37112283129E+03  0.38285180821E+03  0.00000000000E+00 0.  1.
         21    1    1    2  504  503  0.65067780187E+01 -0.80906739050E+02 -0.42087627233E+03  0.42863163112E+03  0.00000000000E+00 0.  1.
         21    1    1    2  505  501 -0.16381317445E+02 -0.45340090540E+02 -0.67525310697E+02  0.82968300912E+02  0.00000000000E+00 0.  1.
         21    1    1    2  506  502  0.28284777875E+00  0.32698175943E+02  0.61622591173E+01  0.33274977840E+02  0.00000000000E+00 0.  1.
<scales pt_clust_3="14000.00000" pt_clust_4="85.93866" pt_clust_5="34.89997" pt_clust_6="32.69940"></scales>
<clustering>
<clus scale="   32.699">  1  6  2 -1</clus>
<clus scale="   34.900">  1  5  2 -1</clus>
<clus scale="   85.939">  2  4  1 -1</clus>
<clus scale="   32.699">  1  3  2 -1</clus>
</clustering>
</event>
<event>
 6    0  0.8641190E+002  0.9313487E+02  0.7546771E-02  0.1295433E+00
         21   -1    0    0  503  501  0.00000000000E+00  0.00000000000E+00  0.72289714122E+03  0.72289714122E+03  0.00000000000E+00 0.  1.
         21   -1    0    0  504  502 -0.00000000000E+00 -0.00000000000E+00 -0.21320511142E+03  0.21320511142E+03  0.00000000000E+00 0.  1.
         21    1    1    2  503  502 -0.47407395612E+02 -0.83951770127E+02 -0.14984608892E+03  0.17818308346E+03  0.00000000000E+00 0.  1.
         21    1    1    2  504  506 -0.34547750874E+02 -0.10093312927E+02 -0.17845313197E+02  0.40173091235E+02  0.00000000000E+00 0. -1.
         21    1    1    2  505  501  0.18417584102E+02  0.91324674427E+02  0.63389097316E+03  0.64070053022E+03  0.00000000000E+00 0.  1.
         21    1    1    2  506  505  0.63537562384E+02  0.27204086264E+01  0.43492458747E+02  0.77045547728E+02  0.00000000000E+00 0. -1.
<scales pt_clust_3="14000.00000" pt_clust_4="35.99197" pt_clust_5="93.13487" pt_clust_6="60.41781"></scales>
<clustering>
<clus scale="   35.992">  2  4  1 -1</clus>
<clus scale="   60.418">  2  6  1 -1</clus>
<clus scale="   93.135">  1  5  2 -1</clus>
<clus scale="   93.135">  1  3  2 -1</clus>
</clustering>
</event>
<event>
 6    0  0.8641190E+002  0.1843673E+03  0.7546771E-02  0.1163642E+00
         21   -1    0    0  502  501  0.00000000000E+00  0.00000000000E+00  0.10647086364E+03  0.10647086364E+03  0.00000000000E+00 0.  1.
         21   -1    0    0  506  502 -0.00000000000E+00 -0.00000000000E+00 -0.82401315179E+03  0.82401315179E+03  0.00000000000E+00 0.  1.
         21    1    1    2  503  505  0.54207591605E+02 -0.12819765420E+03 -0.34677203131E+02  0.14344200900E+03  0.00000000000E+00 0.  1.
         21    1    1    2  504  503 -0.66887314605E+02  0.94378474487E+02 -0.32938433719E+03  0.34910636042E+03  0.00000000000E+00 0.  1.
         21    1    1    2  505  501  0.27042619769E+02 -0.29473557870E+02  0.29368848601E+02  0.49623816516E+02  0.00000000000E+00 0.  1.
         21    1    1    2  506  504 -0.14362896769E+02  0.63292737581E+02 -0.38284959643E+03  0.38831182949E+03  0.00000000000E+00 0.  1.
<scales pt_clust_3="170.13143" pt_clust_4="54.01092" pt_clust_5="39.99992" pt_clust_6="54.01092"></scales>
<clustering>
<clus scale="   40.000">  1  5  2 -1</clus>
<clus scale="   54.011">  4  6 -1 -1</clus>
<clus scale="  170.131">  1  3  2 -1</clus>
<clus scale="   40.000">  1  3  2 -1</clus>
</clustering>
</event>
<event>
 6    0  0.8641190E+002  0.1193106E+03  0.7546771E-02  0.1244239E+00
         21   -1    0    0  506  501  0.00000000000E+00  0.00000000000E+00  0.70367940870E+03  0.70367940870E+03  0.00000000000E+00 0. -1.
         21   -1    0    0  504  502 -0.00000000000E+00 -0.00000000000E+00 -0.64805101239E+03  0.64805101239E+03  0.00000000000E+00 0.  1.
         21    1    1    2  503  501  0.46676353780E+02 -0.51207201353E+01  0.27381823289E+03  0.27781527755E+03  0.00000000000E+00 0. -1.
         21    1    1    2  504  505  0.65580628457E+02  0.99978378667E+02 -0.62477110714E+03  0.63610960639E+03  0.00000000000E+00 0.  1.
         21    1    1    2  505  503 -0.70873643307E+02 -0.76720251186E+02  0.35080957434E+03  0.36602790564E+03  0.00000000000E+00 0. -1.
         21    1    1    2  506  502 -0.41383338930E+02 -0.18137407345E+02  0.55771696223E+02  0.71777631515E+02  0.00000000000E+00 0. -1.
<scales pt_clust_3="31.60839" pt_clust_4="14000.00000" pt_clust_5="119.31064" pt_clust_6="45.18347"></scales>
<clustering>
<clus scale="   45.183">  1  6  2 -1</clus>
<clus scale="   31.608">  1  3  2 -1</clus>
<clus scale="  119.311">  1  5  2 -1</clus>
<clus scale="   45.183">  1  3  2 -1</clus>
</clustering>
</event>
<event>
 6    0  0.8641190E+002  0.1511931E+03  0.7546771E-02  0.1199014E+00
         21   -1    0    0  503  501  0.00000000000E+00  0.00000000000E+00  0.46772456801E+02  0.46772456801E+02  0.00000000000E+00 0. -1.
         21   -1    0    0  505  502 -0.00000000000E+00 -0.00000000000E+00 -0.88935263700E+03  0.88935263700E+03  0.00000000000E+00 0. -1.
         21    1    1    2  503  506 -0.91160324773E+02 -0.37712062414E+02 -0.10729207741E+03  0.14575319667E+03  0.00000000000E+00 0. -1.
         21    1    1    2  504  502  0.13253422113E+03 -0.35290190719E+02 -0.45897173549E+03  0.47902585662E+03  0.00000000000E+00 0. -1.
         21    1    1    2  505  501  0.17146629256E+02  0.79033606977E+02 -0.12377464163E+03  0.14785289932E+03  0.00000000000E+00 0. -1.
         21    1    1    2  506  504 -0.58520525613E+02 -0.60313538432E+01 -0.15254172566E+03  0.16349314119E+03  0.00000000000E+00 0. -1.
<scales pt_clust_3="47.61499" pt_clust_4="138.04898" pt_clust_5="80.87223" pt_clust_6="47.61499"></scales>
<clustering>
<clus scale="   47.615">  3  6 -1 -1</clus>
<clus scale="   80.872">  1  5  2 -1</clus>
<clus scale="  138.049">  2  4  1 -1</clus>
<clus scale="   80.872">  1  3  2 -1</clus>
</clustering>
</event>
<event>
 6    0  0.8641190E+002  0.8742301E+02  0.7546771E-02  0.1309215E+00
         21   -1    0    0  506  501  0.00000000000E+00  0.00000000000E+00  0.27926261566E+03  0.27926261566E+03  0.00000000000E+00 0. -1.
         21   -1    0    0  503  502 -0.00000000000E+00 -0.00000000000E+00 -0.44561339727E+03  0.44561339727E+03  0.00000000000E+00 0.  1.
         21    1    1    2  503  505  0.72007917319E+01  0.80650435545E+02 -0.58132653452E+01  0.81179666229E+02  0.00000000000E+00 0.  1.
         21    1    1    2  504  501 -0.74429263335E+02 -0.57139124833E+02  0.18212596058E+03  0.20487669546E+03  0.00000000000E+00 0. -1.
         21    1    1    2  505  504  0.77387344692E+02  0.91174280226E+01  0.15146873496E+02  0.79381083320E+02  0.00000000000E+00 0.  1.
         21    1    1    2  506  502 -0.10158873089E+02 -0.32628738735E+02 -0.35781035034E+03  0.35943856792E+03  0.00000000000E+00 0.  1.
<scales pt_clust_3="64.37027" pt_clust_4="14000.00000" pt_clust_5="87.42301" pt_clust_6="34.17363"></scales>
<clustering>
<clus scale="   34.174">  2  6  1 -1</clus>
<clus scale="   64.370">  2  3  1 -1</clus>
<clus scale="   87.423">  2  5  1 -1</clus>
<clus scale="   87.423">  1  3  2 -1</clus>
</clustering>
</event>
<event>
 6    0  0.8641190E+002  0.8031567E+02  0.7546771E-02  0.1328158E+00
         21   -1    0    0  503  501  0.00000000000E+00  0.00000000000E+00  0.77675352871E+02  0.77675352871E+02  0.00000000000E+00 0.  1.
         21   -1    0    0  505  502 -0.00000000000E+00 -0.00000000000E+00 -0.18815606170E+04  0.18815606170E+04  0.00000000000E+00 0.  1.
         21    1    1    2  503  504 -0.62801893979E+01  0.44731346748E+02 -0.10549108498E+03  0.11475497013E+03  0.00000000000E+00 0.  1.
         21    1    1    2  504  502 -0.51839082081E+02 -0.60035258672E+02 -0.16112458363E+04  0.16131970332E+04  0.00000000000E+00 0.  1.
         21    1    1    2  505  506  0.56624374050E+02  0.10711534064E+03 -0.61873421322E+02  0.13604534613E+03  0.00000000000E+00 0.  1.
         21    1    1    2  506  501  0.14948974296E+01 -0.91811428720E+02 -0.25274921463E+02  0.95238620406E+02  0.00000000000E+00 0.  1.
<scales pt_clust_3="45.17006" pt_clust_4="80.31567" pt_clust_5="14000.00000" pt_clust_6="70.40501"></scales>
<clustering>
<clus scale="   45.170">  1  3  2 -1</clus>
<clus scale="   70.405">  1  6  2 -1</clus>
<clus scale="   80.316">  2  4  1 -1</clus>
<clus scale="   45.170">  1  3  2 -1</clus>
</clustering>
</event>
<event>
 6    0  0.8641190E+002  0.7873360E+02  0.7546771E-02  0.1332684E+00
         21   -1    0    0  504  501  0.00000000000E+00  0.00000000000E+00  0.54568496848E+03  0.54568496848E+03  0.00000000000E+00 0. -1.
         21   -1    0    0  505  502 -0.00000000000E+00 -0.00000000000E+00 -0.45050912317E+02  0.45050912317E+02  0.00000000000E+00 0. -1.
         21    1    1    2  503  502 -0.68522739656E+01  0.39483678756E+02  0.89577553594E+01  0.41062829027E+02  0.00000000000E+00 0. -1.
         21    1    1    2  504  503 -0.43268475476E+02 -0.56433573091E+02  0.23932613296E+03  0.24966759313E+03  0.00000000000E+00 0. -1.
         21    1    1    2  505  506 -0.12747090539E+02 -0.51576564538E+02  0.35067199444E+02  0.63657983031E+02  0.00000000000E+00 0. -1.
         21    1    1    2  506  501  0.62867839981E+02  0.68526458873E+02  0.21728296840E+03  0.23634747560E+03  0.00000000000E+00 0. -1.
<scales pt_clust_3="40.07386" pt_clust_4="78.73360" pt_clust_5="35.93344" pt_clust_6="14000.00000"></scales>
<clustering>
<clus scale="   40.074">  2  3  1 -1</clus>
<clus scale="   35.933">  2  5  1 -1</clus>
<clus scale="   78.734">  1  4  2 -1</clus>
<clus scale="   78.734">  1  3  2 -1</clus>
</clustering>
</event>
<event>
 6    0  0.8641190E+002  0.1011467E+03  0.7546771E-02  0.1277903E+00
         21   -1    0    0  503  501  0.00000000000E+00  0.00000000000E+00  0.48885011732E+03  0.48885011732E+03  0.00000000000E+00 0. -1.
         21   -1    0    0  506  502 -0.00000000000E+00 -0.00000000000E+00 -0.21368293899E+03  0.21368293899E+03  0.00000000000E+00 0. -1.
         21    1    1    2  503  505  0.66989450699E+02  0.77051414013E+02  0.43467143562E+03  0.44650169524E+03  0.00000000000E+00 0. -1.
         21    1    1    2  504  502 -0.14147564098E+02 -0.31813510127E+02  0.48726595554E+01  0.35156732039E+02  0.00000000000E+00 0.  1.
         21    1    1    2  505  504 -0.91980087257E+02 -0.20441555829E+02 -0.13934809228E+03  0.16821440033E+03  0.00000000000E+00 0. -1.
         21    1    1    2  506  501  0.39138200656E+02 -0.24796348057E+02 -0.25028824567E+02  0.52660228701E+02  0.00000000000E+00 0. -1.
<scales pt_clust_3="14000.00000" pt_clust_4="34.81742" pt_clust_5="101.14669" pt_clust_6="47.80246"></scales>
<clustering>
<clus scale="   34.817">  2  4  1 -1</clus>
<clus scale="   47.802">  2  6  1 -1</clus>
<clus scale="  101.147">  2  5  1 -1</clus>
<clus scale="  101.147">  1  3  2 -1</clus>
</clustering>
</event>
<event>
 6    0  0.8641190E+002  0.6948352E+02  0.7546771E-02  0.1361858E+00
         21   -1    0    0  503  501  0.00000000000E+00  0.00000000000E+00  0.18142644214E+03  0.18142644214E+03  0.00000000000E+00 0. -1.
         21   -1    0    0  504  502 -0.00000000000E+00 -0.00000000000E+00 -0.19444557432E+04  0.19444557432E+04  0.00000000000E+00 0. -1.
         21    1    1    2  503  502 -0.96388856733E+02 -0.76497452275E-01 -0.83608604951E+03  0.84162384694E+03  0.00000000000E+00 0. -1.
         21    1    1    2  504  505  0.46795578323E+02  0.23947727894E+02 -0.77875474902E+03  0.78052692391E+03  0.00000000000E+00 0. -1.
         21    1    1    2  505  506  0.70125143602E+02  0.87928599872E+00 -0.32068451549E+03  0.32826341159E+03  0.00000000000E+00 0. -1.
         21    1    1    2  506  501 -0.20531865192E+02 -0.24750516441E+02  0.17249601297E+03  0.17546800290E+03  0.00000000000E+00 0. -1.
<scales pt_clust_3="14000.00000" pt_clust_4="49.07291" pt_clust_5="69.48352" pt_clust_6="32.15813"></scales>
<clustering>
<clus scale="   32.158">  1  6  2 -1</clus>
<clus scale="   49.073">  2  4  1 -1</clus>
<clus scale="   69.484">  1  5  2 -1</clus>
<clus scale="   32.158">  1  3  2 -1</clus>
</clustering>
</event>
<event>
 6    0  0.8641190E+002  0.1015927E+03  0.7546771E-02  0.1276982E+00
         21   -1    0    0  502  501  0.00000000000E+00  0.00000000000E+00  0.13549807776E+03  0.13549807776E+03  0.00000000000E+00 0. -1.
         21   -1    0    0  506  502 -0.00000000000E+00 -0.00000000000E+00 -0.10545565568E+04  0.10545565568E+04  0.00000000000E+00 0.  1.
         21    1    1    2  503  505 -0.10424176030E+03 -0.13542706693E+02 -0.30139820977E+02  0.10935336439E+03  0.00000000000E+00 0. -1.
         21    1    1    2  504  503 -0.15105407622E+02 -0.72394431834E+02 -0.12033886774E+03  0.14124648735E+03  0.00000000000E+00 0. -1.
         21    1    1    2  505  501  0.54804240112E+02 -0.72779274365E+01  0.72272306688E+02  0.90993182580E+02  0.00000000000E+00 0. -1.
         21    1    1    2  506  504  0.64542927809E+02  0.93215065964E+02 -0.84085209701E+03  0.84846160025E+03  0.00000000000E+00 0.  1.
<scales pt_clust_3="66.67759" pt_clust_4="14000.00000" pt_clust_5="55.28538" pt_clust_6="101.59272"></scales>
<clustering>
<clus scale="   55.285">  1  5  2 -1</clus>
<clus scale="   66.678">  1  3  2 -1</clus>
<clus scale="  101.593">  2  6  1 -1</clus>
<clus scale="   55.285">  1  3  2 -1</clus>
</clustering>
</event>
<event>
 6    0  0.8641190E+002  0.1019847E+03  0.7546771E-02  0.1276177E+00
         21   -1    0    0  505  501  0.00000000000E+00  0.00000000000E+00  0.41784467741E+03  0.41784467741E+03  0.00000000000E+00 0. -1.
         21   -1    0    0  503  502 -0.00000000000E+00 -0.00000000000E+00 -0.95690148760E+03  0.95690148760E+03  0.00000000000E+00 0.  1.
         21    1    1    2  503  501 -0.35279750008E+01  0.11921932246E+03 -0.47960203397E+03  0.49421028363E+03  0.00000000000E+00 0.  1.
         21    1    1    2  504  506  0.59346681262E+02 -0.14280959550E+02 -0.79564881696E+02  0.10028232537E+03  0.00000000000E+00 0.  1.
         21    1    1    2  505  504 -0.26943501011E+02 -0.17942002142E+02  0.39398167489E+03  0.39530928124E+03  0.00000000000E+00 0. -1.
         21    1    1    2  506  502 -0.28875205250E+02 -0.86996360766E+02 -0.37387156940E+03  0.38494427476E+03  0.00000000000E+00 0.  1.
<scales pt_clust_3="14000.00000" pt_clust_4="52.30447" pt_clust_5="32.37078" pt_clust_6="101.98467"></scales>
<clustering>
<clus scale="   32.371">  1  5  2 -1</clus>
<clus scale="   52.304">  1  4  2 -1</clus>
<clus scale="  101.985">  2  6  1 -1</clus>
<clus scale="   32.371">  1  3  2 -1</clus>
</clustering>
</event>
<event>
 6    0  0.8641190E+002  0.1286578E+03  0.7546771E-02  0.1229461E+00
         21   -1    0    0  505  501  0.00000000000E+00  0.00000000000E+00  0.58289022684E+03  0.58289022684E+03  0.00000000000E+00 0. -1.
         21   -1    0    0  503  502 -0.00000000000E+00 -0.00000000000E+00 -0.12517390438E+03  0.12517390438E+03  0.00000000000E+00 0. -1.
         21    1    1    2  503  506  0.47311492798E+02  0.95386911762E+02  0.32460817939E+03  0.34162480942E+03  0.00000000000E+00 0. -1.
         21    1    1    2  504  502 -0.38324444026E+02 -0.12580488154E+03 -0.66337486651E+02  0.14729661695E+03  0.00000000000E+00 0. -1.
         21    1    1    2  505  504 -0.44732969208E+02  0.21354968462E+02  0.14619401541E+03  0.15436891965E+03  0.00000000000E+00 0. -1.
         21    1    1    2  506  501  0.35745920436E+02  0.90630013211E+01  0.53251614317E+02  0.64773785193E+02  0.00000000000E+00 0.  1.
<scales pt_clust_3="14000.00000" pt_clust_4="128.65776" pt_clust_5="41.98355" pt_clust_6="36.87694"></scales>
<clustering>
<clus scale="   36.877">  1  6  2 -1</clus>
<clus scale="   41.984">  1  5  2 -1</clus>
<clus scale="  128.658">  2  4  1 -1</clus>
<clus scale="   36.877">  1  3  2 -1</clus>
</clustering>
</event>
<event>
 6    0  0.8641190E+002  0.1073441E+03  0.7546771E-02  0.1265569E+00
         21   -1    0    0  503  501  0.00000000000E+00  0.00000000000E+00  0.10978114348E+04  0.10978114348E+04  0.00000000000E+00 0.  1.
         21   -1    0    0  501  502 -0.00000000000E+00 -0.00000000000E+00 -0.63742169171E+02  0.63742169171E+02  0.00000000000E+00 0. -1.
         21    1    1    2  503  505 -0.78310736429E+02  0.38632375102E+02  0.66698127398E+03  0.67267306448E+03  0.00000000000E+00 0.  1.
         21    1    1    2  504  506  0.11203463455E+02 -0.96380387978E+02  0.10373990290E+03  0.14204458538E+03  0.00000000000E+00 0. -1.
         21    1    1    2  505  504  0.10739847500E+03  0.95463733193E+02  0.25259886283E+03  0.29060960461E+03  0.00000000000E+00 0.  1.
         21    1    1    2  506  502 -0.40291202031E+02 -0.37715720316E+02  0.10749225913E+02  0.56226349498E+02  0.00000000000E+00 0. -1.
<scales pt_clust_3="88.74364" pt_clust_4="14000.00000" pt_clust_5="107.34409" pt_clust_6="55.18928"></scales>
<clustering>
<clus scale="   55.189">  2  6  1 -1</clus>
<clus scale="   88.744">  1  3  2 -1</clus>
<clus scale="  107.344">  1  5  2 -1</clus>
<clus scale="   88.744">  1  3  2 -1</clus>
</clustering>
</event>
<event>
 6    0  0.8641190E+002  0.8291903E+02  0.7546771E-02  0.1320966E+00
         21   -1    0    0  505  501  0.00000000000E+00  0.00000000000E+00  0.46525389366E+02  0.46525389366E+02  0.00000000000E+00 0. -1.
         21   -1    0    0  506  502 -0.00000000000E+00 -0.00000000000E+00 -0.82946183853E+03  0.82946183853E+03  0.00000000000E+00 0. -1.
         21    1    1    2  503  501 -0.35521593190E+02  0.21485148304E+01  0.34547083385E+01  0.35753806908E+02  0.00000000000E+00 0. -1.
         21    1    1    2  504  503 -0.37716496853E+02 -0.23279408567E+00 -0.37227070475E+02  0.52994746005E+02  0.00000000000E+00 0. -1.
         21    1    1    2  505  502  0.21751454453E+02  0.81950588663E+02 -0.61518999605E+03  0.62100543958E+03  0.00000000000E+00 0. -1.
         21    1    1    2  506  504  0.51486635591E+02 -0.83866309408E+02 -0.13397409098E+03  0.16623323540E+03  0.00000000000E+00 0. -1.
<scales pt_clust_3="35.58651" pt_clust_4="48.12061" pt_clust_5="14000.00000" pt_clust_6="82.91903"></scales>
<clustering>
<clus scale="   35.587">  1  3  2 -1</clus>
<clus scale="   48.121">  1  4  2 -1</clus>
<clus scale="   82.919">  1  6  2 -1</clus>
<clus scale="   35.587">  1  3  2 -1</clus>
</clustering>
</event>
<event>
 6    0  0.8641190E+002  0.1102243E+03  0.7546771E-02  0.1260155E+00
         21   -1    0    0  503  501  0.00000000000E+00  0.00000000000E+00  0.94235512434E+03  0.94235512434E+03  0.00000000000E+00 0. -1.
         21   -1    0    0  505  502 -0.00000000000E+00 -0.00000000000E+00 -0.12745921285E+03  0.12745921285E+03  0.00000000000E+00 0. -1.
         21    1    1    2  503  506  0.79495581064E+02  0.83659627206E+02  0.87638446751E+03  0.88395034675E+03  0.00000000000E+00 0. -1.
         21    1    1    2  504  501 -0.68929112536E+02 -0.10714406728E+02 -0.89062005411E+01  0.70323121906E+02  0.00000000000E+00 0. -1.
         21    1    1    2  505  504 -0.23804700923E+02 -0.19719361528E+02 -0.52230614065E+02  0.60692289879E+02  0.00000000000E+00 0. -1.
         21    1    1    2  506  502  0.13238232396E+02 -0.53225858950E+02 -0.35174141708E+00  0.54848578650E+02  0.00000000000E+00 0. -1.
<scales pt_clust_3="110.22434" pt_clust_4="14000.00000" pt_clust_5="30.91144" pt_clust_6="61.02191"></scales>
<clustering>
<clus scale="   30.911">  2  5  1 -1</clus>
<clus scale="   61.022">  2  6  1 -1</clus>
<clus scale="  110.224">  1  3  2 -1</clus>
<clus scale="  110.224">  1  3  2 -1</clus>
</clustering>
</event>
<event>
 6    0  0.8641190E+002  0.2538561E+03  0.7546771E-02  0.1110892E+00
         21   -1    0    0  503  501  0.00000000000E+00  0.00000000000E+00  0.10215086110E+04  0.10215086110E+04  0.00000000000E+00 0.  1.
         21   -1    0    0  505  502 -0.00000000000E+00 -0.00000000000E+00 -0.13557944074E+04  0.13557944074E+04  0.00000000000E+00 0. -1.
         21    1    1    2  503  506 -0.64460831345E+02  0.51604495147E+02  0.21194830716E+03  0.22746495907E+03  0.00000000000E+00 0.  1.
         21    1    1    2  504  501  0.53456241652E+02 -0.50587379166E+02 -0.95806028538E+01  0.74218869929E+02  0.00000000000E+00 0. -1.
         21    1    1    2  505  504  0.34937272450E+02 -0.22558953808E+03 -0.12792402614E+04  0.12994486905E+04  0.00000000000E+00 0. -1.
         21    1    1    2  506  502 -0.23932682757E+02  0.22457242210E+03  0.74258676078E+03  0.77617049889E+03  0.00000000000E+00 0.  1.
<scales pt_clust_3="66.40245" pt_clust_4="73.59791" pt_clust_5="228.87357" pt_clust_6="66.40245"></scales>
<clustering>
<clus scale="   66.402">  3  6 -1 -1</clus>
<clus scale="   73.598">  1  4  2 -1</clus>
<clus scale="  228.874">  2  5  1 -1</clus>
<clus scale="   73.598">  1  3  2 -1</clus>
</clustering>
</event>
<event>
 6    0  0.8641190E+002  0.1090352E+03  0.7546771E-02  0.1262367E+00
         21   -1    0    0  504  501  0.00000000000E+00  0.00000000000E+00  0.32316568926E+04  0.32316568926E+04  0.00000000000E+00 0. -1.
         21   -1    0    0  503  502 -0.00000000000E+00 -0.00000000000E+00 -0.71264698421E+02  0.71264698421E+02  0.00000000000E+00 0.  1.
         21    1    1    2  503  505 -0.11221115980E+03 -0.53166440314E+01 -0.22416767935E+02  0.11455183356E+03  0.00000000000E+00 0.  1.
         21    1    1    2  504  506  0.24768024757E+02 -0.17204390250E+02  0.17616603680E+04  0.17619184709E+04  0.00000000000E+00 0. -1.
         21    1    1    2  505  501  0.43410644002E+02  0.45765570191E+02  0.50082665730E+03  0.50478343088E+03  0.00000000000E+00 0. -1.
         21    1    1    2  506  502  0.44032491045E+02 -0.23244535910E+02  0.92032193688E+03  0.92166785569E+03  0.00000000000E+00 0. -1.
<scales pt_clust_3="14000.00000" pt_clust_4="30.15702" pt_clust_5="65.43934" pt_clust_6="109.03515"></scales>
<clustering>
<clus scale="   30.157">  1  4  2 -1</clus>
<clus scale="   65.439">  1  5  2 -1</clus>
<clus scale="  109.035">  1  6  2 -1</clus>
<clus scale="   30.157">  1  3  2 -1</clus>
</clustering>
</event>
<event>
 6    0  0.8641190E+002  0.8356806E+02  0.7546771E-02  0.1319220E+00
         21   -1    0    0  506  501  0.00000000000E+00  0.00000000000E+00  0.18610972706E+04  0.18610972706E+04  0.00000000000E+00 0.  1.
         21   -1    0    0  504  502 -0.00000000000E+00 -0.00000000000E+00 -0.12521525958E+02  0.12521525958E+02  0.00000000000E+00 0.  1.
         21    1    1    2  503  502 -0.55052974181E+02  0.45429536481E+01  0.19451094803E+03  0.20220281229E+03  0.00000000000E+00 0.  1.
         21    1    1    2  504  505  0.31988440849E+02 -0.37542145510E+02  0.19398995816E+03  0.20016187675E+03  0.00000000000E+00 0.  1.
         21    1    1    2  505  501  0.98484430145E+02  0.14486191185E+02  0.66716714022E+03  0.67455246327E+03  0.00000000000E+00 0.  1.
         21    1    1    2  506  503 -0.75419896813E+02  0.18513000676E+02  0.79290769820E+03  0.79670164421E+03  0.00000000000E+00 0.  1.
<scales pt_clust_3="43.37025" pt_clust_4="49.32214" pt_clust_5="14000.00000" pt_clust_6="83.56806"></scales>
<clustering>
<clus scale="   49.322">  2  4  1 -1</clus>
<clus scale="   43.370">  2  3  1 -1</clus>
<clus scale="   83.568">  1  6  2 -1</clus>
<clus scale="   83.568">  1  3  2 -1</clus>
</clustering>
</event>
<event>
 6    0  0.8641190E+002  0.8765084E+02  0.7546771E-02  0.1308642E+00
         21   -1    0    0  505  501  0.00000000000E+00  0.00000000000E+00  0.31147912124E+03  0.31147912124E+03  0.00000000000E+00 0.  1.
         21   -1    0    0  506  502 -0.00000000000E+00 -0.00000000000E+00 -0.10063254648E+03  0.10063254648E+03  0.00000000000E+00 0. -1.
         21    1    1    2  503  501 -0.49524745906E+02  0.28147371910E+02  0.56990313318E+02  0.80578352023E+02  0.00000000000E+00 0.  1.
         21    1    1    2  504  502  0.93302959948E+02 -0.40152415065E+02  0.45811759421E+02  0.11142879373E+03  0.00000000000E+00 0.  1.
         21    1    1    2  505  504  0.37604192023E+02 -0.26518123109E+01  0.12933421159E+03  0.13471616701E+03  0.00000000000E+00 0.  1.
         21    1    1    2  506  503 -0.81382406065E+02  0.14656855466E+02 -0.21289709572E+02  0.85388354960E+02  0.00000000000E+00 0. -1.
<scales pt_clust_3="44.37206" pt_clust_4="87.65084" pt_clust_5="37.69758" pt_clust_6="14000.00000"></scales>
<clustering>
<clus scale="   37.698">  1  5  2 -1</clus>
<clus scale="   44.372">  1  3  2 -1</clus>
<clus scale="   87.651">  1  4  2 -1</clus>
<clus scale="   37.698">  1  3  2 -1</clus>
</clustering>
</event>
<event>
 6    0  0.8641190E+002  0.9059583E+02  0.7546771E-02  0.1301415E+00
         21   -1    0    0  503  501  0.00000000000E+00  0.00000000000E+00  0.56662908851E+03  0.56662908851E+03  0.00000000000E+00 0. -1.
         21   -1    0    0  505  502 -0.00000000000E+00 -0.00000000000E+00 -0.89070173409E+02  0.89070173409E+02  0.00000000000E+00 0. -1.
         21    1    1    2  503  506  0.56534150821E+01  0.10006829678E+03  0.40964352964E+03  0.42172674387E+03  0.00000000000E+00 0. -1.
         21    1    1    2  504  502 -0.15478717726E+02 -0.53613527358E+02  0.33150681843E+01  0.55901616214E+02  0.00000000000E+00 0. -1.
         21    1    1    2  505  501 -0.49384973907E+02  0.14436578987E+02 -0.22731437723E+02  0.56249521968E+02  0.00000000000E+00 0.  1.
         21    1    1    2  506  504  0.59210276552E+02 -0.60891348410E+02  0.87331755003E+02  0.12182137987E+03  0.00000000000E+00 0. -1.
<scales pt_clust_3="90.59583" pt_clust_4="62.03525" pt_clust_5="51.45183" pt_clust_6="14000.00000"></scales>
<clustering>
<clus scale="   51.452">  2  5  1 -1</clus>
<clus scale="   62.035">  2  4  1 -1</clus>
<clus scale="   90.596">  1  3  2 -1</clus>
<clus scale="   90.596">  1  3  2 -1</clus>
</clustering>
</event>
<event>
 6    0  0.8641190E+002  0.1304124E+03  0.7546771E-02  0.1226845E+00
         21   -1    0    0  504  501  0.00000000000E+00  0.00000000000E+00  0.25200471163E+04  0.25200471163E+04  0.00000000000E+00 0. -1.
         21   -1    0    0  503  502 -0.00000000000E+00 -0.00000000000E+00 -0.24549622944E+03  0.24549622944E+03  0.00000000000E+00 0. -1.
         21    1    1    2  503  505 -0.94386296091E+02 -0.52163148513E+02 -0.21611826914E+03  0.24153027389E+03  0.00000000000E+00 0. -1.
         21    1    1    2  504  506  0.36990301579E+02  0.26249986496E+02  0.11372115707E+03  0.12243302564E+03  0.00000000000E+00 0.  1.
         21    1    1    2  505  501  0.59546922964E+02  0.63702974185E+02  0.23573390835E+04  0.23589513474E+04  0.00000000000E+00 0. -1.
         21    1    1    2  506  502 -0.21509284522E+01 -0.37789812167E+02  0.19608915448E+02  0.42628698806E+02  0.00000000000E+00 0.  1.
<scales pt_clust_3="14000.00000" pt_clust_4="44.92154" pt_clust_5="130.41242" pt_clust_6="37.85098"></scales>
<clustering>
<clus scale="   37.851">  2  6  1 -1</clus>
<clus scale="   44.922">  1  4  2 -1</clus>
<clus scale="  130.412">  1  5  2 -1</clus>
<clus scale="   44.922">  1  3  2 -1</clus>
</clustering>
</event>
<event>
 6    0  0.8641190E+002  0.1159339E+03  0.7546771E-02  0.1249960E+00
         21   -1    0    0  505  501  0.00000000000E+00  0.00000000000E+00  0.16085123724E+03  0.16085123724E+03  0.00000000000E+00 0. -1.
         21   -1    0    0  506  502 -0.00000000000E+00 -0.00000000000E+00 -0.34789567951E+03  0.34789567951E+03  0.00000000000E+00 0.  1.
         21    1    1    2  503  504  0.90355236076E+02 -0.43555973185E+02 -0.16495740352E+03  0.19305992971E+03  0.00000000000E+00 0.  1.
         21    1    1    2  504  501  0.16542533936E+02 -0.32614195548E+02 -0.89626756241E+01  0.37651968536E+02  0.00000000000E+00 0.  1.
         21    1    1    2  505  502 -0.97706341840E+02  0.11572802877E+03  0.83694111009E+02  0.17304395423E+03  0.00000000000E+00 0. -1.
         21    1    1    2  506  503 -0.91914281720E+01 -0.39557860036E+02 -0.96818474134E+02  0.10499106427E+03  0.00000000000E+00 0.  1.
<scales pt_clust_3="115.93393" pt_clust_4="36.56968" pt_clust_5="14000.00000" pt_clust_6="41.39847"></scales>
<clustering>
<clus scale="   36.570">  1  4  2 -1</clus>
<clus scale="   41.398">  2  6  1 -1</clus>
<clus scale="  115.934">  2  3  1 -1</clus>
<clus scale="   36.570">  1  3  2 -1</clus>
</clustering>
</event>
<event>
 6    0  0.8641190E+002  0.9288628E+02  0.7546771E-02  0.1296009E+00
         21   -1    0    0  506  501  0.00000000000E+00  0.00000000000E+00  0.11939300753E+03  0.11939300753E+03  0.00000000000E+00 0. -1.
         21   -1    0    0  503  502 -0.00000000000E+00 -0.00000000000E+00 -0.21818731384E+03  0.21818731384E+03  0.00000000000E+00 0. -1.
         21    1    1    2  503  505 -0.34138899015E+02  0.19719504714E+01 -0.10286915664E+03  0.10840395012E+03  0.00000000000E+00 0. -1.
         21    1    1    2  504  502  0.13666539462E+02 -0.94725140849E+02 -0.68451353675E+01  0.95950416820E+02  0.00000000000E+00 0. -1.
         21    1    1    2  505  501 -0.30564586030E+02  0.57300960621E+01 -0.35868651339E+01  0.31303250974E+02  0.00000000000E+00 0. -1.
         21    1    1    2  506  504  0.51036945583E+02  0.87023094316E+02  0.14506850820E+02  0.10192270345E+03  0.00000000000E+00 0. -1.
<scales pt_clust_3="35.00477" pt_clust_4="92.88628" pt_clust_5="31.09707" pt_clust_6="14000.00000"></scales>
<clustering>
<clus scale="   31.097">  1  5  2 -1</clus>
<clus scale="   35.005">  2  3  1 -1</clus>
<clus scale="   92.886">  2  4  1 -1</clus>
<clus scale="   31.097">  1  3  2 -1</clus>
</clustering>
</event>
<event>
 6    0  0.8641190E+002  0.1009915E+03  0.7546771E-02  0.1278225E+00
         21   -1    0    0  504  501  0.00000000000E+00  0.00000000000E+00  0.13104957054E+03  0.13104957054E+03  0.00000000000E+00 0.  1.
         21   -1    0    0  503  502 -0.00000000000E+00 -0.00000000000E+00 -0.16746473417E+03  0.16746473417E+03  0.00000000000E+00 0.  1.
         21    1    1    2  503  505  0.11945588551E+02  0.67988730159E+02 -0.14035753300E+02  0.70442649618E+02  0.00000000000E+00 0. -1.
         21    1    1    2  504  506  0.29936196639E+02 -0.48590072092E+02 -0.41108212517E+02  0.70335311981E+02  0.00000000000E+00 0.  1.
         21    1    1    2  505  501 -0.93027387895E+02  0.54648511619E+01  0.33422106527E+02  0.98999983341E+02  0.00000000000E+00 0.  1.
         21    1    1    2  506  502  0.51145602704E+02 -0.24863509228E+02 -0.14693304343E+02  0.58736359775E+02  0.00000000000E+00 0.  1.
<scales pt_clust_3="69.03017" pt_clust_4="39.62828" pt_clust_5="92.86164" pt_clust_6="39.62828"></scales>
<clustering>
<clus scale="   39.628">  4  6 -1 -1</clus>
<clus scale="   69.030">  2  3  1 -1</clus>
<clus scale="   92.862">  1  5  2 -1</clus>
<clus scale="   92.862">  1  3  2 -1</clus>
</clustering>
</event>
<event>
 6    0  0.8641190E+002  0.8688688E+02  0.7546771E-02  0.1310571E+00
         21   -1    0    0  506  501  0.00000000000E+00  0.00000000000E+00  0.55728177287E+02  0.55728177287E+02  0.00000000000E+00 0. -1.
         21   -1    0    0  503  502 -0.00000000000E+00 -0.00000000000E+00 -0.10007729359E+04  0.10007729359E+04  0.00000000000E+00 0.  1.
         21    1    1    2  503  504  0.52176167115E+02 -0.58913476335E+02 -0.63837328623E+03  0.64320572345E+03  0.00000000000E+00 0.  1.
         21    1    1    2  504  501 -0.42316740100E+02  0.76619033165E+02  0.54103505602E+01  0.87695237208E+02  0.00000000000E+00 0. -1.
         21    1    1    2  505  502 -0.41678062846E+01  0.37121599283E+02 -0.11205896708E+03  0.11812110669E+03  0.00000000000E+00 0. -1.
         21    1    1    2  506  505 -0.56916207304E+01 -0.54827156113E+02 -0.20002285587E+03  0.20747904585E+03  0.00000000000E+00 0. -1.
<scales pt_clust_3="86.88688" pt_clust_4="14000.00000" pt_clust_5="37.35484" pt_clust_6="46.76266"></scales>
<clustering>
<clus scale="   37.355">  2  5  1 -1</clus>
<clus scale="   46.763">  2  6  1 -1</clus>
<clus scale="   86.887">  2  3  1 -1</clus>
<clus scale="   86.887">  1  3  2 -1</clus>
</clustering>
</event>
<event>
 6    0  0.8641190E+002  0.1182233E+03  0.7546771E-02  0.1246057E+00
         21   -1    0    0  503  501  0.00000000000E+00  0.00000000000E+00  0.15810172576E+04  0.15810172576E+04  0.00000000000E+00 0. -1.
         21   -1    0    0  504  502 -0.00000000000E+00 -0.00000000000E+00 -0.85383670672E+03  0.85383670672E+03  0.00000000000E+00 0. -1.
         21    1    1    2  503  506  0.21546249066E+03  0.20558161311E+02  0.30610325670E+03  0.37489455402E+03  0.00000000000E+00 0. -1.
         21    1    1    2  504  505 -0.77596383963E+02  0.78929464087E+02  0.51850510564E+02  0.12222738871E+03  0.00000000000E+00 0.  1.
         21    1    1    2  505  501 -0.10728723645E+03 -0.27650035482E+02  0.11488646692E+04  0.11541945692E+04  0.00000000000E+00 0. -1.
         21    1    1    2  506  502 -0.30578870242E+02 -0.71837589916E+02 -0.77963788556E+03  0.78353745235E+03  0.00000000000E+00 0. -1.
<scales pt_clust_3="14000.00000" pt_clust_4="102.39717" pt_clust_5="118.22328" pt_clust_6="78.07501"></scales>
<clustering>
<clus scale="   78.075">  2  6  1 -1</clus>
<clus scale="  102.397">  2  4  1 -1</clus>
<clus scale="  118.223">  1  5  2 -1</clus>
<clus scale="  118.223">  1  3  2 -1</clus>
</clustering>
</event>
<event>
 6    0  0.8641190E+002  0.9566601E+02  0.7546771E-02  0.1289683E+00
         21   -1    0    0  505  501  0.00000000000E+00  0.00000000000E+00  0.81985034580E+03  0.81985034580E+03  0.00000000000E+00 0. -1.
         21   -1    0    0  503  502 -0.00000000000E+00 -0.00000000000E+00 -0.30359954164E+02  0.30359954164E+02  0.00000000000E+00 0. -1.
         21    1    1    2  503  506 -0.79254210907E+01  0.10344305572E+03  0.12245093929E+03  0.16049146585E+03  0.00000000000E+00 0. -1.
         21    1    1    2  504  502  0.73131366484E+01 -0.81258931109E+02  0.23983227831E+03  0.25332985922E+03  0.00000000000E+00 0. -1.
         21    1    1    2  505  504  0.41598245412E+02  0.46666027676E+00  0.22676107235E+03  0.23054547431E+03  0.00000000000E+00 0. -1.
         21    1    1    2  506  501 -0.40985960970E+02 -0.22650784886E+02  0.20044610167E+03  0.20584350058E+03  0.00000000000E+00 0. -1.
<scales pt_clust_3="95.66601" pt_clust_4="14000.00000" pt_clust_5="41.60086" pt_clust_6="34.90401"></scales>
<clustering>
<clus scale="   41.601">  1  5  2 -1</clus>
<clus scale="   34.904">  1  6  2 -1</clus>
<clus scale="   95.666">  2  3  1 -1</clus>
<clus scale="   41.601">  1  3  2 -1</clus>
</clustering>
</event>
<event>
 6    0  0.8641190E+002  0.9390463E+02  0.7546771E-02  0.1293662E+00
         21   -1    0    0  506  501  0.00000000000E+00  0.00000000000E+00  0.30461740866E+03  0.30461740866E+03  0.00000000000E+00 0.  1.
         21   -1    0    0  503  502 -0.00000000000E+00 -0.00000000000E+00 -0.23372650744E+03  0.23372650744E+03  0.00000000000E+00 0.  1.
         21    1    1    2  503  504  0.14508527849E+01  0.96111405996E+02 -0.18312005899E+03  0.20681504621E+03  0.00000000000E+00 0.  1.
         21    1    1    2  504  505 -0.36610829916E+01 -0.77537081200E+02  0.69888662586E+02  0.10445012038E+03  0.00000000000E+00 0.  1.
         21    1    1    2  505  501 -0.57940207410E+02 -0.35901569217E+02  0.11616209135E+03  0.13468341313E+03  0.00000000000E+00 0.  1.
         21    1    1    2  506  502  0.60150437617E+02  0.17327244422E+02  0.67960206278E+02  0.92395336366E+02  0.00000000000E+00 0.  1.
<scales pt_clust_3="93.90463" pt_clust_4="14000.00000" pt_clust_5="35.76590" pt_clust_6="62.59639"></scales>
<clustering>
<clus scale="   62.596">  1  6  2 -1</clus>
<clus scale="   35.766">  1  5  2 -1</clus>
<clus scale="   93.905">  2  3  1 -1</clus>
<clus scale="   62.596">  1  3  2 -1</clus>
</clustering>
</event>
<event>
 6    0  0.8641190E+002  0.1314360E+03  0.7546771E-02  0.1225340E+00
         21   -1    0    0  506  501  0.00000000000E+00  0.00000000000E+00  0.42469868503E+03  0.42469868503E+03  0.00000000000E+00 0. -1.
         21   -1    0    0  505  502 -0.00000000000E+00 -0.00000000000E+00 -0.13065883132E+03  0.13065883132E+03  0.00000000000E+00 0.  1.
         21    1    1    2  503  502 -0.11728835458E+03  0.32016976791E+02  0.92212822740E+02  0.15259374037E+03  0.00000000000E+00 0.  1.
         21    1    1    2  504  501  0.88280300100E+02 -0.12078090356E+03  0.22944383894E+03  0.27390858562E+03  0.00000000000E+00 0. -1.
         21    1    1    2  505  504 -0.14772420858E+00  0.76688125284E+02 -0.48753068374E+02  0.90873274717E+02  0.00000000000E+00 0.  1.
         21    1    1    2  506  503  0.29155778690E+02  0.12075801483E+02  0.21136260408E+02  0.37981915651E+02  0.00000000000E+00 0.  1.
<scales pt_clust_3="14000.00000" pt_clust_4="131.43602" pt_clust_5="77.34452" pt_clust_6="31.55764"></scales>
<clustering>
<clus scale="   31.558">  1  6  2 -1</clus>
<clus scale="   77.345">  2  5  1 -1</clus>
<clus scale="  131.436">  1  4  2 -1</clus>
<clus scale="   31.558">  1  3  2 -1</clus>
</clustering>
</event>
<event>
 6    0  0.8641190E+002  0.1121033E+03  0.7546771E-02  0.1256724E+00
         21   -1    0    0  505  501  0.00000000000E+00  0.00000000000E+00  0.17288949435E+02  0.17288949435E+02  0.00000000000E+00 0.  1.
         21   -1    0    0  503  502 -0.00000000000E+00 -0.00000000000E+00 -0.29475231512E+04  0.29475231512E+04  0.00000000000E+00 0.  1.
         21    1    1    2  503  501 -0.64750918683E+02  0.42283441251E+02 -0.35597498367E+03  0.36427840984E+03  0.00000000000E+00 0.  1.
         21    1    1    2  504  506  0.58719678743E+02  0.10537875698E+03 -0.50252526731E+03  0.51680201952E+03  0.00000000000E+00 0.  1.
         21    1    1    2  505  504 -0.11305684263E+02 -0.34058615838E+02 -0.69641250832E+02  0.78343548726E+02  0.00000000000E+00 0.  1.
         21    1    1    2  506  502  0.17336924203E+02 -0.11360358239E+03 -0.20020926999E+04  0.20053881225E+04  0.00000000000E+00 0.  1.
<scales pt_clust_3="75.22468" pt_clust_4="14000.00000" pt_clust_5="35.88604" pt_clust_6="112.10327"></scales>
<clustering>
<clus scale="   35.886">  1  5  2 -1</clus>
<clus scale="   75.225">  1  3  2 -1</clus>
<clus scale="  112.103">  2  6  1 -1</clus>
<clus scale="   35.886">  1  3  2 -1</clus>
</clustering>
</event>
<event>
 6    0  0.8641190E+002  0.1295627E+03  0.7546771E-02  0.1228106E+00
         21   -1    0    0  505  501  0.00000000000E+00  0.00000000000E+00  0.12258571966E+03  0.12258571966E+03  0.00000000000E+00 0. -1.
         21   -1    0    0  503  502 -0.00000000000E+00 -0.00000000000E+00 -0.12594864741E+04  0.12594864741E+04  0.00000000000E+00 0.  1.
         21    1    1    2  503  506 -0.29480064964E+02  0.14281540166E+03 -0.32066495512E+02  0.14931032555E+03  0.00000000000E+00 0. -1.
         21    1    1    2  504  502  0.40598609958E+02 -0.21884526747E+02 -0.10825174432E+04  0.10834995129E+04  0.00000000000E+00 0.  1.
         21    1    1    2  505  504  0.19214100572E+02 -0.11481755547E+03 -0.20990415719E+02  0.11829137863E+03  0.00000000000E+00 0. -1.
         21    1    1    2  506  501 -0.30332645566E+02 -0.61133194411E+01 -0.13264000533E+01  0.30970976716E+02  0.00000000000E+00 0. -1.
<scales pt_clust_3="129.56266" pt_clust_4="46.01300" pt_clust_5="14000.00000" pt_clust_6="30.94256"></scales>
<clustering>
<clus scale="   30.943">  1  6  2 -1</clus>
<clus scale="   46.013">  2  4  1 -1</clus>
<clus scale="  129.563">  2  3  1 -1</clus>
<clus scale="   30.943">  1  3  2 -1</clus>
</clustering>
</event>
<event>
 6    0  0.8641190E+002  0.1453888E+03  0.7546771E-02  0.1206257E+00
         21   -1    0    0  503  501  0.00000000000E+00  0.00000000000E+00  0.14019103810E+03  0.14019103810E+03  0.00000000000E+00 0.  1.
         21   -1    0    0  505  502 -0.00000000000E+00 -0.00000000000E+00 -0.30586670170E+03  0.30586670170E+03  0.00000000000E+00 0.  1.
         21    1    1    2  503  504 -0.92712027750E+02 -0.11911949680E+02 -0.34740661070E+02  0.99721252331E+02  0.00000000000E+00 0.  1.
         21    1    1    2  504  502 -0.12691821790E+02  0.11680236848E+03  0.28115707965E+02  0.12080715483E+03  0.00000000000E+00 0.  1.
         21    1    1    2  505  506  0.37349821143E+02 -0.51711507887E+02 -0.10734297996E+03  0.12486634669E+03  0.00000000000E+00 0.  1.
         21    1    1    2  506  501  0.68054028397E+02 -0.53178910912E+02 -0.51707730531E+02  0.10066298597E+03  0.00000000000E+00 0.  1.
<scales pt_clust_3="93.47414" pt_clust_4="132.97938" pt_clust_5="50.51079" pt_clust_6="50.51079"></scales>
<clustering>
<clus scale="   50.511">  5  6 -1 -1</clus>
<clus scale="   93.474">  1  3  2 -1</clus>
<clus scale="  132.979">  1  4  2 -1</clus>
<clus scale="   93.474">  1  3  2 -1</clus>
</clustering>
</event>
<event>
 6    0  0.8641190E+002  0.8911985E+02  0.7546771E-02  0.1304997E+00
         21   -1    0    0  504  501  0.00000000000E+00  0.00000000000E+00  0.71826181276E+02  0.71826181276E+02  0.00000000000E+00 0. -1.
         21   -1    0    0  505  502 -0.00000000000E+00 -0.00000000000E+00 -0.12722833411E+04  0.12722833411E+04  0.00000000000E+00 0.  1.
         21    1    1    2  503  502 -0.30761045798E+02  0.95694863374E+02 -0.65861722024E+03  0.66624349274E+03  0.00000000000E+00 0.  1.
         21    1    1    2  504  506  0.53070446928E+02  0.29930042514E+02  0.42894719606E+02  0.74513332714E+02  0.00000000000E+00 0. -1.
         21    1    1    2  505  501  0.19459162338E+02 -0.33419654803E+02 -0.83797274693E+02  0.92290387214E+02  0.00000000000E+00 0.  1.
         21    1    1    2  506  503 -0.41768563468E+02 -0.92205251085E+02 -0.50093738449E+03  0.51106230970E+03  0.00000000000E+00 0.  1.
<scales pt_clust_3="14000.00000" pt_clust_4="60.93778" pt_clust_5="38.67211" pt_clust_6="89.11985"></scales>
<clustering>
<clus scale="   38.672">  2  5  1 -1</clus>
<clus scale="   60.938">  1  4  2 -1</clus>
<clus scale="   89.120">  1  6  2 -1</clus>
<clus scale="   60.938">  1  3  2 -1</clus>
</clustering>
</event>
<event>
 6    0  0.8641190E+002  0.1351836E+03  0.7546771E-02  0.1219961E+00
         21   -1    0    0  505  501  0.00000000000E+00  0.00000000000E+00  0.50242589201E+03  0.50242589201E+03  0.00000000000E+00 0. -1.
         21   -1    0    0  504  502 -0.00000000000E+00 -0.00000000000E+00 -0.10518230377E+03  0.10518230377E+03  0.00000000000E+00 0.  1.
         21    1    1    2  503  501  0.15186430719E+02 -0.61694223303E+02  0.16633287851E+02  0.65677021337E+02  0.00000000000E+00 0.  1.
         21    1    1    2  504  506  0.28961461412E+01  0.32765061760E+02 -0.11183618552E+02  0.34742053171E+02  0.00000000000E+00 0.  1.
         21    1    1    2  505  502 -0.75069522049E+02  0.10163409905E+03  0.39504028014E+03  0.41475504356E+03  0.00000000000E+00 0. -1.
         21    1    1    2  506  503  0.56986945189E+02 -0.72704937505E+02 -0.32463611954E+01  0.92434077702E+02  0.00000000000E+00 0.  1.
<scales pt_clust_3="32.62736" pt_clust_4="32.89281" pt_clust_5="129.33224" pt_clust_6="32.62736"></scales>
<clustering>
<clus scale="   32.627">  3  6 -1 -1</clus>
<clus scale="   32.893">  2  4  1 -1</clus>
<clus scale="  129.332">  1  5  2 -1</clus>
<clus scale="  129.332">  1  3  2 -1</clus>
</clustering>
</event>
<event>
 6    0  0.8641190E+002  0.1165184E+03  0.7546771E-02  0.1248954E+00
         21   -1    0    0  503  501  0.00000000000E+00  0.00000000000E+00  0.19110569672E+03  0.19110569672E+03  0.00000000000E+00 0.  1.
         21   -1    0    0  506  502 -0.00000000000E+00 -0.00000000000E+00 -0.50215408629E+03  0.50215408629E+03  0.00000000000E+00 0.  1.
         21    1    1    2  503  504  0.81993020938E+01  0.43875843403E+02  0.59888205258E+01  0.45035365664E+02  0.00000000000E+00 0. -1.
         21    1    1    2  504  502 -0.18915248592E+02  0.11052808486E+03 -0.11036666338E+03  0.15733735907E+03  0.00000000000E+00 0.  1.
         21    1    1    2  505  501  0.39251329985E+02 -0.14484530540E+03  0.10155092255E+03  0.18119994281E+03  0.00000000000E+00 0.  1.
         21    1    1    2  506  505 -0.28535383487E+02 -0.95586228629E+01 -0.30822146925E+03  0.30968711548E+03  0.00000000000E+00 0.  1.
<scales pt_clust_3="43.23793" pt_clust_4="14000.00000" pt_clust_5="116.51841" pt_clust_6="30.09378"></scales>
<clustering>
<clus scale="   30.094">  2  6  1 -1</clus>
<clus scale="   43.238">  1  3  2 -1</clus>
<clus scale="  116.518">  1  5  2 -1</clus>
<clus scale="   43.238">  1  3  2 -1</clus>
</clustering>
</event>
<event>
 6    0  0.8641190E+002  0.1941421E+03  0.7546771E-02  0.1154778E+00
         21   -1    0    0  506  501  0.00000000000E+00  0.00000000000E+00  0.73827996323E+02  0.73827996323E+02  0.00000000000E+00 0.  1.
         21   -1    0    0  503  502 -0.00000000000E+00 -0.00000000000E+00 -0.68742998474E+03  0.68742998474E+03  0.00000000000E+00 0.  1.
         21    1    1    2  503  505  0.24808627869E+01 -0.76632037399E+02 -0.14194102184E+03  0.16132537778E+03  0.00000000000E+00 0.  1.
         21    1    1    2  504  502 -0.74879287519E+02  0.15786303975E+03 -0.25522080900E+03  0.30929808981E+03  0.00000000000E+00 0.  1.
         21    1    1    2  505  501  0.38925039208E+02 -0.12908544728E+03 -0.16233852332E+03  0.21102608259E+03  0.00000000000E+00 0.  1.
         21    1    1    2  506  504  0.33473385524E+02  0.47854444930E+02 -0.54101634260E+02  0.79608430883E+02  0.00000000000E+00 0.  1.
<scales pt_clust_3="33.93833" pt_clust_4="188.85374" pt_clust_5="33.93833" pt_clust_6="58.39962"></scales>
<clustering>
<clus scale="   33.938">  3  5 -1 -1</clus>
<clus scale="   58.400">  1  6  2 -1</clus>
<clus scale="  188.854">  2  4  1 -1</clus>
<clus scale="   58.400">  1  3  2 -1</clus>
</clustering>
</event>
<event>
 6    0  0.8641190E+002  0.9944348E+02  0.7546771E-02  0.1281471E+00
         21   -1    0    0  505  501  0.00000000000E+00  0.00000000000E+00  0.11820353532E+03  0.11820353532E+03  0.00000000000E+00 0.  1.
         21   -1    0    0  504  502 -0.00000000000E+00 -0.00000000000E+00 -0.87077573023E+03  0.87077573023E+03  0.00000000000E+00 0.  1.
         21    1    1    2  503  501 -0.73796808446E+02  0.67448692524E+02 -0.41610531996E+02  0.10829003386E+03  0.00000000000E+00 0.  1.
         21    1    1    2  504  503 -0.50402363602E+02  0.98222801601E+00 -0.70457998492E+02  0.86635400271E+02  0.00000000000E+00 0.  1.
         21    1    1    2  505  506  0.45901419358E+02 -0.90231674519E+02  0.39898546283E+02  0.10881447230E+03  0.00000000000E+00 0.  1.
         21    1    1    2  506  502  0.78297752690E+02  0.21800753979E+02 -0.68040221071E+03  0.68523935912E+03  0.00000000000E+00 0.  1.
<scales pt_clust_3="99.44348" pt_clust_4="50.41193" pt_clust_5="14000.00000" pt_clust_6="41.56736"></scales>
<clustering>
<clus scale="   50.412">  2  4  1 -1</clus>
<clus scale="   41.567">  2  6  1 -1</clus>
<clus scale="   99.443">  2  3  1 -1</clus>
<clus scale="   99.443">  1  3  2 -1</clus>
</clustering>
</event>
<event>
 6    0  0.8641190E+002  0.1784603E+03  0.7546771E-02  0.1169302E+00
         21   -1    0    0  506  501  0.00000000000E+00  0.00000000000E+00  0.15879238112E+03  0.15879238112E+03  0.00000000000E+00 0. -1.
         21   -1    0    0  504  502 -0.00000000000E+00 -0.00000000000E+00 -0.36632676924E+03  0.36632676924E+03  0.00000000000E+00 0. -1.
         21    1    1    2  503  502 -0.82434347138E+02  0.49268641692E+02  0.12710288854E+02  0.96872968805E+02  0.00000000000E+00 0. -1.
         21    1    1    2  504  505 -0.36695011520E+01 -0.37958287677E+02 -0.15729607645E+03  0.16185287303E+03  0.00000000000E+00 0. -1.
         21    1    1    2  505  501  0.14325482755E+03 -0.81560325054E+02 -0.61127176355E+02  0.17581400379E+03  0.00000000000E+00 0. -1.
         21    1    1    2  506  503 -0.57150979261E+02  0.70249971038E+02 -0.18214241674E+01  0.90579304741E+02  0.00000000000E+00 0. -1.
<scales pt_clust_3="34.34691" pt_clust_4="38.13524" pt_clust_5="174.92009" pt_clust_6="34.34691"></scales>
<clustering>
<clus scale="   34.347">  3  6 -1 -1</clus>
<clus scale="   38.135">  2  4  1 -1</clus>
<clus scale="  174.920">  2  5  1 -1</clus>
<clus scale="  178.460">  1  3  2 -1</clus>
</clustering>
</event>
<event>
 6    0  0.8641190E+002  0.1017774E+03  0.7546771E-02  0.1276602E+00
         21   -1    0    0  503  501  0.00000000000E+00  0.00000000000E+00  0.68354714015E+03  0.68354714015E+03  0.00000000000E+00 0.  1.
         21   -1    0    0  504  502 -0.00000000000E+00 -0.00000000000E+00 -0.38817872018E+03  0.38817872018E+03  0.00000000000E+00 0.  1.
         21    1    1    2  503  502 -0.47874748717E+02 -0.14639982006E+02 -0.11538540165E+03  0.12577802492E+03  0.00000000000E+00 0.  1.
         21    1    1    2  504  506  0.32986295134E+02  0.54062410634E+02 -0.21990057393E+03  0.22883859448E+03  0.00000000000E+00 0.  1.
         21    1    1    2  505  501  0.12613787664E+02 -0.10512395764E+03  0.64176141616E+03  0.65043667592E+03  0.00000000000E+00 0.  1.
         21    1    1    2  506  505  0.22746659194E+01  0.65701529008E+02 -0.11107020614E+02  0.66672565017E+02  0.00000000000E+00 0.  1.
<scales pt_clust_3="50.06317" pt_clust_4="42.39546" pt_clust_5="14000.00000" pt_clust_6="101.77742"></scales>
<clustering>
<clus scale="   50.063">  2  3  1 -1</clus>
<clus scale="   42.395">  2  4  1 -1</clus>
<clus scale="  101.777">  2  6  1 -1</clus>
<clus scale="  101.777">  1  3  2 -1</clus>
</clustering>
</event>
<event>
 6    0  0.8641190E+002  0.1094515E+03  0.7546771E-02  0.1261589E+00
         21   -1    0    0  505  501  0.00000000000E+00  0.00000000000E+00  0.11588772761E+03  0.11588772761E+03  0.00000000000E+00 0. -1.
         21   -1    0    0  504  502 -0.00000000000E+00 -0.00000000000E+00 -0.19589366614E+04  0.19589366614E+04  0.00000000000E+00 0. -1.
         21    1    1    2  503  502 -0.54232976374E+02 -0.99586885807E+02 -0.54777123497E+02  0.12593370006E+03  0.00000000000E+00 0. -1.
         21    1    1    2  504  506 -0.45486552737E+02  0.57425300952E+02 -0.17403316987E+04  0.17418728751E+04  0.00000000000E+00 0. -1.
         21    1    1    2  505  503  0.29840443642E+02  0.10355487530E+03 -0.17727619414E+02  0.10921690696E+03  0.00000000000E+00 0. -1.
         21    1    1    2  506  501  0.69879085468E+02 -0.61393290445E+02 -0.30212492182E+02  0.97800906854E+02  0.00000000000E+00 0. -1.
<scales pt_clust_3="14000.00000" pt_clust_4="73.25771" pt_clust_5="109.45149" pt_clust_6="71.94316"></scales>
<clustering>
<clus scale="   73.258">  2  4  1 -1</clus>
<clus scale="   71.943">  2  6  1 -1</clus>
<clus scale="  109.451">  1  5  2 -1</clus>
<clus scale="  109.451">  1  3  2 -1</clus>
</clustering>
</event>
<event>
 6    0  0.8641190E+002  0.6444113E+02  0.7546771E-02  0.1380086E+00
         21   -1    0    0  506  501  0.00000000000E+00  0.00000000000E+00  0.10822969248E+04  0.10822969248E+04  0.00000000000E+00 0. -1.
         21   -1    0    0  503  502 -0.00000000000E+00 -0.00000000000E+00 -0.69206171485E+02  0.69206171485E+02  0.00000000000E+00 0. -1.
         21    1    1    2  503  504 -0.46360701132E+02  0.10062881293E+02 -0.47139515341E+02  0.66878323065E+02  0.00000000000E+00 0. -1.
         21    1    1    2  504  505  0.80447770643E+02 -0.20650748671E+02  0.24681318828E+03  0.26041322380E+03  0.00000000000E+00 0. -1.
         21    1    1    2  505  501  0.48493777027E+02  0.46451806925E+01  0.36218510304E+03  0.36544667597E+03  0.00000000000E+00 0. -1.
         21    1    1    2  506  502 -0.82580846538E+02  0.59426866852E+01  0.45123197738E+03  0.45876487350E+03  0.00000000000E+00 0. -1.
<scales pt_clust_3="47.44024" pt_clust_4="14000.00000" pt_clust_5="42.71744" pt_clust_6="64.44113"></scales>
<clustering>
<clus scale="   47.440">  2  3  1 -1</clus>
<clus scale="   42.717">  1  5  2 -1</clus>
<clus scale="   64.441">  1  6  2 -1</clus>
<clus scale="   42.717">  1  3  2 -1</clus>
</clustering>
</event>
<event>
 6    0  0.8641190E+002  0.1682115E+03  0.7546771E-02  0.1179726E+00
         21   -1    0    0  503  501  0.00000000000E+00  0.00000000000E+00  0.11947021722E+03  0.11947021722E+03  0.00000000000E+00 0. -1.
         21   -1    0    0  506  502 -0.00000000000E+00 -0.00000000000E+00 -0.49909283912E+03  0.49909283912E+03  0.00000000000E+00 0.  1.
         21    1    1    2  503  504  0.14352531843E+03 -0.31035690632E+01 -0.32458813756E+02  0.14718262045E+03  0.00000000000E+00 0.  1.
         21    1    1    2  504  502  0.60942296066E+02 -0.48164257396E+01 -0.21721031478E+03  0.22564902449E+03  0.00000000000E+00 0.  1.
         21    1    1    2  505  501 -0.90407567602E+02 -0.15689632275E+02 -0.50529789756E+02  0.10475186153E+03  0.00000000000E+00 0. -1.
         21    1    1    2  506  505 -0.11406004690E+03  0.23609627078E+02 -0.79423703615E+02  0.14097954988E+03  0.00000000000E+00 0. -1.
<scales pt_clust_3="163.30597" pt_clust_4="61.13233" pt_clust_5="35.79320" pt_clust_6="35.79320"></scales>
<clustering>
<clus scale="   35.793">  5  6 -1 -1</clus>
<clus scale="   61.132">  2  4  1 -1</clus>
<clus scale="  163.306">  1  3  2 -1</clus>
<clus scale="  163.306">  1  3  2 -1</clus>
</clustering>
</event>
<event>
 6    0  0.8641190E+002  0.1180514E+03  0.7546771E-02  0.1246347E+00
         21   -1    0    0  506  501  0.00000000000E+00  0.00000000000E+00  0.12834513988E+03  0.12834513988E+03  0.00000000000E+00 0. -1.
         21   -1    0    0  505  502 -0.00000000000E+00 -0.00000000000E+00 -0.18967873470E+03  0.18967873470E+03  0.00000000000E+00 0.  1.
         21    1    1    2  503  501 -0.10600846693E+02  0.75395341077E+02 -0.26958005177E+02  0.80768616738E+02  0.00000000000E+00 0. -1.
         21    1    1    2  504  502  0.20980927372E+02 -0.94455700725E+02 -0.32780402860E+02  0.10215984301E+03  0.00000000000E+00 0. -1.
         21    1    1    2  505  503 -0.21193098200E+02  0.49413172447E+02 -0.52307481658E+02  0.75012543351E+02  0.00000000000E+00 0.  1.
         21    1    1    2  506  504  0.10813017521E+02 -0.30352812799E+02  0.50712294878E+02  0.60082871474E+02  0.00000000000E+00 0. -1.
<scales pt_clust_3="31.40608" pt_clust_4="111.97943" pt_clust_5="31.40608" pt_clust_6="32.22134"></scales>
<clustering>
<clus scale="   31.406">  3  5 -1 -1</clus>
<clus scale="   32.221">  1  6  2 -1</clus>
<clus scale="  111.979">  2  4  1 -1</clus>
<clus scale="   32.221">  1  3  2 -1</clus>
</clustering>
</event>
<event>
 6    0  0.8641190E+002  0.1146103E+03  0.7546771E-02  0.1252263E+00
         21   -1    0    0  504  501  0.00000000000E+00  0.00000000000E+00  0.65751289376E+02  0.65751289376E+02  0.00000000000E+00 0. -1.
         21   -1    0    0  503  502 -0.00000000000E+00 -0.00000000000E+00 -0.53752723752E+03  0.53752723752E+03  0.00000000000E+00 0. -1.
         21    1    1    2  503  501  0.65649502765E+02 -0.18579970860E+02 -0.64067844526E+02  0.93593596110E+02  0.00000000000E+00 0. -1.
         21    1    1    2  504  505 -0.17998926149E+02 -0.37686299918E+02  0.13044114513E+02  0.43753485203E+02  0.00000000000E+00 0. -1.
         21    1    1    2  505  506 -0.10243455952E+02 -0.49702210612E+02 -0.29148411079E+02  0.58522371774E+02  0.00000000000E+00 0. -1.
         21    1    1    2  506  502 -0.37407120665E+02  0.10596848139E+03 -0.39160380705E+03  0.40740907381E+03  0.00000000000E+00 0. -1.
<scales pt_clust_3="68.22809" pt_clust_4="38.13004" pt_clust_5="38.13004" pt_clust_6="106.62500"></scales>
<clustering>
<clus scale="   38.130">  4  5 -1 -1</clus>
<clus scale="   68.228">  1  3  2 -1</clus>
<clus scale="  106.625">  2  6  1 -1</clus>
<clus scale="   68.228">  1  3  2 -1</clus>
</clustering>
</event>
<event>
 6    0  0.8641190E+002  0.5339366E+02  0.7546771E-02  0.1427852E+00
         21   -1    0    0  506  501  0.00000000000E+00  0.00000000000E+00  0.37172429850E+03  0.37172429850E+03  0.00000000000E+00 0.  1.
         21   -1    0    0  505  502 -0.00000000000E+00 -0.00000000000E+00 -0.37946845699E+03  0.37946845699E+03  0.00000000000E+00 0.  1.
         21    1    1    2  503  502 -0.61485767024E+02 -0.61186689071E+02 -0.21326655141E+03  0.23023234442E+03  0.00000000000E+00 0.  1.
         21    1    1    2  504  501 -0.50845834160E+02  0.12794411109E+02  0.32544028275E+03  0.32963672951E+03  0.00000000000E+00 0.  1.
         21    1    1    2  505  504  0.23884260247E+02  0.42255268426E+02 -0.81149756192E+02  0.94558175359E+02  0.00000000000E+00 0.  1.
         21    1    1    2  506  503  0.88447340937E+02  0.61370095351E+01 -0.38768133635E+02  0.96765506202E+02  0.00000000000E+00 0.  1.
<scales pt_clust_3="52.16448" pt_clust_4="53.39366" pt_clust_5="48.53829" pt_clust_6="14000.00000"></scales>
<clustering>
<clus scale="   48.538">  2  5  1 -1</clus>
<clus scale="   52.164">  2  3  1 -1</clus>
<clus scale="   53.394">  1  4  2 -1</clus>
<clus scale="   53.394">  1  3  2 -1</clus>
</clustering>
</event>
<event>
 6    0  0.8641190E+002  0.1644617E+03  0.7546771E-02  0.1183750E+00
         21   -1    0    0  504  501  0.00000000000E+00  0.00000000000E+00  0.91550015746E+03  0.91550015746E+03  0.00000000000E+00 0.  1.
         21   -1    0    0  505  502 -0.00000000000E+00 -0.00000000000E+00 -0.91381927235E+02  0.91381927235E+02  0.00000000000E+00 0.  1.
         21    1    1    2  503  502 -0.14122241565E+03 -0.64909726725E+02  0.20345407398E+03  0.25602852092E+03  0.00000000000E+00 0.  1.
         21    1    1    2  504  503  0.25001526639E+02 -0.47041739907E+02  0.40893776294E+03  0.41239313232E+03  0.00000000000E+00 0.  1.
         21    1    1    2  505  506  0.40098298673E+01 -0.35223959873E+02 -0.20931800911E+02  0.41169726427E+02  0.00000000000E+00 0.  1.
         21    1    1    2  506  501  0.11221105914E+03  0.14717542650E+03  0.23265819422E+03  0.29729070503E+03  0.00000000000E+00 0.  1.
<scales pt_clust_3="164.46174" pt_clust_4="54.21878" pt_clust_5="35.45146" pt_clust_6="14000.00000"></scales>
<clustering>
<clus scale="   35.451">  2  5  1 -1</clus>
<clus scale="   54.219">  1  4  2 -1</clus>
<clus scale="  164.462">  1  3  2 -1</clus>
<clus scale="   54.219">  1  3  2 -1</clus>
</clustering>
</event>
<event>
 6    0  0.8641190E+002  0.8400411E+02  0.7546771E-02  0.1318058E+00
         21   -1    0    0  503  501  0.00000000000E+00  0.00000000000E+00  0.21070220826E+04  0.21070220826E+04  0.00000000000E+00 0. -1.
         21   -1    0    0  504  502 -0.00000000000E+00 -0.00000000000E+00 -0.23381911994E+02  0.23381911994E+02  0.00000000000E+00 0. -1.
         21    1    1    2  503  506 -0.72805141308E+01 -0.11224897782E+03  0.33007539087E+03  0.34871564715E+03  0.00000000000E+00 0. -1.
         21    1    1    2  504  505 -0.20041388349E+02  0.93382835521E+02  0.81969588937E+03  0.82524139636E+03  0.00000000000E+00 0. -1.
         21    1    1    2  505  501 -0.72749608182E+01 -0.29259221881E+02  0.86524618010E+03  0.86577132044E+03  0.00000000000E+00 0. -1.
         21    1    1    2  506  502  0.34596863298E+02  0.48125364178E+02  0.68622710233E+02  0.90675630613E+02  0.00000000000E+00 0. -1.
<scales pt_clust_3="84.00411" pt_clust_4="14000.00000" pt_clust_5="30.15008" pt_clust_6="57.47840"></scales>
<clustering>
<clus scale="   30.150">  1  5  2 -1</clus>
<clus scale="   57.478">  2  6  1 -1</clus>
<clus scale="   84.004">  2  3  1 -1</clus>
<clus scale="   30.150">  1  3  2 -1</clus>
</clustering>
</event>
<event>
 6    0  0.8641190E+002  0.1335698E+03  0.7546771E-02  0.1222253E+00
         21   -1    0    0  506  501  0.00000000000E+00  0.00000000000E+00  0.40768679615E+03  0.40768679615E+03  0.00000000000E+00 0. -1.
         21   -1    0    0  503  502 -0.00000000000E+00 -0.00000000000E+00 -0.10865901567E+04  0.10865901567E+04  0.00000000000E+00 0. -1.
         21    1    1    2  503  505  0.18307090730E+02  0.43491737785E+02 -0.50995177711E+03  0.51213035040E+03  0.00000000000E+00 0. -1.
         21    1    1    2  504  501  0.47086809907E+02 -0.19439386091E+02  0.17080155255E+01  0.50970331722E+02  0.00000000000E+00 0.  1.
         21    1    1    2  505  504  0.10194093332E+03  0.18768967169E+02 -0.52598068915E+03  0.53609692535E+03  0.00000000000E+00 0. -1.
         21    1    1    2  506  502 -0.16733483396E+03 -0.42821318863E+02  0.35532109019E+03  0.39507934537E+03  0.00000000000E+00 0. -1.
<scales pt_clust_3="47.18772" pt_clust_4="50.99563" pt_clust_5="133.56975" pt_clust_6="14000.00000"></scales>
<clustering>
<clus scale="   47.188">  2  3  1 -1</clus>
<clus scale="   50.996">  1  4  2 -1</clus>
<clus scale="  133.570">  2  5  1 -1</clus>
<clus scale="   50.996">  1  3  2 -1</clus>
</clustering>
</event>
<event>
 6    0  0.8641190E+002  0.1432377E+03  0.7546771E-02  0.1209038E+00
         21   -1    0    0  505  501  0.00000000000E+00  0.00000000000E+00  0.13353829836E+04  0.13353829836E+04  0.00000000000E+00 0. -1.
         21   -1    0    0  503  502 -0.00000000000E+00 -0.00000000000E+00 -0.73533851095E+02  0.73533851095E+02  0.00000000000E+00 0. -1.
         21    1    1    2  503  501 -0.48890524397E+01  0.94085763519E+02  0.32580000935E+03  0.33914846281E+03  0.00000000000E+00 0. -1.
         21    1    1    2  504  502 -0.99431337838E+02 -0.96279458442E+02  0.12529422276E+02  0.13897234072E+03  0.00000000000E+00 0. -1.
         21    1    1    2  505  506  0.66418742131E+02 -0.11616867445E+02  0.73055033279E+03  0.73365536163E+03  0.00000000000E+00 0. -1.
         21    1    1    2  506  504  0.37901648147E+02  0.13810562368E+02  0.19296936810E+03  0.19714066955E+03  0.00000000000E+00 0. -1.
<scales pt_clust_3="94.21270" pt_clust_4="133.83570" pt_clust_5="39.47812" pt_clust_6="39.47812"></scales>
<clustering>
<clus scale="   39.478">  5  6 -1 -1</clus>
<clus scale="   94.213">  1  3  2 -1</clus>
<clus scale="  133.836">  2  4  1 -1</clus>
<clus scale="   94.213">  1  3  2 -1</clus>
</clustering>
</event>
<event>
 6    0  0.8641190E+002  0.1431534E+03  0.7546771E-02  0.1209148E+00
         21   -1    0    0  502  501  0.00000000000E+00  0.00000000000E+00  0.10299493364E+03  0.10299493364E+03  0.00000000000E+00 0.  1.
         21   -1    0    0  505  502 -0.00000000000E+00 -0.00000000000E+00 -0.24550251888E+03  0.24550251888E+03  0.00000000000E+00 0.  1.
         21    1    1    2  503  506 -0.66312872357E+02 -0.13196871011E+02 -0.14873129053E+02  0.69229794255E+02  0.00000000000E+00 0.  1.
         21    1    1    2  504  503  0.49254379887E+02 -0.57425771286E+00 -0.22850815760E+02  0.54299940063E+02  0.00000000000E+00 0.  1.
         21    1    1    2  505  504  0.85138688585E+02  0.43802735244E+01 -0.12680742480E+03  0.15280021622E+03  0.00000000000E+00 0.  1.
         21    1    1    2  506  501 -0.68080196115E+02  0.93908551996E+01  0.22023784381E+02  0.72167501986E+02  0.00000000000E+00 0.  1.
<scales pt_clust_3="42.84739" pt_clust_4="37.36942" pt_clust_5="37.36942" pt_clust_6="141.21637"></scales>
<clustering>
<clus scale="   37.369">  4  5 -1 -1</clus>
<clus scale="   42.847">  3  6 -1 -1</clus>
<clus scale="  141.216">  1  3  2 -1</clus>
<clus scale="  141.216">  1  3  2 -1</clus>
</clustering>
</event>
<event>
 6    0  0.8641190E+002  0.9642297E+02  0.7546771E-02  0.1288003E+00
         21   -1    0    0  504  501  0.00000000000E+00  0.00000000000E+00  0.54834055287E+03  0.54834055287E+03  0.00000000000E+00 0.  1.
         21   -1    0    0  506  502 -0.00000000000E+00 -0.00000000000E+00 -0.13935810224E+03  0.13935810224E+03  0.00000000000E+00 0.  1.
         21    1    1    2  503  505  0.75752778953E+02  0.49761799022E+02  0.50365617878E+02  0.10368903329E+03  0.00000000000E+00 0.  1.
         21    1    1    2  504  502 -0.11673300238E+03  0.15982655872E+02  0.18865009826E+03  0.22242054470E+03  0.00000000000E+00 0.  1.
         21    1    1    2  505  501  0.77589931749E+02 -0.43889652407E+02  0.25300189680E+03  0.26824701095E+03  0.00000000000E+00 0.  1.
         21    1    1    2  506  503 -0.36609708325E+02 -0.21854802487E+02 -0.83035162312E+02  0.93342066163E+02  0.00000000000E+00 0.  1.
<scales pt_clust_3="68.44650" pt_clust_4="96.42297" pt_clust_5="14000.00000" pt_clust_6="42.63688"></scales>
<clustering>
<clus scale="   42.637">  2  6  1 -1</clus>
<clus scale="   68.447">  2  3  1 -1</clus>
<clus scale="   96.423">  2  4  1 -1</clus>
<clus scale="   96.423">  1  3  2 -1</clus>
</clustering>
</event>
<event>
 6    0  0.8641190E+002  0.6873127E+02  0.7546771E-02  0.1364461E+00
         21   -1    0    0  504  501  0.00000000000E+00  0.00000000000E+00  0.31089588671E+03  0.31089588671E+03  0.00000000000E+00 0. -1.
         21   -1    0    0  503  502 -0.00000000000E+00 -0.00000000000E+00 -0.13219838837E+04  0.13219838837E+04  0.00000000000E+00 0.  1.
         21    1    1    2  503  501 -0.17535771125E+02 -0.57878500100E+02 -0.71265271008E+02  0.93467442966E+02  0.00000000000E+00 0.  1.
         21    1    1    2  504  505  0.22955957904E+02  0.25378814809E+02  0.25721574015E+03  0.25948217131E+03  0.00000000000E+00 0. -1.
         21    1    1    2  505  506  0.48473222111E+02  0.74546912963E+02 -0.83875728579E+01  0.89315434683E+02  0.00000000000E+00 0.  1.
         21    1    1    2  506  502 -0.53893408890E+02 -0.42047227673E+02 -0.11886508933E+04  0.11906147215E+04  0.00000000000E+00 0.  1.
<scales pt_clust_3="54.02747" pt_clust_4="34.22076" pt_clust_5="14000.00000" pt_clust_6="68.73127"></scales>
<clustering>
<clus scale="   34.221">  1  4  2 -1</clus>
<clus scale="   54.027">  1  3  2 -1</clus>
<clus scale="   68.731">  2  6  1 -1</clus>
<clus scale="   34.221">  1  3  2 -1</clus>
</clustering>
</event>
<event>
 6    0  0.8641190E+002  0.1562100E+03  0.7546771E-02  0.1193043E+00
         21   -1    0    0  505  501  0.00000000000E+00  0.00000000000E+00  0.13874136140E+02  0.13874136140E+02  0.00000000000E+00 0. -1.
         21   -1    0    0  506  502 -0.00000000000E+00 -0.00000000000E+00 -0.22604802705E+04  0.22604802705E+04  0.00000000000E+00 0. -1.
         21    1    1    2  503  501 -0.51287554721E+02  0.73158402784E+01 -0.14100029028E+03  0.15021656582E+03  0.00000000000E+00 0. -1.
         21    1    1    2  504  502  0.86682358764E+02  0.70776465325E+02 -0.13481071333E+04  0.13527438716E+04  0.00000000000E+00 0. -1.
         21    1    1    2  505  504  0.35362886316E+02 -0.53114810835E+01 -0.33360262924E+03  0.33551372520E+03  0.00000000000E+00 0.  1.
         21    1    1    2  506  503 -0.70757690360E+02 -0.72780824520E+02 -0.42389608158E+03  0.43588024404E+03  0.00000000000E+00 0. -1.
<scales pt_clust_3="51.61970" pt_clust_4="148.54625" pt_clust_5="30.36420" pt_clust_6="51.61970"></scales>
<clustering>
<clus scale="   30.364">  4  5 -1 -1</clus>
<clus scale="   51.620">  3  6 -1 -1</clus>
<clus scale="  148.546">  2  4  1 -1</clus>
<clus scale="  156.210">  1  3  2 -1</clus>
</clustering>
</event>
<event>
 6    0  0.8641190E+002  0.8145948E+02  0.7546771E-02  0.1324960E+00
         21   -1    0    0  503  501  0.00000000000E+00  0.00000000000E+00  0.16670098274E+04  0.16670098274E+04  0.00000000000E+00 0. -1.
         21   -1    0    0  504  502 -0.00000000000E+00 -0.00000000000E+00 -0.34733491000E+02  0.34733491000E+02  0.00000000000E+00 0. -1.
         21    1    1    2  503  505 -0.66993971575E+02  0.15174002593E+02  0.45527524437E+03  0.46042805162E+03  0.00000000000E+00 0. -1.
         21    1    1    2  504  506  0.61977974927E+02  0.56062395421E+02  0.36576224058E+02  0.91225444491E+02  0.00000000000E+00 0. -1.
         21    1    1    2  505  502 -0.25220117419E+02 -0.74605187616E+02  0.33662068081E+03  0.34571009689E+03  0.00000000000E+00 0. -1.
         21    1    1    2  506  501  0.30236114067E+02  0.33687896022E+01  0.80380418717E+03  0.80437972541E+03  0.00000000000E+00 0.  1.
<scales pt_clust_3="53.70017" pt_clust_4="14000.00000" pt_clust_5="81.45948" pt_clust_6="30.42320"></scales>
<clustering>
<clus scale="   30.423">  1  6  2 -1</clus>
<clus scale="   53.700">  1  3  2 -1</clus>
<clus scale="   81.459">  1  5  2 -1</clus>
<clus scale="   30.423">  1  3  2 -1</clus>
</clustering>
</event>
<event>
 6    0  0.8641190E+002  0.8373632E+02  0.7546771E-02  0.1318771E+00
         21   -1    0    0  505  501  0.00000000000E+00  0.00000000000E+00  0.33457389993E+03  0.33457389993E+03  0.00000000000E+00 0.  1.
         21   -1    0    0  506  502 -0.00000000000E+00 -0.00000000000E+00 -0.31450689580E+03  0.31450689580E+03  0.00000000000E+00 0.  1.
         21    1    1    2  503  501  0.14518483303E+03 -0.25792517697E+02  0.76930920733E+02  0.16631974109E+03  0.00000000000E+00 0.  1.
         21    1    1    2  504  502 -0.44368821109E+02  0.42542183868E+01 -0.26171788441E+02  0.51688037020E+02  0.00000000000E+00 0.  1.
         21    1    1    2  505  504 -0.73970745982E+02 -0.91865848336E+01  0.19132802536E+03  0.20533503815E+03  0.00000000000E+00 0.  1.
         21    1    1    2  506  503 -0.26845265934E+02  0.30724884143E+02 -0.22202015352E+03  0.22573797948E+03  0.00000000000E+00 0.  1.
<scales pt_clust_3="83.73632" pt_clust_4="58.56143" pt_clust_5="14000.00000" pt_clust_6="40.80057"></scales>
<clustering>
<clus scale="   40.801">  2  6  1 -1</clus>
<clus scale="   58.561">  2  4  1 -1</clus>
<clus scale="   83.736">  2  3  1 -1</clus>
<clus scale="   83.736">  1  3  2 -1</clus>
</clustering>
</event>
<event>
 6    0  0.8641190E+002  0.9013917E+02  0.7546771E-02  0.1302515E+00
         21   -1    0    0  506  501  0.00000000000E+00  0.00000000000E+00  0.52168609490E+03  0.52168609490E+03  0.00000000000E+00 0. -1.
         21   -1    0    0  503  502 -0.00000000000E+00 -0.00000000000E+00 -0.15373151735E+03  0.15373151735E+03  0.00000000000E+00 0. -1.
         21    1    1    2  503  501 -0.24306995093E+02  0.92470398669E+02  0.16284111226E+02  0.96988540142E+02  0.00000000000E+00 0. -1.
         21    1    1    2  504  502 -0.17870997279E+02 -0.28194217968E+02 -0.88532186319E+02  0.94616248525E+02  0.00000000000E+00 0. -1.
         21    1    1    2  505  504  0.40683122668E+02 -0.12739740683E+03  0.25179185289E+03  0.28510410892E+03  0.00000000000E+00 0. -1.
         21    1    1    2  506  505  0.14948697040E+01  0.63121226132E+02  0.18841079975E+03  0.19870871467E+03  0.00000000000E+00 0. -1.
<scales pt_clust_3="90.13917" pt_clust_4="33.38093" pt_clust_5="14000.00000" pt_clust_6="60.78569"></scales>
<clustering>
<clus scale="   33.381">  2  4  1 -1</clus>
<clus scale="   60.786">  1  6  2 -1</clus>
<clus scale="   90.139">  2  3  1 -1</clus>
<clus scale="   60.786">  1  3  2 -1</clus>
</clustering>
</event>
<event>
 6    0  0.8641190E+002  0.1001325E+03  0.7546771E-02  0.1280018E+00
         21   -1    0    0  504  501  0.00000000000E+00  0.00000000000E+00  0.49028833063E+03  0.49028833063E+03  0.00000000000E+00 0. -1.
         21   -1    0    0  505  502 -0.00000000000E+00 -0.00000000000E+00 -0.50445316709E+03  0.50445316709E+03  0.00000000000E+00 0. -1.
         21    1    1    2  503  501  0.48398262686E+02  0.81773430308E+01  0.42515000831E+03  0.42797405334E+03  0.00000000000E+00 0. -1.
         21    1    1    2  504  506 -0.12462432913E+03  0.81748751601E+02 -0.10205843628E+03  0.18063777627E+03  0.00000000000E+00 0. -1.
         21    1    1    2  505  503  0.64182358055E+01 -0.83418645429E+02 -0.67760032257E+02  0.10766283541E+03  0.00000000000E+00 0. -1.
         21    1    1    2  506  502  0.69807830640E+02 -0.65074492026E+01 -0.26949637623E+03  0.27846683270E+03  0.00000000000E+00 0. -1.
<scales pt_clust_3="49.08422" pt_clust_4="100.13249" pt_clust_5="14000.00000" pt_clust_6="73.45414"></scales>
<clustering>
<clus scale="   49.084">  1  3  2 -1</clus>
<clus scale="   73.454">  2  6  1 -1</clus>
<clus scale="  100.132">  2  4  1 -1</clus>
<clus scale="   49.084">  1  3  2 -1</clus>
</clustering>
</event>
<event>
 6    0  0.8641190E+002  0.1188577E+03  0.7546771E-02  0.1244993E+00
         21   -1    0    0  506  501  0.00000000000E+00  0.00000000000E+00  0.40048315747E+03  0.40048315747E+03  0.00000000000E+00 0.  1.
         21   -1    0    0  504  502 -0.00000000000E+00 -0.00000000000E+00 -0.17375477767E+03  0.17375477767E+03  0.00000000000E+00 0.  1.
         21    1    1    2  503  505  0.23107660088E+02 -0.62072528059E+02  0.82058724129E+02  0.10545424079E+03  0.00000000000E+00 0.  1.
         21    1    1    2  504  503  0.39629154848E+02 -0.10708362958E+03 -0.98275714740E+02  0.15065022318E+03  0.00000000000E+00 0.  1.
         21    1    1    2  505  501 -0.35463757738E+02  0.57070233651E+01  0.22625095276E+02  0.42451656797E+02  0.00000000000E+00 0.  1.
         21    1    1    2  506  502 -0.27273057198E+02  0.16344913427E+03  0.22032027513E+03  0.27568181438E+03  0.00000000000E+00 0.  1.
<scales pt_clust_3="62.23002" pt_clust_4="118.85771" pt_clust_5="35.92003" pt_clust_6="14000.00000"></scales>
<clustering>
<clus scale="   35.920">  1  5  2 -1</clus>
<clus scale="   62.230">  1  3  2 -1</clus>
<clus scale="  118.858">  2  4  1 -1</clus>
<clus scale="   35.920">  1  3  2 -1</clus>
</clustering>
</event>
<event>
 6    0  0.8641190E+002  0.1204991E+03  0.7546771E-02  0.1242276E+00
         21   -1    0    0  503  501  0.00000000000E+00  0.00000000000E+00  0.13394020293E+03  0.13394020293E+03  0.00000000000E+00 0.  1.
         21   -1    0    0  504  502 -0.00000000000E+00 -0.00000000000E+00 -0.42994529115E+03  0.42994529115E+03  0.00000000000E+00 0. -1.
         21    1    1    2  503  505 -0.10807750016E+02 -0.52828783639E+02 -0.18550345941E+03  0.19318183479E+03  0.00000000000E+00 0. -1.
         21    1    1    2  504  506  0.54032310777E+02  0.56212825930E+02 -0.32981668929E+02  0.84659098106E+02  0.00000000000E+00 0. -1.
         21    1    1    2  505  502 -0.53507120229E+02 -0.58341507840E+02 -0.16455029602E+03  0.18260214503E+03  0.00000000000E+00 0. -1.
         21    1    1    2  506  501  0.10282559468E+02  0.54957465550E+02  0.87030336136E+02  0.10344241614E+03  0.00000000000E+00 0.  1.
<scales pt_clust_3="38.54141" pt_clust_4="111.08245" pt_clust_5="38.54141" pt_clust_6="55.91113"></scales>
<clustering>
<clus scale="   38.541">  3  5 -1 -1</clus>
<clus scale="   55.911">  1  6  2 -1</clus>
<clus scale="  111.082">  1  4  2 -1</clus>
<clus scale="   55.911">  1  3  2 -1</clus>
</clustering>
</event>
<event>
 6    0  0.8641190E+002  0.7794174E+02  0.7546771E-02  0.1334996E+00
         21   -1    0    0  506  501  0.00000000000E+00  0.00000000000E+00  0.10131826231E+04  0.10131826231E+04  0.00000000000E+00 0.  1.
         21   -1    0    0  504  502 -0.00000000000E+00 -0.00000000000E+00 -0.91637961632E+02  0.91637961632E+02  0.00000000000E+00 0.  1.
         21    1    1    2  503  505 -0.65336251629E+02  0.83439952208E+02  0.27168652064E+03  0.29162410205E+03  0.00000000000E+00 0. -1.
         21    1    1    2  504  501  0.40647704782E+02 -0.39382310057E+02  0.10651872119E+03  0.12062106041E+03  0.00000000000E+00 0.  1.
         21    1    1    2  505  502  0.51249239349E+02  0.11129402845E+01 -0.64551890386E+02  0.82429786620E+02  0.00000000000E+00 0.  1.
         21    1    1    2  506  503 -0.26560692502E+02 -0.45170582436E+02  0.60789131001E+03  0.61014563564E+03  0.00000000000E+00 0.  1.
<scales pt_clust_3="14000.00000" pt_clust_4="77.94174" pt_clust_5="51.26132" pt_clust_6="50.80007"></scales>
<clustering>
<clus scale="   51.261">  2  5  1 -1</clus>
<clus scale="   50.800">  1  6  2 -1</clus>
<clus scale="   77.942">  2  4  1 -1</clus>
<clus scale="   50.800">  1  3  2 -1</clus>
</clustering>
</event>
<event>
 6    0  0.8641190E+002  0.2264278E+03  0.7546771E-02  0.1129180E+00
         21   -1    0    0  504  501  0.00000000000E+00  0.00000000000E+00  0.31279858408E+03  0.31279858408E+03  0.00000000000E+00 0. -1.
         21   -1    0    0  503  502 -0.00000000000E+00 -0.00000000000E+00 -0.30368728131E+03  0.30368728131E+03  0.00000000000E+00 0. -1.
         21    1    1    2  503  501 -0.11028081171E+03  0.19062509120E+02 -0.83736461135E+02  0.13977493198E+03  0.00000000000E+00 0. -1.
         21    1    1    2  504  506  0.11950252432E+03  0.19467515317E+03  0.10677127038E+03  0.25214950478E+03  0.00000000000E+00 0. -1.
         21    1    1    2  505  502 -0.16389442792E+02 -0.10565522750E+03 -0.38229689409E+02  0.11354800785E+03  0.00000000000E+00 0. -1.
         21    1    1    2  506  505  0.71677301887E+01 -0.10808243479E+03  0.24306182930E+02  0.11101342079E+03  0.00000000000E+00 0. -1.
<scales pt_clust_3="111.91620" pt_clust_4="216.34322" pt_clust_5="66.38819" pt_clust_6="66.38819"></scales>
<clustering>
<clus scale="   66.388">  5  6 -1 -1</clus>
<clus scale="  111.916">  2  3  1 -1</clus>
<clus scale="  216.343">  1  4  2 -1</clus>
<clus scale="  216.343">  1  3  2 -1</clus>
</clustering>
</event>
<event>
 6    0  0.8641190E+002  0.2289377E+03  0.7546771E-02  0.1127390E+00
         21   -1    0    0  506  501  0.00000000000E+00  0.00000000000E+00  0.64742807816E+02  0.64742807816E+02  0.00000000000E+00 0.  1.
         21   -1    0    0  503  502 -0.00000000000E+00 -0.00000000000E+00 -0.14209671482E+04  0.14209671482E+04  0.00000000000E+00 0. -1.
         21    1    1    2  503  501 -0.15439864780E+03  0.14164899969E+03 -0.27536875115E+03  0.34602215343E+03  0.00000000000E+00 0.  1.
         21    1    1    2  504  505  0.10223357583E+03 -0.66690788125E+02 -0.34379162580E+03  0.36481782744E+03  0.00000000000E+00 0. -1.
         21    1    1    2  505  502 -0.65802270108E+02 -0.10131347152E+02 -0.48096320258E+03  0.48554936431E+03  0.00000000000E+00 0.  1.
         21    1    1    2  506  504  0.11796734207E+03 -0.64826864414E+02 -0.25610076088E+03  0.28932061086E+03  0.00000000000E+00 0. -1.
<scales pt_clust_3="223.99011" pt_clust_4="45.07847" pt_clust_5="66.57765" pt_clust_6="45.07847"></scales>
<clustering>
<clus scale="   45.078">  4  6 -1 -1</clus>
<clus scale="   66.578">  2  5  1 -1</clus>
<clus scale="  223.990">  1  3  2 -1</clus>
<clus scale="  223.990">  1  3  2 -1</clus>
</clustering>
</event>
<event>
 6    0  0.8641190E+002  0.1113847E+03  0.7546771E-02  0.1258027E+00
         21   -1    0    0  503  501  0.00000000000E+00  0.00000000000E+00  0.91786323721E+02  0.91786323721E+02  0.00000000000E+00 0. -1.
         21   -1    0    0  504  502 -0.00000000000E+00 -0.00000000000E+00 -0.20135907423E+04  0.20135907423E+04  0.00000000000E+00 0. -1.
         21    1    1    2  503  502 -0.60681437891E+02 -0.69051662556E+02 -0.87927949778E+03  0.88407171894E+03  0.00000000000E+00 0. -1.
         21    1    1    2  504  505  0.16805109393E+02 -0.44698386723E+02 -0.10587367405E+04  0.10598131171E+04  0.00000000000E+00 0. -1.
         21    1    1    2  505  506  0.61629955557E+01  0.79348168571E+02 -0.36988548755E+02  0.87762560974E+02  0.00000000000E+00 0.  1.
         21    1    1    2  506  501  0.37713332942E+02  0.34401880708E+02  0.53200368503E+02  0.73729668972E+02  0.00000000000E+00 0. -1.
<scales pt_clust_3="111.38470" pt_clust_4="47.75309" pt_clust_5="14000.00000" pt_clust_6="50.85866"></scales>
<clustering>
<clus scale="   47.753">  2  4  1 -1</clus>
<clus scale="   50.859">  1  6  2 -1</clus>
<clus scale="  111.385">  2  3  1 -1</clus>
<clus scale="   50.859">  1  3  2 -1</clus>
</clustering>
</event>
<event>
 6    0  0.8641190E+002  0.1534058E+03  0.7546771E-02  0.1196349E+00
         21   -1    0    0  503  501  0.00000000000E+00  0.00000000000E+00  0.74123117345E+03  0.74123117345E+03  0.00000000000E+00 0.  1.
         21   -1    0    0  506  502 -0.00000000000E+00 -0.00000000000E+00 -0.57718336063E+03  0.57718336063E+03  0.00000000000E+00 0.  1.
         21    1    1    2  503  504 -0.55371132414E+02 -0.28594032216E+02  0.12360536677E+02  0.63532384263E+02  0.00000000000E+00 0.  1.
         21    1    1    2  504  505  0.35799715587E+02 -0.76891835668E+01 -0.73989047026E+02  0.82553753760E+02  0.00000000000E+00 0.  1.
         21    1    1    2  505  502  0.10186856201E+03  0.44322903722E+02 -0.46430466890E+03  0.47741025260E+03  0.00000000000E+00 0.  1.
         21    1    1    2  506  501 -0.82297145179E+02 -0.80396879394E+01  0.68998099207E+03  0.69491814346E+03  0.00000000000E+00 0.  1.
<scales pt_clust_3="62.31838" pt_clust_4="33.98875" pt_clust_5="33.98875" pt_clust_6="141.52154"></scales>
<clustering>
<clus scale="   33.989">  4  5 -1 -1</clus>
<clus scale="   62.318">  1  3  2 -1</clus>
<clus scale="  141.522">  1  6  2 -1</clus>
<clus scale="   62.318">  1  3  2 -1</clus>
</clustering>
</event>
<event>
 6    0  0.8641190E+002  0.1006196E+03  0.7546771E-02  0.1278998E+00
         21   -1    0    0  505  501  0.00000000000E+00  0.00000000000E+00  0.36554781764E+03  0.36554781764E+03  0.00000000000E+00 0. -1.
         21   -1    0    0  503  502 -0.00000000000E+00 -0.00000000000E+00 -0.86996574419E+02  0.86996574419E+02  0.00000000000E+00 0. -1.
         21    1    1    2  503  504 -0.47744484941E+02 -0.79013274195E+02 -0.11140210431E+02  0.92987835923E+02  0.00000000000E+00 0. -1.
         21    1    1    2  504  506  0.41858156989E+02  0.79954443546E+02  0.19455112610E+03  0.21446435372E+03  0.00000000000E+00 0. -1.
         21    1    1    2  505  502 -0.46639956465E+02  0.11471269246E+02  0.18753499025E+02  0.51561315759E+02  0.00000000000E+00 0. -1.
         21    1    1    2  506  501  0.52526284417E+02 -0.12412438597E+02  0.76386828527E+02  0.93530886658E+02  0.00000000000E+00 0.  1.
<scales pt_clust_3="100.61955" pt_clust_4="14000.00000" pt_clust_5="48.02994" pt_clust_6="48.14097"></scales>
<clustering>
<clus scale="   48.030">  2  5  1 -1</clus>
<clus scale="   48.141">  1  6  2 -1</clus>
<clus scale="  100.620">  2  3  1 -1</clus>
<clus scale="   48.141">  1  3  2 -1</clus>
</clustering>
</event>
<event>
 6    0  0.8641190E+002  0.6680475E+02  0.7546771E-02  0.1371309E+00
         21   -1    0    0  506  501  0.00000000000E+00  0.00000000000E+00  0.14119866808E+03  0.14119866808E+03  0.00000000000E+00 0.  1.
         21   -1    0    0  504  502 -0.00000000000E+00 -0.00000000000E+00 -0.30782446904E+03  0.30782446904E+03  0.00000000000E+00 0.  1.
         21    1    1    2  503  502 -0.36222062611E+02  0.59694955062E+02 -0.10079194525E+03  0.12261542198E+03  0.00000000000E+00 0.  1.
         21    1    1    2  504  501  0.99164982027E+01 -0.32811755605E+02  0.70229259251E+02  0.78147918062E+02  0.00000000000E+00 0.  1.
         21    1    1    2  505  503 -0.28196769675E+02 -0.77401948100E+02 -0.15141745182E+03  0.17237564824E+03  0.00000000000E+00 0. -1.
         21    1    1    2  506  505  0.54502334083E+02  0.50518748643E+02  0.15354336852E+02  0.75884148839E+02  0.00000000000E+00 0.  1.
<scales pt_clust_3="64.43448" pt_clust_4="34.27752" pt_clust_5="66.80475" pt_clust_6="14000.00000"></scales>
<clustering>
<clus scale="   34.278">  1  4  2 -1</clus>
<clus scale="   64.434">  2  3  1 -1</clus>
<clus scale="   66.805">  2  5  1 -1</clus>
<clus scale="   34.278">  1  3  2 -1</clus>
</clustering>
</event>
<event>
 6    0  0.8641190E+002  0.8584662E+02  0.7546771E-02  0.1313233E+00
         21   -1    0    0  503  501  0.00000000000E+00  0.00000000000E+00  0.75133873024E+03  0.75133873024E+03  0.00000000000E+00 0. -1.
         21   -1    0    0  506  502 -0.00000000000E+00 -0.00000000000E+00 -0.41531509147E+03  0.41531509147E+03  0.00000000000E+00 0.  1.
         21    1    1    2  503  504  0.41963071919E+02 -0.28288283695E+02  0.66253604876E+03  0.66446605806E+03  0.00000000000E+00 0. -1.
         21    1    1    2  504  505 -0.10742718003E+03 -0.55589574410E+01 -0.36343306659E+03  0.37901859441E+03  0.00000000000E+00 0.  1.
         21    1    1    2  505  502  0.37857253156E+02  0.59947067623E+02  0.10329010394E+01  0.70907611846E+02  0.00000000000E+00 0. -1.
         21    1    1    2  506  501  0.27606854957E+02 -0.26099826488E+02  0.35887755555E+02  0.52261557402E+02  0.00000000000E+00 0. -1.
<scales pt_clust_3="85.84662" pt_clust_4="14000.00000" pt_clust_5="70.55293" pt_clust_6="37.99131"></scales>
<clustering>
<clus scale="   37.991">  1  6  2 -1</clus>
<clus scale="   70.553">  2  5  1 -1</clus>
<clus scale="   85.847">  1  3  2 -1</clus>
<clus scale="   37.991">  1  3  2 -1</clus>
</clustering>
</event>
<event>
 6    0  0.8641190E+002  0.7725326E+02  0.7546771E-02  0.1337032E+00
         21   -1    0    0  506  501  0.00000000000E+00  0.00000000000E+00  0.71035768768E+03  0.71035768768E+03  0.00000000000E+00 0.  1.
         21   -1    0    0  505  502 -0.00000000000E+00 -0.00000000000E+00 -0.57675910403E+02  0.57675910403E+02  0.00000000000E+00 0.  1.
         21    1    1    2  503  504 -0.71910232710E+02 -0.47424951834E+02  0.18254849479E+03  0.20185182827E+03  0.00000000000E+00 0.  1.
         21    1    1    2  504  502  0.46864400983E+02 -0.69355690776E+02  0.14078593523E+02  0.84880449564E+02  0.00000000000E+00 0.  1.
         21    1    1    2  505  501  0.48910940298E+02  0.52962856315E+02  0.13445151858E+03  0.15256000485E+03  0.00000000000E+00 0.  1.
         21    1    1    2  506  503 -0.23865108571E+02  0.63817786295E+02  0.32160317038E+03  0.32874131540E+03  0.00000000000E+00 0.  1.
<scales pt_clust_3="77.25326" pt_clust_4="75.22380" pt_clust_5="14000.00000" pt_clust_6="68.13408"></scales>
<clustering>
<clus scale="   68.134">  1  6  2 -1</clus>
<clus scale="   75.224">  2  4  1 -1</clus>
<clus scale="   77.253">  1  3  2 -1</clus>
<clus scale="   68.134">  1  3  2 -1</clus>
</clustering>
</event>
<event>
 6    0  0.8641190E+002  0.1263161E+03  0.7546771E-02  0.1233027E+00
         21   -1    0    0  504  501  0.00000000000E+00  0.00000000000E+00  0.69501126001E+03  0.69501126001E+03  0.00000000000E+00 0.  1.
         21   -1    0    0  505  502 -0.00000000000E+00 -0.00000000000E+00 -0.43018887191E+02  0.43018887191E+02  0.00000000000E+00 0.  1.
         21    1    1    2  503  506 -0.63985723173E+02  0.31792362960E+02  0.13366681327E+03  0.15156432325E+03  0.00000000000E+00 0.  1.
         21    1    1    2  504  502  0.97701821292E+02 -0.52240591070E+02  0.13277147186E+03  0.17292480730E+03  0.00000000000E+00 0.  1.
         21    1    1    2  505  503 -0.67606498858E+02  0.18578717949E+02  0.81119890531E+02  0.10722053949E+03  0.00000000000E+00 0.  1.
         21    1    1    2  506  501  0.33890400739E+02  0.18695101605E+01  0.30443419716E+03  0.30632047717E+03  0.00000000000E+00 0.  1.
<scales pt_clust_3="31.05072" pt_clust_4="122.36515" pt_clust_5="31.05072" pt_clust_6="33.94193"></scales>
<clustering>
<clus scale="   31.051">  3  5 -1 -1</clus>
<clus scale="   33.942">  1  6  2 -1</clus>
<clus scale="  122.365">  2  4  1 -1</clus>
<clus scale="   33.942">  1  3  2 -1</clus>
</clustering>
</event>
<event>
 6    0  0.8641190E+002  0.7039849E+02  0.7546771E-02  0.1358743E+00
         21   -1    0    0  506  501  0.00000000000E+00  0.00000000000E+00  0.13119629225E+04  0.13119629225E+04  0.00000000000E+00 0. -1.
         21   -1    0    0  504  502 -0.00000000000E+00 -0.00000000000E+00 -0.15192752738E+03  0.15192752738E+03  0.00000000000E+00 0. -1.
         21    1    1    2  503  501  0.17902999154E+02  0.48743437681E+02  0.10625942839E+04  0.10638623277E+04  0.00000000000E+00 0. -1.
         21    1    1    2  504  505  0.38625666371E+02  0.20135558756E+02 -0.14219229430E+02  0.45821057546E+02  0.00000000000E+00 0. -1.
         21    1    1    2  505  503 -0.67079202726E+02 -0.10391576244E+03  0.21308687518E+03  0.24638206407E+03  0.00000000000E+00 0. -1.
         21    1    1    2  506  502  0.10550537201E+02  0.35036766008E+02 -0.10142653462E+03  0.10782500049E+03  0.00000000000E+00 0. -1.
<scales pt_clust_3="52.41685" pt_clust_4="70.39849" pt_clust_5="14000.00000" pt_clust_6="36.59083"></scales>
<clustering>
<clus scale="   36.591">  2  6  1 -1</clus>
<clus scale="   52.417">  1  3  2 -1</clus>
<clus scale="   70.398">  2  4  1 -1</clus>
<clus scale="   52.417">  1  3  2 -1</clus>
</clustering>
</event>
<event>
 6    0  0.8641190E+002  0.9412242E+02  0.7546771E-02  0.1293165E+00
         21   -1    0    0  504  501  0.00000000000E+00  0.00000000000E+00  0.11886461810E+03  0.11886461810E+03  0.00000000000E+00 0.  1.
         21   -1    0    0  506  502 -0.00000000000E+00 -0.00000000000E+00 -0.56754134943E+03  0.56754134943E+03  0.00000000000E+00 0.  1.
         21    1    1    2  503  502 -0.50505600725E+02 -0.11000830029E+03 -0.26677665813E+03  0.29295465035E+03  0.00000000000E+00 0.  1.
         21    1    1    2  504  503 -0.25343051429E+02 -0.38180898013E+02  0.65550886554E+02  0.79981059988E+02  0.00000000000E+00 0.  1.
         21    1    1    2  505  501  0.50135815004E+02  0.10200920471E+03 -0.83024087604E+02  0.14075680060E+03  0.00000000000E+00 0.  1.
         21    1    1    2  506  505  0.25712837150E+02  0.46179993595E+02 -0.16442687215E+03  0.17271345660E+03  0.00000000000E+00 0.  1.
<scales pt_clust_3="14000.00000" pt_clust_4="45.82632" pt_clust_5="94.12242" pt_clust_6="48.75060"></scales>
<clustering>
<clus scale="   45.826">  1  4  2 -1</clus>
<clus scale="   48.751">  2  6  1 -1</clus>
<clus scale="   94.122">  1  5  2 -1</clus>
<clus scale="   45.826">  1  3  2 -1</clus>
</clustering>
</event>
<event>
 6    0  0.8641190E+002  0.1254306E+03  0.7546771E-02  0.1234398E+00
         21   -1    0    0  505  501  0.00000000000E+00  0.00000000000E+00  0.10569011805E+04  0.10569011805E+04  0.00000000000E+00 0. -1.
         21   -1    0    0  503  502 -0.00000000000E+00 -0.00000000000E+00 -0.36733323021E+02  0.36733323021E+02  0.00000000000E+00 0. -1.
         21    1    1    2  503  506  0.26448900286E+02 -0.10309137441E+03  0.16925326251E+03  0.19993509615E+03  0.00000000000E+00 0. -1.
         21    1    1    2  504  502 -0.10531855121E+01  0.65590741911E+02  0.80234963446E+02  0.10363833260E+03  0.00000000000E+00 0.  1.
         21    1    1    2  505  504 -0.18646210023E+02  0.74368674895E+02  0.15195224838E+03  0.17019949101E+03  0.00000000000E+00 0. -1.
         21    1    1    2  506  501 -0.67495047514E+01 -0.36868042397E+02  0.61872738314E+03  0.61986158375E+03  0.00000000000E+00 0. -1.
<scales pt_clust_3="120.96808" pt_clust_4="30.67198" pt_clust_5="30.67198" pt_clust_6="37.48077"></scales>
<clustering>
<clus scale="   30.672">  4  5 -1 -1</clus>
<clus scale="   37.481">  1  6  2 -1</clus>
<clus scale="  120.968">  2  3  1 -1</clus>
<clus scale="   37.481">  1  3  2 -1</clus>
</clustering>
</event>
<event>
 6    0  0.8641190E+002  0.9079515E+02  0.7546771E-02  0.1300937E+00
         21   -1    0    0  505  501  0.00000000000E+00  0.00000000000E+00  0.73353629508E+03  0.73353629508E+03  0.00000000000E+00 0. -1.
         21   -1    0    0  503  502 -0.00000000000E+00 -0.00000000000E+00 -0.74986716799E+02  0.74986716799E+02  0.00000000000E+00 0. -1.
         21    1    1    2  503  504 -0.86063580016E+01 -0.75825649321E+02 -0.40107130345E+02  0.86210094522E+02  0.00000000000E+00 0. -1.
         21    1    1    2  504  506  0.38557218757E+02  0.34539781354E+02  0.16248208534E+03  0.17052883531E+03  0.00000000000E+00 0. -1.
         21    1    1    2  505  502 -0.44630993457E+02 -0.31070116666E+02  0.17988025470E+03  0.18792068475E+03  0.00000000000E+00 0. -1.
         21    1    1    2  506  501  0.14680132702E+02  0.72355984633E+02  0.35629436858E+03  0.36386339730E+03  0.00000000000E+00 0. -1.
<scales pt_clust_3="77.83721" pt_clust_4="39.14185" pt_clust_5="54.38086" pt_clust_6="39.14185"></scales>
<clustering>
<clus scale="   39.142">  4  6 -1 -1</clus>
<clus scale="   54.381">  1  5  2 -1</clus>
<clus scale="   77.837">  2  3  1 -1</clus>
<clus scale="   54.381">  1  3  2 -1</clus>
</clustering>
</event>
<event>
 6    0  0.8641190E+002  0.8711496E+02  0.7546771E-02  0.1309993E+00
         21   -1    0    0  505  501  0.00000000000E+00  0.00000000000E+00  0.67951508848E+03  0.67951508848E+03  0.00000000000E+00 0. -1.
         21   -1    0    0  503  502 -0.00000000000E+00 -0.00000000000E+00 -0.41666028960E+03  0.41666028960E+03  0.00000000000E+00 0. -1.
         21    1    1    2  503  504 -0.45013067181E+02 -0.66755661303E-01  0.13588969078E+03  0.14315092991E+03  0.00000000000E+00 0.  1.
         21    1    1    2  504  506 -0.68064063019E+01 -0.65213848383E+02  0.84510368140E+02  0.10696343072E+03  0.00000000000E+00 0. -1.
         21    1    1    2  505  502  0.32992369490E+02 -0.30395073995E+02 -0.39516812214E+03  0.39770617511E+03  0.00000000000E+00 0. -1.
         21    1    1    2  506  501  0.18827103993E+02  0.95675678039E+02  0.43762286210E+03  0.44835484233E+03  0.00000000000E+00 0. -1.
<scales pt_clust_3="39.47833" pt_clust_4="87.11496" pt_clust_5="44.85930" pt_clust_6="14000.00000"></scales>
<clustering>
<clus scale="   44.859">  2  5  1 -1</clus>
<clus scale="   39.478">  2  3  1 -1</clus>
<clus scale="   87.115">  2  4  1 -1</clus>
<clus scale="   87.115">  1  3  2 -1</clus>
</clustering>
</event>
<event>
 6    0  0.8641190E+002  0.1004758E+03  0.7546771E-02  0.1279299E+00
         21   -1    0    0  506  501  0.00000000000E+00  0.00000000000E+00  0.16944017510E+03  0.16944017510E+03  0.00000000000E+00 0.  1.
         21   -1    0    0  504  502 -0.00000000000E+00 -0.00000000000E+00 -0.25099269088E+03  0.25099269088E+03  0.00000000000E+00 0.  1.
         21    1    1    2  503  502  0.39945804277E+02 -0.72627007200E+02  0.28247050948E+01  0.82935688416E+02  0.00000000000E+00 0.  1.
         21    1    1    2  504  505 -0.10765265809E+03  0.37766693572E+02 -0.17482884757E+03  0.20875953602E+03  0.00000000000E+00 0.  1.
         21    1    1    2  505  501  0.21068536936E+02  0.27620665887E+02  0.68244305752E+02  0.76577213975E+02  0.00000000000E+00 0.  1.
         21    1    1    2  506  503  0.46638316876E+02  0.72396477414E+01  0.22207320947E+02  0.52160427568E+02  0.00000000000E+00 0.  1.
<scales pt_clust_3="100.47579" pt_clust_4="14000.00000" pt_clust_5="34.73880" pt_clust_6="57.54255"></scales>
<clustering>
<clus scale="   34.739">  1  5  2 -1</clus>
<clus scale="   57.543">  1  6  2 -1</clus>
<clus scale="  100.476">  1  3  2 -1</clus>
<clus scale="   34.739">  1  3  2 -1</clus>
</clustering>
</event>
<event>
 6    0  0.8641190E+002  0.1317143E+03  0.7546771E-02  0.1224934E+00
         21   -1    0    0  505  501  0.00000000000E+00  0.00000000000E+00  0.16759183150E+04  0.16759183150E+04  0.00000000000E+00 0.  1.
         21   -1    0    0  503  502 -0.00000000000E+00 -0.00000000000E+00 -0.25274729341E+03  0.25274729341E+03  0.00000000000E+00 0.  1.
         21    1    1    2  503  506  0.11421488837E+02  0.65437257549E+02 -0.51670401554E+02  0.84156493983E+02  0.00000000000E+00 0.  1.
         21    1    1    2  504  502 -0.11652991210E+03 -0.18643087981E+03 -0.72799181175E+02  0.23159320832E+03  0.00000000000E+00 0.  1.
         21    1    1    2  505  504  0.12305701529E+03  0.44709136719E+02  0.15260122742E+04  0.15316185547E+04  0.00000000000E+00 0.  1.
         21    1    1    2  506  501 -0.17948592025E+02  0.76284485538E+02  0.21628330099E+02  0.81297351448E+02  0.00000000000E+00 0. -1.
<scales pt_clust_3="66.42654" pt_clust_4="14000.00000" pt_clust_5="131.71427" pt_clust_6="88.32753"></scales>
<clustering>
<clus scale="   66.427">  2  3  1 -1</clus>
<clus scale="   88.328">  2  6  1 -1</clus>
<clus scale="  131.714">  1  5  2 -1</clus>
<clus scale="  131.714">  1  3  2 -1</clus>
</clustering>
</event>
<event>
 6    0  0.8641190E+002  0.1127457E+03  0.7546771E-02  0.1255568E+00
         21   -1    0    0  502  501  0.00000000000E+00  0.00000000000E+00  0.10135605168E+04  0.10135605168E+04  0.00000000000E+00 0. -1.
         21   -1    0    0  505  502 -0.00000000000E+00 -0.00000000000E+00 -0.19546824771E+04  0.19546824771E+04  0.00000000000E+00 0.  1.
         21    1    1    2  503  506 -0.52099931492E+02 -0.23565362134E+01  0.17740790760E+03  0.18491490423E+03  0.00000000000E+00 0. -1.
         21    1    1    2  504  501  0.82270855995E+02 -0.66954645633E+02  0.73522350959E+03  0.74283580108E+03  0.00000000000E+00 0. -1.
         21    1    1    2  505  503  0.11708136300E+02  0.40112744792E+02 -0.19399022359E+04  0.19403522354E+04  0.00000000000E+00 0.  1.
         21    1    1    2  506  504 -0.41879060803E+02  0.29198437054E+02  0.86148858331E+02  0.10014005319E+03  0.00000000000E+00 0. -1.
<scales pt_clust_3="42.91189" pt_clust_4="102.32284" pt_clust_5="41.78651" pt_clust_6="42.91189"></scales>
<clustering>
<clus scale="   41.787">  2  5  1 -1</clus>
<clus scale="   42.912">  3  6 -1 -1</clus>
<clus scale="  102.323">  1  4  2 -1</clus>
<clus scale="  102.323">  1  3  2 -1</clus>
</clustering>
</event>
<event>
 6    0  0.8641190E+002  0.1227666E+03  0.7546771E-02  0.1238602E+00
         21   -1    0    0  504  501  0.00000000000E+00  0.00000000000E+00  0.49289760048E+03  0.49289760048E+03  0.00000000000E+00 0. -1.
         21   -1    0    0  503  502 -0.00000000000E+00 -0.00000000000E+00 -0.22226014397E+03  0.22226014397E+03  0.00000000000E+00 0.  1.
         21    1    1    2  503  501  0.77711268988E+02  0.73323431230E+02  0.23482024320E+02  0.10939274364E+03  0.00000000000E+00 0.  1.
         21    1    1    2  504  506  0.12638185474E+02  0.32914774847E+02  0.39264594718E+03  0.39422575508E+03  0.00000000000E+00 0. -1.
         21    1    1    2  505  502  0.30416360740E+01 -0.31734439392E+02 -0.17152052699E+02  0.36201092599E+02  0.00000000000E+00 0. -1.
         21    1    1    2  506  505 -0.93391090536E+02 -0.74503766685E+02 -0.12833846228E+03  0.17533815313E+03  0.00000000000E+00 0.  1.
<scales pt_clust_3="122.76655" pt_clust_4="35.14251" pt_clust_5="31.87987" pt_clust_6="14000.00000"></scales>
<clustering>
<clus scale="   31.880">  2  5  1 -1</clus>
<clus scale="   35.143">  1  4  2 -1</clus>
<clus scale="  122.767">  1  3  2 -1</clus>
<clus scale="   35.143">  1  3  2 -1</clus>
</clustering>
</event>
<event>
 6    0  0.8641190E+002  0.1250662E+03  0.7546771E-02  0.1234966E+00
         21   -1    0    0  503  501  0.00000000000E+00  0.00000000000E+00  0.10234418441E+03  0.10234418441E+03  0.00000000000E+00 0.  1.
         21   -1    0    0  506  502 -0.00000000000E+00 -0.00000000000E+00 -0.38037788258E+03  0.38037788258E+03  0.00000000000E+00 0.  1.
         21    1    1    2  503  504  0.58408659249E+01  0.35058893675E+02 -0.31986630183E+02  0.47816171437E+02  0.00000000000E+00 0.  1.
         21    1    1    2  504  502  0.54740605735E+02  0.39381177618E+02 -0.12814714909E+03  0.14480712306E+03  0.00000000000E+00 0.  1.
         21    1    1    2  505  501 -0.13041518800E+03 -0.10665985834E+02  0.97721865194E+01  0.13121501494E+03  0.00000000000E+00 0.  1.
         21    1    1    2  506  505  0.69833716343E+02 -0.63774085460E+02 -0.12767210541E+03  0.15888375756E+03  0.00000000000E+00 0.  1.
<scales pt_clust_3="34.43265" pt_clust_4="34.43265" pt_clust_5="115.72420" pt_clust_6="94.57210"></scales>
<clustering>
<clus scale="   34.433">  3  4 -1 -1</clus>
<clus scale="   94.572">  2  6  1 -1</clus>
<clus scale="  115.724">  1  5  2 -1</clus>
<clus scale="  115.724">  1  3  2 -1</clus>
</clustering>
</event>
<event>
 6    0  0.8641190E+002  0.1049446E+03  0.7546771E-02  0.1270229E+00
         21   -1    0    0  504  501  0.00000000000E+00  0.00000000000E+00  0.20028493460E+03  0.20028493460E+03  0.00000000000E+00 0.  1.
         21   -1    0    0  503  502 -0.00000000000E+00 -0.00000000000E+00 -0.16616473561E+03  0.16616473561E+03  0.00000000000E+00 0.  1.
         21    1    1    2  503  505  0.99847164689E+02  0.57830271243E+02 -0.35114401620E+02  0.12061018933E+03  0.00000000000E+00 0.  1.
         21    1    1    2  504  506  0.19515540392E+02  0.34350735164E+02  0.29377637907E+02  0.49232864350E+02  0.00000000000E+00 0.  1.
         21    1    1    2  505  501 -0.98616188571E+02 -0.64567060010E+00  0.18205385038E+02  0.10028462286E+03  0.00000000000E+00 0.  1.
         21    1    1    2  506  502 -0.20746516511E+02 -0.91535335807E+02  0.21651577664E+02  0.96321993667E+02  0.00000000000E+00 0.  1.
<scales pt_clust_3="14000.00000" pt_clust_4="39.50733" pt_clust_5="104.94463" pt_clust_6="80.11049"></scales>
<clustering>
<clus scale="   39.507">  1  4  2 -1</clus>
<clus scale="   80.110">  1  6  2 -1</clus>
<clus scale="  104.945">  1  5  2 -1</clus>
<clus scale="   39.507">  1  3  2 -1</clus>
</clustering>
</event>
<event>
 6    0  0.8641190E+002  0.1267957E+03  0.7546771E-02  0.1232289E+00
         21   -1    0    0  506  501  0.00000000000E+00  0.00000000000E+00  0.38546001479E+03  0.38546001479E+03  0.00000000000E+00 0.  1.
         21   -1    0    0  505  502 -0.00000000000E+00 -0.00000000000E+00 -0.21668594731E+03  0.21668594731E+03  0.00000000000E+00 0. -1.
         21    1    1    2  503  502 -0.10207040562E+03  0.55710961679E+02 -0.95372026666E+02  0.15039249457E+03  0.00000000000E+00 0. -1.
         21    1    1    2  504  501  0.57187510161E+02 -0.10013688589E+03  0.13142654476E+03  0.17484491386E+03  0.00000000000E+00 0.  1.
         21    1    1    2  505  504  0.51528648953E+02  0.80165199845E+02 -0.37827108940E+02  0.10253073247E+03  0.00000000000E+00 0. -1.
         21    1    1    2  506  503 -0.66457534969E+01 -0.35739275631E+02  0.17054665833E+03  0.17437782121E+03  0.00000000000E+00 0.  1.
<scales pt_clust_3="126.79570" pt_clust_4="14000.00000" pt_clust_5="90.20969" pt_clust_6="36.35192"></scales>
<clustering>
<clus scale="   36.352">  1  6  2 -1</clus>
<clus scale="   90.210">  2  5  1 -1</clus>
<clus scale="  126.796">  2  3  1 -1</clus>
<clus scale="   36.352">  1  3  2 -1</clus>
</clustering>
</event>
<event>
 6    0  0.8641190E+002  0.8489647E+02  0.7546771E-02  0.1315703E+00
         21   -1    0    0  503  501  0.00000000000E+00  0.00000000000E+00  0.44306207612E+03  0.44306207612E+03  0.00000000000E+00 0.  1.
         21   -1    0    0  505  502 -0.00000000000E+00 -0.00000000000E+00 -0.30232615927E+03  0.30232615927E+03  0.00000000000E+00 0.  1.
         21    1    1    2  503  506  0.82946711599E+02 -0.68798452392E+01  0.32044830440E+03  0.33108096446E+03  0.00000000000E+00 0.  1.
         21    1    1    2  504  502 -0.39361440930E+02  0.75073603347E+02 -0.23915877446E+03  0.25373665158E+03  0.00000000000E+00 0.  1.
         21    1    1    2  505  501 -0.50339554968E+02  0.24542291667E+02  0.26139895857E+02  0.61803632822E+02  0.00000000000E+00 0.  1.
         21    1    1    2  506  504  0.67542842990E+01 -0.92736049775E+02  0.33306491053E+02  0.98766986541E+02  0.00000000000E+00 0.  1.
<scales pt_clust_3="43.87419" pt_clust_4="14000.00000" pt_clust_5="56.00353" pt_clust_6="84.89647"></scales>
<clustering>
<clus scale="   56.004">  1  5  2 -1</clus>
<clus scale="   43.874">  1  3  2 -1</clus>
<clus scale="   84.896">  1  6  2 -1</clus>
<clus scale="   56.004">  1  3  2 -1</clus>
</clustering>
</event>
<event>
 6    0  0.8641190E+002  0.6259637E+02  0.7546771E-02  0.1387248E+00
         21   -1    0    0  505  501  0.00000000000E+00  0.00000000000E+00  0.14586304022E+03  0.14586304022E+03  0.00000000000E+00 0. -1.
         21   -1    0    0  503  502 -0.00000000000E+00 -0.00000000000E+00 -0.33474562520E+03  0.33474562520E+03  0.00000000000E+00 0. -1.
         21    1    1    2  503  506 -0.46618878409E+02 -0.20471659272E+02 -0.10595150539E+03  0.11755054297E+03  0.00000000000E+00 0. -1.
         21    1    1    2  504  501  0.20114561712E+02  0.59523869650E+02  0.10623401828E+03  0.12342347139E+03  0.00000000000E+00 0. -1.
         21    1    1    2  505  502 -0.25579722425E+02  0.38099510663E+02 -0.10312657063E+03  0.11287596946E+03  0.00000000000E+00 0. -1.
         21    1    1    2  506  504  0.52084039122E+02 -0.77151721041E+02 -0.86038527234E+02  0.12675868159E+03  0.00000000000E+00 0. -1.
<scales pt_clust_3="59.25008" pt_clust_4="14000.00000" pt_clust_5="45.89003" pt_clust_6="62.59637"></scales>
<clustering>
<clus scale="   45.890">  2  5  1 -1</clus>
<clus scale="   59.250">  2  3  1 -1</clus>
<clus scale="   62.596">  2  6  1 -1</clus>
<clus scale="   62.596">  1  3  2 -1</clus>
</clustering>
</event>
<event>
 6    0  0.8641190E+002  0.1424146E+03  0.7546771E-02  0.1210116E+00
         21   -1    0    0  505  501  0.00000000000E+00  0.00000000000E+00  0.50966553598E+03  0.50966553598E+03  0.00000000000E+00 0. -1.
         21   -1    0    0  506  502 -0.00000000000E+00 -0.00000000000E+00 -0.87278379751E+02  0.87278379751E+02  0.00000000000E+00 0. -1.
         21    1    1    2  503  502  0.11132261072E+02 -0.48011486028E+02 -0.23251916620E+02  0.54494785564E+02  0.00000000000E+00 0. -1.
         21    1    1    2  504  503  0.18385612383E+02  0.39016118377E+02  0.18655010832E+03  0.19147122799E+03  0.00000000000E+00 0. -1.
         21    1    1    2  505  504  0.10741983587E+02  0.10354042606E+03  0.21556004306E+03  0.23937865862E+03  0.00000000000E+00 0. -1.
         21    1    1    2  506  501 -0.40259857043E+02 -0.94545058404E+02  0.43528921477E+02  0.11159924356E+03  0.00000000000E+00 0. -1.
<scales pt_clust_3="49.28519" pt_clust_4="33.86738" pt_clust_5="33.86738" pt_clust_6="132.33915"></scales>
<clustering>
<clus scale="   33.867">  4  5 -1 -1</clus>
<clus scale="   49.285">  2  3  1 -1</clus>
<clus scale="  132.339">  2  6  1 -1</clus>
<clus scale="  142.415">  1  3  2 -1</clus>
</clustering>
</event>
<event>
 6    0  0.8641190E+002  0.1208524E+03  0.7546771E-02  0.1241697E+00
         21   -1    0    0  503  501  0.00000000000E+00  0.00000000000E+00  0.25979742216E+03  0.25979742216E+03  0.00000000000E+00 0. -1.
         21   -1    0    0  506  502 -0.00000000000E+00 -0.00000000000E+00 -0.13248699191E+03  0.13248699191E+03  0.00000000000E+00 0. -1.
         21    1    1    2  503  502 -0.10073735097E+03 -0.64037355108E+02  0.37457859400E+02  0.12510750562E+03  0.00000000000E+00 0. -1.
         21    1    1    2  504  501 -0.17260874800E+02  0.87472810812E+02  0.10453810005E+03  0.13739594169E+03  0.00000000000E+00 0. -1.
         21    1    1    2  505  504  0.37454282268E+02 -0.29473900587E+02  0.14440151916E+00  0.47660832219E+02  0.00000000000E+00 0. -1.
         21    1    1    2  506  505  0.80543943506E+02  0.60384448830E+01 -0.14829930724E+02  0.82120134543E+02  0.00000000000E+00 0. -1.
<scales pt_clust_3="111.58261" pt_clust_4="89.15958" pt_clust_5="35.65672" pt_clust_6="35.65672"></scales>
<clustering>
<clus scale="   35.657">  5  6 -1 -1</clus>
<clus scale="   89.160">  1  4  2 -1</clus>
<clus scale="  111.583">  1  3  2 -1</clus>
<clus scale="   89.160">  1  3  2 -1</clus>
</clustering>
</event>
<event>
 6    0  0.8641190E+002  0.1104250E+03  0.7546771E-02  0.1259785E+00
         21   -1    0    0  504  501  0.00000000000E+00  0.00000000000E+00  0.21398933312E+03  0.21398933312E+03  0.00000000000E+00 0. -1.
         21   -1    0    0  505  502 -0.00000000000E+00 -0.00000000000E+00 -0.13065502965E+04  0.13065502965E+04  0.00000000000E+00 0.  1.
         21    1    1    2  503  502  0.21907449780E+02 -0.33061472747E+02 -0.60176703917E+03  0.60307260489E+03  0.00000000000E+00 0.  1.
         21    1    1    2  504  503  0.63735752742E+02 -0.67338384675E+02 -0.61317400876E+03  0.62014439387E+03  0.00000000000E+00 0.  1.
         21    1    1    2  505  506 -0.12167515923E+02  0.37381930324E+02 -0.70950049968E+02  0.81113295759E+02  0.00000000000E+00 0. -1.
         21    1    1    2  506  501 -0.73475686599E+02  0.63017927098E+02  0.19333013453E+03  0.21620933508E+03  0.00000000000E+00 0. -1.
<scales pt_clust_3="34.37986" pt_clust_4="34.37986" pt_clust_5="39.31230" pt_clust_6="97.11072"></scales>
<clustering>
<clus scale="   34.380">  3  4 -1 -1</clus>
<clus scale="   39.312">  2  5  1 -1</clus>
<clus scale="   97.111">  1  6  2 -1</clus>
<clus scale="   97.111">  1  3  2 -1</clus>
</clustering>
</event>
<event>
 6    0  0.8641190E+002  0.1310859E+03  0.7546771E-02  0.1225853E+00
         21   -1    0    0  504  501  0.00000000000E+00  0.00000000000E+00  0.77045061026E+02  0.77045061026E+02  0.00000000000E+00 0.  1.
         21   -1    0    0  503  502 -0.00000000000E+00 -0.00000000000E+00 -0.88194267716E+03  0.88194267716E+03  0.00000000000E+00 0.  1.
         21    1    1    2  503  501 -0.10372969347E+03  0.90031159797E+01 -0.61777369481E+02  0.12106753811E+03  0.00000000000E+00 0.  1.
         21    1    1    2  504  506  0.55785434170E+02  0.12084935680E+02 -0.76768030326E+01  0.57593347191E+02  0.00000000000E+00 0.  1.
         21    1    1    2  505  502 -0.29695064085E+02  0.14076414538E+02 -0.67509277439E+03  0.67589214843E+03  0.00000000000E+00 0.  1.
         21    1    1    2  506  505  0.77639323382E+02 -0.35164466198E+02 -0.60350669234E+02  0.10443470446E+03  0.00000000000E+00 0.  1.
<scales pt_clust_3="117.86852" pt_clust_4="49.20193" pt_clust_5="32.86248" pt_clust_6="49.20193"></scales>
<clustering>
<clus scale="   32.862">  2  5  1 -1</clus>
<clus scale="   49.202">  4  6 -1 -1</clus>
<clus scale="  117.869">  1  3  2 -1</clus>
<clus scale="  117.869">  1  3  2 -1</clus>
</clustering>
</event>
<event>
 6    0  0.8641190E+002  0.1354218E+03  0.7546771E-02  0.1219626E+00
         21   -1    0    0  504  501  0.00000000000E+00  0.00000000000E+00  0.97582732315E+03  0.97582732315E+03  0.00000000000E+00 0. -1.
         21   -1    0    0  503  502 -0.00000000000E+00 -0.00000000000E+00 -0.73159246975E+02  0.73159246975E+02  0.00000000000E+00 0. -1.
         21    1    1    2  503  505 -0.81577267110E+02  0.90227855046E+02  0.84773579029E+02  0.14826488471E+03  0.00000000000E+00 0. -1.
         21    1    1    2  504  506  0.15533949104E+03 -0.60315391738E+02  0.60678494133E+03  0.62925056137E+03  0.00000000000E+00 0. -1.
         21    1    1    2  505  501 -0.97760765679E+02  0.21947643373E+02  0.18099737119E+03  0.20687898572E+03  0.00000000000E+00 0. -1.
         21    1    1    2  506  502  0.23998541747E+02 -0.51860106681E+02  0.30112184623E+02  0.64592138327E+02  0.00000000000E+00 0. -1.
<scales pt_clust_3="91.17371" pt_clust_4="14000.00000" pt_clust_5="135.42176" pt_clust_6="57.14368"></scales>
<clustering>
<clus scale="   57.144">  2  6  1 -1</clus>
<clus scale="   91.174">  2  3  1 -1</clus>
<clus scale="  135.422">  2  5  1 -1</clus>
<clus scale="  135.422">  1  3  2 -1</clus>
</clustering>
</event>
<event>
 6    0  0.8641190E+002  0.1301537E+03  0.7546771E-02  0.1227228E+00
         21   -1    0    0  505  501  0.00000000000E+00  0.00000000000E+00  0.10616788706E+04  0.10616788706E+04  0.00000000000E+00 0.  1.
         21   -1    0    0  506  502 -0.00000000000E+00 -0.00000000000E+00 -0.68750906769E+02  0.68750906769E+02  0.00000000000E+00 0. -1.
         21    1    1    2  503  502  0.63884771227E+02 -0.11496366309E+03  0.22844853710E+02  0.13349080555E+03  0.00000000000E+00 0. -1.
         21    1    1    2  504  501  0.49554834844E+02  0.93162960357E+00  0.22263865732E+03  0.22808884525E+03  0.00000000000E+00 0.  1.
         21    1    1    2  505  503 -0.74441280106E+01  0.35002554074E+02  0.30446242670E+03  0.30655825401E+03  0.00000000000E+00 0. -1.
         21    1    1    2  506  504 -0.10599547806E+03  0.79029479415E+02  0.44298202613E+03  0.46229187258E+03  0.00000000000E+00 0.  1.
<scales pt_clust_3="130.15371" pt_clust_4="48.68110" pt_clust_5="35.78539" pt_clust_6="14000.00000"></scales>
<clustering>
<clus scale="   35.785">  1  5  2 -1</clus>
<clus scale="   48.681">  1  4  2 -1</clus>
<clus scale="  130.154">  2  3  1 -1</clus>
<clus scale="   35.785">  1  3  2 -1</clus>
</clustering>
</event>
<event>
 6    0  0.8641190E+002  0.8755029E+02  0.7546771E-02  0.1308895E+00
         21   -1    0    0  503  501  0.00000000000E+00  0.00000000000E+00  0.34815184405E+03  0.34815184405E+03  0.00000000000E+00 0.  1.
         21   -1    0    0  504  502 -0.00000000000E+00 -0.00000000000E+00 -0.89586209064E+03  0.89586209064E+03  0.00000000000E+00 0.  1.
         21    1    1    2  503  502 -0.38404098815E+02 -0.57507590494E+02 -0.65777328296E+03  0.66139828360E+03  0.00000000000E+00 0.  1.
         21    1    1    2  504  506  0.67723502231E+01 -0.42984710353E+02 -0.16015784664E+03  0.16596411026E+03  0.00000000000E+00 0.  1.
         21    1    1    2  505  501 -0.48673456956E+02  0.73449925878E+02  0.31054950515E+03  0.32280798034E+03  0.00000000000E+00 0.  1.
         21    1    1    2  506  505  0.80305205548E+02  0.27042374969E+02 -0.40328622142E+02  0.93843560493E+02  0.00000000000E+00 0.  1.
<scales pt_clust_3="87.55029" pt_clust_4="43.51494" pt_clust_5="14000.00000" pt_clust_6="84.15956"></scales>
<clustering>
<clus scale="   43.515">  2  4  1 -1</clus>
<clus scale="   84.160">  2  6  1 -1</clus>
<clus scale="   87.550">  2  3  1 -1</clus>
<clus scale="   87.550">  1  3  2 -1</clus>
</clustering>
</event>
<event>
 6    0  0.8641190E+002  0.2775193E+03  0.7546771E-02  0.1097052E+00
         21   -1    0    0  504  501  0.00000000000E+00  0.00000000000E+00  0.87350877109E+02  0.87350877109E+02  0.00000000000E+00 0.  1.
         21   -1    0    0  503  502 -0.00000000000E+00 -0.00000000000E+00 -0.37865360601E+04  0.37865360601E+04  0.00000000000E+00 0.  1.
         21    1    1    2  503  506  0.45275874789E+02 -0.13021415795E+03 -0.27807296252E+04  0.27841449100E+04  0.00000000000E+00 0.  1.
         21    1    1    2  504  502  0.21528545862E+03 -0.36567787403E+02 -0.61404040870E+03  0.65171362981E+03  0.00000000000E+00 0.  1.
         21    1    1    2  505  501 -0.77283345724E+02  0.65229563657E+02 -0.66685244939E+02  0.12113848849E+03  0.00000000000E+00 0.  1.
         21    1    1    2  506  505 -0.18327798768E+03  0.10155238169E+03 -0.23772990414E+03  0.31688990883E+03  0.00000000000E+00 0.  1.
<scales pt_clust_3="137.86091" pt_clust_4="271.15514" pt_clust_5="41.05322" pt_clust_6="41.05322"></scales>
<clustering>
<clus scale="   41.053">  5  6 -1 -1</clus>
<clus scale="  137.861">  2  3  1 -1</clus>
<clus scale="  271.155">  2  4  1 -1</clus>
<clus scale="  277.519">  1  3  2 -1</clus>
</clustering>
</event>
<event>
 6    0  0.8641190E+002  0.1550402E+03  0.7546771E-02  0.1194413E+00
         21   -1    0    0  506  501  0.00000000000E+00  0.00000000000E+00  0.80516997542E+03  0.80516997542E+03  0.00000000000E+00 0. -1.
         21   -1    0    0  503  502 -0.00000000000E+00 -0.00000000000E+00 -0.53094916382E+02  0.53094916382E+02  0.00000000000E+00 0.  1.
         21    1    1    2  503  505  0.41311586934E+02 -0.25248297825E+02  0.58800195201E+01  0.48771901620E+02  0.00000000000E+00 0.  1.
         21    1    1    2  504  502  0.24518100074E+02  0.36574142942E+02  0.73796383133E+02  0.85934343115E+02  0.00000000000E+00 0.  1.
         21    1    1    2  505  501 -0.11243913126E+03 -0.10053340277E+03  0.27537828734E+03  0.31397885988E+03  0.00000000000E+00 0.  1.
         21    1    1    2  506  504  0.46609444254E+02  0.89207557654E+02  0.39702036904E+03  0.40957978718E+03  0.00000000000E+00 0. -1.
<scales pt_clust_3="48.41615" pt_clust_4="36.14081" pt_clust_5="145.09234" pt_clust_6="36.14081"></scales>
<clustering>
<clus scale="   36.141">  4  6 -1 -1</clus>
<clus scale="   48.416">  2  3  1 -1</clus>
<clus scale="  145.092">  2  5  1 -1</clus>
<clus scale="  155.040">  1  3  2 -1</clus>
</clustering>
</event>
<event>
 6    0  0.8641190E+002  0.1077165E+03  0.7546771E-02  0.1264858E+00
         21   -1    0    0  505  501  0.00000000000E+00  0.00000000000E+00  0.17759359534E+03  0.17759359534E+03  0.00000000000E+00 0.  1.
         21   -1    0    0  506  502 -0.00000000000E+00 -0.00000000000E+00 -0.40692714631E+03  0.40692714631E+03  0.00000000000E+00 0. -1.
         21    1    1    2  503  501 -0.87241896991E+02 -0.10194294539E+03  0.97565609192E+02  0.16589924895E+03  0.00000000000E+00 0.  1.
         21    1    1    2  504  502 -0.45030861292E+02  0.33789660860E+02 -0.39837276850E+02  0.68967588595E+02  0.00000000000E+00 0. -1.
         21    1    1    2  505  504  0.10054003333E+02  0.36700908489E+02 -0.22328295207E+01  0.38118567584E+02  0.00000000000E+00 0. -1.
         21    1    1    2  506  503  0.12221875495E+03  0.31452376045E+02 -0.28482905379E+03  0.31153533653E+03  0.00000000000E+00 0. -1.
<scales pt_clust_3="107.71652" pt_clust_4="57.66487" pt_clust_5="38.05312" pt_clust_6="14000.00000"></scales>
<clustering>
<clus scale="   38.053">  1  5  2 -1</clus>
<clus scale="   57.665">  2  4  1 -1</clus>
<clus scale="  107.717">  1  3  2 -1</clus>
<clus scale="   38.053">  1  3  2 -1</clus>
</clustering>
</event>
<event>
 6    0  0.8641190E+002  0.1163539E+03  0.7546771E-02  0.1249236E+00
         21   -1    0    0  505  501  0.00000000000E+00  0.00000000000E+00  0.69611087757E+03  0.69611087757E+03  0.00000000000E+00 0. -1.
         21   -1    0    0  503  502 -0.00000000000E+00 -0.00000000000E+00 -0.19672458910E+03  0.19672458910E+03  0.00000000000E+00 0. -1.
         21    1    1    2  503  506 -0.78245363816E+01 -0.32873304988E+02 -0.21412264385E+02  0.40004532450E+02  0.00000000000E+00 0. -1.
         21    1    1    2  504  502  0.12419997425E+03  0.47436342951E+02 -0.12553806949E+03  0.18285416902E+03  0.00000000000E+00 0. -1.
         21    1    1    2  505  504 -0.26847246700E+02 -0.44921030343E+02  0.78629975177E+02  0.94452880416E+02  0.00000000000E+00 0. -1.
         21    1    1    2  506  501 -0.89528191166E+02  0.30357992380E+02  0.56770664717E+03  0.57552388478E+03  0.00000000000E+00 0. -1.
<scales pt_clust_3="33.79168" pt_clust_4="116.35390" pt_clust_5="53.87051" pt_clust_6="14000.00000"></scales>
<clustering>
<clus scale="   33.792">  2  3  1 -1</clus>
<clus scale="   53.871">  1  5  2 -1</clus>
<clus scale="  116.354">  2  4  1 -1</clus>
<clus scale="   53.871">  1  3  2 -1</clus>
</clustering>
</event>
<event>
 6    0  0.8641190E+002  0.5295311E+03  0.7546771E-02  0.1006346E+00
         21   -1    0    0  506  501  0.00000000000E+00  0.00000000000E+00  0.72865951017E+03  0.72865951017E+03  0.00000000000E+00 0.  1.
         21   -1    0    0  503  502 -0.00000000000E+00 -0.00000000000E+00 -0.10227377174E+04  0.10227377174E+04  0.00000000000E+00 0.  1.
         21    1    1    2  503  504  0.30397310230E+03 -0.35689187765E+02 -0.18673327482E+03  0.35852849394E+03  0.00000000000E+00 0.  1.
         21    1    1    2  504  501 -0.13877530771E+03  0.52581901450E+03  0.39259054765E+03  0.67072465300E+03  0.00000000000E+00 0.  1.
         21    1    1    2  505  502 -0.27485893542E+02 -0.93079521568E+02 -0.13022552687E+03  0.16241292907E+03  0.00000000000E+00 0. -1.
         21    1    1    2  506  505 -0.13771190105E+03 -0.39705030517E+03 -0.36970995314E+03  0.55973115152E+03  0.00000000000E+00 0.  1.
<scales pt_clust_3="306.06105" pt_clust_4="525.70346" pt_clust_5="30.54126" pt_clust_6="30.54126"></scales>
<clustering>
<clus scale="   30.541">  5  6 -1 -1</clus>
<clus scale="  306.061">  2  3  1 -1</clus>
<clus scale="  525.703">  1  4  2 -1</clus>
<clus scale="  525.703">  1  3  2 -1</clus>
</clustering>
</event>
<event>
 6    0  0.8641190E+002  0.8205523E+02  0.7546771E-02  0.1323318E+00
         21   -1    0    0  504  501  0.00000000000E+00  0.00000000000E+00  0.78515531607E+03  0.78515531607E+03  0.00000000000E+00 0. -1.
         21   -1    0    0  505  502 -0.00000000000E+00 -0.00000000000E+00 -0.30304903065E+03  0.30304903065E+03  0.00000000000E+00 0.  1.
         21    1    1    2  503  502  0.22649262304E+02 -0.33916083227E+02 -0.14044925216E+02  0.43134089868E+02  0.00000000000E+00 0. -1.
         21    1    1    2  504  506  0.33514690597E+02  0.25284283123E+02  0.64994455940E+03  0.65129905554E+03  0.00000000000E+00 0. -1.
         21    1    1    2  505  501 -0.10955896363E+03  0.28875564440E+02 -0.25417504288E+03  0.27828387872E+03  0.00000000000E+00 0.  1.
         21    1    1    2  506  503  0.53395010734E+02 -0.20243764336E+02  0.10038169412E+03  0.11548732259E+03  0.00000000000E+00 0. -1.
<scales pt_clust_3="40.78345" pt_clust_4="41.97682" pt_clust_5="82.05523" pt_clust_6="14000.00000"></scales>
<clustering>
<clus scale="   40.783">  2  3  1 -1</clus>
<clus scale="   41.977">  1  4  2 -1</clus>
<clus scale="   82.055">  2  5  1 -1</clus>
<clus scale="   41.977">  1  3  2 -1</clus>
</clustering>
</event>
<event>
 6    0  0.8641190E+002  0.1035213E+03  0.7546771E-02  0.1273061E+00
         21   -1    0    0  504  501  0.00000000000E+00  0.00000000000E+00  0.10329470070E+04  0.10329470070E+04  0.00000000000E+00 0.  1.
         21   -1    0    0  505  502 -0.00000000000E+00 -0.00000000000E+00 -0.19077246886E+02  0.19077246886E+02  0.00000000000E+00 0.  1.
         21    1    1    2  503  502 -0.24267387123E+02  0.52442348942E+02  0.15233500171E+03  0.16292654414E+03  0.00000000000E+00 0.  1.
         21    1    1    2  504  506 -0.12099387564E+02 -0.39043529520E+02  0.28313723782E+03  0.28607252195E+03  0.00000000000E+00 0. -1.
         21    1    1    2  505  501  0.96525229944E+02  0.10249265870E+02  0.24712246135E+03  0.26550268995E+03  0.00000000000E+00 0.  1.
         21    1    1    2  506  503 -0.60158455257E+02 -0.23648085292E+02  0.33127505923E+03  0.33752249783E+03  0.00000000000E+00 0.  1.
<scales pt_clust_3="57.78500" pt_clust_4="37.44113" pt_clust_5="92.19439" pt_clust_6="37.44113"></scales>
<clustering>
<clus scale="   37.441">  4  6 -1 -1</clus>
<clus scale="   57.785">  2  3  1 -1</clus>
<clus scale="   92.194">  2  5  1 -1</clus>
<clus scale="  103.521">  1  3  2 -1</clus>
</clustering>
</event>
<event>
 6    0  0.8641190E+002  0.3148223E+03  0.7546771E-02  0.1078057E+00
         21   -1    0    0  505  501  0.00000000000E+00  0.00000000000E+00  0.25985809512E+03  0.25985809512E+03  0.00000000000E+00 0.  1.
         21   -1    0    0  504  502 -0.00000000000E+00 -0.00000000000E+00 -0.61368373558E+03  0.61368373558E+03  0.00000000000E+00 0. -1.
         21    1    1    2  503  506 -0.61510880883E+02 -0.16287187532E+02 -0.37524442935E+02  0.73871136192E+02  0.00000000000E+00 0. -1.
         21    1    1    2  504  503 -0.16223770774E+03 -0.16442405437E+03  0.36674338378E+02  0.23388319855E+03  0.00000000000E+00 0.  1.
         21    1    1    2  505  502  0.25555675374E+03  0.15377127445E+03 -0.40256094211E+03  0.50100915295E+03  0.00000000000E+00 0. -1.
         21    1    1    2  506  501 -0.31808165117E+02  0.26939967456E+02  0.49585406204E+02  0.64778343010E+02  0.00000000000E+00 0. -1.
<scales pt_clust_3="57.99546" pt_clust_4="57.99546" pt_clust_5="295.16282" pt_clust_6="41.68358"></scales>
<clustering>
<clus scale="   41.684">  1  6  2 -1</clus>
<clus scale="   57.995">  3  4 -1 -1</clus>
<clus scale="  295.163">  2  5  1 -1</clus>
<clus scale="   41.684">  1  3  2 -1</clus>
</clustering>
</event>
<event>
 6    0  0.8641190E+002  0.1390034E+03  0.7546771E-02  0.1214676E+00
         21   -1    0    0  506  501  0.00000000000E+00  0.00000000000E+00  0.46543777696E+03  0.46543777696E+03  0.00000000000E+00 0. -1.
         21   -1    0    0  504  502 -0.00000000000E+00 -0.00000000000E+00 -0.19712360584E+03  0.19712360584E+03  0.00000000000E+00 0. -1.
         21    1    1    2  503  502 -0.84981949696E+02 -0.21605758580E+02  0.53308254591E+02  0.10261827608E+03  0.00000000000E+00 0. -1.
         21    1    1    2  504  505  0.69585853987E+02 -0.23196701481E+02 -0.10788049343E+03  0.13045489220E+03  0.00000000000E+00 0. -1.
         21    1    1    2  505  501  0.10902783745E+03  0.61333358589E+02  0.30904886050E+03  0.33340673117E+03  0.00000000000E+00 0. -1.
         21    1    1    2  506  503 -0.93631741740E+02 -0.16530898529E+02  0.13837549458E+02  0.96081483348E+02  0.00000000000E+00 0.  1.
<scales pt_clust_3="38.60208" pt_clust_4="73.35038" pt_clust_5="133.06455" pt_clust_6="38.60208"></scales>
<clustering>
<clus scale="   38.602">  3  6 -1 -1</clus>
<clus scale="   73.350">  2  4  1 -1</clus>
<clus scale="  133.065">  1  5  2 -1</clus>
<clus scale="  133.065">  1  3  2 -1</clus>
</clustering>
</event>
<event>
 6    0  0.8641190E+002  0.1230781E+03  0.7546771E-02  0.1238104E+00
         21   -1    0    0  506  501  0.00000000000E+00  0.00000000000E+00  0.20248934516E+03  0.20248934516E+03  0.00000000000E+00 0. -1.
         21   -1    0    0  504  502 -0.00000000000E+00 -0.00000000000E+00 -0.36870898959E+03  0.36870898959E+03  0.00000000000E+00 0.  1.
         21    1    1    2  503  505 -0.10199982949E+03 -0.24531723776E+02  0.29633153983E+02  0.10901327673E+03  0.00000000000E+00 0. -1.
         21    1    1    2  504  503  0.28843901091E+02  0.12948795103E+02 -0.20078727675E+02  0.37453934771E+02  0.00000000000E+00 0. -1.
         21    1    1    2  505  501 -0.21424794500E+02 -0.29480073091E+02  0.11266704654E+03  0.11841435683E+03  0.00000000000E+00 0. -1.
         21    1    1    2  506  502  0.94580722902E+02  0.41063001764E+02 -0.28844111727E+03  0.30631676642E+03  0.00000000000E+00 0.  1.
<scales pt_clust_3="14000.00000" pt_clust_4="31.61711" pt_clust_5="36.21141" pt_clust_6="123.07809"></scales>
<clustering>
<clus scale="   31.617">  2  4  1 -1</clus>
<clus scale="   36.211">  1  5  2 -1</clus>
<clus scale="  123.078">  2  6  1 -1</clus>
<clus scale="   36.211">  1  3  2 -1</clus>
</clustering>
</event>
<event>
 6    0  0.8641190E+002  0.1222149E+03  0.7546771E-02  0.1239487E+00
         21   -1    0    0  504  501  0.00000000000E+00  0.00000000000E+00  0.18563469952E+04  0.18563469952E+04  0.00000000000E+00 0.  1.
         21   -1    0    0  505  502 -0.00000000000E+00 -0.00000000000E+00 -0.69059777051E+02  0.69059777051E+02  0.00000000000E+00 0.  1.
         21    1    1    2  503  502 -0.97173817094E+02  0.76726428234E+02 -0.26269320409E+01  0.12384101215E+03  0.00000000000E+00 0.  1.
         21    1    1    2  504  506  0.28821210382E+02  0.17200243549E+02  0.16224757611E+03  0.16568278879E+03  0.00000000000E+00 0. -1.
         21    1    1    2  505  501  0.67742162950E+02 -0.49279067377E+02  0.14590996897E+04  0.14615024227E+04  0.00000000000E+00 0.  1.
         21    1    1    2  506  503  0.61044376188E+00 -0.44647604406E+02  0.16856688439E+03  0.17438054861E+03  0.00000000000E+00 0.  1.
<scales pt_clust_3="122.21494" pt_clust_4="33.56353" pt_clust_5="14000.00000" pt_clust_6="43.04988"></scales>
<clustering>
<clus scale="   33.564">  1  4  2 -1</clus>
<clus scale="   43.050">  1  6  2 -1</clus>
<clus scale="  122.215">  2  3  1 -1</clus>
<clus scale="   33.564">  1  3  2 -1</clus>
</clustering>
</event>
<event>
 6    0  0.8641190E+002  0.8525458E+02  0.7546771E-02  0.1314768E+00
         21   -1    0    0  503  501  0.00000000000E+00  0.00000000000E+00  0.28139420303E+03  0.28139420303E+03  0.00000000000E+00 0. -1.
         21   -1    0    0  504  502 -0.00000000000E+00 -0.00000000000E+00 -0.89064590606E+03  0.89064590606E+03  0.00000000000E+00 0. -1.
         21    1    1    2  503  506  0.66901864129E+02  0.77792518812E+02  0.51963632821E+02  0.11501197565E+03  0.00000000000E+00 0. -1.
         21    1    1    2  504  505 -0.31005129684E+01 -0.83866701851E+02  0.45527658221E+02  0.95477769785E+02  0.00000000000E+00 0. -1.
         21    1    1    2  505  501 -0.48634067412E+02  0.38146028204E+02  0.11950393340E+03  0.13454212009E+03  0.00000000000E+00 0. -1.
         21    1    1    2  506  502 -0.15167283749E+02 -0.32071845165E+02 -0.82624692747E+03  0.82700824355E+03  0.00000000000E+00 0. -1.
<scales pt_clust_3="14000.00000" pt_clust_4="85.25458" pt_clust_5="61.02169" pt_clust_6="35.47745"></scales>
<clustering>
<clus scale="   35.477">  2  6  1 -1</clus>
<clus scale="   61.022">  1  5  2 -1</clus>
<clus scale="   85.255">  1  4  2 -1</clus>
<clus scale="   61.022">  1  3  2 -1</clus>
</clustering>
</event>
<event>
 6    0  0.8641190E+002  0.7243690E+02  0.7546771E-02  0.1351997E+00
         21   -1    0    0  503  501  0.00000000000E+00  0.00000000000E+00  0.86984914004E+03  0.86984914004E+03  0.00000000000E+00 0.  1.
         21   -1    0    0  504  502 -0.00000000000E+00 -0.00000000000E+00 -0.97682448803E+02  0.97682448803E+02  0.00000000000E+00 0.  1.
         21    1    1    2  503  506 -0.98103022496E+02  0.59341186222E+02  0.62843248602E+03  0.63880589297E+03  0.00000000000E+00 0.  1.
         21    1    1    2  504  505  0.52896817393E+02 -0.11550603741E+02 -0.70442208655E+02  0.88845903098E+02  0.00000000000E+00 0.  1.
         21    1    1    2  505  501  0.46412957090E+02  0.12224899552E+02  0.96596589163E+02  0.10786339413E+03  0.00000000000E+00 0.  1.
         21    1    1    2  506  502 -0.12067519872E+01 -0.60015482032E+02  0.11757982471E+03  0.13201639865E+03  0.00000000000E+00 0. -1.
<scales pt_clust_3="14000.00000" pt_clust_4="54.65617" pt_clust_5="47.99595" pt_clust_6="72.43690"></scales>
<clustering>
<clus scale="   47.996">  1  5  2 -1</clus>
<clus scale="   54.656">  2  4  1 -1</clus>
<clus scale="   72.437">  2  6  1 -1</clus>
<clus scale="   47.996">  1  3  2 -1</clus>
</clustering>
</event>
<event>
 6    0  0.8641190E+002  0.1079202E+03  0.7546771E-02  0.1264471E+00
         21   -1    0    0  504  501  0.00000000000E+00  0.00000000000E+00  0.20485049440E+04  0.20485049440E+04  0.00000000000E+00 0. -1.
         21   -1    0    0  503  502 -0.00000000000E+00 -0.00000000000E+00 -0.72825327272E+02  0.72825327272E+02  0.00000000000E+00 0.  1.
         21    1    1    2  503  501  0.13570290413E+03 -0.37895935524E+02  0.64108253516E+03  0.65638266050E+03  0.00000000000E+00 0.  1.
         21    1    1    2  504  505 -0.31702092783E+02 -0.13836548408E+01  0.89557977161E+03  0.89614176585E+03  0.00000000000E+00 0. -1.
         21    1    1    2  505  506 -0.69939455622E+02  0.47727700677E+02  0.49529637160E+03  0.50248179726E+03  0.00000000000E+00 0. -1.
         21    1    1    2  506  502 -0.34061355725E+02 -0.84481103121E+01 -0.56279061626E+02  0.66324047668E+02  0.00000000000E+00 0.  1.
<scales pt_clust_3="14000.00000" pt_clust_4="31.73227" pt_clust_5="107.92018" pt_clust_6="35.22893"></scales>
<clustering>
<clus scale="   31.732">  1  4  2 -1</clus>
<clus scale="   35.229">  2  6  1 -1</clus>
<clus scale="  107.920">  1  5  2 -1</clus>
<clus scale="   31.732">  1  3  2 -1</clus>
</clustering>
</event>
<event>
 6    0  0.8641190E+002  0.2018346E+03  0.7546771E-02  0.1148200E+00
         21   -1    0    0  506  501  0.00000000000E+00  0.00000000000E+00  0.74825168904E+02  0.74825168904E+02  0.00000000000E+00 0.  1.
         21   -1    0    0  504  502 -0.00000000000E+00 -0.00000000000E+00 -0.76324808819E+03  0.76324808819E+03  0.00000000000E+00 0.  1.
         21    1    1    2  503  501 -0.47689105192E+02 -0.41631134582E+02 -0.25873669474E+02  0.68387490761E+02  0.00000000000E+00 0.  1.
         21    1    1    2  504  505  0.27532412059E+02 -0.32452807004E+02 -0.22474922013E+03  0.22874315366E+03  0.00000000000E+00 0.  1.
         21    1    1    2  505  503 -0.82827096587E+02 -0.90873571711E+02 -0.18121996821E+03  0.21899545850E+03  0.00000000000E+00 0.  1.
         21    1    1    2  506  502  0.10298378972E+03  0.16495751330E+03 -0.25658006147E+03  0.32194715418E+03  0.00000000000E+00 0.  1.
<scales pt_clust_3="50.73559" pt_clust_4="42.55841" pt_clust_5="50.73559" pt_clust_6="188.75377"></scales>
<clustering>
<clus scale="   42.558">  2  4  1 -1</clus>
<clus scale="   50.736">  3  5 -1 -1</clus>
<clus scale="  188.754">  2  6  1 -1</clus>
<clus scale="  201.835">  1  3  2 -1</clus>
</clustering>
</event>
<event>
 6    0  0.8641190E+002  0.1409458E+03  0.7546771E-02  0.1212062E+00
         21   -1    0    0  506  501  0.00000000000E+00  0.00000000000E+00  0.62829769815E+02  0.62829769815E+02  0.00000000000E+00 0.  1.
         21   -1    0    0  504  502 -0.00000000000E+00 -0.00000000000E+00 -0.95705039581E+03  0.95705039581E+03  0.00000000000E+00 0.  1.
         21    1    1    2  503  501  0.96707173558E+02 -0.10779735852E+03 -0.75336979257E+02  0.16324278962E+03  0.00000000000E+00 0.  1.
         21    1    1    2  504  505  0.21196147362E+02 -0.27259366114E+02 -0.90262077098E+02  0.96641565933E+02  0.00000000000E+00 0.  1.
         21    1    1    2  505  503 -0.11102794015E+02  0.69179165841E+02 -0.12340876888E+03  0.14191107518E+03  0.00000000000E+00 0.  1.
         21    1    1    2  506  502 -0.10680052691E+03  0.65877558792E+02 -0.60521280075E+03  0.61808473488E+03  0.00000000000E+00 0.  1.
<scales pt_clust_3="14000.00000" pt_clust_4="34.53042" pt_clust_5="65.46375" pt_clust_6="140.94576"></scales>
<clustering>
<clus scale="   34.530">  2  4  1 -1</clus>
<clus scale="   65.464">  2  5  1 -1</clus>
<clus scale="  140.946">  2  6  1 -1</clus>
<clus scale="  140.946">  1  3  2 -1</clus>
</clustering>
</event>
<event>
 6    0  0.8641190E+002  0.1160688E+03  0.7546771E-02  0.1249727E+00
         21   -1    0    0  503  501  0.00000000000E+00  0.00000000000E+00  0.45805617522E+03  0.45805617522E+03  0.00000000000E+00 0. -1.
         21   -1    0    0  506  502 -0.00000000000E+00 -0.00000000000E+00 -0.20234810377E+04  0.20234810377E+04  0.00000000000E+00 0. -1.
         21    1    1    2  503  504 -0.16027249677E+02 -0.71791447395E+02  0.26065189421E+03  0.27083259517E+03  0.00000000000E+00 0. -1.
         21    1    1    2  504  505 -0.17045943801E+03  0.31938710473E+02  0.90565289833E+02  0.19564910671E+03  0.00000000000E+00 0. -1.
         21    1    1    2  505  502  0.10772939793E+03 -0.41371182043E+02 -0.18966597241E+04  0.19001671787E+04  0.00000000000E+00 0. -1.
         21    1    1    2  506  501  0.78757289756E+02  0.81223918965E+02 -0.19982322403E+02  0.11488833235E+03  0.00000000000E+00 0. -1.
<scales pt_clust_3="73.55872" pt_clust_4="14000.00000" pt_clust_5="116.06879" pt_clust_6="98.12692"></scales>
<clustering>
<clus scale="   73.559">  1  3  2 -1</clus>
<clus scale="   98.127">  1  6  2 -1</clus>
<clus scale="  116.069">  2  5  1 -1</clus>
<clus scale="   73.559">  1  3  2 -1</clus>
</clustering>
</event>
<event>
 6    0  0.8641190E+002  0.1587888E+03  0.7546771E-02  0.1190071E+00
         21   -1    0    0  504  501  0.00000000000E+00  0.00000000000E+00  0.27267172960E+03  0.27267172960E+03  0.00000000000E+00 0.  1.
         21   -1    0    0  503  502 -0.00000000000E+00 -0.00000000000E+00 -0.50190218047E+03  0.50190218047E+03  0.00000000000E+00 0.  1.
         21    1    1    2  503  505 -0.17888080867E+02  0.12288318843E+03 -0.16969502176E+02  0.12533245964E+03  0.00000000000E+00 0.  1.
         21    1    1    2  504  502 -0.23940173142E+02 -0.13094436884E+03 -0.35045156850E+03  0.37488112981E+03  0.00000000000E+00 0.  1.
         21    1    1    2  505  506  0.45479752961E+02  0.78455628378E+02 -0.27116339811E+02  0.94651938376E+02  0.00000000000E+00 0.  1.
         21    1    1    2  506  501 -0.36514989516E+01 -0.70394447969E+02  0.16530695962E+03  0.17970838225E+03  0.00000000000E+00 0.  1.
<scales pt_clust_3="61.33207" pt_clust_4="141.64371" pt_clust_5="61.33207" pt_clust_6="70.48909"></scales>
<clustering>
<clus scale="   61.332">  3  5 -1 -1</clus>
<clus scale="   70.489">  1  6  2 -1</clus>
<clus scale="  141.644">  2  4  1 -1</clus>
<clus scale="   70.489">  1  3  2 -1</clus>
</clustering>
</event>
<event>
 6    0  0.8641190E+002  0.1638631E+03  0.7546771E-02  0.1184403E+00
         21   -1    0    0  505  501  0.00000000000E+00  0.00000000000E+00  0.92366700825E+03  0.92366700825E+03  0.00000000000E+00 0.  1.
         21   -1    0    0  506  502 -0.00000000000E+00 -0.00000000000E+00 -0.53678748039E+02  0.53678748039E+02  0.00000000000E+00 0.  1.
         21    1    1    2  503  501 -0.30556960071E+02  0.80484526189E+02  0.24784959329E+03  0.26237550888E+03  0.00000000000E+00 0.  1.
         21    1    1    2  504  502 -0.59768484354E+02  0.10595650374E+02  0.14024133211E+03  0.15281417068E+03  0.00000000000E+00 0.  1.
         21    1    1    2  505  504 -0.64272682596E+02 -0.39021777998E+01  0.30443838783E+03  0.31117348329E+03  0.00000000000E+00 0.  1.
         21    1    1    2  506  503  0.15459812702E+03 -0.87177998763E+02  0.17745894699E+03  0.25098259345E+03  0.00000000000E+00 0.  1.
<scales pt_clust_3="86.08999" pt_clust_4="44.63564" pt_clust_5="44.63564" pt_clust_6="157.28205"></scales>
<clustering>
<clus scale="   44.636">  4  5 -1 -1</clus>
<clus scale="   86.090">  1  3  2 -1</clus>
<clus scale="  157.282">  2  6  1 -1</clus>
<clus scale="   86.090">  1  3  2 -1</clus>
</clustering>
</event>
<event>
 6    0  0.8641190E+002  0.9757341E+02  0.7546771E-02  0.1285483E+00
         21   -1    0    0  504  501  0.00000000000E+00  0.00000000000E+00  0.46781493603E+03  0.46781493603E+03  0.00000000000E+00 0.  1.
         21   -1    0    0  503  502 -0.00000000000E+00 -0.00000000000E+00 -0.17310971626E+04  0.17310971626E+04  0.00000000000E+00 0. -1.
         21    1    1    2  503  505  0.20297820383E+02  0.14526042786E+03 -0.93625290780E+03  0.94767193732E+03  0.00000000000E+00 0. -1.
         21    1    1    2  504  506 -0.21551257155E+02 -0.81110233937E+02 -0.23753928023E+03  0.25192903045E+03  0.00000000000E+00 0. -1.
         21    1    1    2  505  501 -0.40040764670E+02  0.10748276880E+02  0.45059385429E+03  0.45249708266E+03  0.00000000000E+00 0.  1.
         21    1    1    2  506  502  0.41294201442E+02 -0.74898470801E+02 -0.54008389282E+03  0.54681404818E+03  0.00000000000E+00 0. -1.
<scales pt_clust_3="14000.00000" pt_clust_4="97.57341" pt_clust_5="41.45827" pt_clust_6="79.82185"></scales>
<clustering>
<clus scale="   41.458">  1  5  2 -1</clus>
<clus scale="   79.822">  2  6  1 -1</clus>
<clus scale="   97.573">  1  4  2 -1</clus>
<clus scale="   41.458">  1  3  2 -1</clus>
</clustering>
</event>
<event>
 6    0  0.8641190E+002  0.1915441E+03  0.7546771E-02  0.1157076E+00
         21   -1    0    0  502  501  0.00000000000E+00  0.00000000000E+00  0.70467825422E+03  0.70467825422E+03  0.00000000000E+00 0.  1.
         21   -1    0    0  506  502 -0.00000000000E+00 -0.00000000000E+00 -0.50714177606E+03  0.50714177606E+03  0.00000000000E+00 0. -1.
         21    1    1    2  503  505  0.73510086084E+02  0.20265493887E+03 -0.80743035332E+02  0.23020033614E+03  0.00000000000E+00 0. -1.
         21    1    1    2  504  501 -0.62121068521E+02 -0.11554697453E+03  0.55771868594E+03  0.57294001704E+03  0.00000000000E+00 0.  1.
         21    1    1    2  505  504  0.41739844763E+02  0.56722987518E+02  0.19185075585E+02  0.72991637048E+02  0.00000000000E+00 0. -1.
         21    1    1    2  506  503 -0.53128862326E+02 -0.14383095185E+03 -0.29862424803E+03  0.33568804005E+03  0.00000000000E+00 0. -1.
<scales pt_clust_3="49.75077" pt_clust_4="131.18739" pt_clust_5="49.75077" pt_clust_6="170.62414"></scales>
<clustering>
<clus scale="   49.751">  3  5 -1 -1</clus>
<clus scale="  131.187">  1  4  2 -1</clus>
<clus scale="  170.624">  2  6  1 -1</clus>
<clus scale="  131.187">  1  3  2 -1</clus>
</clustering>
</event>
<event>
 6    0  0.8641190E+002  0.1071420E+03  0.7546771E-02  0.1265956E+00
         21   -1    0    0  503  501  0.00000000000E+00  0.00000000000E+00  0.90719995558E+02  0.90719995558E+02  0.00000000000E+00 0. -1.
         21   -1    0    0  505  502 -0.00000000000E+00 -0.00000000000E+00 -0.81122308766E+03  0.81122308766E+03  0.00000000000E+00 0.  1.
         21    1    1    2  503  502 -0.21769505144E+02  0.25405885180E+02 -0.63412271323E+03  0.63500471320E+03  0.00000000000E+00 0.  1.
         21    1    1    2  504  501 -0.39260218990E+02  0.51949927318E+02  0.10945004035E+02  0.66029939095E+02  0.00000000000E+00 0. -1.
         21    1    1    2  505  506  0.95993834926E+02 -0.73377205239E+02 -0.11010589061E+03  0.16346968447E+03  0.00000000000E+00 0. -1.
         21    1    1    2  506  504 -0.34964110792E+02 -0.39786072597E+01  0.12780507699E+02  0.37438746457E+02  0.00000000000E+00 0. -1.
<scales pt_clust_3="33.45699" pt_clust_4="34.81705" pt_clust_5="95.64013" pt_clust_6="34.81705"></scales>
<clustering>
<clus scale="   33.457">  2  3  1 -1</clus>
<clus scale="   34.817">  4  6 -1 -1</clus>
<clus scale="   95.640">  2  5  1 -1</clus>
<clus scale="  107.142">  1  3  2 -1</clus>
</clustering>
</event>
<event>
 6    0  0.8641190E+002  0.1248058E+03  0.7546771E-02  0.1235373E+00
         21   -1    0    0  504  501  0.00000000000E+00  0.00000000000E+00  0.19424589931E+03  0.19424589931E+03  0.00000000000E+00 0.  1.
         21   -1    0    0  505  502 -0.00000000000E+00 -0.00000000000E+00 -0.28940459633E+03  0.28940459633E+03  0.00000000000E+00 0.  1.
         21    1    1    2  503  501 -0.10125782985E+02  0.10240619812E+03 -0.34810780355E+02  0.10863402471E+03  0.00000000000E+00 0.  1.
         21    1    1    2  504  506  0.64759886429E+02 -0.12241635102E+03  0.98831264106E+02  0.17013883934E+03  0.00000000000E+00 0.  1.
         21    1    1    2  505  503 -0.79371703422E+02  0.44118808226E+02 -0.91610701965E+02  0.12899169453E+03  0.00000000000E+00 0.  1.
         21    1    1    2  506  502  0.24737599978E+02 -0.24108655328E+02 -0.67568478810E+02  0.75885937058E+02  0.00000000000E+00 0.  1.
<scales pt_clust_3="124.80581" pt_clust_4="14000.00000" pt_clust_5="74.06021" pt_clust_6="34.54238"></scales>
<clustering>
<clus scale="   34.542">  2  6  1 -1</clus>
<clus scale="   74.060">  2  5  1 -1</clus>
<clus scale="  124.806">  2  3  1 -1</clus>
<clus scale="  124.806">  1  3  2 -1</clus>
</clustering>
</event>
<event>
 6    0  0.8641190E+002  0.1581207E+03  0.7546771E-02  0.1190835E+00
         21   -1    0    0  504  501  0.00000000000E+00  0.00000000000E+00  0.91259000387E+02  0.91259000387E+02  0.00000000000E+00 0. -1.
         21   -1    0    0  505  502 -0.00000000000E+00 -0.00000000000E+00 -0.13070574777E+04  0.13070574777E+04  0.00000000000E+00 0. -1.
         21    1    1    2  503  502 -0.97830118226E+02  0.44929031117E+02 -0.58386926287E+03  0.59371092797E+03  0.00000000000E+00 0. -1.
         21    1    1    2  504  506  0.14273846102E+03 -0.35956771886E+02 -0.56073995895E+03  0.57973826790E+03  0.00000000000E+00 0. -1.
         21    1    1    2  505  501 -0.20447994971E+01 -0.32925592272E+02  0.68917068379E+02  0.76405746809E+02  0.00000000000E+00 0. -1.
         21    1    1    2  506  503 -0.42863543301E+02  0.23953333041E+02 -0.14010632388E+03  0.14846153542E+03  0.00000000000E+00 0. -1.
<scales pt_clust_3="31.24108" pt_clust_4="151.20292" pt_clust_5="32.98903" pt_clust_6="31.24108"></scales>
<clustering>
<clus scale="   31.241">  3  6 -1 -1</clus>
<clus scale="   32.989">  1  5  2 -1</clus>
<clus scale="  151.203">  1  4  2 -1</clus>
<clus scale="   32.989">  1  3  2 -1</clus>
</clustering>
</event>
<event>
 6    0  0.8641190E+002  0.1174251E+03  0.7546771E-02  0.1247406E+00
         21   -1    0    0  504  501  0.00000000000E+00  0.00000000000E+00  0.19282564522E+03  0.19282564522E+03  0.00000000000E+00 0.  1.
         21   -1    0    0  505  502 -0.00000000000E+00 -0.00000000000E+00 -0.15955547021E+04  0.15955547021E+04  0.00000000000E+00 0.  1.
         21    1    1    2  503  501 -0.55195297836E+02 -0.59766787654E+01  0.17397010888E+03  0.18261391069E+03  0.00000000000E+00 0.  1.
         21    1    1    2  504  502 -0.46139871131E+02  0.61544776161E+02 -0.11271515889E+03  0.13646008290E+03  0.00000000000E+00 0.  1.
         21    1    1    2  505  506  0.75567586421E+02 -0.17789511863E+02 -0.10293080710E+04  0.10322315786E+04  0.00000000000E+00 0.  1.
         21    1    1    2  506  503  0.25767582546E+02 -0.37778585533E+02 -0.43467593588E+03  0.43707477514E+03  0.00000000000E+00 0.  1.
<scales pt_clust_3="55.51794" pt_clust_4="107.39322" pt_clust_5="36.44871" pt_clust_6="36.44871"></scales>
<clustering>
<clus scale="   36.449">  5  6 -1 -1</clus>
<clus scale="   55.518">  1  3  2 -1</clus>
<clus scale="  107.393">  1  4  2 -1</clus>
<clus scale="   55.518">  1  3  2 -1</clus>
</clustering>
</event>
<event>
 6    0  0.8641190E+002  0.8756852E+02  0.7546771E-02  0.1308849E+00
         21   -1    0    0  504  501  0.00000000000E+00  0.00000000000E+00  0.17321258114E+03  0.17321258114E+03  0.00000000000E+00 0. -1.
         21   -1    0    0  503  502 -0.00000000000E+00 -0.00000000000E+00 -0.11460498285E+04  0.11460498285E+04  0.00000000000E+00 0. -1.
         21    1    1    2  503  506 -0.48885144432E+01 -0.43781335833E+02 -0.82085534754E+02  0.93159744292E+02  0.00000000000E+00 0. -1.
         21    1    1    2  504  502 -0.19511138627E+02  0.86070195913E+02  0.15041431576E+03  0.17439389193E+03  0.00000000000E+00 0. -1.
         21    1    1    2  505  501  0.69649085031E+02 -0.21938157900E+02 -0.88131239478E+03  0.88433241205E+03  0.00000000000E+00 0. -1.
         21    1    1    2  506  505 -0.45249431961E+02 -0.20350702181E+02 -0.15985363362E+03  0.16737636139E+03  0.00000000000E+00 0. -1.
<scales pt_clust_3="44.05341" pt_clust_4="14000.00000" pt_clust_5="87.56852" pt_clust_6="53.40306"></scales>
<clustering>
<clus scale="   44.053">  2  3  1 -1</clus>
<clus scale="   53.403">  2  6  1 -1</clus>
<clus scale="   87.569">  2  5  1 -1</clus>
<clus scale="   87.569">  1  3  2 -1</clus>
</clustering>
</event>
<event>
 6    0  0.8641190E+002  0.8837462E+02  0.7546771E-02  0.1306836E+00
         21   -1    0    0  506  501  0.00000000000E+00  0.00000000000E+00  0.10654483711E+03  0.10654483711E+03  0.00000000000E+00 0.  1.
         21   -1    0    0  503  502 -0.00000000000E+00 -0.00000000000E+00 -0.36818078440E+03  0.36818078440E+03  0.00000000000E+00 0. -1.
         21    1    1    2  503  501  0.11660542962E+02  0.53004152520E+02  0.33736202175E+02  0.63902580415E+02  0.00000000000E+00 0.  1.
         21    1    1    2  504  502  0.89517213744E+02  0.76289292952E+00 -0.21262825017E+03  0.23070476010E+03  0.00000000000E+00 0. -1.
         21    1    1    2  505  504 -0.83905039344E+02  0.10616991727E+02 -0.16555614661E+02  0.86179258047E+02  0.00000000000E+00 0.  1.
         21    1    1    2  506  505 -0.17272717361E+02 -0.64384037177E+02 -0.66188284631E+02  0.93939022938E+02  0.00000000000E+00 0.  1.
<scales pt_clust_3="54.27162" pt_clust_4="88.37462" pt_clust_5="14000.00000" pt_clust_6="53.63237"></scales>
<clustering>
<clus scale="   54.272">  1  3  2 -1</clus>
<clus scale="   53.632">  1  6  2 -1</clus>
<clus scale="   88.375">  2  4  1 -1</clus>
<clus scale="   54.272">  1  3  2 -1</clus>
</clustering>
</event>
<event>
 6    0  0.8641190E+002  0.1067558E+03  0.7546771E-02  0.1266698E+00
         21   -1    0    0  504  501  0.00000000000E+00  0.00000000000E+00  0.62745442868E+03  0.62745442868E+03  0.00000000000E+00 0.  1.
         21   -1    0    0  505  502 -0.00000000000E+00 -0.00000000000E+00 -0.44288530305E+02  0.44288530305E+02  0.00000000000E+00 0.  1.
         21    1    1    2  503  501 -0.10103265462E+03  0.54009102905E+01  0.37095199232E+03  0.38450246779E+03  0.00000000000E+00 0.  1.
         21    1    1    2  504  506  0.20330960527E+02 -0.45514754232E+02  0.73007389953E+02  0.88402600621E+02  0.00000000000E+00 0.  1.
         21    1    1    2  505  503  0.20420073682E+02  0.65884842718E+02  0.39432775097E+02  0.79452725951E+02  0.00000000000E+00 0.  1.
         21    1    1    2  506  502  0.60281620412E+02 -0.25770998777E+02  0.99773741006E+02  0.11938516462E+03  0.00000000000E+00 0.  1.
<scales pt_clust_3="98.25692" pt_clust_4="36.39859" pt_clust_5="68.97675" pt_clust_6="36.39859"></scales>
<clustering>
<clus scale="   36.399">  4  6 -1 -1</clus>
<clus scale="   68.977">  2  5  1 -1</clus>
<clus scale="   98.257">  1  3  2 -1</clus>
<clus scale="   98.257">  1  3  2 -1</clus>
</clustering>
</event>
<event>
 6    0  0.8641190E+002  0.9406085E+02  0.7546771E-02  0.1293305E+00
         21   -1    0    0  504  501  0.00000000000E+00  0.00000000000E+00  0.14557534434E+04  0.14557534434E+04  0.00000000000E+00 0. -1.
         21   -1    0    0  503  502 -0.00000000000E+00 -0.00000000000E+00 -0.34296291026E+02  0.34296291026E+02  0.00000000000E+00 0. -1.
         21    1    1    2  503  505  0.19753701497E+02  0.26782123923E+02  0.28400852684E+01  0.33399954626E+02  0.00000000000E+00 0. -1.
         21    1    1    2  504  506  0.90144901199E+02  0.25035074894E+01  0.10150939853E+04  0.10190918357E+04  0.00000000000E+00 0. -1.
         21    1    1    2  505  501  0.65596053786E+00  0.34366333082E+02  0.42506168317E+02  0.54664883415E+02  0.00000000000E+00 0. -1.
         21    1    1    2  506  502 -0.11055456323E+03 -0.63651964495E+02  0.36101691351E+03  0.38289306063E+03  0.00000000000E+00 0. -1.
<scales pt_clust_3="33.27899" pt_clust_4="94.06085" pt_clust_5="43.49066" pt_clust_6="14000.00000"></scales>
<clustering>
<clus scale="   33.279">  2  3  1 -1</clus>
<clus scale="   43.491">  2  5  1 -1</clus>
<clus scale="   94.061">  1  4  2 -1</clus>
<clus scale="   94.061">  1  3  2 -1</clus>
</clustering>
</event>
<event>
 6    0  0.8641190E+002  0.1064373E+03  0.7546771E-02  0.1267313E+00
         21   -1    0    0  506  501  0.00000000000E+00  0.00000000000E+00  0.14713709314E+03  0.14713709314E+03  0.00000000000E+00 0. -1.
         21   -1    0    0  505  502 -0.00000000000E+00 -0.00000000000E+00 -0.12621062550E+04  0.12621062550E+04  0.00000000000E+00 0.  1.
         21    1    1    2  503  501 -0.10756382857E+01 -0.37725291948E+02  0.16851959278E+02  0.41332108364E+02  0.00000000000E+00 0.  1.
         21    1    1    2  504  502  0.24850588179E+02  0.10721666559E+03 -0.11552665153E+04  0.11604971721E+04  0.00000000000E+00 0.  1.
         21    1    1    2  505  503 -0.99891916183E+02 -0.57205287490E+01  0.38048709636E+02  0.10704589517E+03  0.00000000000E+00 0. -1.
         21    1    1    2  506  504  0.76116966289E+02 -0.63770844890E+02 -0.14603315409E+02  0.10036817243E+03  0.00000000000E+00 0. -1.
<scales pt_clust_3="37.74062" pt_clust_4="14000.00000" pt_clust_5="104.62517" pt_clust_6="106.43734"></scales>
<clustering>
<clus scale="   37.741">  1  3  2 -1</clus>
<clus scale="  104.625">  1  5  2 -1</clus>
<clus scale="  106.437">  1  6  2 -1</clus>
<clus scale="   37.741">  1  3  2 -1</clus>
</clustering>
</event>
<event>
 6    0  0.8641190E+002  0.1999319E+03  0.7546771E-02  0.1149796E+00
         21   -1    0    0  504  501  0.00000000000E+00  0.00000000000E+00  0.17341895467E+03  0.17341895467E+03  0.00000000000E+00 0.  1.
         21   -1    0    0  503  502 -0.00000000000E+00 -0.00000000000E+00 -0.14932182701E+04  0.14932182701E+04  0.00000000000E+00 0. -1.
         21    1    1    2  503  506 -0.80615930358E+02  0.44197190428E+02 -0.23263296575E+03  0.25014079360E+03  0.00000000000E+00 0.  1.
         21    1    1    2  504  505 -0.50443485273E+01  0.45044936600E+02 -0.23047617422E+03  0.23489095055E+03  0.00000000000E+00 0. -1.
         21    1    1    2  505  502  0.12078082438E+02  0.94099906391E+02 -0.95585891228E+03  0.96055553334E+03  0.00000000000E+00 0. -1.
         21    1    1    2  506  501  0.73582196447E+02 -0.18334203342E+03  0.99168736780E+02  0.22104994731E+03  0.00000000000E+00 0.  1.
<scales pt_clust_3="91.93650" pt_clust_4="33.08124" pt_clust_5="33.08124" pt_clust_6="194.11899"></scales>
<clustering>
<clus scale="   33.081">  4  5 -1 -1</clus>
<clus scale="   91.936">  2  3  1 -1</clus>
<clus scale="  194.119">  1  6  2 -1</clus>
<clus scale="  194.119">  1  3  2 -1</clus>
</clustering>
</event>
<event>
 6    0  0.8641190E+002  0.9934252E+02  0.7546771E-02  0.1281685E+00
         21   -1    0    0  505  501  0.00000000000E+00  0.00000000000E+00  0.22626107624E+02  0.22626107624E+02  0.00000000000E+00 0. -1.
         21   -1    0    0  504  502 -0.00000000000E+00 -0.00000000000E+00 -0.19827733388E+04  0.19827733388E+04  0.00000000000E+00 0. -1.
         21    1    1    2  503  506  0.83950569587E+02  0.56587040755E+02 -0.47088331410E+03  0.48164394195E+03  0.00000000000E+00 0. -1.
         21    1    1    2  504  503  0.39605067256E+02 -0.53228661291E+01 -0.11574370693E+04  0.11581267044E+04  0.00000000000E+00 0. -1.
         21    1    1    2  505  502 -0.96494195407E+02 -0.62694986128E+01 -0.25364571453E+03  0.27145273044E+03  0.00000000000E+00 0. -1.
         21    1    1    2  506  501 -0.27061441437E+02 -0.44994676013E+02 -0.78181133258E+02  0.94176069570E+02  0.00000000000E+00 0. -1.
<scales pt_clust_3="14000.00000" pt_clust_4="39.96116" pt_clust_5="99.34252" pt_clust_6="50.99402"></scales>
<clustering>
<clus scale="   39.961">  2  4  1 -1</clus>
<clus scale="   50.994">  1  6  2 -1</clus>
<clus scale="   99.343">  2  5  1 -1</clus>
<clus scale="   50.994">  1  3  2 -1</clus>
</clustering>
</event>
<event>
 6    0  0.8641190E+002  0.1162336E+03  0.7546771E-02  0.1249443E+00
         21   -1    0    0  506  501  0.00000000000E+00  0.00000000000E+00  0.19307090440E+03  0.19307090440E+03  0.00000000000E+00 0. -1.
         21   -1    0    0  505  502 -0.00000000000E+00 -0.00000000000E+00 -0.23700654618E+04  0.23700654618E+04  0.00000000000E+00 0.  1.
         21    1    1    2  503  502 -0.56248194661E+02 -0.32141162827E+02 -0.20779203889E+04  0.20789300268E+04  0.00000000000E+00 0.  1.
         21    1    1    2  504  503  0.43405716697E+02  0.84317740181E+02 -0.20406486783E+02  0.97004959946E+02  0.00000000000E+00 0. -1.
         21    1    1    2  505  501  0.19201441709E+02 -0.11515283541E+03 -0.21064395257E+03  0.24083136345E+03  0.00000000000E+00 0. -1.
         21    1    1    2  506  504 -0.63589637448E+01  0.62976258052E+02  0.13197627089E+03  0.14637001597E+03  0.00000000000E+00 0. -1.
<scales pt_clust_3="64.54493" pt_clust_4="116.23356" pt_clust_5="14000.00000" pt_clust_6="63.29649"></scales>
<clustering>
<clus scale="   63.296">  1  6  2 -1</clus>
<clus scale="   64.545">  2  3  1 -1</clus>
<clus scale="  116.234">  1  4  2 -1</clus>
<clus scale="   63.296">  1  3  2 -1</clus>
</clustering>
</event>
<event>
 6    0  0.8641190E+002  0.3208551E+03  0.7546771E-02  0.1075256E+00
         21   -1    0    0  503  501  0.00000000000E+00  0.00000000000E+00  0.85342988171E+03  0.85342988171E+03  0.00000000000E+00 0. -1.
         21   -1    0    0  504  502 -0.00000000000E+00 -0.00000000000E+00 -0.17339684726E+04  0.17339684726E+04  0.00000000000E+00 0. -1.
         21    1    1    2  503  502  0.34918183195E+03  0.32182113518E+02 -0.57358545914E+03  0.67228261850E+03  0.00000000000E+00 0. -1.
         21    1    1    2  504  505 -0.30626975115E+03  0.37193870684E+02 -0.94278551721E+03  0.99198239700E+03  0.00000000000E+00 0. -1.
         21    1    1    2  505  506 -0.77386641988E+02 -0.54719816685E+02 -0.12750766787E+03  0.15887465519E+03  0.00000000000E+00 0. -1.
         21    1    1    2  506  501  0.34474561189E+02 -0.14656167517E+02  0.76334005329E+03  0.76425868367E+03  0.00000000000E+00 0. -1.
<scales pt_clust_3="14000.00000" pt_clust_4="320.85510" pt_clust_5="91.50373" pt_clust_6="37.46063"></scales>
<clustering>
<clus scale="   37.461">  1  6  2 -1</clus>
<clus scale="   91.504">  1  5  2 -1</clus>
<clus scale="  320.855">  2  4  1 -1</clus>
<clus scale="   37.461">  1  3  2 -1</clus>
</clustering>
</event>
<event>
 6    0  0.8641190E+002  0.7960605E+02  0.7546771E-02  0.1330173E+00
         21   -1    0    0  506  501  0.00000000000E+00  0.00000000000E+00  0.38237583284E+03  0.38237583284E+03  0.00000000000E+00 0.  1.
         21   -1    0    0  505  502 -0.00000000000E+00 -0.00000000000E+00 -0.70885047399E+02  0.70885047399E+02  0.00000000000E+00 0.  1.
         21    1    1    2  503  501  0.29566404742E+02 -0.62298450203E+02  0.15434223871E+03  0.16904672678E+03  0.00000000000E+00 0.  1.
         21    1    1    2  504  503 -0.63133243330E+02  0.87179650984E+02  0.13729078471E+03  0.17445588992E+03  0.00000000000E+00 0.  1.
         21    1    1    2  505  504 -0.46167646041E+01 -0.53017279697E+02 -0.93831910082E+01  0.54038789174E+02  0.00000000000E+00 0.  1.
         21    1    1    2  506  502  0.38183603192E+02  0.28136078916E+02  0.29240953025E+02  0.55719474363E+02  0.00000000000E+00 0.  1.
<scales pt_clust_3="79.60605" pt_clust_4="14000.00000" pt_clust_5="40.96084" pt_clust_6="47.43023"></scales>
<clustering>
<clus scale="   47.430">  2  6  1 -1</clus>
<clus scale="   40.961">  2  5  1 -1</clus>
<clus scale="   79.606">  1  3  2 -1</clus>
<clus scale="   79.606">  1  3  2 -1</clus>
</clustering>
</event>
<event>
 6    0  0.8641190E+002  0.1072542E+03  0.7546771E-02  0.1265741E+00
         21   -1    0    0  504  501  0.00000000000E+00  0.00000000000E+00  0.60340863472E+03  0.60340863472E+03  0.00000000000E+00 0.  1.
         21   -1    0    0  503  502 -0.00000000000E+00 -0.00000000000E+00 -0.35535275690E+03  0.35535275690E+03  0.00000000000E+00 0.  1.
         21    1    1    2  503  506 -0.19760057662E+02  0.26624048088E+02 -0.30095119700E+03  0.30277206408E+03  0.00000000000E+00 0.  1.
         21    1    1    2  504  505  0.10583189754E+02  0.41807448120E+02  0.20959763247E+03  0.21398839725E+03  0.00000000000E+00 0.  1.
         21    1    1    2  505  502  0.91590787213E+02  0.81113034055E+01  0.31332724779E+03  0.32654039529E+03  0.00000000000E+00 0.  1.
         21    1    1    2  506  501 -0.82413919305E+02 -0.76542799613E+02  0.26082194562E+02  0.11546053499E+03  0.00000000000E+00 0.  1.
<scales pt_clust_3="33.15569" pt_clust_4="43.99908" pt_clust_5="14000.00000" pt_clust_6="107.25417"></scales>
<clustering>
<clus scale="   33.156">  2  3  1 -1</clus>
<clus scale="   43.999">  1  4  2 -1</clus>
<clus scale="  107.254">  2  6  1 -1</clus>
<clus scale="   43.999">  1  3  2 -1</clus>
</clustering>
</event>
<event>
 6    0  0.8641190E+002  0.1355028E+03  0.7546771E-02  0.1219512E+00
         21   -1    0    0  505  501  0.00000000000E+00  0.00000000000E+00  0.33031167516E+03  0.33031167516E+03  0.00000000000E+00 0. -1.
         21   -1    0    0  504  502 -0.00000000000E+00 -0.00000000000E+00 -0.11840229463E+03  0.11840229463E+03  0.00000000000E+00 0. -1.
         21    1    1    2  503  506  0.24906839812E+02 -0.33452982705E+02  0.63642388025E+01  0.42189527810E+02  0.00000000000E+00 0.  1.
         21    1    1    2  504  503  0.73634963260E+02 -0.45923307726E+02  0.86276253184E+02  0.12237095191E+03  0.00000000000E+00 0. -1.
         21    1    1    2  505  502 -0.71551463465E+02  0.10534130753E+03 -0.29522472184E+02  0.13072099816E+03  0.00000000000E+00 0. -1.
         21    1    1    2  506  501 -0.26990339607E+02 -0.25965017100E+02  0.14879136073E+03  0.15343249191E+03  0.00000000000E+00 0.  1.
<scales pt_clust_3="34.57087" pt_clust_4="34.57087" pt_clust_5="125.99286" pt_clust_6="37.45211"></scales>
<clustering>
<clus scale="   34.571">  3  4 -1 -1</clus>
<clus scale="   37.452">  1  6  2 -1</clus>
<clus scale="  125.993">  2  5  1 -1</clus>
<clus scale="   37.452">  1  3  2 -1</clus>
</clustering>
</event>
<event>
 6    0  0.8641190E+002  0.1348876E+03  0.7546771E-02  0.1220379E+00
         21   -1    0    0  504  501  0.00000000000E+00  0.00000000000E+00  0.77695172498E+03  0.77695172498E+03  0.00000000000E+00 0.  1.
         21   -1    0    0  503  502 -0.00000000000E+00 -0.00000000000E+00 -0.15744711350E+03  0.15744711350E+03  0.00000000000E+00 0.  1.
         21    1    1    2  503  505 -0.47705762311E+02  0.41260217923E+02 -0.37584515195E+02  0.73422347574E+02  0.00000000000E+00 0.  1.
         21    1    1    2  504  506  0.53756158048E+02  0.43977983201E+02  0.65216237750E+03  0.65585025285E+03  0.00000000000E+00 0.  1.
         21    1    1    2  505  501 -0.83323413870E+02 -0.78208083983E+01 -0.32117601472E+02  0.89640931874E+02  0.00000000000E+00 0.  1.
         21    1    1    2  506  502  0.77273018133E+02 -0.77417392726E+02  0.37044350652E+02  0.11548530618E+03  0.00000000000E+00 0.  1.
<scales pt_clust_3="50.95002" pt_clust_4="69.45349" pt_clust_5="50.95002" pt_clust_6="121.45059"></scales>
<clustering>
<clus scale="   50.950">  3  5 -1 -1</clus>
<clus scale="   69.453">  1  4  2 -1</clus>
<clus scale="  121.451">  1  6  2 -1</clus>
<clus scale="   69.453">  1  3  2 -1</clus>
</clustering>
</event>
<event>
 6    0  0.8641190E+002  0.1151525E+03  0.7546771E-02  0.1251315E+00
         21   -1    0    0  503  501  0.00000000000E+00  0.00000000000E+00  0.95099330486E+03  0.95099330486E+03  0.00000000000E+00 0.  1.
         21   -1    0    0  505  502 -0.00000000000E+00 -0.00000000000E+00 -0.21400782111E+03  0.21400782111E+03  0.00000000000E+00 0. -1.
         21    1    1    2  503  504 -0.53047112141E+02  0.10162183001E+03  0.14587433974E+03  0.18552712857E+03  0.00000000000E+00 0. -1.
         21    1    1    2  504  502  0.11063711985E+03 -0.43403742939E+01 -0.14408893673E+03  0.18171690297E+03  0.00000000000E+00 0. -1.
         21    1    1    2  505  506 -0.13827074258E+03 -0.15205336135E+03  0.57003500675E+03  0.60595291226E+03  0.00000000000E+00 0.  1.
         21    1    1    2  506  501  0.80680734873E+02  0.54771905634E+02  0.16516507400E+03  0.19180418216E+03  0.00000000000E+00 0. -1.
<scales pt_clust_3="14000.00000" pt_clust_4="112.64218" pt_clust_5="115.15253" pt_clust_6="97.51586"></scales>
<clustering>
<clus scale="   97.516">  1  6  2 -1</clus>
<clus scale="  112.642">  2  4  1 -1</clus>
<clus scale="  115.153">  1  5  2 -1</clus>
<clus scale="   97.516">  1  3  2 -1</clus>
</clustering>
</event>
<event>
 6    0  0.8641190E+002  0.9156749E+02  0.7546771E-02  0.1299100E+00
         21   -1    0    0  504  501  0.00000000000E+00  0.00000000000E+00  0.13745830446E+03  0.13745830446E+03  0.00000000000E+00 0. -1.
         21   -1    0    0  503  502 -0.00000000000E+00 -0.00000000000E+00 -0.27563744148E+03  0.27563744148E+03  0.00000000000E+00 0. -1.
         21    1    1    2  503  506 -0.29144727020E+02 -0.24181224885E+02 -0.16462863712E+03  0.16892819454E+03  0.00000000000E+00 0. -1.
         21    1    1    2  504  505  0.30307215451E+01  0.51968450101E+02  0.19448027686E+02  0.55570953382E+02  0.00000000000E+00 0. -1.
         21    1    1    2  505  502  0.95077356350E+02  0.27020443577E+02  0.15687628018E+02  0.10007951706E+03  0.00000000000E+00 0. -1.
         21    1    1    2  506  501 -0.68963350874E+02 -0.54807668793E+02 -0.86861556070E+01  0.88517080959E+02  0.00000000000E+00 0. -1.
<scales pt_clust_3="37.87013" pt_clust_4="47.99035" pt_clust_5="91.56749" pt_clust_6="14000.00000"></scales>
<clustering>
<clus scale="   37.870">  2  3  1 -1</clus>
<clus scale="   47.990">  1  4  2 -1</clus>
<clus scale="   91.567">  2  5  1 -1</clus>
<clus scale="   47.990">  1  3  2 -1</clus>
</clustering>
</event>
<event>
 6    0  0.8641190E+002  0.1574652E+03  0.7546771E-02  0.1191589E+00
         21   -1    0    0  503  501  0.00000000000E+00  0.00000000000E+00  0.20402614467E+04  0.20402614467E+04  0.00000000000E+00 0.  1.
         21   -1    0    0  506  502 -0.00000000000E+00 -0.00000000000E+00 -0.91280915603E+02  0.91280915603E+02  0.00000000000E+00 0.  1.
         21    1    1    2  503  502 -0.15850490169E+02  0.31286539174E+02  0.10280731687E+03  0.10862518112E+03  0.00000000000E+00 0. -1.
         21    1    1    2  504  505 -0.95710800913E+02  0.42084735512E+02  0.10332454771E+04  0.10385219777E+04  0.00000000000E+00 0.  1.
         21    1    1    2  505  501  0.17052749238E+02  0.58829672721E+02  0.81946934000E+03  0.82175527126E+03  0.00000000000E+00 0.  1.
         21    1    1    2  506  504  0.94508541844E+02 -0.13220094741E+03 -0.65416028177E+01  0.16263993220E+03  0.00000000000E+00 0.  1.
<scales pt_clust_3="35.07258" pt_clust_4="157.46520" pt_clust_5="72.83719" pt_clust_6="14000.00000"></scales>
<clustering>
<clus scale="   35.073">  1  3  2 -1</clus>
<clus scale="   72.837">  1  5  2 -1</clus>
<clus scale="  157.465">  1  4  2 -1</clus>
<clus scale="   35.073">  1  3  2 -1</clus>
</clustering>
</event>
<event>
 6    0  0.8641190E+002  0.1299049E+03  0.7546771E-02  0.1227597E+00
         21   -1    0    0  504  501  0.00000000000E+00  0.00000000000E+00  0.23329615060E+03  0.23329615060E+03  0.00000000000E+00 0. -1.
         21   -1    0    0  505  502 -0.00000000000E+00 -0.00000000000E+00 -0.53849908378E+03  0.53849908378E+03  0.00000000000E+00 0. -1.
         21    1    1    2  503  506  0.32208526605E+02 -0.23520661526E+03 -0.24547427436E+03  0.34149254812E+03  0.00000000000E+00 0. -1.
         21    1    1    2  504  502 -0.10911429935E+03  0.63847863544E+02 -0.13696551175E+03  0.18639214418E+03  0.00000000000E+00 0. -1.
         21    1    1    2  505  503  0.44195063138E+02  0.54171465256E+02 -0.35174922609E+02  0.78262548095E+02  0.00000000000E+00 0. -1.
         21    1    1    2  506  501  0.32710709610E+02  0.11718728646E+03  0.11241177554E+03  0.16564799398E+03  0.00000000000E+00 0. -1.
<scales pt_clust_3="14000.00000" pt_clust_4="124.97092" pt_clust_5="69.91245" pt_clust_6="129.90485"></scales>
<clustering>
<clus scale="   69.912">  2  5  1 -1</clus>
<clus scale="  124.971">  2  4  1 -1</clus>
<clus scale="  129.905">  1  6  2 -1</clus>
<clus scale="  129.905">  1  3  2 -1</clus>
</clustering>
</event>
<event>
 6    0  0.8641190E+002  0.1612923E+03  0.7546771E-02  0.1187245E+00
         21   -1    0    0  506  501  0.00000000000E+00  0.00000000000E+00  0.89840269498E+03  0.89840269498E+03  0.00000000000E+00 0. -1.
         21   -1    0    0  505  502 -0.00000000000E+00 -0.00000000000E+00 -0.85431646033E+02  0.85431646033E+02  0.00000000000E+00 0. -1.
         21    1    1    2  503  504 -0.92197333390E+02  0.42366684989E+02  0.22367079123E+03  0.24560925702E+03  0.00000000000E+00 0. -1.
         21    1    1    2  504  501 -0.46499164928E+02  0.46786449459E+02  0.10181675684E+03  0.12131692448E+03  0.00000000000E+00 0. -1.
         21    1    1    2  505  503  0.14344985845E+03 -0.58417405246E+02  0.29257102907E+02  0.15762751408E+03  0.00000000000E+00 0. -1.
         21    1    1    2  506  502 -0.47533601280E+01 -0.30735729202E+02  0.45822639796E+03  0.45928064544E+03  0.00000000000E+00 0. -1.
<scales pt_clust_3="30.75127" pt_clust_4="30.75127" pt_clust_5="156.54881" pt_clust_6="31.10112"></scales>
<clustering>
<clus scale="   31.101">  1  6  2 -1</clus>
<clus scale="   30.751">  3  4 -1 -1</clus>
<clus scale="  156.549">  2  5  1 -1</clus>
<clus scale="   31.101">  1  3  2 -1</clus>
</clustering>
</event>
<event>
 6    0  0.8641190E+002  0.8830290E+02  0.7546771E-02  0.1307014E+00
         21   -1    0    0  504  501  0.00000000000E+00  0.00000000000E+00  0.27492337973E+03  0.27492337973E+03  0.00000000000E+00 0. -1.
         21   -1    0    0  506  502 -0.00000000000E+00 -0.00000000000E+00 -0.32679920305E+03  0.32679920305E+03  0.00000000000E+00 0. -1.
         21    1    1    2  503  505 -0.69823270579E+02 -0.60379974717E+02 -0.14063618762E+03  0.16822475362E+03  0.00000000000E+00 0. -1.
         21    1    1    2  504  503  0.22356264765E+02 -0.45484917514E+02  0.23106633404E+03  0.23655936046E+03  0.00000000000E+00 0. -1.
         21    1    1    2  505  502  0.31338342974E+02  0.38413113912E+01 -0.22591307117E+02  0.38822861445E+02  0.00000000000E+00 0.  1.
         21    1    1    2  506  501  0.16128662841E+02  0.10202358084E+03 -0.11971466262E+03  0.15811560726E+03  0.00000000000E+00 0. -1.
<scales pt_clust_3="88.30290" pt_clust_4="50.77915" pt_clust_5="31.57289" pt_clust_6="14000.00000"></scales>
<clustering>
<clus scale="   31.573">  2  5  1 -1</clus>
<clus scale="   50.779">  1  4  2 -1</clus>
<clus scale="   88.303">  2  3  1 -1</clus>
<clus scale="   50.779">  1  3  2 -1</clus>
</clustering>
</event>
<event>
 6    0  0.8641190E+002  0.1184500E+03  0.7546771E-02  0.1245676E+00
         21   -1    0    0  503  501  0.00000000000E+00  0.00000000000E+00  0.77986958474E+03  0.77986958474E+03  0.00000000000E+00 0. -1.
         21   -1    0    0  506  502 -0.00000000000E+00 -0.00000000000E+00 -0.36757575983E+03  0.36757575983E+03  0.00000000000E+00 0.  1.
         21    1    1    2  503  505  0.53900516532E+02  0.23075566535E+01  0.13343917226E+03  0.14393263422E+03  0.00000000000E+00 0. -1.
         21    1    1    2  504  501 -0.96906615312E+02  0.53650627154E-01  0.50814525975E+03  0.51730310262E+03  0.00000000000E+00 0. -1.
         21    1    1    2  505  502  0.56724579228E+02  0.61458790691E+02  0.11141146488E+03  0.13931035621E+03  0.00000000000E+00 0. -1.
         21    1    1    2  506  504 -0.13718480448E+02 -0.63819997972E+02 -0.34070207198E+03  0.34689925151E+03  0.00000000000E+00 0.  1.
<scales pt_clust_3="50.60972" pt_clust_4="100.29807" pt_clust_5="50.60972" pt_clust_6="65.27778"></scales>
<clustering>
<clus scale="   50.610">  3  5 -1 -1</clus>
<clus scale="   65.278">  2  6  1 -1</clus>
<clus scale="  100.298">  1  4  2 -1</clus>
<clus scale="  100.298">  1  3  2 -1</clus>
</clustering>
</event>
<event>
 6    0  0.8641190E+002  0.1306610E+03  0.7546771E-02  0.1226478E+00
         21   -1    0    0  505  501  0.00000000000E+00  0.00000000000E+00  0.33403405491E+03  0.33403405491E+03  0.00000000000E+00 0.  1.
         21   -1    0    0  503  502 -0.00000000000E+00 -0.00000000000E+00 -0.21607968876E+03  0.21607968876E+03  0.00000000000E+00 0.  1.
         21    1    1    2  503  506 -0.16631308675E+02 -0.29188624634E+02 -0.13821770307E+03  0.14224172973E+03  0.00000000000E+00 0.  1.
         21    1    1    2  504  501 -0.42655326460E+02  0.33588222013E+01  0.59926825251E+02  0.73634115372E+02  0.00000000000E+00 0.  1.
         21    1    1    2  505  502 -0.17657806430E+02  0.13541491660E+03  0.10359113283E+03  0.17140630259E+03  0.00000000000E+00 0.  1.
         21    1    1    2  506  504  0.76944441565E+02 -0.10958511417E+03  0.92654111136E+02  0.16283159597E+03  0.00000000000E+00 0.  1.
<scales pt_clust_3="33.59429" pt_clust_4="44.16399" pt_clust_5="130.66099" pt_clust_6="14000.00000"></scales>
<clustering>
<clus scale="   33.594">  2  3  1 -1</clus>
<clus scale="   44.164">  1  4  2 -1</clus>
<clus scale="  130.661">  2  5  1 -1</clus>
<clus scale="   44.164">  1  3  2 -1</clus>
</clustering>
</event>
<event>
 6    0  0.8641190E+002  0.1726375E+03  0.7546771E-02  0.1175125E+00
         21   -1    0    0  506  501  0.00000000000E+00  0.00000000000E+00  0.14458446897E+04  0.14458446897E+04  0.00000000000E+00 0. -1.
         21   -1    0    0  503  502 -0.00000000000E+00 -0.00000000000E+00 -0.36087831217E+03  0.36087831217E+03  0.00000000000E+00 0. -1.
         21    1    1    2  503  505  0.45307299556E+01  0.53190042289E+02 -0.28386941587E+03  0.28884520661E+03  0.00000000000E+00 0. -1.
         21    1    1    2  504  502 -0.11256327909E+03 -0.68289121473E+02  0.21895951770E+02  0.13346658239E+03  0.00000000000E+00 0. -1.
         21    1    1    2  505  501 -0.35862161921E+02 -0.89032337395E+02  0.17963696306E+03  0.20367201638E+03  0.00000000000E+00 0. -1.
         21    1    1    2  506  504  0.14389471106E+03  0.10413141658E+03  0.11673028785E+04  0.11807391964E+04  0.00000000000E+00 0. -1.
<scales pt_clust_3="53.38266" pt_clust_4="14000.00000" pt_clust_5="87.79058" pt_clust_6="172.63754"></scales>
<clustering>
<clus scale="   53.383">  2  3  1 -1</clus>
<clus scale="   87.791">  2  5  1 -1</clus>
<clus scale="  172.638">  1  6  2 -1</clus>
<clus scale="  172.638">  1  3  2 -1</clus>
</clustering>
</event>
<event>
 6    0  0.8641190E+002  0.7029038E+02  0.7546771E-02  0.1359108E+00
         21   -1    0    0  503  501  0.00000000000E+00  0.00000000000E+00  0.27740528342E+03  0.27740528342E+03  0.00000000000E+00 0. -1.
         21   -1    0    0  505  502 -0.00000000000E+00 -0.00000000000E+00 -0.56991789169E+03  0.56991789169E+03  0.00000000000E+00 0. -1.
         21    1    1    2  503  502  0.33353325546E+02  0.23987167871E+02 -0.50619436424E+03  0.50785880217E+03  0.00000000000E+00 0. -1.
         21    1    1    2  504  506 -0.24405283136E+02 -0.86569133068E+02  0.51568845670E+02  0.10367824501E+03  0.00000000000E+00 0. -1.
         21    1    1    2  505  504 -0.64535871827E+02  0.22084547475E+02  0.10119292841E+02  0.68956552098E+02  0.00000000000E+00 0. -1.
         21    1    1    2  506  501  0.55587829418E+02  0.40497417723E+02  0.15199361746E+03  0.16682957582E+03  0.00000000000E+00 0. -1.
<scales pt_clust_3="41.08319" pt_clust_4="70.29038" pt_clust_5="59.19274" pt_clust_6="14000.00000"></scales>
<clustering>
<clus scale="   41.083">  2  3  1 -1</clus>
<clus scale="   59.193">  2  5  1 -1</clus>
<clus scale="   70.290">  2  4  1 -1</clus>
<clus scale="   70.290">  1  3  2 -1</clus>
</clustering>
</event>
<event>
 6    0  0.8641190E+002  0.1273411E+03  0.7546771E-02  0.1231455E+00
         21   -1    0    0  504  501  0.00000000000E+00  0.00000000000E+00  0.17038458381E+04  0.17038458381E+04  0.00000000000E+00 0.  1.
         21   -1    0    0  503  502 -0.00000000000E+00 -0.00000000000E+00 -0.19233574700E+03  0.19233574700E+03  0.00000000000E+00 0.  1.
         21    1    1    2  503  505 -0.56919180065E+01  0.54381774524E+02 -0.10679849724E+03  0.11998205843E+03  0.00000000000E+00 0.  1.
         21    1    1    2  504  506 -0.91684138086E+02  0.25517918884E+02 -0.18393829570E+02  0.96930275596E+02  0.00000000000E+00 0. -1.
         21    1    1    2  505  501  0.11633039489E+03 -0.55304869910E+02  0.16426172474E+04  0.16476597982E+04  0.00000000000E+00 0.  1.
         21    1    1    2  506  502 -0.18954338796E+02 -0.24594823499E+02 -0.59148294273E+01  0.31609452847E+02  0.00000000000E+00 0.  1.
<scales pt_clust_3="42.36385" pt_clust_4="14000.00000" pt_clust_5="127.34112" pt_clust_6="31.05112"></scales>
<clustering>
<clus scale="   31.051">  2  6  1 -1</clus>
<clus scale="   42.364">  2  3  1 -1</clus>
<clus scale="  127.341">  1  5  2 -1</clus>
<clus scale="  127.341">  1  3  2 -1</clus>
</clustering>
</event>
<event>
 6    0  0.8641190E+002  0.1543538E+03  0.7546771E-02  0.1195223E+00
         21   -1    0    0  503  501  0.00000000000E+00  0.00000000000E+00  0.15844441984E+04  0.15844441984E+04  0.00000000000E+00 0. -1.
         21   -1    0    0  504  502 -0.00000000000E+00 -0.00000000000E+00 -0.13392954494E+03  0.13392954494E+03  0.00000000000E+00 0. -1.
         21    1    1    2  503  506  0.89527696771E+02 -0.44413441936E+02  0.14664225092E+02  0.10100891946E+03  0.00000000000E+00 0. -1.
         21    1    1    2  504  505 -0.85880768961E+02  0.38019497023E+02  0.78760463821E+02  0.12257324052E+03  0.00000000000E+00 0.  1.
         21    1    1    2  505  501 -0.62150281017E+02  0.54417497380E+02  0.14035509731E+04  0.14059798204E+04  0.00000000000E+00 0. -1.
         21    1    1    2  506  502  0.58503353207E+02 -0.48023552466E+02 -0.46461008490E+02  0.88811762947E+02  0.00000000000E+00 0. -1.
<scales pt_clust_3="58.78672" pt_clust_4="138.78769" pt_clust_5="82.60703" pt_clust_6="58.78672"></scales>
<clustering>
<clus scale="   58.787">  3  6 -1 -1</clus>
<clus scale="   82.607">  1  5  2 -1</clus>
<clus scale="  138.788">  1  4  2 -1</clus>
<clus scale="   82.607">  1  3  2 -1</clus>
</clustering>
</event>
<event>
 6    0  0.8641190E+002  0.9344081E+02  0.7546771E-02  0.1294727E+00
         21   -1    0    0  505  501  0.00000000000E+00  0.00000000000E+00  0.84544368571E+02  0.84544368571E+02  0.00000000000E+00 0.  1.
         21   -1    0    0  504  502 -0.00000000000E+00 -0.00000000000E+00 -0.68333865156E+03  0.68333865156E+03  0.00000000000E+00 0.  1.
         21    1    1    2  503  502  0.27915860366E+02  0.81756594696E+02 -0.40675019240E+03  0.41582346622E+03  0.00000000000E+00 0.  1.
         21    1    1    2  504  506 -0.43148601217E+02 -0.13944068794E+03 -0.12396574667E+03  0.19150199369E+03  0.00000000000E+00 0.  1.
         21    1    1    2  505  503 -0.26215980207E+02  0.87842676143E+02 -0.29158195689E+02  0.96196744987E+02  0.00000000000E+00 0.  1.
         21    1    1    2  506  501  0.41448721058E+02 -0.30158582903E+02 -0.38920148226E+02  0.64360815237E+02  0.00000000000E+00 0.  1.
<scales pt_clust_3="14000.00000" pt_clust_4="93.44081" pt_clust_5="74.08752" pt_clust_6="51.25950"></scales>
<clustering>
<clus scale="   51.260">  1  6  2 -1</clus>
<clus scale="   74.088">  1  5  2 -1</clus>
<clus scale="   93.441">  1  4  2 -1</clus>
<clus scale="   51.260">  1  3  2 -1</clus>
</clustering>
</event>
<event>
 6    0  0.8641190E+002  0.1779494E+03  0.7546771E-02  0.1169802E+00
         21   -1    0    0  503  501  0.00000000000E+00  0.00000000000E+00  0.21037936221E+03  0.21037936221E+03  0.00000000000E+00 0.  1.
         21   -1    0    0  506  502 -0.00000000000E+00 -0.00000000000E+00 -0.32538788799E+03  0.32538788799E+03  0.00000000000E+00 0.  1.
         21    1    1    2  503  504 -0.56373520771E+02 -0.68580392435E+02 -0.70645513521E+02  0.11345498073E+03  0.00000000000E+00 0. -1.
         21    1    1    2  504  502  0.41077992190E+01 -0.79716561024E+02 -0.11755491325E+03  0.14209420025E+03  0.00000000000E+00 0.  1.
         21    1    1    2  505  501  0.19669236258E+02 -0.25709244836E+02  0.96381966448E+02  0.10167264913E+03  0.00000000000E+00 0.  1.
         21    1    1    2  506  505  0.32596485294E+02  0.17400619829E+03 -0.23190065458E+02  0.17854542009E+03  0.00000000000E+00 0.  1.
<scales pt_clust_3="68.75877" pt_clust_4="68.75877" pt_clust_5="32.37042" pt_clust_6="162.79960"></scales>
<clustering>
<clus scale="   32.370">  1  5  2 -1</clus>
<clus scale="   68.759">  3  4 -1 -1</clus>
<clus scale="  162.800">  1  6  2 -1</clus>
<clus scale="   32.370">  1  3  2 -1</clus>
</clustering>
</event>
<event>
 6    0  0.8641190E+002  0.8210181E+02  0.7546771E-02  0.1323190E+00
         21   -1    0    0  504  501  0.00000000000E+00  0.00000000000E+00  0.24999982475E+03  0.24999982475E+03  0.00000000000E+00 0. -1.
         21   -1    0    0  505  502 -0.00000000000E+00 -0.00000000000E+00 -0.28725143661E+03  0.28725143661E+03  0.00000000000E+00 0.  1.
         21    1    1    2  503  502 -0.48162237241E+02  0.84442727913E+01 -0.33109643225E+02  0.59052140635E+02  0.00000000000E+00 0. -1.
         21    1    1    2  504  503  0.53769685648E+01 -0.11090033294E+03 -0.19673121958E+03  0.22590035058E+03  0.00000000000E+00 0.  1.
         21    1    1    2  505  506 -0.38105866165E+01  0.35182796451E+02 -0.74532046875E+01  0.36164900063E+02  0.00000000000E+00 0. -1.
         21    1    1    2  506  501  0.46595855293E+02  0.67273263698E+02  0.20004245563E+03  0.21613387008E+03  0.00000000000E+00 0. -1.
<scales pt_clust_3="50.94625" pt_clust_4="82.10181" pt_clust_5="35.38855" pt_clust_6="14000.00000"></scales>
<clustering>
<clus scale="   35.389">  2  5  1 -1</clus>
<clus scale="   50.946">  2  3  1 -1</clus>
<clus scale="   82.102">  2  4  1 -1</clus>
<clus scale="   82.102">  1  3  2 -1</clus>
</clustering>
</event>
<event>
 6    0  0.8641190E+002  0.6787856E+02  0.7546771E-02  0.1367459E+00
         21   -1    0    0  505  501  0.00000000000E+00  0.00000000000E+00  0.22275460940E+03  0.22275460940E+03  0.00000000000E+00 0. -1.
         21   -1    0    0  504  502 -0.00000000000E+00 -0.00000000000E+00 -0.10986150747E+03  0.10986150747E+03  0.00000000000E+00 0. -1.
         21    1    1    2  503  502 -0.65097853263E+02 -0.64043008148E+01 -0.31337516936E+02  0.72531272814E+02  0.00000000000E+00 0. -1.
         21    1    1    2  504  506  0.73564731138E+02  0.23661816776E+02  0.45668388982E+02  0.89762202472E+02  0.00000000000E+00 0. -1.
         21    1    1    2  505  503 -0.17379630832E+02  0.58650475785E+02  0.32335672085E+02  0.69191947269E+02  0.00000000000E+00 0. -1.
         21    1    1    2  506  501  0.89127529569E+01 -0.75907991746E+02  0.66226557793E+02  0.10113069432E+03  0.00000000000E+00 0. -1.
<scales pt_clust_3="67.87856" pt_clust_4="14000.00000" pt_clust_5="61.17132" pt_clust_6="47.37500"></scales>
<clustering>
<clus scale="   61.171">  1  5  2 -1</clus>
<clus scale="   47.375">  1  6  2 -1</clus>
<clus scale="   67.879">  2  3  1 -1</clus>
<clus scale="   61.171">  1  3  2 -1</clus>
</clustering>
</event>
<event>
 6    0  0.8641190E+002  0.1343983E+03  0.7546771E-02  0.1221072E+00
         21   -1    0    0  504  501  0.00000000000E+00  0.00000000000E+00  0.25353908049E+02  0.25353908049E+02  0.00000000000E+00 0.  1.
         21   -1    0    0  505  502 -0.00000000000E+00 -0.00000000000E+00 -0.14636866077E+04  0.14636866077E+04  0.00000000000E+00 0.  1.
         21    1    1    2  503  506  0.48665668165E+02  0.50405313139E+02 -0.43879327343E+03  0.44435186470E+03  0.00000000000E+00 0.  1.
         21    1    1    2  504  503  0.21502168490E+02 -0.20945914401E+02 -0.18822937902E+02  0.35431307782E+02  0.00000000000E+00 0.  1.
         21    1    1    2  505  501 -0.10619472037E+03 -0.76310652563E+02 -0.31698291849E+03  0.34289765958E+03  0.00000000000E+00 0.  1.
         21    1    1    2  506  502  0.36026883715E+02  0.46851253825E+02 -0.66373356980E+03  0.66635968366E+03  0.00000000000E+00 0.  1.
<scales pt_clust_3="35.26451" pt_clust_4="30.01790" pt_clust_5="128.76282" pt_clust_6="35.26451"></scales>
<clustering>
<clus scale="   30.018">  1  4  2 -1</clus>
<clus scale="   35.265">  3  6 -1 -1</clus>
<clus scale="  128.763">  1  5  2 -1</clus>
<clus scale="   30.018">  1  3  2 -1</clus>
</clustering>
</event>
<event>
 6    0  0.8641190E+002  0.1201389E+03  0.7546771E-02  0.1242868E+00
         21   -1    0    0  503  501  0.00000000000E+00  0.00000000000E+00  0.15547582699E+04  0.15547582699E+04  0.00000000000E+00 0. -1.
         21   -1    0    0  504  502 -0.00000000000E+00 -0.00000000000E+00 -0.23441099933E+03  0.23441099933E+03  0.00000000000E+00 0.  1.
         21    1    1    2  503  506  0.36108272706E+02 -0.67703723888E+02 -0.57865114390E+01  0.76948588686E+02  0.00000000000E+00 0.  1.
         21    1    1    2  504  501 -0.15287953969E+01 -0.52178108666E+02  0.14939751824E+04  0.14948868646E+04  0.00000000000E+00 0. -1.
         21    1    1    2  505  502 -0.22896085000E+02  0.42457317522E+02 -0.10960542586E+03  0.11975059039E+03  0.00000000000E+00 0.  1.
         21    1    1    2  506  505 -0.11683392309E+02  0.77424515032E+02 -0.58235974534E+02  0.97583225575E+02  0.00000000000E+00 0. -1.
<scales pt_clust_3="104.58250" pt_clust_4="52.20050" pt_clust_5="46.40720" pt_clust_6="46.40720"></scales>
<clustering>
<clus scale="   46.407">  5  6 -1 -1</clus>
<clus scale="   52.201">  1  4  2 -1</clus>
<clus scale="  104.582">  1  3  2 -1</clus>
<clus scale="   52.201">  1  3  2 -1</clus>
</clustering>
</event>
<event>
 6    0  0.8641190E+002  0.1185695E+03  0.7546771E-02  0.1245476E+00
         21   -1    0    0  504  501  0.00000000000E+00  0.00000000000E+00  0.11680707470E+04  0.11680707470E+04  0.00000000000E+00 0. -1.
         21   -1    0    0  503  502 -0.00000000000E+00 -0.00000000000E+00 -0.14137647804E+03  0.14137647804E+03  0.00000000000E+00 0.  1.
         21    1    1    2  503  505 -0.51383372743E+02 -0.31250580212E+02 -0.38629427222E+02  0.71477845557E+02  0.00000000000E+00 0.  1.
         21    1    1    2  504  506  0.90587069675E+02  0.64253580049E+02  0.10928002415E+04  0.10984292911E+04  0.00000000000E+00 0. -1.
         21    1    1    2  505  501 -0.62997688451E+02  0.71306388379E+01 -0.56223105332E+02  0.84738375802E+02  0.00000000000E+00 0.  1.
         21    1    1    2  506  502  0.23793991519E+02 -0.40133638675E+02  0.28746559969E+02  0.54801712526E+02  0.00000000000E+00 0. -1.
<scales pt_clust_3="40.64673" pt_clust_4="110.98208" pt_clust_5="40.64673" pt_clust_6="46.65686"></scales>
<clustering>
<clus scale="   40.647">  3  5 -1 -1</clus>
<clus scale="   46.657">  2  6  1 -1</clus>
<clus scale="  110.982">  1  4  2 -1</clus>
<clus scale="  110.982">  1  3  2 -1</clus>
</clustering>
</event>
<event>
 6    0  0.8641190E+002  0.1972536E+03  0.7546771E-02  0.1152077E+00
         21   -1    0    0  504  501  0.00000000000E+00  0.00000000000E+00  0.49709126488E+03  0.49709126488E+03  0.00000000000E+00 0. -1.
         21   -1    0    0  503  502 -0.00000000000E+00 -0.00000000000E+00 -0.14943425041E+03  0.14943425041E+03  0.00000000000E+00 0. -1.
         21    1    1    2  503  501  0.47946341041E+02 -0.18931850736E+03 -0.19921688380E+02  0.19630899754E+03  0.00000000000E+00 0. -1.
         21    1    1    2  504  505 -0.23099500468E+01  0.84315703414E+02  0.21024169091E+03  0.22653044455E+03  0.00000000000E+00 0. -1.
         21    1    1    2  505  506 -0.77711284613E+02  0.66268198203E+02  0.13335314066E+03  0.16796897920E+03  0.00000000000E+00 0. -1.
         21    1    1    2  506  502  0.32074893618E+02  0.38734605738E+02  0.23983871274E+02  0.55717093998E+02  0.00000000000E+00 0.  1.
<scales pt_clust_3="174.40046" pt_clust_4="84.77756" pt_clust_5="84.77756" pt_clust_6="50.29084"></scales>
<clustering>
<clus scale="   50.291">  2  6  1 -1</clus>
<clus scale="   84.778">  4  5 -1 -1</clus>
<clus scale="  174.400">  2  3  1 -1</clus>
<clus scale="  197.254">  1  3  2 -1</clus>
</clustering>
</event>
<event>
 6    0  0.8641190E+002  0.1589567E+03  0.7546771E-02  0.1189880E+00
         21   -1    0    0  503  501  0.00000000000E+00  0.00000000000E+00  0.79403730349E+03  0.79403730349E+03  0.00000000000E+00 0.  1.
         21   -1    0    0  505  502 -0.00000000000E+00 -0.00000000000E+00 -0.96345207977E+03  0.96345207977E+03  0.00000000000E+00 0.  1.
         21    1    1    2  503  504  0.72250704888E+02  0.42559182052E+02  0.72707949641E+03  0.73189892911E+03  0.00000000000E+00 0.  1.
         21    1    1    2  504  506  0.11756058524E+03  0.87246536610E+02 -0.12266810865E+03  0.19099715766E+03  0.00000000000E+00 0.  1.
         21    1    1    2  505  501 -0.16864913707E+03  0.83868154466E+01 -0.35639773089E+03  0.39437572528E+03  0.00000000000E+00 0.  1.
         21    1    1    2  506  502 -0.21162153059E+02 -0.13819253411E+03 -0.41742843315E+03  0.44021757121E+03  0.00000000000E+00 0.  1.
<scales pt_clust_3="83.85373" pt_clust_4="158.95673" pt_clust_5="14000.00000" pt_clust_6="130.94983"></scales>
<clustering>
<clus scale="   83.854">  1  3  2 -1</clus>
<clus scale="  130.950">  2  6  1 -1</clus>
<clus scale="  158.957">  1  4  2 -1</clus>
<clus scale="   83.854">  1  3  2 -1</clus>
</clustering>
</event>
<event>
 6    0  0.8641190E+002  0.1324054E+03  0.7546771E-02  0.1223930E+00
         21   -1    0    0  506  501  0.00000000000E+00  0.00000000000E+00  0.71235339565E+03  0.71235339565E+03  0.00000000000E+00 0.  1.
         21   -1    0    0  505  502 -0.00000000000E+00 -0.00000000000E+00 -0.12336745642E+03  0.12336745642E+03  0.00000000000E+00 0.  1.
         21    1    1    2  503  504  0.13800357910E+02  0.76129877351E+02  0.51077469874E+01  0.77539004270E+02  0.00000000000E+00 0.  1.
         21    1    1    2  504  502 -0.56741913139E+02 -0.39100940172E+02 -0.45400742651E+02  0.82521243703E+02  0.00000000000E+00 0.  1.
         21    1    1    2  505  501  0.71260124082E+02 -0.94678126958E+02  0.58682312748E+03  0.59866796803E+03  0.00000000000E+00 0.  1.
         21    1    1    2  506  503 -0.28318568853E+02  0.57649189780E+02  0.42455807419E+02  0.76992636062E+02  0.00000000000E+00 0.  1.
<scales pt_clust_3="53.98072" pt_clust_4="68.90957" pt_clust_5="118.41060" pt_clust_6="53.98072"></scales>
<clustering>
<clus scale="   53.981">  3  6 -1 -1</clus>
<clus scale="   68.910">  2  4  1 -1</clus>
<clus scale="  118.411">  1  5  2 -1</clus>
<clus scale="  118.411">  1  3  2 -1</clus>
</clustering>
</event>
<event>
 6    0  0.8641190E+002  0.5570827E+02  0.7546771E-02  0.1416779E+00
         21   -1    0    0  503  501  0.00000000000E+00  0.00000000000E+00  0.13702556335E+03  0.13702556335E+03  0.00000000000E+00 0. -1.
         21   -1    0    0  506  502 -0.00000000000E+00 -0.00000000000E+00 -0.63441187872E+03  0.63441187872E+03  0.00000000000E+00 0.  1.
         21    1    1    2  503  505  0.65355282810E+02  0.48263119483E+02  0.72402442984E+02  0.10882442485E+03  0.00000000000E+00 0. -1.
         21    1    1    2  504  501 -0.41856863809E+02 -0.26431254057E+01  0.20956837992E+02  0.46884669333E+02  0.00000000000E+00 0. -1.
         21    1    1    2  505  502  0.84465923420E+01  0.43369656465E+02 -0.49773321644E+02  0.66555657698E+02  0.00000000000E+00 0.  1.
         21    1    1    2  506  504 -0.31945011343E+02 -0.88989650543E+02 -0.54097227470E+03  0.54917269019E+03  0.00000000000E+00 0.  1.
<scales pt_clust_3="14000.00000" pt_clust_4="41.94023" pt_clust_5="43.44787" pt_clust_6="55.70827"></scales>
<clustering>
<clus scale="   41.940">  1  4  2 -1</clus>
<clus scale="   43.448">  2  5  1 -1</clus>
<clus scale="   55.708">  2  6  1 -1</clus>
<clus scale="   41.940">  1  3  2 -1</clus>
</clustering>
</event>
<event>
 6    0  0.8641190E+002  0.1138312E+03  0.7546771E-02  0.1253635E+00
         21   -1    0    0  505  501  0.00000000000E+00  0.00000000000E+00  0.14108911863E+04  0.14108911863E+04  0.00000000000E+00 0.  1.
         21   -1    0    0  506  502 -0.00000000000E+00 -0.00000000000E+00 -0.13741849709E+03  0.13741849709E+03  0.00000000000E+00 0.  1.
         21    1    1    2  503  501  0.76462099661E+02 -0.87540214284E+02  0.12881804800E+04  0.12934135807E+04  0.00000000000E+00 0.  1.
         21    1    1    2  504  502 -0.59366286121E+02  0.10325643567E+02 -0.83598338000E+02  0.10305171983E+03  0.00000000000E+00 0.  1.
         21    1    1    2  505  504 -0.59889810825E+02  0.67829817593E+02  0.54973216853E+02  0.10587600373E+03  0.00000000000E+00 0.  1.
         21    1    1    2  506  503  0.42793997285E+02  0.93847531240E+01  0.13917330421E+02  0.45968379141E+02  0.00000000000E+00 0.  1.
<scales pt_clust_3="14000.00000" pt_clust_4="31.75165" pt_clust_5="113.83124" pt_clust_6="43.81096"></scales>
<clustering>
<clus scale="   43.811">  2  6  1 -1</clus>
<clus scale="   31.752">  2  4  1 -1</clus>
<clus scale="  113.831">  2  5  1 -1</clus>
<clus scale="  113.831">  1  3  2 -1</clus>
</clustering>
</event>
<event>
 6    0  0.8641190E+002  0.1022007E+03  0.7546771E-02  0.1275735E+00
         21   -1    0    0  503  501  0.00000000000E+00  0.00000000000E+00  0.76624053327E+02  0.76624053327E+02  0.00000000000E+00 0. -1.
         21   -1    0    0  504  502 -0.00000000000E+00 -0.00000000000E+00 -0.18449517798E+04  0.18449517798E+04  0.00000000000E+00 0. -1.
         21    1    1    2  503  506 -0.17011061365E+02  0.97539461904E+02 -0.45384007616E+02  0.10891754213E+03  0.00000000000E+00 0. -1.
         21    1    1    2  504  505  0.24032960165E+02 -0.26017018041E+02 -0.15567942710E+04  0.15571971200E+04  0.00000000000E+00 0. -1.
         21    1    1    2  505  501 -0.45831775849E+02 -0.10551698216E+03 -0.44543495793E+02  0.12336331797E+03  0.00000000000E+00 0. -1.
         21    1    1    2  506  502  0.38809877049E+02  0.33994538299E+02 -0.12160595212E+03  0.13209785305E+03  0.00000000000E+00 0. -1.
<scales pt_clust_3="102.20073" pt_clust_4="35.41848" pt_clust_5="14000.00000" pt_clust_6="54.29380"></scales>
<clustering>
<clus scale="   35.418">  2  4  1 -1</clus>
<clus scale="   54.294">  2  6  1 -1</clus>
<clus scale="  102.201">  1  3  2 -1</clus>
<clus scale="  102.201">  1  3  2 -1</clus>
</clustering>
</event>
<event>
 6    0  0.8641190E+002  0.1466442E+03  0.7546771E-02  0.1204658E+00
         21   -1    0    0  505  501  0.00000000000E+00  0.00000000000E+00  0.32873014688E+03  0.32873014688E+03  0.00000000000E+00 0. -1.
         21   -1    0    0  504  502 -0.00000000000E+00 -0.00000000000E+00 -0.11169659454E+04  0.11169659454E+04  0.00000000000E+00 0. -1.
         21    1    1    2  503  506  0.92706277481E+01  0.67274190330E+02 -0.17390282713E+03  0.18669213831E+03  0.00000000000E+00 0. -1.
         21    1    1    2  504  501 -0.16415937655E+00 -0.55961875806E+02 -0.71932701072E+03  0.72150059380E+03  0.00000000000E+00 0. -1.
         21    1    1    2  505  503  0.24462810419E+02 -0.13017597749E+03  0.28783777042E+03  0.31685137887E+03  0.00000000000E+00 0. -1.
         21    1    1    2  506  502 -0.33569278790E+02  0.11886366297E+03 -0.18284373105E+03  0.22065198126E+03  0.00000000000E+00 0. -1.
<scales pt_clust_3="43.38496" pt_clust_4="55.96212" pt_clust_5="134.46601" pt_clust_6="43.38496"></scales>
<clustering>
<clus scale="   43.385">  3  6 -1 -1</clus>
<clus scale="   55.962">  2  4  1 -1</clus>
<clus scale="  134.466">  1  5  2 -1</clus>
<clus scale="  134.466">  1  3  2 -1</clus>
</clustering>
</event>
<event>
 6    0  0.8641190E+002  0.1561180E+03  0.7546771E-02  0.1193151E+00
         21   -1    0    0  504  501  0.00000000000E+00  0.00000000000E+00  0.57855248841E+03  0.57855248841E+03  0.00000000000E+00 0. -1.
         21   -1    0    0  506  502 -0.00000000000E+00 -0.00000000000E+00 -0.36270305615E+03  0.36270305615E+03  0.00000000000E+00 0. -1.
         21    1    1    2  503  505  0.20357162154E+02  0.11407434976E+03  0.23330661239E+03  0.26049826623E+03  0.00000000000E+00 0. -1.
         21    1    1    2  504  503  0.37655089191E+02  0.42797958176E+02  0.25335608810E+03  0.25968996581E+03  0.00000000000E+00 0. -1.
         21    1    1    2  505  502 -0.18477781783E+02 -0.15810232820E+03 -0.32032557195E+03  0.35769574592E+03  0.00000000000E+00 0. -1.
         21    1    1    2  506  501 -0.39534469562E+02  0.12300202646E+01  0.49512303721E+02  0.63371566599E+02  0.00000000000E+00 0.  1.
<scales pt_clust_3="14000.00000" pt_clust_4="47.07579" pt_clust_5="156.11796" pt_clust_6="39.55360"></scales>
<clustering>
<clus scale="   39.554">  1  6  2 -1</clus>
<clus scale="   47.076">  1  4  2 -1</clus>
<clus scale="  156.118">  2  5  1 -1</clus>
<clus scale="   39.554">  1  3  2 -1</clus>
</clustering>
</event>
<event>
 6    0  0.8641190E+002  0.1912525E+03  0.7546771E-02  0.1157336E+00
         21   -1    0    0  505  501  0.00000000000E+00  0.00000000000E+00  0.22220966361E+04  0.22220966361E+04  0.00000000000E+00 0. -1.
         21   -1    0    0  503  502 -0.00000000000E+00 -0.00000000000E+00 -0.26796544944E+02  0.26796544944E+02  0.00000000000E+00 0.  1.
         21    1    1    2  503  501  0.61204348620E+02  0.17274431080E+03  0.92837028571E+03  0.94628640304E+03  0.00000000000E+00 0. -1.
         21    1    1    2  504  506 -0.28680091016E+02 -0.10360291874E+03  0.71532551582E+03  0.72335793766E+03  0.00000000000E+00 0. -1.
         21    1    1    2  505  504 -0.74594966527E+02 -0.19048565262E+02  0.46163975015E+03  0.46801550806E+03  0.00000000000E+00 0.  1.
         21    1    1    2  506  502  0.42070708923E+02 -0.50092826800E+02  0.89964539491E+02  0.11123333229E+03  0.00000000000E+00 0.  1.
<scales pt_clust_3="167.81893" pt_clust_4="71.97977" pt_clust_5="71.97977" pt_clust_6="65.41587"></scales>
<clustering>
<clus scale="   65.416">  2  6  1 -1</clus>
<clus scale="   71.980">  4  5 -1 -1</clus>
<clus scale="  167.819">  2  3  1 -1</clus>
<clus scale="  191.253">  1  3  2 -1</clus>
</clustering>
</event>
<event>
 6    0  0.8641190E+002  0.8632366E+02  0.7546771E-02  0.1312007E+00
         21   -1    0    0  505  501  0.00000000000E+00  0.00000000000E+00  0.36364690502E+02  0.36364690502E+02  0.00000000000E+00 0.  1.
         21   -1    0    0  504  502 -0.00000000000E+00 -0.00000000000E+00 -0.60178672380E+03  0.60178672380E+03  0.00000000000E+00 0.  1.
         21    1    1    2  503  506 -0.43967909626E+02 -0.72035430963E+02 -0.15591874397E+03  0.17729335891E+03  0.00000000000E+00 0.  1.
         21    1    1    2  504  501 -0.43879014082E+02 -0.80008509154E+01 -0.12345997329E+03  0.13126974708E+03  0.00000000000E+00 0.  1.
         21    1    1    2  505  503  0.74456902945E+02  0.51129720421E+02 -0.78660630887E+02  0.11977300847E+03  0.00000000000E+00 0.  1.
         21    1    1    2  506  502  0.13390020763E+02  0.28906561457E+02 -0.20738268515E+03  0.20981529985E+03  0.00000000000E+00 0.  1.
<scales pt_clust_3="86.32366" pt_clust_4="39.56508" pt_clust_5="14000.00000" pt_clust_6="31.85721"></scales>
<clustering>
<clus scale="   31.857">  2  6  1 -1</clus>
<clus scale="   39.565">  2  4  1 -1</clus>
<clus scale="   86.324">  2  3  1 -1</clus>
<clus scale="   86.324">  1  3  2 -1</clus>
</clustering>
</event>
<event>
 6    0  0.8641190E+002  0.4580205E+03  0.7546771E-02  0.1025357E+00
         21   -1    0    0  504  501  0.00000000000E+00  0.00000000000E+00  0.20022956747E+03  0.20022956747E+03  0.00000000000E+00 0. -1.
         21   -1    0    0  503  502 -0.00000000000E+00 -0.00000000000E+00 -0.12358197997E+04  0.12358197997E+04  0.00000000000E+00 0. -1.
         21    1    1    2  503  501 -0.29492375032E+03  0.31761565469E+03 -0.48097409049E+03  0.64745331749E+03  0.00000000000E+00 0. -1.
         21    1    1    2  504  506  0.40407672161E+02 -0.45717059065E+02 -0.14618293992E+02  0.62741724381E+02  0.00000000000E+00 0.  1.
         21    1    1    2  505  502 -0.25438794671E+02  0.17232650415E+02 -0.19008612708E+03  0.19255345290E+03  0.00000000000E+00 0.  1.
         21    1    1    2  506  505  0.27995487284E+03 -0.28913124604E+03 -0.34991172071E+03  0.53330087244E+03  0.00000000000E+00 0. -1.
<scales pt_clust_3="449.61506" pt_clust_4="34.24571" pt_clust_5="30.72615" pt_clust_6="34.24571"></scales>
<clustering>
<clus scale="   30.726">  2  5  1 -1</clus>
<clus scale="   34.246">  4  6 -1 -1</clus>
<clus scale="  449.615">  2  3  1 -1</clus>
<clus scale="  458.021">  1  3  2 -1</clus>
</clustering>
</event>
<event>
 6    0  0.8641190E+002  0.5874092E+02  0.7546771E-02  0.1403193E+00
         21   -1    0    0  504  501  0.00000000000E+00  0.00000000000E+00  0.80643201264E+03  0.80643201264E+03  0.00000000000E+00 0. -1.
         21   -1    0    0  503  502 -0.00000000000E+00 -0.00000000000E+00 -0.70522445849E+03  0.70522445849E+03  0.00000000000E+00 0. -1.
         21    1    1    2  503  505  0.26113565307E+02  0.32036837603E+02  0.16190515478E+01  0.41363009859E+02  0.00000000000E+00 0. -1.
         21    1    1    2  504  502 -0.53366773321E+02 -0.12861442990E+03 -0.61736975325E+03  0.63287842142E+03  0.00000000000E+00 0. -1.
         21    1    1    2  505  506  0.20894606353E+02  0.38316446815E+02 -0.51056313699E+02  0.67167565385E+02  0.00000000000E+00 0. -1.
         21    1    1    2  506  501  0.63586016598E+01  0.58261145482E+02  0.76801456954E+03  0.77024747446E+03  0.00000000000E+00 0. -1.
<scales pt_clust_3="41.33131" pt_clust_4="58.74092" pt_clust_5="47.15205" pt_clust_6="14000.00000"></scales>
<clustering>
<clus scale="   41.331">  2  3  1 -1</clus>
<clus scale="   47.152">  2  5  1 -1</clus>
<clus scale="   58.741">  2  4  1 -1</clus>
<clus scale="   58.741">  1  3  2 -1</clus>
</clustering>
</event>
<event>
 6    0  0.8641190E+002  0.9703490E+02  0.7546771E-02  0.1286658E+00
         21   -1    0    0  504  501  0.00000000000E+00  0.00000000000E+00  0.26560531110E+03  0.26560531110E+03  0.00000000000E+00 0. -1.
         21   -1    0    0  505  502 -0.00000000000E+00 -0.00000000000E+00 -0.80179985624E+03  0.80179985624E+03  0.00000000000E+00 0. -1.
         21    1    1    2  503  506  0.72551083434E+02  0.32916742664E+02 -0.33953859345E+03  0.34876012974E+03  0.00000000000E+00 0. -1.
         21    1    1    2  504  503 -0.14440809608E+02  0.11688205262E+03 -0.25781509772E+03  0.28344060369E+03  0.00000000000E+00 0. -1.
         21    1    1    2  505  501  0.88495513543E+00 -0.96314158025E+02  0.22954772980E+03  0.24893645864E+03  0.00000000000E+00 0. -1.
         21    1    1    2  506  502 -0.58995228961E+02 -0.53484637261E+02 -0.16838858378E+03  0.18626797527E+03  0.00000000000E+00 0. -1.
<scales pt_clust_3="40.18612" pt_clust_4="14000.00000" pt_clust_5="97.03490" pt_clust_6="79.63067"></scales>
<clustering>
<clus scale="   79.631">  2  6  1 -1</clus>
<clus scale="   40.186">  2  3  1 -1</clus>
<clus scale="   97.035">  1  5  2 -1</clus>
<clus scale="   97.035">  1  3  2 -1</clus>
</clustering>
</event>
<event>
 6    0  0.8641190E+002  0.1084776E+03  0.7546771E-02  0.1263415E+00
         21   -1    0    0  504  501  0.00000000000E+00  0.00000000000E+00  0.92758615933E+03  0.92758615933E+03  0.00000000000E+00 0.  1.
         21   -1    0    0  505  502 -0.00000000000E+00 -0.00000000000E+00 -0.49121172853E+03  0.49121172853E+03  0.00000000000E+00 0. -1.
         21    1    1    2  503  501  0.55132345412E+01 -0.10009157598E+03  0.28827833787E+03  0.30520995957E+03  0.00000000000E+00 0.  1.
         21    1    1    2  504  502 -0.23908043242E+02 -0.19099788550E+02 -0.50796441980E+01  0.31019336542E+02  0.00000000000E+00 0. -1.
         21    1    1    2  505  506 -0.83340214938E+02 -0.88233050118E+00 -0.45079277543E+03  0.45843265188E+03  0.00000000000E+00 0. -1.
         21    1    1    2  506  503  0.10173502364E+03  0.12007369503E+03  0.60396851255E+03  0.62413593986E+03  0.00000000000E+00 0.  1.
<scales pt_clust_3="100.56198" pt_clust_4="30.60060" pt_clust_5="14000.00000" pt_clust_6="108.47759"></scales>
<clustering>
<clus scale="   30.601">  2  4  1 -1</clus>
<clus scale="  100.562">  1  3  2 -1</clus>
<clus scale="  108.478">  1  6  2 -1</clus>
<clus scale="  100.562">  1  3  2 -1</clus>
</clustering>
</event>
<event>
 6    0  0.8641190E+002  0.1438991E+03  0.7546771E-02  0.1208177E+00
         21   -1    0    0  503  501  0.00000000000E+00  0.00000000000E+00  0.10592301289E+04  0.10592301289E+04  0.00000000000E+00 0.  1.
         21   -1    0    0  505  502 -0.00000000000E+00 -0.00000000000E+00 -0.17740444317E+03  0.17740444317E+03  0.00000000000E+00 0.  1.
         21    1    1    2  503  504 -0.92502966340E+02  0.80402745348E+02  0.65492232387E+03  0.66629171580E+03  0.00000000000E+00 0.  1.
         21    1    1    2  504  506 -0.21311172326E+02  0.51756524349E+02  0.22385921382E+03  0.23075062620E+03  0.00000000000E+00 0.  1.
         21    1    1    2  505  501  0.55852811820E+02 -0.67137911369E+02  0.14720358118E+03  0.17116053881E+03  0.00000000000E+00 0.  1.
         21    1    1    2  506  502  0.57961326846E+02 -0.65021358328E+02 -0.14415943316E+03  0.16843169125E+03  0.00000000000E+00 0.  1.
<scales pt_clust_3="30.28427" pt_clust_4="30.28427" pt_clust_5="136.74327" pt_clust_6="87.10507"></scales>
<clustering>
<clus scale="   30.284">  3  4 -1 -1</clus>
<clus scale="   87.105">  2  6  1 -1</clus>
<clus scale="  136.743">  2  5  1 -1</clus>
<clus scale="  143.899">  1  3  2 -1</clus>
</clustering>
</event>
<event>
 6    0  0.8641190E+002  0.1726471E+03  0.7546771E-02  0.1175115E+00
         21   -1    0    0  503  501  0.00000000000E+00  0.00000000000E+00  0.13272182860E+03  0.13272182860E+03  0.00000000000E+00 0.  1.
         21   -1    0    0  504  502 -0.00000000000E+00 -0.00000000000E+00 -0.14975367475E+04  0.14975367475E+04  0.00000000000E+00 0.  1.
         21    1    1    2  503  506  0.10835512147E+03 -0.96088622282E+02 -0.79133970561E+03  0.80448268182E+03  0.00000000000E+00 0.  1.
         21    1    1    2  504  505 -0.18660426269E+02  0.46046276477E+02  0.48008789245E+02  0.69089180997E+02  0.00000000000E+00 0.  1.
         21    1    1    2  505  501 -0.73628419947E+02  0.89074623459E+02  0.16999677395E+02  0.11680933952E+03  0.00000000000E+00 0.  1.
         21    1    1    2  506  502 -0.16066275257E+02 -0.39032277655E+02 -0.63848367989E+03  0.63987737371E+03  0.00000000000E+00 0.  1.
<scales pt_clust_3="162.01776" pt_clust_4="39.10668" pt_clust_5="39.10668" pt_clust_6="42.20952"></scales>
<clustering>
<clus scale="   39.107">  4  5 -1 -1</clus>
<clus scale="   42.210">  2  6  1 -1</clus>
<clus scale="  162.018">  2  3  1 -1</clus>
<clus scale="  172.647">  1  3  2 -1</clus>
</clustering>
</event>
<event>
 6    0  0.8641190E+002  0.1084664E+03  0.7546771E-02  0.1263436E+00
         21   -1    0    0  503  501  0.00000000000E+00  0.00000000000E+00  0.16740595093E+03  0.16740595093E+03  0.00000000000E+00 0. -1.
         21   -1    0    0  506  502 -0.00000000000E+00 -0.00000000000E+00 -0.94036647569E+03  0.94036647569E+03  0.00000000000E+00 0. -1.
         21    1    1    2  503  502  0.22201921623E+02  0.24080797908E+02 -0.59677780664E+03  0.59767596627E+03  0.00000000000E+00 0. -1.
         21    1    1    2  504  505  0.84266962667E+02  0.61116375177E+01  0.36316233504E+02  0.91962720307E+02  0.00000000000E+00 0. -1.
         21    1    1    2  505  501  0.19288085752E+02  0.30659486191E+02  0.83392230996E+02  0.90919186842E+02  0.00000000000E+00 0. -1.
         21    1    1    2  506  504 -0.12575697004E+03 -0.60851921617E+02 -0.29589118262E+03  0.32721455320E+03  0.00000000000E+00 0. -1.
<scales pt_clust_3="32.75378" pt_clust_4="14000.00000" pt_clust_5="36.57529" pt_clust_6="108.46643"></scales>
<clustering>
<clus scale="   32.754">  2  3  1 -1</clus>
<clus scale="   36.575">  1  5  2 -1</clus>
<clus scale="  108.466">  2  6  1 -1</clus>
<clus scale="   36.575">  1  3  2 -1</clus>
</clustering>
</event>
<event>
 6    0  0.8641190E+002  0.1240206E+03  0.7546771E-02  0.1236608E+00
         21   -1    0    0  504  501  0.00000000000E+00  0.00000000000E+00  0.90224842094E+02  0.90224842094E+02  0.00000000000E+00 0. -1.
         21   -1    0    0  503  502 -0.00000000000E+00 -0.00000000000E+00 -0.41714736780E+03  0.41714736780E+03  0.00000000000E+00 0. -1.
         21    1    1    2  503  505  0.25562356405E+02 -0.52939637847E+02 -0.15682692932E+03  0.16748350689E+03  0.00000000000E+00 0. -1.
         21    1    1    2  504  502  0.17309669955E+02  0.27781064071E+02 -0.69221643965E+02  0.76570543867E+02  0.00000000000E+00 0. -1.
         21    1    1    2  505  506  0.31931491603E+01 -0.78956697092E+02 -0.12409952291E+03  0.14712256048E+03  0.00000000000E+00 0. -1.
         21    1    1    2  506  501 -0.46065175521E+02  0.10411527087E+03  0.23225570480E+02  0.11619559866E+03  0.00000000000E+00 0. -1.
<scales pt_clust_3="37.31604" pt_clust_4="32.73243" pt_clust_5="37.31604" pt_clust_6="116.39299"></scales>
<clustering>
<clus scale="   32.732">  2  4  1 -1</clus>
<clus scale="   37.316">  3  5 -1 -1</clus>
<clus scale="  116.393">  1  6  2 -1</clus>
<clus scale="  116.393">  1  3  2 -1</clus>
</clustering>
</event>
<event>
 6    0  0.8641190E+002  0.1288754E+03  0.7546771E-02  0.1229134E+00
         21   -1    0    0  502  501  0.00000000000E+00  0.00000000000E+00  0.19123673880E+04  0.19123673880E+04  0.00000000000E+00 0. -1.
         21   -1    0    0  504  502 -0.00000000000E+00 -0.00000000000E+00 -0.87437588301E+02  0.87437588301E+02  0.00000000000E+00 0. -1.
         21    1    1    2  503  501 -0.12359860058E+02  0.54686470804E+02  0.89159507974E+03  0.89335612297E+03  0.00000000000E+00 0. -1.
         21    1    1    2  504  505  0.66492768236E+02  0.16500771509E+02 -0.37042769669E+02  0.77882799595E+02  0.00000000000E+00 0. -1.
         21    1    1    2  505  506 -0.60221734090E+01 -0.12561385169E+03  0.11594359608E+03  0.17104976990E+03  0.00000000000E+00 0. -1.
         21    1    1    2  506  503 -0.48110734769E+02  0.54426609380E+02  0.85443389356E+03  0.85751628385E+03  0.00000000000E+00 0. -1.
<scales pt_clust_3="32.57248" pt_clust_4="68.50959" pt_clust_5="123.42695" pt_clust_6="32.57248"></scales>
<clustering>
<clus scale="   32.572">  3  6 -1 -1</clus>
<clus scale="   68.510">  2  4  1 -1</clus>
<clus scale="  123.427">  2  5  1 -1</clus>
<clus scale="  128.875">  1  3  2 -1</clus>
</clustering>
</event>
<event>
 6    0  0.8641190E+002  0.1115732E+03  0.7546771E-02  0.1257684E+00
         21   -1    0    0  506  501  0.00000000000E+00  0.00000000000E+00  0.13073211762E+03  0.13073211762E+03  0.00000000000E+00 0. -1.
         21   -1    0    0  503  502 -0.00000000000E+00 -0.00000000000E+00 -0.17030265957E+04  0.17030265957E+04  0.00000000000E+00 0. -1.
         21    1    1    2  503  501 -0.12118142941E+03 -0.71409679279E+02 -0.12219007336E+04  0.12299697898E+04  0.00000000000E+00 0. -1.
         21    1    1    2  504  502  0.37147990932E+01  0.82641524238E+02 -0.41581636102E+03  0.42396540820E+03  0.00000000000E+00 0. -1.
         21    1    1    2  505  504  0.82273913648E+02  0.22651569653E+02 -0.14101451344E+02  0.86492435534E+02  0.00000000000E+00 0. -1.
         21    1    1    2  506  505  0.35192716673E+02 -0.33883414612E+02  0.79524067835E+02  0.93331079805E+02  0.00000000000E+00 0. -1.
<scales pt_clust_3="111.57319" pt_clust_4="79.82862" pt_clust_5="14000.00000" pt_clust_6="48.85297"></scales>
<clustering>
<clus scale="   48.853">  1  6  2 -1</clus>
<clus scale="   79.829">  2  4  1 -1</clus>
<clus scale="  111.573">  2  3  1 -1</clus>
<clus scale="   48.853">  1  3  2 -1</clus>
</clustering>
</event>
<event>
 6    0  0.8641190E+002  0.1113024E+03  0.7546771E-02  0.1258177E+00
         21   -1    0    0  503  501  0.00000000000E+00  0.00000000000E+00  0.46912220569E+03  0.46912220569E+03  0.00000000000E+00 0.  1.
         21   -1    0    0  504  502 -0.00000000000E+00 -0.00000000000E+00 -0.92118156424E+03  0.92118156424E+03  0.00000000000E+00 0.  1.
         21    1    1    2  503  506 -0.47158657439E+02  0.17556385867E+02  0.12340388447E+03  0.13326921760E+03  0.00000000000E+00 0.  1.
         21    1    1    2  504  501  0.92184264864E+02 -0.57110440409E+02  0.19603372989E+03  0.22402849004E+03  0.00000000000E+00 0.  1.
         21    1    1    2  505  502 -0.36918882976E+02  0.10546994117E+03 -0.89009351996E+03  0.89708047949E+03  0.00000000000E+00 0.  1.
         21    1    1    2  506  505 -0.81067244497E+01 -0.65915886627E+02  0.11859654704E+03  0.13592558281E+03  0.00000000000E+00 0.  1.
<scales pt_clust_3="50.32063" pt_clust_4="111.30239" pt_clust_5="14000.00000" pt_clust_6="64.69128"></scales>
<clustering>
<clus scale="   50.321">  1  3  2 -1</clus>
<clus scale="   64.691">  1  6  2 -1</clus>
<clus scale="  111.302">  1  4  2 -1</clus>
<clus scale="   50.321">  1  3  2 -1</clus>
</clustering>
</event>
<event>
 6    0  0.8641190E+002  0.1338615E+03  0.7546771E-02  0.1221836E+00
         21   -1    0    0  506  501  0.00000000000E+00  0.00000000000E+00  0.30545710570E+03  0.30545710570E+03  0.00000000000E+00 0. -1.
         21   -1    0    0  501  502 -0.00000000000E+00 -0.00000000000E+00 -0.32262356607E+03  0.32262356607E+03  0.00000000000E+00 0. -1.
         21    1    1    2  503  502 -0.47863362986E+02 -0.62933206524E+02 -0.12848384251E+03  0.15086281114E+03  0.00000000000E+00 0. -1.
         21    1    1    2  504  503 -0.41481857866E+01  0.11776883086E+03 -0.63199133945E+02  0.13371924132E+03  0.00000000000E+00 0. -1.
         21    1    1    2  505  504 -0.21304013503E+02  0.39040204094E+02 -0.63392318928E+02  0.77437617642E+02  0.00000000000E+00 0. -1.
         21    1    1    2  506  505  0.73315562276E+02 -0.93875828435E+02  0.23790883501E+03  0.26606100167E+03  0.00000000000E+00 0. -1.
<scales pt_clust_3="79.06636" pt_clust_4="35.42406" pt_clust_5="35.42406" pt_clust_6="120.80551"></scales>
<clustering>
<clus scale="   35.424">  4  5 -1 -1</clus>
<clus scale="   79.066">  2  3  1 -1</clus>
<clus scale="  120.806">  1  6  2 -1</clus>
<clus scale="  120.806">  1  3  2 -1</clus>
</clustering>
</event>
<event>
 6    0  0.8641190E+002  0.9379772E+02  0.7546771E-02  0.1293907E+00
         21   -1    0    0  504  501  0.00000000000E+00  0.00000000000E+00  0.12735617443E+04  0.12735617443E+04  0.00000000000E+00 0.  1.
         21   -1    0    0  505  502 -0.00000000000E+00 -0.00000000000E+00 -0.71353938271E+02  0.71353938271E+02  0.00000000000E+00 0. -1.
         21    1    1    2  503  506  0.13455476743E+02  0.51130742952E+02  0.19872723122E+03  0.20564025665E+03  0.00000000000E+00 0.  1.
         21    1    1    2  504  502 -0.55165022895E+02 -0.82835980882E+02 -0.11740920081E+02  0.10021391462E+03  0.00000000000E+00 0. -1.
         21    1    1    2  505  503  0.37544420257E+02  0.67540887134E+02  0.11760685429E+03  0.14072216280E+03  0.00000000000E+00 0.  1.
         21    1    1    2  506  501  0.41651258944E+01 -0.35835649203E+02  0.89761464063E+03  0.89833934853E+03  0.00000000000E+00 0.  1.
<scales pt_clust_3="35.49913" pt_clust_4="14000.00000" pt_clust_5="93.79772" pt_clust_6="36.07689"></scales>
<clustering>
<clus scale="   36.077">  1  6  2 -1</clus>
<clus scale="   35.499">  1  3  2 -1</clus>
<clus scale="   93.798">  1  5  2 -1</clus>
<clus scale="   36.077">  1  3  2 -1</clus>
</clustering>
</event>
<event>
 6    0  0.8641190E+002  0.2886155E+03  0.7546771E-02  0.1091074E+00
         21   -1    0    0  504  501  0.00000000000E+00  0.00000000000E+00  0.28998966686E+03  0.28998966686E+03  0.00000000000E+00 0. -1.
         21   -1    0    0  503  502 -0.00000000000E+00 -0.00000000000E+00 -0.67256847929E+03  0.67256847929E+03  0.00000000000E+00 0. -1.
         21    1    1    2  503  501 -0.20442409494E+03  0.96790931455E+02  0.43863985439E+02  0.23039475737E+03  0.00000000000E+00 0. -1.
         21    1    1    2  504  505  0.19107821057E+03 -0.31260280620E+02 -0.16878530230E+03  0.25685903910E+03  0.00000000000E+00 0. -1.
         21    1    1    2  505  506  0.18096461718E+03 -0.83689736637E+02 -0.45844708754E+02  0.20458226221E+03  0.00000000000E+00 0. -1.
         21    1    1    2  506  502 -0.16761873280E+03  0.18159085802E+02 -0.21181278683E+03  0.27072208748E+03  0.00000000000E+00 0. -1.
<scales pt_clust_3="260.89509" pt_clust_4="121.62448" pt_clust_5="121.62448" pt_clust_6="168.59950"></scales>
<clustering>
<clus scale="  121.624">  4  5 -1 -1</clus>
<clus scale="  168.600">  2  6  1 -1</clus>
<clus scale="  260.895">  1  3  2 -1</clus>
<clus scale="  260.895">  1  3  2 -1</clus>
</clustering>
</event>
<event>
 6    0  0.8641190E+002  0.8842710E+02  0.7546771E-02  0.1306706E+00
         21   -1    0    0  505  501  0.00000000000E+00  0.00000000000E+00  0.65402502331E+03  0.65402502331E+03  0.00000000000E+00 0.  1.
         21   -1    0    0  503  502 -0.00000000000E+00 -0.00000000000E+00 -0.69516287594E+02  0.69516287594E+02  0.00000000000E+00 0.  1.
         21    1    1    2  503  504  0.37240202267E+02  0.35268517604E+02  0.99407190990E+01  0.52244797780E+02  0.00000000000E+00 0.  1.
         21    1    1    2  504  501 -0.81363028076E+02 -0.53195305912E+02  0.48876238498E+03  0.49833558160E+03  0.00000000000E+00 0.  1.
         21    1    1    2  505  506  0.33510991927E+02  0.65445973541E+02  0.98240541309E+02  0.12270845932E+03  0.00000000000E+00 0.  1.
         21    1    1    2  506  502  0.10611833881E+02 -0.47519185233E+02 -0.12434909681E+02  0.50252472201E+02  0.00000000000E+00 0.  1.
<scales pt_clust_3="44.03686" pt_clust_4="88.42710" pt_clust_5="14000.00000" pt_clust_6="48.68967"></scales>
<clustering>
<clus scale="   48.690">  2  6  1 -1</clus>
<clus scale="   44.037">  2  3  1 -1</clus>
<clus scale="   88.427">  1  4  2 -1</clus>
<clus scale="   88.427">  1  3  2 -1</clus>
</clustering>
</event>
<event>
 6    0  0.8641190E+002  0.1378564E+03  0.7546771E-02  0.1216243E+00
         21   -1    0    0  502  501  0.00000000000E+00  0.00000000000E+00  0.31681146909E+02  0.31681146909E+02  0.00000000000E+00 0.  1.
         21   -1    0    0  504  502 -0.00000000000E+00 -0.00000000000E+00 -0.19992931144E+04  0.19992931144E+04  0.00000000000E+00 0.  1.
         21    1    1    2  503  501  0.31441030638E+02 -0.11959005568E+02  0.62933653649E+01  0.34222254008E+02  0.00000000000E+00 0.  1.
         21    1    1    2  504  505 -0.25160874919E+02  0.42307390863E+02 -0.36003258529E+03  0.36338195802E+03  0.00000000000E+00 0.  1.
         21    1    1    2  505  506 -0.60890455222E+02  0.66382498244E+02 -0.12419707143E+04  0.12452331263E+04  0.00000000000E+00 0.  1.
         21    1    1    2  506  503  0.54610299504E+02 -0.96730883539E+02 -0.37190203320E+03  0.38813692293E+03  0.00000000000E+00 0.  1.
<scales pt_clust_3="33.63861" pt_clust_4="33.13823" pt_clust_5="33.13823" pt_clust_6="130.36411"></scales>
<clustering>
<clus scale="   33.138">  4  5 -1 -1</clus>
<clus scale="   33.639">  1  3  2 -1</clus>
<clus scale="  130.364">  1  6  2 -1</clus>
<clus scale="   33.639">  1  3  2 -1</clus>
</clustering>
</event>
<event>
 6    0  0.8641190E+002  0.9934831E+02  0.7546771E-02  0.1281672E+00
         21   -1    0    0  503  501  0.00000000000E+00  0.00000000000E+00  0.52140922774E+02  0.52140922774E+02  0.00000000000E+00 0.  1.
         21   -1    0    0  504  502 -0.00000000000E+00 -0.00000000000E+00 -0.70865452818E+03  0.70865452818E+03  0.00000000000E+00 0.  1.
         21    1    1    2  503  505 -0.22007098840E+00 -0.37378287574E+02  0.12753042050E+02  0.39494618554E+02  0.00000000000E+00 0.  1.
         21    1    1    2  504  501 -0.13567841998E+02  0.10135640053E+03 -0.14458455771E+03  0.17709291514E+03  0.00000000000E+00 0.  1.
         21    1    1    2  505  506 -0.33053836850E+02  0.24354222755E+02 -0.10408172246E+03  0.11188694850E+03  0.00000000000E+00 0.  1.
         21    1    1    2  506  502  0.46841749836E+02 -0.88332335709E+02 -0.42060036729E+03  0.43232096875E+03  0.00000000000E+00 0.  1.
<scales pt_clust_3="37.37894" pt_clust_4="99.34831" pt_clust_5="38.02900" pt_clust_6="14000.00000"></scales>
<clustering>
<clus scale="   37.379">  1  3  2 -1</clus>
<clus scale="   38.029">  1  5  2 -1</clus>
<clus scale="   99.348">  1  4  2 -1</clus>
<clus scale="   37.379">  1  3  2 -1</clus>
</clustering>
</event>
<event>
 6    0  0.8641190E+002  0.1053868E+03  0.7546771E-02  0.1269359E+00
         21   -1    0    0  504  501  0.00000000000E+00  0.00000000000E+00  0.46336640807E+03  0.46336640807E+03  0.00000000000E+00 0. -1.
         21   -1    0    0  506  502 -0.00000000000E+00 -0.00000000000E+00 -0.16471827892E+03  0.16471827892E+03  0.00000000000E+00 0.  1.
         21    1    1    2  503  501 -0.64501390606E+02 -0.55784678819E+02  0.28805859668E+03  0.30041656896E+03  0.00000000000E+00 0. -1.
         21    1    1    2  504  505 -0.71408389714E+02  0.69655120837E+02  0.24185531636E+01  0.99783983583E+02  0.00000000000E+00 0.  1.
         21    1    1    2  505  502  0.14370086762E+03  0.50471001050E+02 -0.26167490753E+02  0.15453801757E+03  0.00000000000E+00 0.  1.
         21    1    1    2  506  503 -0.77910872967E+01 -0.64341443068E+02  0.34338470059E+02  0.73346116894E+02  0.00000000000E+00 0.  1.
<scales pt_clust_3="87.33947" pt_clust_4="14000.00000" pt_clust_5="105.38678" pt_clust_6="64.81144"></scales>
<clustering>
<clus scale="   64.811">  2  6  1 -1</clus>
<clus scale="   87.339">  1  3  2 -1</clus>
<clus scale="  105.387">  2  5  1 -1</clus>
<clus scale="   87.339">  1  3  2 -1</clus>
</clustering>
</event>
<event>
 6    0  0.8641190E+002  0.9796854E+02  0.7546771E-02  0.1284627E+00
         21   -1    0    0  504  501  0.00000000000E+00  0.00000000000E+00  0.39948758250E+03  0.39948758250E+03  0.00000000000E+00 0.  1.
         21   -1    0    0  505  502 -0.00000000000E+00 -0.00000000000E+00 -0.12888903620E+03  0.12888903620E+03  0.00000000000E+00 0.  1.
         21    1    1    2  503  501  0.40649243374E+02 -0.41539497788E+01  0.70704654017E+02  0.81662502934E+02  0.00000000000E+00 0. -1.
         21    1    1    2  504  506 -0.31790097157E+02  0.99616106762E+01  0.16449902465E+03  0.16783853275E+03  0.00000000000E+00 0. -1.
         21    1    1    2  505  503  0.90386085229E+02  0.33648907825E+02 -0.77308712795E+02  0.12360635289E+03  0.00000000000E+00 0.  1.
         21    1    1    2  506  502 -0.99245231446E+02 -0.39456568723E+02  0.11270358043E+03  0.15526923012E+03  0.00000000000E+00 0.  1.
<scales pt_clust_3="30.28251" pt_clust_4="33.31432" pt_clust_5="97.96854" pt_clust_6="14000.00000"></scales>
<clustering>
<clus scale="   33.314">  1  4  2 -1</clus>
<clus scale="   30.283">  1  3  2 -1</clus>
<clus scale="   97.969">  2  5  1 -1</clus>
<clus scale="   33.314">  1  3  2 -1</clus>
</clustering>
</event>
<event>
 6    0  0.8641190E+002  0.1260498E+03  0.7546771E-02  0.1233438E+00
         21   -1    0    0  505  501  0.00000000000E+00  0.00000000000E+00  0.67463724816E+02  0.67463724816E+02  0.00000000000E+00 0.  1.
         21   -1    0    0  506  502 -0.00000000000E+00 -0.00000000000E+00 -0.82411992527E+03  0.82411992527E+03  0.00000000000E+00 0.  1.
         21    1    1    2  503  504  0.10409650155E+03  0.84607547435E+02 -0.64061056537E+02  0.14865509639E+03  0.00000000000E+00 0.  1.
         21    1    1    2  504  502  0.37909850640E+01  0.30517405660E+02 -0.50868990997E+02  0.59441886419E+02  0.00000000000E+00 0. -1.
         21    1    1    2  505  503  0.68710525835E+01 -0.35032528588E+02 -0.10904007043E+02  0.37328096556E+02  0.00000000000E+00 0.  1.
         21    1    1    2  506  501 -0.11475853920E+03 -0.80092424507E+02 -0.63082214588E+03  0.64615857072E+03  0.00000000000E+00 0.  1.
<scales pt_clust_3="126.04983" pt_clust_4="30.75197" pt_clust_5="34.78499" pt_clust_6="14000.00000"></scales>
<clustering>
<clus scale="   30.752">  2  4  1 -1</clus>
<clus scale="   34.785">  1  5  2 -1</clus>
<clus scale="  126.050">  1  3  2 -1</clus>
<clus scale="   34.785">  1  3  2 -1</clus>
</clustering>
</event>
<event>
 6    0  0.8641190E+002  0.9163643E+02  0.7546771E-02  0.1298937E+00
         21   -1    0    0  503  501  0.00000000000E+00  0.00000000000E+00  0.94445974949E+03  0.94445974949E+03  0.00000000000E+00 0.  1.
         21   -1    0    0  505  502 -0.00000000000E+00 -0.00000000000E+00 -0.47445948430E+02  0.47445948430E+02  0.00000000000E+00 0.  1.
         21    1    1    2  503  502  0.55256229894E+02  0.96276327346E+02  0.33085139618E+03  0.34897711745E+03  0.00000000000E+00 0.  1.
         21    1    1    2  504  501 -0.28623203330E+02 -0.50352819863E+02  0.33532835747E+03  0.34029369898E+03  0.00000000000E+00 0.  1.
         21    1    1    2  505  506  0.54854045266E+01  0.47267147511E+02 -0.41987040005E+01  0.47769258022E+02  0.00000000000E+00 0.  1.
         21    1    1    2  506  504 -0.32118431090E+02 -0.93190654994E+02  0.23503275140E+03  0.25486562347E+03  0.00000000000E+00 0.  1.
<scales pt_clust_3="91.63643" pt_clust_4="52.89645" pt_clust_5="47.58438" pt_clust_6="14000.00000"></scales>
<clustering>
<clus scale="   47.584">  2  5  1 -1</clus>
<clus scale="   52.896">  1  4  2 -1</clus>
<clus scale="   91.636">  1  3  2 -1</clus>
<clus scale="   52.896">  1  3  2 -1</clus>
</clustering>
</event>
<event>
 6    0  0.8641190E+002  0.1035211E+03  0.7546771E-02  0.1273061E+00
         21   -1    0    0  504  501  0.00000000000E+00  0.00000000000E+00  0.35883838867E+02  0.35883838867E+02  0.00000000000E+00 0. -1.
         21   -1    0    0  506  502 -0.00000000000E+00 -0.00000000000E+00 -0.11053658326E+04  0.11053658326E+04  0.00000000000E+00 0. -1.
         21    1    1    2  503  501 -0.95618720762E+02  0.20645669590E+02 -0.11382414705E+03  0.15008370959E+03  0.00000000000E+00 0. -1.
         21    1    1    2  504  502  0.11337074325E+03 -0.26136271774E+02 -0.28533722609E+03  0.30814503520E+03  0.00000000000E+00 0. -1.
         21    1    1    2  505  503 -0.30344919303E+02 -0.52501626718E+02 -0.20056566838E+03  0.20953238954E+03  0.00000000000E+00 0. -1.
         21    1    1    2  506  505  0.12592896817E+02  0.57992228901E+02 -0.46975495225E+03  0.47348853716E+03  0.00000000000E+00 0. -1.
<scales pt_clust_3="14000.00000" pt_clust_4="103.52115" pt_clust_5="42.75979" pt_clust_6="59.34374"></scales>
<clustering>
<clus scale="   59.344">  2  6  1 -1</clus>
<clus scale="   42.760">  2  5  1 -1</clus>
<clus scale="  103.521">  2  4  1 -1</clus>
<clus scale="  103.521">  1  3  2 -1</clus>
</clustering>
</event>
<event>
 6    0  0.8641190E+002  0.7983313E+02  0.7546771E-02  0.1329526E+00
         21   -1    0    0  505  501  0.00000000000E+00  0.00000000000E+00  0.12579915711E+04  0.12579915711E+04  0.00000000000E+00 0.  1.
         21   -1    0    0  504  502 -0.00000000000E+00 -0.00000000000E+00 -0.19010377451E+03  0.19010377451E+03  0.00000000000E+00 0.  1.
         21    1    1    2  503  501  0.43854397629E+02 -0.14374769962E+02  0.11496611379E+04  0.11505870564E+04  0.00000000000E+00 0.  1.
         21    1    1    2  504  506 -0.54757856572E+02 -0.35515143832E+02 -0.37507962393E+02  0.75276792843E+02  0.00000000000E+00 0.  1.
         21    1    1    2  505  502  0.65845130136E+02  0.68951187285E+02 -0.10246251804E+03  0.13995861886E+03  0.00000000000E+00 0.  1.
         21    1    1    2  506  503 -0.54941671193E+02 -0.19061273491E+02  0.58197139135E+02  0.82272877572E+02  0.00000000000E+00 0.  1.
<scales pt_clust_3="46.15021" pt_clust_4="14000.00000" pt_clust_5="79.83313" pt_clust_6="38.78184"></scales>
<clustering>
<clus scale="   46.150">  1  3  2 -1</clus>
<clus scale="   38.782">  1  6  2 -1</clus>
<clus scale="   79.833">  2  5  1 -1</clus>
<clus scale="   46.150">  1  3  2 -1</clus>
</clustering>
</event>
<event>
 6    0  0.8641190E+002  0.1087847E+03  0.7546771E-02  0.1262837E+00
         21   -1    0    0  506  501  0.00000000000E+00  0.00000000000E+00  0.99493082478E+02  0.99493082478E+02  0.00000000000E+00 0. -1.
         21   -1    0    0  505  502 -0.00000000000E+00 -0.00000000000E+00 -0.35425775557E+03  0.35425775557E+03  0.00000000000E+00 0. -1.
         21    1    1    2  503  502 -0.42797356891E+02  0.29042086432E+02 -0.20027277276E+02  0.55463036125E+02  0.00000000000E+00 0. -1.
         21    1    1    2  504  503 -0.51254064352E+02  0.51011323287E+02  0.32747109544E+02  0.79382034489E+02  0.00000000000E+00 0. -1.
         21    1    1    2  505  501  0.41002070610E+02 -0.83432089785E+02 -0.24339721889E+03  0.26054613711E+03  0.00000000000E+00 0. -1.
         21    1    1    2  506  504  0.53049350633E+02  0.33786800663E+01 -0.24087286468E+02  0.58359630319E+02  0.00000000000E+00 0. -1.
<scales pt_clust_3="44.48817" pt_clust_4="44.48817" pt_clust_5="95.22046" pt_clust_6="53.15683"></scales>
<clustering>
<clus scale="   44.488">  3  4 -1 -1</clus>
<clus scale="   53.157">  1  6  2 -1</clus>
<clus scale="   95.220">  2  5  1 -1</clus>
<clus scale="   53.157">  1  3  2 -1</clus>
</clustering>
</event>
<event>
 6    0  0.8641190E+002  0.1307538E+03  0.7546771E-02  0.1226342E+00
         21   -1    0    0  506  501  0.00000000000E+00  0.00000000000E+00  0.71168497926E+03  0.71168497926E+03  0.00000000000E+00 0. -1.
         21   -1    0    0  503  502 -0.00000000000E+00 -0.00000000000E+00 -0.17110651781E+03  0.17110651781E+03  0.00000000000E+00 0. -1.
         21    1    1    2  503  504  0.41634238829E+02  0.70473570703E+02 -0.78945409520E+02  0.11372032226E+03  0.00000000000E+00 0. -1.
         21    1    1    2  504  505 -0.19541584469E+02 -0.18106894112E+03  0.31214481814E+03  0.36138929488E+03  0.00000000000E+00 0. -1.
         21    1    1    2  505  501  0.47831611870E+02  0.39951359057E+02  0.30175648929E+03  0.30812489840E+03  0.00000000000E+00 0. -1.
         21    1    1    2  506  502 -0.69924266231E+02  0.70644011364E+02  0.56225635432E+01  0.99556981525E+02  0.00000000000E+00 0. -1.
<scales pt_clust_3="84.36827" pt_clust_4="14000.00000" pt_clust_5="62.32154" pt_clust_6="130.75375"></scales>
<clustering>
<clus scale="   62.322">  1  5  2 -1</clus>
<clus scale="   84.368">  2  3  1 -1</clus>
<clus scale="  130.754">  2  6  1 -1</clus>
<clus scale="   62.322">  1  3  2 -1</clus>
</clustering>
</event>
<event>
 6    0  0.8641190E+002  0.8024785E+02  0.7546771E-02  0.1328350E+00
         21   -1    0    0  504  501  0.00000000000E+00  0.00000000000E+00  0.23575006003E+02  0.23575006003E+02  0.00000000000E+00 0. -1.
         21   -1    0    0  503  502 -0.00000000000E+00 -0.00000000000E+00 -0.35654983446E+04  0.35654983446E+04  0.00000000000E+00 0. -1.
         21    1    1    2  503  501  0.63314739934E+02 -0.48713108169E+02 -0.61638493309E+02  0.10090107560E+03  0.00000000000E+00 0. -1.
         21    1    1    2  504  506 -0.10249609424E+03  0.45576695261E+00 -0.78548048362E+03  0.79213966395E+03  0.00000000000E+00 0. -1.
         21    1    1    2  505  502 -0.11732806363E+01  0.39499099308E+02 -0.11602333826E+04  0.11609061364E+04  0.00000000000E+00 0. -1.
         21    1    1    2  506  505  0.40354634945E+02  0.87582419076E+01 -0.15345709792E+04  0.15351264747E+04  0.00000000000E+00 0. -1.
<scales pt_clust_3="14000.00000" pt_clust_4="80.24785" pt_clust_5="39.51652" pt_clust_6="52.17639"></scales>
<clustering>
<clus scale="   39.517">  2  5  1 -1</clus>
<clus scale="   52.176">  2  6  1 -1</clus>
<clus scale="   80.248">  2  4  1 -1</clus>
<clus scale="   80.248">  1  3  2 -1</clus>
</clustering>
</event>
<event>
 6    0  0.8641190E+002  0.1464635E+03  0.7546771E-02  0.1204887E+00
         21   -1    0    0  504  501  0.00000000000E+00  0.00000000000E+00  0.16931860337E+03  0.16931860337E+03  0.00000000000E+00 0. -1.
         21   -1    0    0  503  502 -0.00000000000E+00 -0.00000000000E+00 -0.56604336371E+03  0.56604336371E+03  0.00000000000E+00 0.  1.
         21    1    1    2  503  506  0.13920456402E+03  0.13578908082E+02 -0.14166448583E+03  0.19907567389E+03  0.00000000000E+00 0.  1.
         21    1    1    2  504  505 -0.36520608249E+02 -0.17122887288E+03  0.16392715326E+02  0.17584596342E+03  0.00000000000E+00 0. -1.
         21    1    1    2  505  502 -0.61595091002E+02  0.41945190258E+02 -0.21061615551E+03  0.22341109906E+03  0.00000000000E+00 0.  1.
         21    1    1    2  506  501 -0.41088864771E+02  0.11570477454E+03 -0.60836834329E+02  0.13702923072E+03  0.00000000000E+00 0.  1.
<scales pt_clust_3="114.32777" pt_clust_4="146.46348" pt_clust_5="74.52083" pt_clust_6="14000.00000"></scales>
<clustering>
<clus scale="   74.521">  2  5  1 -1</clus>
<clus scale="  114.328">  2  3  1 -1</clus>
<clus scale="  146.463">  1  4  2 -1</clus>
<clus scale="  146.463">  1  3  2 -1</clus>
</clustering>
</event>
<event>
 6    0  0.8641190E+002  0.8811659E+02  0.7546771E-02  0.1307478E+00
         21   -1    0    0  505  501  0.00000000000E+00  0.00000000000E+00  0.40158046614E+03  0.40158046614E+03  0.00000000000E+00 0.  1.
         21   -1    0    0  503  502 -0.00000000000E+00 -0.00000000000E+00 -0.68205094409E+03  0.68205094409E+03  0.00000000000E+00 0. -1.
         21    1    1    2  503  501 -0.11754308564E+03  0.97554194925E+01 -0.59171391145E+03  0.60335470346E+03  0.00000000000E+00 0. -1.
         21    1    1    2  504  502 -0.68052287694E+00  0.33930514306E+02 -0.14401221667E+02  0.36866490177E+02  0.00000000000E+00 0.  1.
         21    1    1    2  505  506  0.87744152296E+02 -0.44877776188E+01  0.36787844415E+03  0.37822443877E+03  0.00000000000E+00 0.  1.
         21    1    1    2  506  504  0.30479456220E+02 -0.39198156180E+02 -0.42233788979E+02  0.65185777826E+02  0.00000000000E+00 0. -1.
<scales pt_clust_3="14000.00000" pt_clust_4="33.93734" pt_clust_5="88.11659" pt_clust_6="47.45691"></scales>
<clustering>
<clus scale="   33.937">  2  4  1 -1</clus>
<clus scale="   47.457">  2  6  1 -1</clus>
<clus scale="   88.117">  1  5  2 -1</clus>
<clus scale="   88.117">  1  3  2 -1</clus>
</clustering>
</event>
<event>
 6    0  0.8641190E+002  0.2444688E+03  0.7546771E-02  0.1116851E+00
         21   -1    0    0  503  501  0.00000000000E+00  0.00000000000E+00  0.35646289732E+03  0.35646289732E+03  0.00000000000E+00 0. -1.
         21   -1    0    0  505  502 -0.00000000000E+00 -0.00000000000E+00 -0.14061431581E+04  0.14061431581E+04  0.00000000000E+00 0. -1.
         21    1    1    2  503  504  0.22770799941E+02  0.22994351056E+02  0.30751921339E+03  0.30921726361E+03  0.00000000000E+00 0. -1.
         21    1    1    2  504  502 -0.18527776150E+03  0.15326252862E+03 -0.41208079521E+03  0.47710358767E+03  0.00000000000E+00 0. -1.
         21    1    1    2  505  506  0.98691378054E+02 -0.87376530731E+02 -0.59688766688E+03  0.61126878957E+03  0.00000000000E+00 0. -1.
         21    1    1    2  506  501  0.63815583510E+02 -0.88880348942E+02 -0.34823101211E+03  0.36501641460E+03  0.00000000000E+00 0. -1.
<scales pt_clust_3="32.36123" pt_clust_4="239.49221" pt_clust_5="44.48918" pt_clust_6="44.48918"></scales>
<clustering>
<clus scale="   32.361">  1  3  2 -1</clus>
<clus scale="   44.489">  5  6 -1 -1</clus>
<clus scale="  239.492">  1  4  2 -1</clus>
<clus scale="   32.361">  1  3  2 -1</clus>
</clustering>
</event>
<event>
 6    0  0.8641190E+002  0.6558872E+02  0.7546771E-02  0.1375771E+00
         21   -1    0    0  503  501  0.00000000000E+00  0.00000000000E+00  0.15420799752E+03  0.15420799752E+03  0.00000000000E+00 0.  1.
         21   -1    0    0  504  502 -0.00000000000E+00 -0.00000000000E+00 -0.29370212981E+03  0.29370212981E+03  0.00000000000E+00 0.  1.
         21    1    1    2  503  502 -0.26011707113E+02  0.79573645928E+02 -0.83706979966E+02  0.11838679203E+03  0.00000000000E+00 0.  1.
         21    1    1    2  504  505 -0.14796699252E+02 -0.62247014765E+02 -0.11643496277E+03  0.13285606389E+03  0.00000000000E+00 0.  1.
         21    1    1    2  505  506  0.40472346074E+02 -0.56761270693E+02 -0.45623461195E+02  0.83314781754E+02  0.00000000000E+00 0.  1.
         21    1    1    2  506  501  0.33606029065E+00  0.39434639530E+02  0.10627127165E+03  0.11335248965E+03  0.00000000000E+00 0.  1.
<scales pt_clust_3="65.58872" pt_clust_4="56.89510" pt_clust_5="14000.00000" pt_clust_6="39.43607"></scales>
<clustering>
<clus scale="   39.436">  1  6  2 -1</clus>
<clus scale="   56.895">  2  4  1 -1</clus>
<clus scale="   65.589">  2  3  1 -1</clus>
<clus scale="   39.436">  1  3  2 -1</clus>
</clustering>
</event>
<event>
 6    0  0.8641190E+002  0.1295916E+03  0.7546771E-02  0.1228063E+00
         21   -1    0    0  505  501  0.00000000000E+00  0.00000000000E+00  0.16148773996E+04  0.16148773996E+04  0.00000000000E+00 0. -1.
         21   -1    0    0  504  502 -0.00000000000E+00 -0.00000000000E+00 -0.44929454577E+02  0.44929454577E+02  0.00000000000E+00 0.  1.
         21    1    1    2  503  502  0.47007637496E+02  0.13761488630E+02  0.24196272843E+03  0.24687052984E+03  0.00000000000E+00 0. -1.
         21    1    1    2  504  506 -0.95787712507E+02 -0.67011876409E+02  0.50452280065E+02  0.12732364278E+03  0.00000000000E+00 0.  1.
         21    1    1    2  505  503  0.66644340496E+02  0.80314826657E+02  0.76938988793E+03  0.77643592082E+03  0.00000000000E+00 0. -1.
         21    1    1    2  506  501 -0.17864265484E+02 -0.27064438878E+02  0.50814304861E+03  0.50917676074E+03  0.00000000000E+00 0. -1.
<scales pt_clust_3="36.95097" pt_clust_4="119.32781" pt_clust_5="36.95097" pt_clust_6="32.42863"></scales>
<clustering>
<clus scale="   32.429">  1  6  2 -1</clus>
<clus scale="   36.951">  3  5 -1 -1</clus>
<clus scale="  119.328">  2  4  1 -1</clus>
<clus scale="   32.429">  1  3  2 -1</clus>
</clustering>
</event>
<event>
 6    0  0.8641190E+002  0.1255418E+03  0.7546771E-02  0.1234225E+00
         21   -1    0    0  506  501  0.00000000000E+00  0.00000000000E+00  0.52975373471E+03  0.52975373471E+03  0.00000000000E+00 0. -1.
         21   -1    0    0  505  502 -0.00000000000E+00 -0.00000000000E+00 -0.69264431242E+02  0.69264431242E+02  0.00000000000E+00 0. -1.
         21    1    1    2  503  502  0.98902735832E+02  0.11914603164E+02  0.27078928789E+03  0.28853170945E+03  0.00000000000E+00 0. -1.
         21    1    1    2  504  501 -0.93515025824E+02 -0.10341476042E+02  0.73426911556E+02  0.11934620866E+03  0.00000000000E+00 0. -1.
         21    1    1    2  505  504 -0.28971723171E+02  0.19396916786E+02 -0.27210627183E+02  0.44226907601E+02  0.00000000000E+00 0. -1.
         21    1    1    2  506  503  0.23584013162E+02 -0.20970043908E+02  0.14348373120E+03  0.14691334023E+03  0.00000000000E+00 0. -1.
<scales pt_clust_3="30.33770" pt_clust_4="113.38211" pt_clust_5="34.86547" pt_clust_6="30.33770"></scales>
<clustering>
<clus scale="   30.338">  3  6 -1 -1</clus>
<clus scale="   34.865">  2  5  1 -1</clus>
<clus scale="  113.382">  2  4  1 -1</clus>
<clus scale="  125.542">  1  3  2 -1</clus>
</clustering>
</event>
<event>
 6    0  0.8641190E+002  0.1022485E+03  0.7546771E-02  0.1275638E+00
         21   -1    0    0  503  501  0.00000000000E+00  0.00000000000E+00  0.17215504821E+04  0.17215504821E+04  0.00000000000E+00 0.  1.
         21   -1    0    0  505  502 -0.00000000000E+00 -0.00000000000E+00 -0.30654845894E+02  0.30654845894E+02  0.00000000000E+00 0.  1.
         21    1    1    2  503  504 -0.12509246089E+02 -0.65885224091E+02  0.70969998535E+03  0.71286142636E+03  0.00000000000E+00 0.  1.
         21    1    1    2  504  502  0.80096749068E+02 -0.36375279306E+02  0.54992105803E+02  0.10374382804E+03  0.00000000000E+00 0.  1.
         21    1    1    2  505  506  0.14321421094E+01  0.35984431485E+02  0.21648768005E+03  0.21946262997E+03  0.00000000000E+00 0.  1.
         21    1    1    2  506  501 -0.69019645088E+02  0.66276071911E+02  0.70971586503E+03  0.71613744365E+03  0.00000000000E+00 0.  1.
<scales pt_clust_3="67.06224" pt_clust_4="89.36183" pt_clust_5="30.48449" pt_clust_6="30.48449"></scales>
<clustering>
<clus scale="   30.484">  5  6 -1 -1</clus>
<clus scale="   67.062">  1  3  2 -1</clus>
<clus scale="   89.362">  2  4  1 -1</clus>
<clus scale="   67.062">  1  3  2 -1</clus>
</clustering>
</event>
<event>
 6    0  0.8641190E+002  0.9898831E+02  0.7546771E-02  0.1282438E+00
         21   -1    0    0  505  501  0.00000000000E+00  0.00000000000E+00  0.10239605302E+04  0.10239605302E+04  0.00000000000E+00 0.  1.
         21   -1    0    0  504  502 -0.00000000000E+00 -0.00000000000E+00 -0.22033769419E+03  0.22033769419E+03  0.00000000000E+00 0.  1.
         21    1    1    2  503  502 -0.94218631311E+02 -0.53483193523E+02 -0.78208875364E+02  0.13361972407E+03  0.00000000000E+00 0.  1.
         21    1    1    2  504  501  0.97421136191E+02  0.71804749865E-01 -0.80603670335E+02  0.12644300931E+03  0.00000000000E+00 0.  1.
         21    1    1    2  505  506  0.19884061718E+02  0.26140021580E+02  0.94297848215E+03  0.94355026068E+03  0.00000000000E+00 0.  1.
         21    1    1    2  506  503 -0.23086566597E+02  0.27271367194E+02  0.19456899557E+02  0.40685230321E+02  0.00000000000E+00 0.  1.
<scales pt_clust_3="14000.00000" pt_clust_4="98.98831" pt_clust_5="32.84321" pt_clust_6="40.19548"></scales>
<clustering>
<clus scale="   32.843">  1  5  2 -1</clus>
<clus scale="   40.195">  1  6  2 -1</clus>
<clus scale="   98.988">  2  4  1 -1</clus>
<clus scale="   32.843">  1  3  2 -1</clus>
</clustering>
</event>
<event>
 6    0  0.8641190E+002  0.1009957E+03  0.7546771E-02  0.1278216E+00
         21   -1    0    0  505  501  0.00000000000E+00  0.00000000000E+00  0.52696164387E+03  0.52696164387E+03  0.00000000000E+00 0.  1.
         21   -1    0    0  506  502 -0.00000000000E+00 -0.00000000000E+00 -0.13266248823E+03  0.13266248823E+03  0.00000000000E+00 0. -1.
         21    1    1    2  503  502 -0.35900159860E+02  0.25448096260E+02 -0.74133182614E+02  0.86209952127E+02  0.00000000000E+00 0. -1.
         21    1    1    2  504  503  0.60194072550E+02 -0.77873888591E+02  0.24549835676E+02  0.10144142806E+03  0.00000000000E+00 0. -1.
         21    1    1    2  505  504  0.36738342778E+02 -0.28922690648E+01  0.23751397509E+02  0.43842900611E+02  0.00000000000E+00 0. -1.
         21    1    1    2  506  501 -0.61032255468E+02  0.55318061396E+02  0.42013110508E+03  0.42812985130E+03  0.00000000000E+00 0.  1.
<scales pt_clust_3="44.00485" pt_clust_4="32.69746" pt_clust_5="32.69746" pt_clust_6="85.70101"></scales>
<clustering>
<clus scale="   32.697">  4  5 -1 -1</clus>
<clus scale="   44.005">  2  3  1 -1</clus>
<clus scale="   85.701">  1  6  2 -1</clus>
<clus scale="   85.701">  1  3  2 -1</clus>
</clustering>
</event>
<event>
 6    0  0.8641190E+002  0.1093352E+03  0.7546771E-02  0.1261806E+00
         21   -1    0    0  506  501  0.00000000000E+00  0.00000000000E+00  0.62911443725E+03  0.62911443725E+03  0.00000000000E+00 0.  1.
         21   -1    0    0  503  502 -0.00000000000E+00 -0.00000000000E+00 -0.49247389075E+03  0.49247389075E+03  0.00000000000E+00 0.  1.
         21    1    1    2  503  504 -0.87037872065E+01 -0.40848902894E+02 -0.75017845601E+02  0.85860735718E+02  0.00000000000E+00 0.  1.
         21    1    1    2  504  505  0.10073014487E+03  0.10591508862E+02 -0.63516087629E+02  0.11955348399E+03  0.00000000000E+00 0.  1.
         21    1    1    2  505  501  0.12835090234E+02 -0.35784385000E+02  0.58305278362E+03  0.58429086099E+03  0.00000000000E+00 0.  1.
         21    1    1    2  506  502 -0.10486144790E+03  0.66041779032E+02 -0.30787830389E+03  0.33188324730E+03  0.00000000000E+00 0.  1.
<scales pt_clust_3="45.68465" pt_clust_4="109.33522" pt_clust_5="38.01660" pt_clust_6="14000.00000"></scales>
<clustering>
<clus scale="   38.017">  1  5  2 -1</clus>
<clus scale="   45.685">  2  3  1 -1</clus>
<clus scale="  109.335">  1  4  2 -1</clus>
<clus scale="   38.017">  1  3  2 -1</clus>
</clustering>
</event>
<event>
 6    0  0.8641190E+002  0.1211536E+03  0.7546771E-02  0.1241206E+00
         21   -1    0    0  505  501  0.00000000000E+00  0.00000000000E+00  0.26993872735E+03  0.26993872735E+03  0.00000000000E+00 0.  1.
         21   -1    0    0  503  502 -0.00000000000E+00 -0.00000000000E+00 -0.31305102501E+03  0.31305102501E+03  0.00000000000E+00 0. -1.
         21    1    1    2  503  506 -0.28159930888E+02  0.22850242908E+02 -0.19817633102E+03  0.20146705310E+03  0.00000000000E+00 0. -1.
         21    1    1    2  504  501  0.20433914415E+02 -0.55013397885E+02  0.36717263511E+02  0.69225546187E+02  0.00000000000E+00 0.  1.
         21    1    1    2  505  502  0.81888910299E+02 -0.42729276346E+02  0.17109509860E+03  0.19443538117E+03  0.00000000000E+00 0.  1.
         21    1    1    2  506  504 -0.74162893826E+02  0.74892431323E+02 -0.52748328755E+02  0.11786177190E+03  0.00000000000E+00 0. -1.
<scales pt_clust_3="36.26452" pt_clust_4="54.26794" pt_clust_5="14000.00000" pt_clust_6="121.15356"></scales>
<clustering>
<clus scale="   36.265">  2  3  1 -1</clus>
<clus scale="   54.268">  1  4  2 -1</clus>
<clus scale="  121.154">  2  6  1 -1</clus>
<clus scale="   54.268">  1  3  2 -1</clus>
</clustering>
</event>
<event>
 6    0  0.8641190E+002  0.8113267E+02  0.7546771E-02  0.1325867E+00
         21   -1    0    0  505  501  0.00000000000E+00  0.00000000000E+00  0.53038692564E+02  0.53038692564E+02  0.00000000000E+00 0.  1.
         21   -1    0    0  506  502 -0.00000000000E+00 -0.00000000000E+00 -0.13602038299E+04  0.13602038299E+04  0.00000000000E+00 0.  1.
         21    1    1    2  503  502  0.48061356198E+02 -0.23258035665E+02 -0.56234766522E+03  0.56487673590E+03  0.00000000000E+00 0.  1.
         21    1    1    2  504  501 -0.82867287741E+02  0.55733467662E+02 -0.30530795298E+03  0.32122601536E+03  0.00000000000E+00 0.  1.
         21    1    1    2  505  503  0.80837388155E+02  0.31470226610E+01  0.28680919818E+01  0.80949447354E+02  0.00000000000E+00 0.  1.
         21    1    1    2  506  504 -0.46031456612E+02 -0.35622454658E+02 -0.44237761116E+03  0.44619032389E+03  0.00000000000E+00 0.  1.
<scales pt_clust_3="53.39317" pt_clust_4="14000.00000" pt_clust_5="81.13267" pt_clust_6="52.25935"></scales>
<clustering>
<clus scale="   53.393">  2  3  1 -1</clus>
<clus scale="   52.259">  2  6  1 -1</clus>
<clus scale="   81.133">  1  5  2 -1</clus>
<clus scale="   81.133">  1  3  2 -1</clus>
</clustering>
</event>
<event>
 6    0  0.8641190E+002  0.1315176E+03  0.7546771E-02  0.1225221E+00
         21   -1    0    0  504  501  0.00000000000E+00  0.00000000000E+00  0.19156111062E+03  0.19156111062E+03  0.00000000000E+00 0.  1.
         21   -1    0    0  505  502 -0.00000000000E+00 -0.00000000000E+00 -0.14894663548E+03  0.14894663548E+03  0.00000000000E+00 0.  1.
         21    1    1    2  503  502 -0.29256474320E+02  0.26475668621E+02 -0.50427467859E+02  0.64029929199E+02  0.00000000000E+00 0.  1.
         21    1    1    2  504  503 -0.62309330153E+02 -0.11159691440E+03  0.34963463558E+02  0.13250950046E+03  0.00000000000E+00 0.  1.
         21    1    1    2  505  506  0.46501872951E+02  0.65296297347E+02  0.22608816368E+02  0.83289790567E+02  0.00000000000E+00 0.  1.
         21    1    1    2  506  501  0.45063931523E+02  0.19824948429E+02  0.35469663070E+02  0.60678525879E+02  0.00000000000E+00 0.  1.
<scales pt_clust_3="39.45760" pt_clust_4="124.79193" pt_clust_5="32.53770" pt_clust_6="32.53770"></scales>
<clustering>
<clus scale="   32.538">  5  6 -1 -1</clus>
<clus scale="   39.458">  2  3  1 -1</clus>
<clus scale="  124.792">  2  4  1 -1</clus>
<clus scale="  131.518">  1  3  2 -1</clus>
</clustering>
</event>
<event>
 6    0  0.8641190E+002  0.7976666E+02  0.7546771E-02  0.1329715E+00
         21   -1    0    0  504  501  0.00000000000E+00  0.00000000000E+00  0.25922062001E+03  0.25922062001E+03  0.00000000000E+00 0.  1.
         21   -1    0    0  506  502 -0.00000000000E+00 -0.00000000000E+00 -0.24726229306E+04  0.24726229306E+04  0.00000000000E+00 0. -1.
         21    1    1    2  503  502 -0.47462677050E+02  0.38012894183E+02 -0.23383958875E+04  0.23391863997E+04  0.00000000000E+00 0. -1.
         21    1    1    2  504  503 -0.52430680482E+02 -0.28698020318E+02  0.12438656698E+03  0.13800206763E+03  0.00000000000E+00 0.  1.
         21    1    1    2  505  501  0.63568732002E+02 -0.51830918806E+02  0.10678624945E+03  0.13465040254E+03  0.00000000000E+00 0.  1.
         21    1    1    2  506  505  0.36324625529E+02  0.42516044941E+02 -0.10617923954E+03  0.12000468077E+03  0.00000000000E+00 0.  1.
<scales pt_clust_3="79.76666" pt_clust_4="59.62003" pt_clust_5="14000.00000" pt_clust_6="55.92041"></scales>
<clustering>
<clus scale="   55.920">  2  6  1 -1</clus>
<clus scale="   59.620">  1  4  2 -1</clus>
<clus scale="   79.767">  2  3  1 -1</clus>
<clus scale="   59.620">  1  3  2 -1</clus>
</clustering>
</event>
<event>
 6    0  0.8641190E+002  0.1241050E+03  0.7546771E-02  0.1236475E+00
         21   -1    0    0  506  501  0.00000000000E+00  0.00000000000E+00  0.44394048959E+03  0.44394048959E+03  0.00000000000E+00 0. -1.
         21   -1    0    0  504  502 -0.00000000000E+00 -0.00000000000E+00 -0.36138966303E+03  0.36138966303E+03  0.00000000000E+00 0. -1.
         21    1    1    2  503  501  0.12125102541E+03 -0.32672276237E+02  0.40187344793E+03  0.42103628935E+03  0.00000000000E+00 0. -1.
         21    1    1    2  504  505  0.32277637544E+02  0.95005581650E+00 -0.25583817391E+02  0.41198060680E+02  0.00000000000E+00 0.  1.
         21    1    1    2  505  503 -0.71728616064E+02  0.97413174449E+00 -0.59880090153E+02  0.93442862177E+02  0.00000000000E+00 0.  1.
         21    1    1    2  506  502 -0.81800046887E+02  0.30748088676E+02 -0.23385871382E+03  0.24965294042E+03  0.00000000000E+00 0. -1.
<scales pt_clust_3="124.10501" pt_clust_4="32.29162" pt_clust_5="64.19567" pt_clust_6="14000.00000"></scales>
<clustering>
<clus scale="   32.292">  2  4  1 -1</clus>
<clus scale="   64.196">  2  5  1 -1</clus>
<clus scale="  124.105">  1  3  2 -1</clus>
<clus scale="  124.105">  1  3  2 -1</clus>
</clustering>
</event>
<event>
 6    0  0.8641190E+002  0.1364913E+03  0.7546771E-02  0.1218130E+00
         21   -1    0    0  502  501  0.00000000000E+00  0.00000000000E+00  0.30408027147E+02  0.30408027147E+02  0.00000000000E+00 0.  1.
         21   -1    0    0  506  502 -0.00000000000E+00 -0.00000000000E+00 -0.13241881814E+04  0.13241881814E+04  0.00000000000E+00 0.  1.
         21    1    1    2  503  501  0.25468924660E+02 -0.16634546728E+02 -0.20745254925E+02  0.36820373031E+02  0.00000000000E+00 0.  1.
         21    1    1    2  504  503 -0.16719250394E+02 -0.55137406488E+02 -0.54723880571E+02  0.79463010469E+02  0.00000000000E+00 0.  1.
         21    1    1    2  505  504  0.60277679076E+01 -0.58178559774E+02 -0.13487658621E+03  0.14701283043E+03  0.00000000000E+00 0.  1.
         21    1    1    2  506  505 -0.14777442174E+02  0.12995051299E+03 -0.10834344325E+04  0.10912999946E+04  0.00000000000E+00 0.  1.
<scales pt_clust_3="30.41996" pt_clust_4="48.72518" pt_clust_5="48.72518" pt_clust_6="127.44302"></scales>
<clustering>
<clus scale="   30.420">  1  3  2 -1</clus>
<clus scale="   48.725">  4  5 -1 -1</clus>
<clus scale="  127.443">  2  6  1 -1</clus>
<clus scale="   30.420">  1  3  2 -1</clus>
</clustering>
</event>
<event>
 6    0  0.8641190E+002  0.1581679E+03  0.7546771E-02  0.1190781E+00
         21   -1    0    0  504  501  0.00000000000E+00  0.00000000000E+00  0.11862180124E+04  0.11862180124E+04  0.00000000000E+00 0.  1.
         21   -1    0    0  503  502 -0.00000000000E+00 -0.00000000000E+00 -0.11377214055E+03  0.11377214055E+03  0.00000000000E+00 0.  1.
         21    1    1    2  503  506  0.13496170824E+03 -0.45799211809E+02  0.80546370695E+02  0.16370689761E+03  0.00000000000E+00 0.  1.
         21    1    1    2  504  505  0.34110979668E+02 -0.11327537869E+02  0.58704638613E+03  0.58814567202E+03  0.00000000000E+00 0.  1.
         21    1    1    2  505  502 -0.13867837322E+03  0.11039092951E+03  0.44699631826E+02  0.18280017944E+03  0.00000000000E+00 0.  1.
         21    1    1    2  506  501 -0.30394314692E+02 -0.53264179830E+02  0.36015348316E+03  0.36533740385E+03  0.00000000000E+00 0.  1.
<scales pt_clust_3="158.16789" pt_clust_4="35.94262" pt_clust_5="14000.00000" pt_clust_6="60.90954"></scales>
<clustering>
<clus scale="   35.943">  1  4  2 -1</clus>
<clus scale="   60.910">  1  6  2 -1</clus>
<clus scale="  158.168">  1  3  2 -1</clus>
<clus scale="   35.943">  1  3  2 -1</clus>
</clustering>
</event>
<event>
 6    0  0.8641190E+002  0.1024761E+03  0.7546771E-02  0.1275174E+00
         21   -1    0    0  506  501  0.00000000000E+00  0.00000000000E+00  0.35069865047E+03  0.35069865047E+03  0.00000000000E+00 0. -1.
         21   -1    0    0  504  502 -0.00000000000E+00 -0.00000000000E+00 -0.12384953165E+03  0.12384953165E+03  0.00000000000E+00 0. -1.
         21    1    1    2  503  501 -0.59337493056E+02  0.26731417050E+02  0.11306234535E+03  0.13045535894E+03  0.00000000000E+00 0. -1.
         21    1    1    2  504  505  0.26602689626E+02 -0.27379841298E+02  0.38992558938E+02  0.54569024706E+02  0.00000000000E+00 0. -1.
         21    1    1    2  505  503 -0.31904549314E+01 -0.79865522168E+02  0.15238700263E+03  0.17207695722E+03  0.00000000000E+00 0. -1.
         21    1    1    2  506  502  0.35925258362E+02  0.80513946416E+02 -0.77592788102E+02  0.11744684126E+03  0.00000000000E+00 0. -1.
<scales pt_clust_3="65.08077" pt_clust_4="35.86095" pt_clust_5="35.86095" pt_clust_6="88.36732"></scales>
<clustering>
<clus scale="   35.861">  4  5 -1 -1</clus>
<clus scale="   65.081">  1  3  2 -1</clus>
<clus scale="   88.367">  2  6  1 -1</clus>
<clus scale="   65.081">  1  3  2 -1</clus>
</clustering>
</event>
<event>
 6    0  0.8641190E+002  0.1515599E+03  0.7546771E-02  0.1198569E+00
         21   -1    0    0  504  501  0.00000000000E+00  0.00000000000E+00  0.96085590592E+03  0.96085590592E+03  0.00000000000E+00 0.  1.
         21   -1    0    0  505  502 -0.00000000000E+00 -0.00000000000E+00 -0.43271050689E+02  0.43271050689E+02  0.00000000000E+00 0.  1.
         21    1    1    2  503  502  0.12075501194E+02 -0.34264373198E+02  0.26680145915E+02  0.45074329566E+02  0.00000000000E+00 0.  1.
         21    1    1    2  504  503 -0.85781643854E+02 -0.13199719895E+03  0.37617112206E+03  0.40778237336E+03  0.00000000000E+00 0.  1.
         21    1    1    2  505  506  0.13469229647E+02  0.30834084992E+02  0.32531771274E+02  0.46802532910E+02  0.00000000000E+00 0.  1.
         21    1    1    2  506  501  0.60236913014E+02  0.13542748715E+03  0.48220181598E+03  0.50446772077E+03  0.00000000000E+00 0.  1.
<scales pt_clust_3="30.63005" pt_clust_4="151.55991" pt_clust_5="33.64760" pt_clust_6="14000.00000"></scales>
<clustering>
<clus scale="   33.648">  2  5  1 -1</clus>
<clus scale="   30.630">  2  3  1 -1</clus>
<clus scale="  151.560">  2  4  1 -1</clus>
<clus scale="  151.560">  1  3  2 -1</clus>
</clustering>
</event>
<event>
 6    0  0.8641190E+002  0.1199045E+03  0.7546771E-02  0.1243255E+00
         21   -1    0    0  506  501  0.00000000000E+00  0.00000000000E+00  0.35914676206E+03  0.35914676206E+03  0.00000000000E+00 0. -1.
         21   -1    0    0  501  502 -0.00000000000E+00 -0.00000000000E+00 -0.23180614977E+03  0.23180614977E+03  0.00000000000E+00 0. -1.
         21    1    1    2  503  504 -0.24744165314E+02 -0.36551682301E+02  0.12993952785E+03  0.13723184796E+03  0.00000000000E+00 0. -1.
         21    1    1    2  504  505 -0.49288022998E+01 -0.11455030988E+03  0.14146064668E+03  0.18209113417E+03  0.00000000000E+00 0. -1.
         21    1    1    2  505  502  0.33319852178E+02  0.11613158949E+03 -0.18292398958E+03  0.21922122294E+03  0.00000000000E+00 0. -1.
         21    1    1    2  506  503 -0.36468845648E+01  0.34970402695E+02  0.38864427340E+02  0.52408706759E+02  0.00000000000E+00 0. -1.
<scales pt_clust_3="34.06393" pt_clust_4="14000.00000" pt_clust_5="119.90454" pt_clust_6="35.16005"></scales>
<clustering>
<clus scale="   35.160">  1  6  2 -1</clus>
<clus scale="   34.064">  1  3  2 -1</clus>
<clus scale="  119.905">  2  5  1 -1</clus>
<clus scale="   35.160">  1  3  2 -1</clus>
</clustering>
</event>
<event>
 6    0  0.8641190E+002  0.1116459E+03  0.7546771E-02  0.1257552E+00
         21   -1    0    0  505  501  0.00000000000E+00  0.00000000000E+00  0.51003541633E+02  0.51003541633E+02  0.00000000000E+00 0.  1.
         21   -1    0    0  504  502 -0.00000000000E+00 -0.00000000000E+00 -0.20514209496E+04  0.20514209496E+04  0.00000000000E+00 0.  1.
         21    1    1    2  503  506 -0.96198959815E+02 -0.47208302066E+02 -0.25732343703E+03  0.27874399527E+03  0.00000000000E+00 0.  1.
         21    1    1    2  504  503  0.13352567013E+03  0.45364620007E+02 -0.11007943479E+04  0.11097906332E+04  0.00000000000E+00 0.  1.
         21    1    1    2  505  502 -0.56334121763E+02  0.28539658131E+02 -0.66878133252E+03  0.67175629219E+03  0.00000000000E+00 0.  1.
         21    1    1    2  506  501  0.19007411449E+02 -0.26695976072E+02  0.26481709469E+02  0.42133570521E+02  0.00000000000E+00 0.  1.
<scales pt_clust_3="111.64586" pt_clust_4="14000.00000" pt_clust_5="60.58067" pt_clust_6="32.77128"></scales>
<clustering>
<clus scale="   32.771">  1  6  2 -1</clus>
<clus scale="   60.581">  2  5  1 -1</clus>
<clus scale="  111.646">  1  3  2 -1</clus>
<clus scale="   32.771">  1  3  2 -1</clus>
</clustering>
</event>
<event>
 6    0  0.8641190E+002  0.9755989E+02  0.7546771E-02  0.1285512E+00
         21   -1    0    0  504  501  0.00000000000E+00  0.00000000000E+00  0.34712543939E+03  0.34712543939E+03  0.00000000000E+00 0.  1.
         21   -1    0    0  503  502 -0.00000000000E+00 -0.00000000000E+00 -0.78546842614E+02  0.78546842614E+02  0.00000000000E+00 0.  1.
         21    1    1    2  503  506 -0.81737982817E+02 -0.53142398444E+02 -0.64024946444E+01  0.97704678931E+02  0.00000000000E+00 0.  1.
         21    1    1    2  504  505  0.36001847173E+02 -0.73556444090E-01  0.98949403752E+02  0.10529540785E+03  0.00000000000E+00 0.  1.
         21    1    1    2  505  502  0.60881485901E+02  0.82736597830E+02  0.12484877852E+03  0.16167596434E+03  0.00000000000E+00 0.  1.
         21    1    1    2  506  501 -0.15145350256E+02 -0.29520642942E+02  0.51182909146E+02  0.60996230890E+02  0.00000000000E+00 0.  1.
<scales pt_clust_3="97.55989" pt_clust_4="32.41218" pt_clust_5="14000.00000" pt_clust_6="33.17906"></scales>
<clustering>
<clus scale="   33.179">  1  6  2 -1</clus>
<clus scale="   32.412">  1  4  2 -1</clus>
<clus scale="   97.560">  2  3  1 -1</clus>
<clus scale="   33.179">  1  3  2 -1</clus>
</clustering>
</event>
<event>
 6    0  0.8641190E+002  0.1402354E+03  0.7546771E-02  0.1213013E+00
         21   -1    0    0  505  501  0.00000000000E+00  0.00000000000E+00  0.96967549969E+02  0.96967549969E+02  0.00000000000E+00 0. -1.
         21   -1    0    0  501  502 -0.00000000000E+00 -0.00000000000E+00 -0.13001607825E+04  0.13001607825E+04  0.00000000000E+00 0.  1.
         21    1    1    2  503  506 -0.17646044271E+03 -0.83757242781E+02 -0.22677106062E+03  0.29929697208E+03  0.00000000000E+00 0.  1.
         21    1    1    2  504  503  0.37543138495E+02  0.11104906854E+02 -0.62648270270E+02  0.73875652093E+02  0.00000000000E+00 0.  1.
         21    1    1    2  505  504  0.29868170499E+02 -0.43978180941E+01  0.45954132629E+02  0.54983913271E+02  0.00000000000E+00 0. -1.
         21    1    1    2  506  502  0.10904913372E+03  0.77050154021E+02 -0.95972803425E+03  0.96897179501E+03  0.00000000000E+00 0.  1.
<scales pt_clust_3="14000.00000" pt_clust_4="42.48594" pt_clust_5="30.19020" pt_clust_6="140.23540"></scales>
<clustering>
<clus scale="   30.190">  1  5  2 -1</clus>
<clus scale="   42.486">  1  4  2 -1</clus>
<clus scale="  140.235">  2  6  1 -1</clus>
<clus scale="   30.190">  1  3  2 -1</clus>
</clustering>
</event>
<event>
 6    0  0.8641190E+002  0.1501492E+03  0.7546771E-02  0.1200290E+00
         21   -1    0    0  503  501  0.00000000000E+00  0.00000000000E+00  0.92312261507E+03  0.92312261507E+03  0.00000000000E+00 0.  1.
         21   -1    0    0  506  502 -0.00000000000E+00 -0.00000000000E+00 -0.22278265926E+03  0.22278265926E+03  0.00000000000E+00 0.  1.
         21    1    1    2  503  502  0.11243358545E+03 -0.11823662361E+03 -0.11085476963E+03  0.19725615389E+03  0.00000000000E+00 0.  1.
         21    1    1    2  504  501  0.37483478552E+02  0.24042948498E+02  0.46192658667E+03  0.46406814802E+03  0.00000000000E+00 0.  1.
         21    1    1    2  505  504 -0.10377930846E+03  0.11038242801E+03  0.39161252547E+03  0.41989855368E+03  0.00000000000E+00 0.  1.
         21    1    1    2  506  505 -0.46137755546E+02 -0.16188752903E+02 -0.42344386702E+02  0.64682418729E+02  0.00000000000E+00 0.  1.
<scales pt_clust_3="14000.00000" pt_clust_4="44.53173" pt_clust_5="150.14921" pt_clust_6="47.84435"></scales>
<clustering>
<clus scale="   44.532">  1  4  2 -1</clus>
<clus scale="   47.844">  2  6  1 -1</clus>
<clus scale="  150.149">  1  5  2 -1</clus>
<clus scale="   44.532">  1  3  2 -1</clus>
</clustering>
</event>
<event>
 6    0  0.8641190E+002  0.1730949E+03  0.7546771E-02  0.1174658E+00
         21   -1    0    0  503  501  0.00000000000E+00  0.00000000000E+00  0.10951720830E+04  0.10951720830E+04  0.00000000000E+00 0.  1.
         21   -1    0    0  504  502 -0.00000000000E+00 -0.00000000000E+00 -0.33923873585E+03  0.33923873585E+03  0.00000000000E+00 0. -1.
         21    1    1    2  503  505  0.28867164446E+02  0.13649983156E+02  0.96515600611E+03  0.96568408465E+03  0.00000000000E+00 0.  1.
         21    1    1    2  504  506  0.14066570713E+01  0.56878914892E+02 -0.39051003545E+02  0.69008481517E+02  0.00000000000E+00 0.  1.
         21    1    1    2  505  502  0.13680724611E+03 -0.12422592535E+03 -0.10479476113E+03  0.21243880313E+03  0.00000000000E+00 0. -1.
         21    1    1    2  506  501 -0.16708106762E+03  0.53697027298E+02 -0.65376894322E+02  0.18727944951E+03  0.00000000000E+00 0.  1.
<scales pt_clust_3="31.93173" pt_clust_4="58.64648" pt_clust_5="14000.00000" pt_clust_6="173.09494"></scales>
<clustering>
<clus scale="   31.932">  1  3  2 -1</clus>
<clus scale="   58.646">  2  4  1 -1</clus>
<clus scale="  173.095">  1  6  2 -1</clus>
<clus scale="   31.932">  1  3  2 -1</clus>
</clustering>
</event>
<event>
 6    0  0.8641190E+002  0.1831089E+03  0.7546771E-02  0.1164828E+00
         21   -1    0    0  504  501  0.00000000000E+00  0.00000000000E+00  0.51699553474E+03  0.51699553474E+03  0.00000000000E+00 0. -1.
         21   -1    0    0  503  502 -0.00000000000E+00 -0.00000000000E+00 -0.51818011927E+03  0.51818011927E+03  0.00000000000E+00 0.  1.
         21    1    1    2  503  506 -0.18224272956E+03 -0.24000714857E+02 -0.39333557970E+03  0.43416739289E+03  0.00000000000E+00 0.  1.
         21    1    1    2  504  505  0.18850107630E+03  0.22625470325E+02  0.15844431785E+03  0.24728358120E+03  0.00000000000E+00 0. -1.
         21    1    1    2  505  502 -0.19715281410E+00  0.33916170160E+02 -0.54191367748E+02  0.63930038370E+02  0.00000000000E+00 0. -1.
         21    1    1    2  506  501 -0.60611939260E+01 -0.32540925628E+02  0.28789804507E+03  0.28979464154E+03  0.00000000000E+00 0. -1.
<scales pt_clust_3="183.10885" pt_clust_4="14000.00000" pt_clust_5="33.22326" pt_clust_6="33.10060"></scales>
<clustering>
<clus scale="   33.101">  1  6  2 -1</clus>
<clus scale="   33.223">  2  5  1 -1</clus>
<clus scale="  183.109">  2  3  1 -1</clus>
<clus scale="   33.101">  1  3  2 -1</clus>
</clustering>
</event>
<event>
 6    0  0.8641190E+002  0.1001939E+03  0.7546771E-02  0.1279889E+00
         21   -1    0    0  504  501  0.00000000000E+00  0.00000000000E+00  0.12180378981E+03  0.12180378981E+03  0.00000000000E+00 0. -1.
         21   -1    0    0  501  502 -0.00000000000E+00 -0.00000000000E+00 -0.25715359168E+04  0.25715359168E+04  0.00000000000E+00 0. -1.
         21    1    1    2  503  506 -0.45073919709E+02 -0.11021635216E+02 -0.33290997192E+03  0.33612822566E+03  0.00000000000E+00 0. -1.
         21    1    1    2  504  505  0.67599521613E+02  0.63215725255E+02  0.10050464449E+03  0.13662762095E+03  0.00000000000E+00 0. -1.
         21    1    1    2  505  503 -0.61499247839E+02 -0.24942891850E+02 -0.92251729101E+03  0.92490132315E+03  0.00000000000E+00 0.  1.
         21    1    1    2  506  502  0.38973645935E+02 -0.27251198189E+02 -0.12948095085E+04  0.12956825368E+04  0.00000000000E+00 0. -1.
<scales pt_clust_3="31.80359" pt_clust_4="92.69404" pt_clust_5="31.80359" pt_clust_6="47.55600"></scales>
<clustering>
<clus scale="   31.804">  3  5 -1 -1</clus>
<clus scale="   47.556">  2  6  1 -1</clus>
<clus scale="   92.694">  1  4  2 -1</clus>
<clus scale="   92.694">  1  3  2 -1</clus>
</clustering>
</event>
<event>
 6    0  0.8641190E+002  0.1318619E+03  0.7546771E-02  0.1224719E+00
         21   -1    0    0  502  501  0.00000000000E+00  0.00000000000E+00  0.83953612756E+02  0.83953612756E+02  0.00000000000E+00 0. -1.
         21   -1    0    0  505  502 -0.00000000000E+00 -0.00000000000E+00 -0.37063552563E+03  0.37063552563E+03  0.00000000000E+00 0. -1.
         21    1    1    2  503  506 -0.59072389746E+02  0.44446126773E+02 -0.68684323037E+02  0.10090858064E+03  0.00000000000E+00 0. -1.
         21    1    1    2  504  503 -0.81210358313E+02 -0.88791092395E+00 -0.68599293946E+02  0.10630980111E+03  0.00000000000E+00 0. -1.
         21    1    1    2  505  504  0.10893657749E+03 -0.19033765384E+02 -0.16980780744E+03  0.20264292143E+03  0.00000000000E+00 0. -1.
         21    1    1    2  506  501  0.31346170573E+02 -0.24524450465E+02  0.20409511548E+02  0.44727835202E+02  0.00000000000E+00 0. -1.
<scales pt_clust_3="46.86151" pt_clust_4="46.86151" pt_clust_5="121.94865" pt_clust_6="39.79989"></scales>
<clustering>
<clus scale="   39.800">  1  6  2 -1</clus>
<clus scale="   46.862">  3  4 -1 -1</clus>
<clus scale="  121.949">  2  5  1 -1</clus>
<clus scale="   39.800">  1  3  2 -1</clus>
</clustering>
</event>
<event>
 6    0  0.8641190E+002  0.9679767E+02  0.7546771E-02  0.1287178E+00
         21   -1    0    0  506  501  0.00000000000E+00  0.00000000000E+00  0.89754517192E+02  0.89754517192E+02  0.00000000000E+00 0. -1.
         21   -1    0    0  503  502 -0.00000000000E+00 -0.00000000000E+00 -0.25153869618E+03  0.25153869618E+03  0.00000000000E+00 0. -1.
         21    1    1    2  503  505  0.62788988246E+02  0.64638275112E+02 -0.11268727753E+03  0.14428785871E+03  0.00000000000E+00 0. -1.
         21    1    1    2  504  501 -0.85459752605E+01 -0.42039454571E+02  0.23098130702E+02  0.48722408352E+02  0.00000000000E+00 0. -1.
         21    1    1    2  505  504  0.14161442322E+02 -0.50589039858E+02 -0.14435245289E+02  0.54480948128E+02  0.00000000000E+00 0. -1.
         21    1    1    2  506  502 -0.68404455307E+02  0.27990219316E+02 -0.57759786871E+02  0.93801998180E+02  0.00000000000E+00 0. -1.
<scales pt_clust_3="86.05506" pt_clust_4="40.05082" pt_clust_5="40.05082" pt_clust_6="73.90955"></scales>
<clustering>
<clus scale="   40.051">  4  5 -1 -1</clus>
<clus scale="   73.910">  2  6  1 -1</clus>
<clus scale="   86.055">  2  3  1 -1</clus>
<clus scale="   96.798">  1  3  2 -1</clus>
</clustering>
</event>
<event>
 6    0  0.8641190E+002  0.1227481E+03  0.7546771E-02  0.1238631E+00
         21   -1    0    0  505  501  0.00000000000E+00  0.00000000000E+00  0.38998563477E+03  0.38998563477E+03  0.00000000000E+00 0.  1.
         21   -1    0    0  504  502 -0.00000000000E+00 -0.00000000000E+00 -0.31853368389E+03  0.31853368389E+03  0.00000000000E+00 0. -1.
         21    1    1    2  503  502 -0.49797514960E+02  0.13509269165E+03  0.46631495352E+02  0.15134174637E+03  0.00000000000E+00 0. -1.
         21    1    1    2  504  506  0.11516851823E+03 -0.50329608820E+02 -0.20320314231E+03  0.23893173536E+03  0.00000000000E+00 0. -1.
         21    1    1    2  505  503 -0.94097387996E+01 -0.29750732682E+02  0.23719502240E+03  0.23923864222E+03  0.00000000000E+00 0.  1.
         21    1    1    2  506  501 -0.55961264468E+02 -0.55012350153E+02 -0.91714245563E+01  0.79007194726E+02  0.00000000000E+00 0. -1.
<scales pt_clust_3="14000.00000" pt_clust_4="122.74807" pt_clust_5="31.20335" pt_clust_6="84.88207"></scales>
<clustering>
<clus scale="   31.203">  1  5  2 -1</clus>
<clus scale="   84.882">  1  6  2 -1</clus>
<clus scale="  122.748">  2  4  1 -1</clus>
<clus scale="   31.203">  1  3  2 -1</clus>
</clustering>
</event>
<event>
 6    0  0.8641190E+002  0.1377110E+03  0.7546771E-02  0.1216443E+00
         21   -1    0    0  503  501  0.00000000000E+00  0.00000000000E+00  0.26241208414E+03  0.26241208414E+03  0.00000000000E+00 0. -1.
         21   -1    0    0  506  502 -0.00000000000E+00 -0.00000000000E+00 -0.30854491069E+03  0.30854491069E+03  0.00000000000E+00 0. -1.
         21    1    1    2  503  502  0.56932909469E+02  0.11281197804E+03  0.20476763707E+02  0.12801248541E+03  0.00000000000E+00 0. -1.
         21    1    1    2  504  501 -0.45782617289E+02 -0.51104317203E+02  0.21726706053E+02  0.71970473380E+02  0.00000000000E+00 0. -1.
         21    1    1    2  505  504  0.12859718348E+03 -0.52879873498E+02  0.73248617706E+02  0.15715876245E+03  0.00000000000E+00 0. -1.
         21    1    1    2  506  505 -0.13974747566E+03 -0.88277873377E+01 -0.16158491402E+03  0.21381527359E+03  0.00000000000E+00 0. -1.
<scales pt_clust_3="103.72831" pt_clust_4="68.61268" pt_clust_5="137.71103" pt_clust_6="14000.00000"></scales>
<clustering>
<clus scale="   68.613">  1  4  2 -1</clus>
<clus scale="  103.728">  1  3  2 -1</clus>
<clus scale="  137.711">  1  5  2 -1</clus>
<clus scale="   68.613">  1  3  2 -1</clus>
</clustering>
</event>
<event>
 6    0  0.8641190E+002  0.1892171E+03  0.7546771E-02  0.1159169E+00
         21   -1    0    0  506  501  0.00000000000E+00  0.00000000000E+00  0.12105437271E+03  0.12105437271E+03  0.00000000000E+00 0. -1.
         21   -1    0    0  503  502 -0.00000000000E+00 -0.00000000000E+00 -0.44465295430E+03  0.44465295430E+03  0.00000000000E+00 0. -1.
         21    1    1    2  503  501 -0.12694027054E+03  0.12184503679E+03 -0.61001293198E+02  0.18622889960E+03  0.00000000000E+00 0. -1.
         21    1    1    2  504  502  0.23702667460E+02  0.57339707614E+02 -0.75066009003E+02  0.97388727385E+02  0.00000000000E+00 0. -1.
         21    1    1    2  505  504  0.50929886494E+02 -0.67031500822E+02 -0.98871788271E+02  0.12985648215E+03  0.00000000000E+00 0. -1.
         21    1    1    2  506  505  0.52307716586E+02 -0.11215324358E+03 -0.88659491121E+02  0.15223321788E+03  0.00000000000E+00 0. -1.
<scales pt_clust_3="184.82871" pt_clust_4="62.04562" pt_clust_5="33.41599" pt_clust_6="33.41599"></scales>
<clustering>
<clus scale="   33.416">  5  6 -1 -1</clus>
<clus scale="   62.046">  2  4  1 -1</clus>
<clus scale="  184.829">  1  3  2 -1</clus>
<clus scale="  184.829">  1  3  2 -1</clus>
</clustering>
</event>
<event>
 6    0  0.8641190E+002  0.1829733E+03  0.7546771E-02  0.1164956E+00
         21   -1    0    0  505  501  0.00000000000E+00  0.00000000000E+00  0.42188009454E+03  0.42188009454E+03  0.00000000000E+00 0. -1.
         21   -1    0    0  506  502 -0.00000000000E+00 -0.00000000000E+00 -0.39366585758E+03  0.39366585758E+03  0.00000000000E+00 0. -1.
         21    1    1    2  503  502  0.26194477002E+02 -0.15877593457E+02 -0.21776214176E+03  0.21990588665E+03  0.00000000000E+00 0. -1.
         21    1    1    2  504  503  0.15576005447E+03  0.66952992738E+01 -0.69555218445E+02  0.17071599226E+03  0.00000000000E+00 0. -1.
         21    1    1    2  505  504 -0.18573278735E+03 -0.34638530973E+02  0.32859664719E+03  0.37904122819E+03  0.00000000000E+00 0. -1.
         21    1    1    2  506  501  0.37782558775E+01  0.43820825156E+02 -0.13065050024E+02  0.45882845018E+02  0.00000000000E+00 0. -1.
<scales pt_clust_3="30.63084" pt_clust_4="182.97329" pt_clust_5="14000.00000" pt_clust_6="41.95215"></scales>
<clustering>
<clus scale="   30.631">  2  3  1 -1</clus>
<clus scale="   41.952">  2  6  1 -1</clus>
<clus scale="  182.973">  2  4  1 -1</clus>
<clus scale="  182.973">  1  3  2 -1</clus>
</clustering>
</event>
<event>
 6    0  0.8641190E+002  0.1115927E+03  0.7546771E-02  0.1257649E+00
         21   -1    0    0  504  501  0.00000000000E+00  0.00000000000E+00  0.12821918768E+04  0.12821918768E+04  0.00000000000E+00 0.  1.
         21   -1    0    0  506  502 -0.00000000000E+00 -0.00000000000E+00 -0.33196924136E+03  0.33196924136E+03  0.00000000000E+00 0.  1.
         21    1    1    2  503  505 -0.82591862964E+02  0.96488060628E+02  0.24193912867E+03  0.27325062425E+03  0.00000000000E+00 0.  1.
         21    1    1    2  504  503  0.37651807928E+02 -0.78872869325E+02  0.89316209859E+03  0.89742805980E+03  0.00000000000E+00 0.  1.
         21    1    1    2  505  502  0.46594074190E+02  0.15422960981E+02 -0.31010277104E+03  0.31396274315E+03  0.00000000000E+00 0.  1.
         21    1    1    2  506  501 -0.16540191546E+01 -0.33038152284E+02  0.12522417923E+03  0.12951969097E+03  0.00000000000E+00 0.  1.
<scales pt_clust_3="111.59271" pt_clust_4="14000.00000" pt_clust_5="49.06035" pt_clust_6="33.07953"></scales>
<clustering>
<clus scale="   33.080">  1  6  2 -1</clus>
<clus scale="   49.060">  2  5  1 -1</clus>
<clus scale="  111.593">  2  3  1 -1</clus>
<clus scale="   33.080">  1  3  2 -1</clus>
</clustering>
</event>
<event>
 6    0  0.8641190E+002  0.1284908E+03  0.7546771E-02  0.1229712E+00
         21   -1    0    0  503  501  0.00000000000E+00  0.00000000000E+00  0.95814499281E+02  0.95814499281E+02  0.00000000000E+00 0.  1.
         21   -1    0    0  504  502 -0.00000000000E+00 -0.00000000000E+00 -0.91720466003E+03  0.91720466003E+03  0.00000000000E+00 0.  1.
         21    1    1    2  503  506  0.12193440877E+03  0.37202042865E+02  0.16783409103E+02  0.12858333817E+03  0.00000000000E+00 0.  1.
         21    1    1    2  504  501  0.41898509923E+02  0.28088167645E+02 -0.26100677253E+03  0.26583635117E+03  0.00000000000E+00 0.  1.
         21    1    1    2  505  502 -0.56370634226E+02  0.34420494322E+02 -0.27401921751E+03  0.28186690192E+03  0.00000000000E+00 0.  1.
         21    1    1    2  506  505 -0.10746228446E+03 -0.99710704832E+02 -0.30314757981E+03  0.33673256805E+03  0.00000000000E+00 0.  1.
<scales pt_clust_3="14000.00000" pt_clust_4="50.44235" pt_clust_5="60.30044" pt_clust_6="128.49078"></scales>
<clustering>
<clus scale="   50.442">  2  4  1 -1</clus>
<clus scale="   60.300">  2  5  1 -1</clus>
<clus scale="  128.491">  2  6  1 -1</clus>
<clus scale="  128.491">  1  3  2 -1</clus>
</clustering>
</event>
<event>
 6    0  0.8641190E+002  0.9635779E+02  0.7546771E-02  0.1288147E+00
         21   -1    0    0  505  501  0.00000000000E+00  0.00000000000E+00  0.85510194505E+03  0.85510194505E+03  0.00000000000E+00 0.  1.
         21   -1    0    0  504  502 -0.00000000000E+00 -0.00000000000E+00 -0.88848728223E+02  0.88848728223E+02  0.00000000000E+00 0.  1.
         21    1    1    2  503  502  0.90855724946E+02  0.79672317057E+02  0.39021757694E+03  0.40849993661E+03  0.00000000000E+00 0.  1.
         21    1    1    2  504  506 -0.12888592809E+02 -0.95723262216E+02 -0.37586046784E+02  0.10364250898E+03  0.00000000000E+00 0.  1.
         21    1    1    2  505  503 -0.47598549546E+02  0.47844865838E+02  0.33497512410E+03  0.34170614111E+03  0.00000000000E+00 0.  1.
         21    1    1    2  506  501 -0.30368582591E+02 -0.31793920680E+02  0.78646562574E+02  0.90102086577E+02  0.00000000000E+00 0.  1.
<scales pt_clust_3="14000.00000" pt_clust_4="96.35779" pt_clust_5="69.71974" pt_clust_6="43.96708"></scales>
<clustering>
<clus scale="   43.967">  1  6  2 -1</clus>
<clus scale="   69.720">  1  5  2 -1</clus>
<clus scale="   96.358">  2  4  1 -1</clus>
<clus scale="   43.967">  1  3  2 -1</clus>
</clustering>
</event>
<event>
 6    0  0.8641190E+002  0.1031978E+03  0.7546771E-02  0.1273712E+00
         21   -1    0    0  506  501  0.00000000000E+00  0.00000000000E+00  0.65043728702E+03  0.65043728702E+03  0.00000000000E+00 0.  1.
         21   -1    0    0  505  502 -0.00000000000E+00 -0.00000000000E+00 -0.56586917951E+03  0.56586917951E+03  0.00000000000E+00 0.  1.
         21    1    1    2  503  501  0.94563638730E+02 -0.50227144992E+02  0.62195502249E+03  0.63110466474E+03  0.00000000000E+00 0.  1.
         21    1    1    2  504  502 -0.71512214777E+02 -0.33305071913E+02 -0.26623018249E+03  0.27767199129E+03  0.00000000000E+00 0.  1.
         21    1    1    2  505  503  0.17615336380E+02  0.39883981600E+02 -0.23224955024E+03  0.23630676176E+03  0.00000000000E+00 0.  1.
         21    1    1    2  506  504 -0.40666760334E+02  0.43648235305E+02 -0.38907182247E+02  0.71223048739E+02  0.00000000000E+00 0.  1.
<scales pt_clust_3="14000.00000" pt_clust_4="57.06827" pt_clust_5="43.60083" pt_clust_6="103.19784"></scales>
<clustering>
<clus scale="   43.601">  2  5  1 -1</clus>
<clus scale="   57.068">  2  4  1 -1</clus>
<clus scale="  103.198">  2  6  1 -1</clus>
<clus scale="  103.198">  1  3  2 -1</clus>
</clustering>
</event>
<event>
 6    0  0.8641190E+002  0.1481142E+03  0.7546771E-02  0.1202810E+00
         21   -1    0    0  503  501  0.00000000000E+00  0.00000000000E+00  0.71323889570E+03  0.71323889570E+03  0.00000000000E+00 0.  1.
         21   -1    0    0  506  502 -0.00000000000E+00 -0.00000000000E+00 -0.38119276745E+03  0.38119276745E+03  0.00000000000E+00 0. -1.
         21    1    1    2  503  505  0.47702456325E+01  0.43682229536E+02  0.40077501495E+02  0.59473511303E+02  0.00000000000E+00 0.  1.
         21    1    1    2  504  502  0.53111430069E+02 -0.20335346736E+02 -0.24476660744E+03  0.25128677332E+03  0.00000000000E+00 0. -1.
         21    1    1    2  505  504 -0.41666051764E+02 -0.13347788036E+03 -0.77200092330E+02  0.15972557300E+03  0.00000000000E+00 0. -1.
         21    1    1    2  506  501 -0.16215623937E+02  0.11013099756E+03  0.61393532652E+03  0.62394580553E+03  0.00000000000E+00 0.  1.
<scales pt_clust_3="43.94192" pt_clust_4="56.81687" pt_clust_5="14000.00000" pt_clust_6="148.11424"></scales>
<clustering>
<clus scale="   43.942">  1  3  2 -1</clus>
<clus scale="   56.817">  2  4  1 -1</clus>
<clus scale="  148.114">  1  6  2 -1</clus>
<clus scale="   43.942">  1  3  2 -1</clus>
</clustering>
</event>
<event>
 6    0  0.8641190E+002  0.9469150E+02  0.7546771E-02  0.1291872E+00
         21   -1    0    0  506  501  0.00000000000E+00  0.00000000000E+00  0.14665521097E+03  0.14665521097E+03  0.00000000000E+00 0. -1.
         21   -1    0    0  504  502 -0.00000000000E+00 -0.00000000000E+00 -0.22072874224E+03  0.22072874224E+03  0.00000000000E+00 0.  1.
         21    1    1    2  503  505  0.51935554954E+02 -0.55842114757E+02  0.19268640459E+02  0.78657003210E+02  0.00000000000E+00 0. -1.
         21    1    1    2  504  503 -0.21778769823E+02  0.85755285782E+02 -0.13285041384E+03  0.15961677954E+03  0.00000000000E+00 0.  1.
         21    1    1    2  505  501 -0.29602075474E+02 -0.69046807669E+02  0.47882225725E+02  0.89086767042E+02  0.00000000000E+00 0. -1.
         21    1    1    2  506  502 -0.55470965749E+00  0.39133636644E+02 -0.83739836167E+01  0.40023403421E+02  0.00000000000E+00 0.  1.
<scales pt_clust_3="14000.00000" pt_clust_4="94.69150" pt_clust_5="71.39683" pt_clust_6="39.13757"></scales>
<clustering>
<clus scale="   39.138">  2  6  1 -1</clus>
<clus scale="   71.397">  1  5  2 -1</clus>
<clus scale="   94.692">  2  4  1 -1</clus>
<clus scale="   71.397">  1  3  2 -1</clus>
</clustering>
</event>
<event>
 6    0  0.8641190E+002  0.8474743E+02  0.7546771E-02  0.1316094E+00
         21   -1    0    0  505  501  0.00000000000E+00  0.00000000000E+00  0.31952991543E+03  0.31952991543E+03  0.00000000000E+00 0.  1.
         21   -1    0    0  506  502 -0.00000000000E+00 -0.00000000000E+00 -0.29888148346E+04  0.29888148346E+04  0.00000000000E+00 0. -1.
         21    1    1    2  503  502  0.36039394238E+02 -0.19561617959E+02 -0.29290717312E+04  0.29293587525E+04  0.00000000000E+00 0. -1.
         21    1    1    2  504  503 -0.14034851573E+02  0.81794855506E+02  0.11461071035E+03  0.14150261613E+03  0.00000000000E+00 0.  1.
         21    1    1    2  505  504 -0.40421683812E+02 -0.91278552618E+02  0.16855377001E+03  0.19589808594E+03  0.00000000000E+00 0.  1.
         21    1    1    2  506  501  0.18417141147E+02  0.29045315071E+02 -0.23377668378E+02  0.41585295410E+02  0.00000000000E+00 0. -1.
<scales pt_clust_3="41.00711" pt_clust_4="14000.00000" pt_clust_5="84.74743" pt_clust_6="34.39217"></scales>
<clustering>
<clus scale="   34.392">  1  6  2 -1</clus>
<clus scale="   41.007">  2  3  1 -1</clus>
<clus scale="   84.747">  1  5  2 -1</clus>
<clus scale="   34.392">  1  3  2 -1</clus>
</clustering>
</event>
<event>
 6    0  0.8641190E+002  0.1247029E+03  0.7546771E-02  0.1235534E+00
         21   -1    0    0  505  501  0.00000000000E+00  0.00000000000E+00  0.81841952790E+02  0.81841952790E+02  0.00000000000E+00 0.  1.
         21   -1    0    0  506  502 -0.00000000000E+00 -0.00000000000E+00 -0.84129630588E+03  0.84129630588E+03  0.00000000000E+00 0.  1.
         21    1    1    2  503  502  0.39991082538E+02 -0.10082652645E+03 -0.11590786338E+03  0.15874478861E+03  0.00000000000E+00 0.  1.
         21    1    1    2  504  501 -0.20852196049E+02  0.39399848061E+02 -0.31202753884E+02  0.54412994379E+02  0.00000000000E+00 0. -1.
         21    1    1    2  505  503 -0.48521788766E+02 -0.70861679075E+02 -0.31959922683E+01  0.85941584306E+02  0.00000000000E+00 0.  1.
         21    1    1    2  506  504  0.29382902277E+02  0.13228835746E+03 -0.60914774355E+03  0.62403889137E+03  0.00000000000E+00 0.  1.
<scales pt_clust_3="124.70292" pt_clust_4="44.57760" pt_clust_5="77.25317" pt_clust_6="14000.00000"></scales>
<clustering>
<clus scale="   44.578">  1  4  2 -1</clus>
<clus scale="   77.253">  1  5  2 -1</clus>
<clus scale="  124.703">  1  3  2 -1</clus>
<clus scale="   44.578">  1  3  2 -1</clus>
</clustering>
</event>
<event>
 6    0  0.8641190E+002  0.1703709E+03  0.7546771E-02  0.1177462E+00
         21   -1    0    0  506  501  0.00000000000E+00  0.00000000000E+00  0.92768355735E+03  0.92768355735E+03  0.00000000000E+00 0.  1.
         21   -1    0    0  505  502 -0.00000000000E+00 -0.00000000000E+00 -0.19663594562E+03  0.19663594562E+03  0.00000000000E+00 0.  1.
         21    1    1    2  503  504  0.10886523153E+03 -0.73186304480E+02  0.54378212647E+01  0.13129144565E+03  0.00000000000E+00 0.  1.
         21    1    1    2  504  501 -0.20591126964E+02  0.18313364786E+03  0.77622580962E+03  0.79780225307E+03  0.00000000000E+00 0.  1.
         21    1    1    2  505  503 -0.55134490718E+02 -0.60798861433E+02 -0.91728241540E+02  0.12308689579E+03  0.00000000000E+00 0.  1.
         21    1    1    2  506  502 -0.33139613851E+02 -0.49148481945E+02  0.41112222389E+02  0.72138908457E+02  0.00000000000E+00 0.  1.
<scales pt_clust_3="14000.00000" pt_clust_4="170.37085" pt_clust_5="116.97452" pt_clust_6="59.27738"></scales>
<clustering>
<clus scale="   59.277">  2  6  1 -1</clus>
<clus scale="  116.975">  2  5  1 -1</clus>
<clus scale="  170.371">  1  4  2 -1</clus>
<clus scale="  170.371">  1  3  2 -1</clus>
</clustering>
</event>
<event>
 6    0  0.8641190E+002  0.1479282E+03  0.7546771E-02  0.1203042E+00
         21   -1    0    0  503  501  0.00000000000E+00  0.00000000000E+00  0.15937599472E+04  0.15937599472E+04  0.00000000000E+00 0.  1.
         21   -1    0    0  504  502 -0.00000000000E+00 -0.00000000000E+00 -0.49066058643E+02  0.49066058643E+02  0.00000000000E+00 0.  1.
         21    1    1    2  503  505 -0.34256918802E+02 -0.20023198636E+02  0.43606738111E+03  0.43786895967E+03  0.00000000000E+00 0.  1.
         21    1    1    2  504  506 -0.65339345131E+02  0.25776353833E+02  0.38364668820E+03  0.39002362980E+03  0.00000000000E+00 0.  1.
         21    1    1    2  505  502  0.12616368087E+03 -0.47458512166E+02  0.59035259694E+02  0.14715551854E+03  0.00000000000E+00 0.  1.
         21    1    1    2  506  501 -0.26567416940E+02  0.41705356969E+02  0.66594455957E+03  0.66777789785E+03  0.00000000000E+00 0.  1.
<scales pt_clust_3="39.67953" pt_clust_4="54.81472" pt_clust_5="132.59376" pt_clust_6="54.81472"></scales>
<clustering>
<clus scale="   39.680">  1  3  2 -1</clus>
<clus scale="   54.815">  4  6 -1 -1</clus>
<clus scale="  132.594">  2  5  1 -1</clus>
<clus scale="   39.680">  1  3  2 -1</clus>
</clustering>
</event>
<event>
 6    0  0.8641190E+002  0.8353251E+02  0.7546771E-02  0.1319315E+00
         21   -1    0    0  503  501  0.00000000000E+00  0.00000000000E+00  0.14294759004E+04  0.14294759004E+04  0.00000000000E+00 0.  1.
         21   -1    0    0  506  502 -0.00000000000E+00 -0.00000000000E+00 -0.45310265307E+02  0.45310265307E+02  0.00000000000E+00 0. -1.
         21    1    1    2  503  504 -0.12178795675E+03 -0.22178717422E+02  0.31063553574E+03  0.33439293949E+03  0.00000000000E+00 0.  1.
         21    1    1    2  504  502  0.35640939374E+02 -0.25768611908E+02 -0.76122155463E+01  0.44634557740E+02  0.00000000000E+00 0. -1.
         21    1    1    2  505  501  0.76210707799E+02 -0.20596623300E+02  0.86939548714E+03  0.87297239700E+03  0.00000000000E+00 0.  1.
         21    1    1    2  506  505  0.99363095814E+01  0.68543952629E+02  0.21174682779E+03  0.22278627150E+03  0.00000000000E+00 0.  1.
<scales pt_clust_3="83.53251" pt_clust_4="43.98065" pt_clust_5="14000.00000" pt_clust_6="64.37850"></scales>
<clustering>
<clus scale="   43.981">  2  4  1 -1</clus>
<clus scale="   64.379">  2  6  1 -1</clus>
<clus scale="   83.533">  2  3  1 -1</clus>
<clus scale="   83.533">  1  3  2 -1</clus>
</clustering>
</event>
<event>
 6    0  0.8641190E+002  0.9474557E+02  0.7546771E-02  0.1291750E+00
         21   -1    0    0  506  501  0.00000000000E+00  0.00000000000E+00  0.95600490215E+02  0.95600490215E+02  0.00000000000E+00 0. -1.
         21   -1    0    0  503  502 -0.00000000000E+00 -0.00000000000E+00 -0.10739880336E+04  0.10739880336E+04  0.00000000000E+00 0. -1.
         21    1    1    2  503  505  0.97101468920E+01 -0.42160164350E+02 -0.58744751119E+03  0.58903849179E+03  0.00000000000E+00 0. -1.
         21    1    1    2  504  501  0.91064954368E+02  0.34805515245E+02  0.52609086707E+02  0.11077890508E+03  0.00000000000E+00 0. -1.
         21    1    1    2  505  504 -0.47132329136E+02  0.31062946019E+02 -0.62429375224E+02  0.84165253852E+02  0.00000000000E+00 0. -1.
         21    1    1    2  506  502 -0.53642772125E+02 -0.23708296913E+02 -0.38111974372E+03  0.38560587314E+03  0.00000000000E+00 0. -1.
<scales pt_clust_3="43.26392" pt_clust_4="94.74557" pt_clust_5="51.91945" pt_clust_6="14000.00000"></scales>
<clustering>
<clus scale="   43.264">  2  3  1 -1</clus>
<clus scale="   51.919">  2  5  1 -1</clus>
<clus scale="   94.746">  1  4  2 -1</clus>
<clus scale="   94.746">  1  3  2 -1</clus>
</clustering>
</event>
<event>
 6    0  0.8641190E+002  0.1071815E+03  0.7546771E-02  0.1265880E+00
         21   -1    0    0  503  501  0.00000000000E+00  0.00000000000E+00  0.13447000238E+04  0.13447000238E+04  0.00000000000E+00 0. -1.
         21   -1    0    0  505  502 -0.00000000000E+00 -0.00000000000E+00 -0.51868000709E+02  0.51868000709E+02  0.00000000000E+00 0. -1.
         21    1    1    2  503  504  0.30534149375E+02 -0.10147861349E+02  0.13558579289E+03  0.13935142841E+03  0.00000000000E+00 0. -1.
         21    1    1    2  504  502  0.90706819816E+02 -0.63225194169E+02  0.38944338051E+02  0.11722548275E+03  0.00000000000E+00 0. -1.
         21    1    1    2  505  506 -0.10627689442E+03  0.71155658054E+01  0.29058285094E+03  0.30948958436E+03  0.00000000000E+00 0. -1.
         21    1    1    2  506  501 -0.14964074772E+02  0.66257489713E+02  0.82771904123E+03  0.83050152902E+03  0.00000000000E+00 0. -1.
<scales pt_clust_3="32.17629" pt_clust_4="107.18147" pt_clust_5="14000.00000" pt_clust_6="59.59155"></scales>
<clustering>
<clus scale="   32.176">  1  3  2 -1</clus>
<clus scale="   59.592">  1  6  2 -1</clus>
<clus scale="  107.181">  2  4  1 -1</clus>
<clus scale="   32.176">  1  3  2 -1</clus>
</clustering>
</event>
<event>
 6    0  0.8641190E+002  0.8369399E+02  0.7546771E-02  0.1318884E+00
         21   -1    0    0  503  501  0.00000000000E+00  0.00000000000E+00  0.65907778601E+02  0.65907778601E+02  0.00000000000E+00 0. -1.
         21   -1    0    0  506  502 -0.00000000000E+00 -0.00000000000E+00 -0.24952652302E+04  0.24952652302E+04  0.00000000000E+00 0.  1.
         21    1    1    2  503  505  0.69826260661E+02 -0.31739810095E+02 -0.25160128507E+03  0.26303294256E+03  0.00000000000E+00 0. -1.
         21    1    1    2  504  501 -0.29638034365E+02 -0.59113918309E+02  0.39215303131E+02  0.76881131745E+02  0.00000000000E+00 0. -1.
         21    1    1    2  505  502 -0.33331104691E+02 -0.45860063077E-01 -0.11235060891E+04  0.11240003990E+04  0.00000000000E+00 0.  1.
         21    1    1    2  506  504 -0.68571216054E+01  0.90899588467E+02 -0.10934653806E+04  0.10972585355E+04  0.00000000000E+00 0. -1.
<scales pt_clust_3="14000.00000" pt_clust_4="66.33462" pt_clust_5="33.33114" pt_clust_6="83.69399"></scales>
<clustering>
<clus scale="   33.331">  2  5  1 -1</clus>
<clus scale="   66.335">  1  4  2 -1</clus>
<clus scale="   83.694">  2  6  1 -1</clus>
<clus scale="   66.335">  1  3  2 -1</clus>
</clustering>
</event>
<event>
 6    0  0.8641190E+002  0.1300590E+03  0.7546771E-02  0.1227368E+00
         21   -1    0    0  503  501  0.00000000000E+00  0.00000000000E+00  0.10258363636E+03  0.10258363636E+03  0.00000000000E+00 0.  1.
         21   -1    0    0  504  502 -0.00000000000E+00 -0.00000000000E+00 -0.55478514491E+03  0.55478514491E+03  0.00000000000E+00 0.  1.
         21    1    1    2  503  502 -0.77192270004E+02  0.67372992162E+02  0.31930221383E+02  0.10731871067E+03  0.00000000000E+00 0.  1.
         21    1    1    2  504  506  0.78200598003E+02  0.13156546769E+02 -0.28733432295E+03  0.29807623420E+03  0.00000000000E+00 0.  1.
         21    1    1    2  505  501 -0.40428213895E+02 -0.43871744647E+02 -0.13814684115E+02  0.61237373836E+02  0.00000000000E+00 0.  1.
         21    1    1    2  506  505  0.39419885896E+02 -0.36657794284E+02 -0.18298272286E+03  0.19073646256E+03  0.00000000000E+00 0.  1.
<scales pt_clust_3="116.45815" pt_clust_4="47.70734" pt_clust_5="59.65878" pt_clust_6="47.70734"></scales>
<clustering>
<clus scale="   47.707">  4  6 -1 -1</clus>
<clus scale="   59.659">  1  5  2 -1</clus>
<clus scale="  116.458">  1  3  2 -1</clus>
<clus scale="   59.659">  1  3  2 -1</clus>
</clustering>
</event>
<event>
 6    0  0.8641190E+002  0.2182183E+03  0.7546771E-02  0.1135218E+00
         21   -1    0    0  506  501  0.00000000000E+00  0.00000000000E+00  0.20998568513E+03  0.20998568513E+03  0.00000000000E+00 0.  1.
         21   -1    0    0  503  502 -0.00000000000E+00 -0.00000000000E+00 -0.49972656580E+03  0.49972656580E+03  0.00000000000E+00 0. -1.
         21    1    1    2  503  501 -0.20328931688E+03  0.67761918287E+02  0.11103175789E+03  0.24134265099E+03  0.00000000000E+00 0.  1.
         21    1    1    2  504  502  0.31893800301E+02  0.21911498027E+02 -0.43096970555E+02  0.57919574536E+02  0.00000000000E+00 0.  1.
         21    1    1    2  505  504  0.47512312393E+02 -0.34748986096E+02 -0.16258290379E+03  0.17291070663E+03  0.00000000000E+00 0. -1.
         21    1    1    2  506  505  0.12388320419E+03 -0.54924430218E+02 -0.19509276422E+03  0.23753931877E+03  0.00000000000E+00 0. -1.
<scales pt_clust_3="210.94934" pt_clust_4="38.69533" pt_clust_5="36.81136" pt_clust_6="36.81136"></scales>
<clustering>
<clus scale="   36.811">  5  6 -1 -1</clus>
<clus scale="   38.695">  2  4  1 -1</clus>
<clus scale="  210.949">  1  3  2 -1</clus>
<clus scale="  210.949">  1  3  2 -1</clus>
</clustering>
</event>
<event>
 6    0  0.8641190E+002  0.2143305E+03  0.7546771E-02  0.1138182E+00
         21   -1    0    0  503  501  0.00000000000E+00  0.00000000000E+00  0.29778330797E+03  0.29778330797E+03  0.00000000000E+00 0. -1.
         21   -1    0    0  504  502 -0.00000000000E+00 -0.00000000000E+00 -0.41120544635E+03  0.41120544635E+03  0.00000000000E+00 0. -1.
         21    1    1    2  503  506 -0.53125741278E+02 -0.55435890837E+02 -0.72606873382E+02  0.10567516473E+03  0.00000000000E+00 0. -1.
         21    1    1    2  504  501 -0.58187037166E+02  0.10346407501E+03  0.15879929366E+03  0.19826185155E+03  0.00000000000E+00 0. -1.
         21    1    1    2  505  502  0.13157120616E+03  0.12230463985E+03 -0.11933209818E+03  0.21566074487E+03  0.00000000000E+00 0. -1.
         21    1    1    2  506  505 -0.20258427719E+02 -0.17033282402E+03 -0.80282460472E+02  0.18939099317E+03  0.00000000000E+00 0. -1.
<scales pt_clust_3="57.28897" pt_clust_4="118.70361" pt_clust_5="196.48268" pt_clust_6="57.28897"></scales>
<clustering>
<clus scale="   57.289">  3  6 -1 -1</clus>
<clus scale="  118.704">  1  4  2 -1</clus>
<clus scale="  196.483">  2  5  1 -1</clus>
<clus scale="  118.704">  1  3  2 -1</clus>
</clustering>
</event>
<event>
 6    0  0.8641190E+002  0.2211799E+03  0.7546771E-02  0.1133006E+00
         21   -1    0    0  502  501  0.00000000000E+00  0.00000000000E+00  0.28133487799E+03  0.28133487799E+03  0.00000000000E+00 0. -1.
         21   -1    0    0  504  502 -0.00000000000E+00 -0.00000000000E+00 -0.17191920336E+03  0.17191920336E+03  0.00000000000E+00 0. -1.
         21    1    1    2  503  505 -0.15738680096E+03 -0.25613137905E+02  0.20610186427E+02  0.16078376079E+03  0.00000000000E+00 0. -1.
         21    1    1    2  504  506  0.94969479710E+02  0.98446047033E+01  0.42776641123E+02  0.10462293890E+03  0.00000000000E+00 0. -1.
         21    1    1    2  505  501 -0.49744289450E+02 -0.22896241687E+02  0.42221181238E+02  0.69147381450E+02  0.00000000000E+00 0.  1.
         21    1    1    2  506  503  0.11216161070E+03  0.38664774888E+02  0.38076658390E+01  0.11870000021E+03  0.00000000000E+00 0. -1.
<scales pt_clust_3="35.47283" pt_clust_4="44.37306" pt_clust_5="35.47283" pt_clust_6="218.41025"></scales>
<clustering>
<clus scale="   35.473">  3  5 -1 -1</clus>
<clus scale="   44.373">  4  6 -1 -1</clus>
<clus scale="  218.410">  2  4  1 -1</clus>
<clus scale="  221.180">  1  3  2 -1</clus>
</clustering>
</event>
<event>
 6    0  0.8641190E+002  0.8226483E+02  0.7546771E-02  0.1322744E+00
         21   -1    0    0  503  501  0.00000000000E+00  0.00000000000E+00  0.48018402649E+02  0.48018402649E+02  0.00000000000E+00 0.  1.
         21   -1    0    0  504  502 -0.00000000000E+00 -0.00000000000E+00 -0.16324518576E+04  0.16324518576E+04  0.00000000000E+00 0. -1.
         21    1    1    2  503  506 -0.10155270706E+03  0.28163849080E+02 -0.47669105684E+02  0.11566545873E+03  0.00000000000E+00 0.  1.
         21    1    1    2  504  505  0.41015681092E+02 -0.34166105566E+02 -0.14942733437E+03  0.15867620213E+03  0.00000000000E+00 0.  1.
         21    1    1    2  505  501 -0.12862795174E+02 -0.31429094905E+02 -0.27230138258E+02  0.43528380809E+02  0.00000000000E+00 0. -1.
         21    1    1    2  506  502  0.73399821139E+02  0.37431351391E+02 -0.13601068766E+04  0.13626002186E+04  0.00000000000E+00 0. -1.
<scales pt_clust_3="14000.00000" pt_clust_4="54.69771" pt_clust_5="33.95938" pt_clust_6="82.26483"></scales>
<clustering>
<clus scale="   33.959">  1  5  2 -1</clus>
<clus scale="   54.698">  1  4  2 -1</clus>
<clus scale="   82.265">  2  6  1 -1</clus>
<clus scale="   33.959">  1  3  2 -1</clus>
</clustering>
</event>
<event>
 6    0  0.8641190E+002  0.5856382E+02  0.7546771E-02  0.1403960E+00
         21   -1    0    0  506  501  0.00000000000E+00  0.00000000000E+00  0.61752441415E+03  0.61752441415E+03  0.00000000000E+00 0. -1.
         21   -1    0    0  503  502 -0.00000000000E+00 -0.00000000000E+00 -0.36474375175E+03  0.36474375175E+03  0.00000000000E+00 0. -1.
         21    1    1    2  503  505  0.33971323463E+02 -0.45834841344E+02 -0.59566621203E+02  0.82480699927E+02  0.00000000000E+00 0. -1.
         21    1    1    2  504  501  0.42175140167E+02 -0.38648212589E+02  0.46844020722E+03  0.47192017813E+03  0.00000000000E+00 0. -1.
         21    1    1    2  505  504 -0.11520292206E+02  0.86477678979E+02  0.11772034995E+03  0.14652367347E+03  0.00000000000E+00 0. -1.
         21    1    1    2  506  502 -0.64626171425E+02 -0.19946250464E+01 -0.27381327357E+03  0.28134361437E+03  0.00000000000E+00 0. -1.
<scales pt_clust_3="57.05159" pt_clust_4="58.56382" pt_clust_5="14000.00000" pt_clust_6="55.77377"></scales>
<clustering>
<clus scale="   57.052">  2  3  1 -1</clus>
<clus scale="   55.774">  2  6  1 -1</clus>
<clus scale="   58.564">  1  4  2 -1</clus>
<clus scale="   58.564">  1  3  2 -1</clus>
</clustering>
</event>
<event>
 6    0  0.8641190E+002  0.1225599E+03  0.7546771E-02  0.1238933E+00
         21   -1    0    0  504  501  0.00000000000E+00  0.00000000000E+00  0.58739230025E+02  0.58739230025E+02  0.00000000000E+00 0.  1.
         21   -1    0    0  503  502 -0.00000000000E+00 -0.00000000000E+00 -0.46814325910E+03  0.46814325910E+03  0.00000000000E+00 0.  1.
         21    1    1    2  503  505 -0.37250226461E+02 -0.14076759807E+01 -0.22080921095E+03  0.22393362536E+03  0.00000000000E+00 0.  1.
         21    1    1    2  504  506 -0.27464181558E+01  0.68080804975E+02 -0.43141965710E+02  0.80645942391E+02  0.00000000000E+00 0.  1.
         21    1    1    2  505  501  0.67115479880E+02 -0.97903583232E+02 -0.74403100818E+02  0.14009075866E+03  0.00000000000E+00 0.  1.
         21    1    1    2  506  502 -0.27118835264E+02  0.31230454238E+02 -0.71049751593E+02  0.82212162721E+02  0.00000000000E+00 0.  1.
<scales pt_clust_3="37.27681" pt_clust_4="44.29608" pt_clust_5="110.87189" pt_clust_6="44.29608"></scales>
<clustering>
<clus scale="   37.277">  2  3  1 -1</clus>
<clus scale="   44.296">  4  6 -1 -1</clus>
<clus scale="  110.872">  1  5  2 -1</clus>
<clus scale="  110.872">  1  3  2 -1</clus>
</clustering>
</event>
<event>
 6    0  0.8641190E+002  0.8495196E+02  0.7546771E-02  0.1315558E+00
         21   -1    0    0  503  501  0.00000000000E+00  0.00000000000E+00  0.15477157749E+04  0.15477157749E+04  0.00000000000E+00 0.  1.
         21   -1    0    0  505  502 -0.00000000000E+00 -0.00000000000E+00 -0.44795885830E+03  0.44795885830E+03  0.00000000000E+00 0. -1.
         21    1    1    2  503  506 -0.38296211069E+02  0.30752247662E+01  0.12486941200E+04  0.12492850203E+04  0.00000000000E+00 0.  1.
         21    1    1    2  504  502  0.42327991687E+02 -0.77715715638E+02 -0.69525039199E+02  0.11253942604E+03  0.00000000000E+00 0.  1.
         21    1    1    2  505  501 -0.36479092163E+02 -0.79133174753E+01 -0.34851349695E+03  0.35050677927E+03  0.00000000000E+00 0. -1.
         21    1    1    2  506  504  0.32447311545E+02  0.82553808347E+02  0.26910133278E+03  0.28334340755E+03  0.00000000000E+00 0.  1.
<scales pt_clust_3="38.52672" pt_clust_4="14000.00000" pt_clust_5="37.32753" pt_clust_6="84.95196"></scales>
<clustering>
<clus scale="   37.328">  2  5  1 -1</clus>
<clus scale="   38.527">  1  3  2 -1</clus>
<clus scale="   84.952">  1  6  2 -1</clus>
<clus scale="   38.527">  1  3  2 -1</clus>
</clustering>
</event>
<event>
 6    0  0.8641190E+002  0.8492212E+02  0.7546771E-02  0.1315636E+00
         21   -1    0    0  505  501  0.00000000000E+00  0.00000000000E+00  0.10722894939E+04  0.10722894939E+04  0.00000000000E+00 0.  1.
         21   -1    0    0  504  502 -0.00000000000E+00 -0.00000000000E+00 -0.26208921598E+03  0.26208921598E+03  0.00000000000E+00 0.  1.
         21    1    1    2  503  501 -0.94542052677E+01 -0.28541240754E+02  0.36643098201E+02  0.47399378338E+02  0.00000000000E+00 0.  1.
         21    1    1    2  504  503 -0.12589338701E+03 -0.28216294222E+02  0.30040092869E+03  0.32693427796E+03  0.00000000000E+00 0.  1.
         21    1    1    2  505  506  0.53126375023E+02  0.40058067301E+02  0.70776495918E+03  0.71088557302E+03  0.00000000000E+00 0.  1.
         21    1    1    2  506  502  0.82221217251E+02  0.16699467675E+02 -0.23460870818E+03  0.24915948054E+03  0.00000000000E+00 0.  1.
<scales pt_clust_3="30.06633" pt_clust_4="14000.00000" pt_clust_5="50.88861" pt_clust_6="84.92212"></scales>
<clustering>
<clus scale="   30.066">  1  3  2 -1</clus>
<clus scale="   50.889">  1  5  2 -1</clus>
<clus scale="   84.922">  2  6  1 -1</clus>
<clus scale="   30.066">  1  3  2 -1</clus>
</clustering>
</event>
<event>
 6    0  0.8641190E+002  0.8762611E+02  0.7546771E-02  0.1308704E+00
         21   -1    0    0  506  501  0.00000000000E+00  0.00000000000E+00  0.35298574367E+03  0.35298574367E+03  0.00000000000E+00 0. -1.
         21   -1    0    0  505  502 -0.00000000000E+00 -0.00000000000E+00 -0.74500807916E+03  0.74500807916E+03  0.00000000000E+00 0. -1.
         21    1    1    2  503  501  0.80652957923E+02  0.34087480594E+02  0.32605397009E+03  0.33760634972E+03  0.00000000000E+00 0. -1.
         21    1    1    2  504  502 -0.32102338570E+02 -0.46654224790E+01 -0.39262994311E+03  0.39396776332E+03  0.00000000000E+00 0. -1.
         21    1    1    2  505  503 -0.65028849300E+02 -0.78906686442E+02 -0.27686487122E+03  0.29514263216E+03  0.00000000000E+00 0. -1.
         21    1    1    2  506  504  0.16478229947E+02  0.49484628327E+02 -0.48581491266E+02  0.71277077637E+02  0.00000000000E+00 0. -1.
<scales pt_clust_3="14000.00000" pt_clust_4="32.43958" pt_clust_5="87.62611" pt_clust_6="49.91857"></scales>
<clustering>
<clus scale="   32.440">  2  4  1 -1</clus>
<clus scale="   49.919">  2  6  1 -1</clus>
<clus scale="   87.626">  2  5  1 -1</clus>
<clus scale="   87.626">  1  3  2 -1</clus>
</clustering>
</event>
<event>
 6    0  0.8641190E+002  0.1129725E+03  0.7546771E-02  0.1255162E+00
         21   -1    0    0  505  501  0.00000000000E+00  0.00000000000E+00  0.61039840288E+03  0.61039840288E+03  0.00000000000E+00 0. -1.
         21   -1    0    0  504  502 -0.00000000000E+00 -0.00000000000E+00 -0.50735729894E+02  0.50735729894E+02  0.00000000000E+00 0. -1.
         21    1    1    2  503  501  0.86177394206E+01 -0.10426067058E+03  0.21595573824E+03  0.23996131718E+03  0.00000000000E+00 0. -1.
         21    1    1    2  504  503 -0.87023944521E+01 -0.43395372735E+02  0.45254534379E+01  0.44490108707E+02  0.00000000000E+00 0. -1.
         21    1    1    2  505  506 -0.25103278012E+02  0.11937349511E+03  0.28998254708E+03  0.31459511044E+03  0.00000000000E+00 0. -1.
         21    1    1    2  506  502  0.25187933044E+02  0.28282548205E+02  0.49198934231E+02  0.62087596454E+02  0.00000000000E+00 0.  1.
<scales pt_clust_3="14000.00000" pt_clust_4="30.75091" pt_clust_5="112.97251" pt_clust_6="37.87261"></scales>
<clustering>
<clus scale="   37.873">  2  6  1 -1</clus>
<clus scale="   30.751">  2  4  1 -1</clus>
<clus scale="  112.973">  2  5  1 -1</clus>
<clus scale="  112.973">  1  3  2 -1</clus>
</clustering>
</event>
<event>
 6    0  0.8641190E+002  0.4785145E+03  0.7546771E-02  0.1019544E+00
         21   -1    0    0  503  501  0.00000000000E+00  0.00000000000E+00  0.10673498728E+03  0.10673498728E+03  0.00000000000E+00 0. -1.
         21   -1    0    0  506  502 -0.00000000000E+00 -0.00000000000E+00 -0.44608206386E+04  0.44608206386E+04  0.00000000000E+00 0.  1.
         21    1    1    2  503  502 -0.25642194551E+03  0.32687547148E+03 -0.37457923970E+03  0.55938304837E+03  0.00000000000E+00 0. -1.
         21    1    1    2  504  505 -0.11721595098E+02 -0.55149646658E+02 -0.33710050903E+03  0.34178301963E+03  0.00000000000E+00 0.  1.
         21    1    1    2  505  501  0.37524322395E+02 -0.54903816506E+02 -0.23251999081E+03  0.24184302753E+03  0.00000000000E+00 0.  1.
         21    1    1    2  506  504  0.23061921822E+03 -0.21682200832E+03 -0.34098859118E+04  0.34245465303E+04  0.00000000000E+00 0.  1.
<scales pt_clust_3="415.45131" pt_clust_4="53.48642" pt_clust_5="116.18748" pt_clust_6="116.18748"></scales>
<clustering>
<clus scale="   53.486">  4  5 -1 -1</clus>
<clus scale="  116.187">  4  6 -1 -1</clus>
<clus scale="  415.451">  1  3  2 -1</clus>
<clus scale="  415.451">  1  3  2 -1</clus>
</clustering>
</event>
<event>
 6    0  0.8641190E+002  0.1654728E+03  0.7546771E-02  0.1182653E+00
         21   -1    0    0  506  501  0.00000000000E+00  0.00000000000E+00  0.11753701662E+03  0.11753701662E+03  0.00000000000E+00 0.  1.
         21   -1    0    0  505  502 -0.00000000000E+00 -0.00000000000E+00 -0.11620036533E+04  0.11620036533E+04  0.00000000000E+00 0.  1.
         21    1    1    2  503  504  0.65838102592E+02 -0.68271855120E+01 -0.56379256990E+03  0.56766480258E+03  0.00000000000E+00 0.  1.
         21    1    1    2  504  501 -0.17883660039E+03 -0.71104869539E+02 -0.35305675128E+03  0.40210384447E+03  0.00000000000E+00 0.  1.
         21    1    1    2  505  503  0.19130776168E+02 -0.58152555013E+02 -0.13080619961E+03  0.14442287945E+03  0.00000000000E+00 0.  1.
         21    1    1    2  506  502  0.93867721626E+02  0.13608461006E+03  0.31888840926E+01  0.16534914345E+03  0.00000000000E+00 0.  1.
<scales pt_clust_3="85.75532" pt_clust_4="165.47276" pt_clust_5="61.21851" pt_clust_6="14000.00000"></scales>
<clustering>
<clus scale="   61.219">  2  5  1 -1</clus>
<clus scale="   85.755">  2  3  1 -1</clus>
<clus scale="  165.473">  2  4  1 -1</clus>
<clus scale="  165.473">  1  3  2 -1</clus>
</clustering>
</event>
<event>
 6    0  0.8641190E+002  0.9240138E+02  0.7546771E-02  0.1297138E+00
         21   -1    0    0  505  501  0.00000000000E+00  0.00000000000E+00  0.41526799546E+03  0.41526799546E+03  0.00000000000E+00 0. -1.
         21   -1    0    0  503  502 -0.00000000000E+00 -0.00000000000E+00 -0.47676123669E+03  0.47676123669E+03  0.00000000000E+00 0. -1.
         21    1    1    2  503  506  0.21531148468E+02  0.23535105761E+02 -0.39624607448E+03  0.39752791486E+03  0.00000000000E+00 0. -1.
         21    1    1    2  504  502 -0.71939532781E+02 -0.26714517646E+02  0.72025659901E+02  0.10524570069E+03  0.00000000000E+00 0. -1.
         21    1    1    2  505  504 -0.86272441310E+02  0.53197152247E+00  0.23422594714E+03  0.24960971823E+03  0.00000000000E+00 0. -1.
         21    1    1    2  506  501  0.13668082562E+03  0.26474403624E+01  0.28501226216E+02  0.13964589836E+03  0.00000000000E+00 0. -1.
<scales pt_clust_3="31.89814" pt_clust_4="70.90317" pt_clust_5="92.40138" pt_clust_6="14000.00000"></scales>
<clustering>
<clus scale="   31.898">  2  3  1 -1</clus>
<clus scale="   70.903">  2  4  1 -1</clus>
<clus scale="   92.401">  1  5  2 -1</clus>
<clus scale="   92.401">  1  3  2 -1</clus>
</clustering>
</event>
<event>
 6    0  0.8641190E+002  0.1317276E+03  0.7546771E-02  0.1224915E+00
         21   -1    0    0  504  501  0.00000000000E+00  0.00000000000E+00  0.30896843260E+04  0.30896843260E+04  0.00000000000E+00 0. -1.
         21   -1    0    0  501  502 -0.00000000000E+00 -0.00000000000E+00 -0.46193811182E+02  0.46193811182E+02  0.00000000000E+00 0.  1.
         21    1    1    2  503  505  0.41256900919E+02  0.45843559542E+02  0.89819704446E+03  0.90031199842E+03  0.00000000000E+00 0. -1.
         21    1    1    2  504  503 -0.82833934966E+02 -0.64450951089E+01  0.14618726896E+04  0.14642317988E+04  0.00000000000E+00 0. -1.
         21    1    1    2  505  506  0.70653857558E+01  0.75201489474E+02  0.63934714505E+03  0.64379341063E+03  0.00000000000E+00 0. -1.
         21    1    1    2  506  502  0.34511648291E+02 -0.11459995391E+03  0.44073635804E+02  0.12754092942E+03  0.00000000000E+00 0.  1.
<scales pt_clust_3="51.37487" pt_clust_4="83.08429" pt_clust_5="51.37487" pt_clust_6="118.82648"></scales>
<clustering>
<clus scale="   51.375">  3  5 -1 -1</clus>
<clus scale="   83.084">  1  4  2 -1</clus>
<clus scale="  118.826">  2  6  1 -1</clus>
<clus scale="   83.084">  1  3  2 -1</clus>
</clustering>
</event>
<event>
 6    0  0.8641190E+002  0.1202625E+03  0.7546771E-02  0.1242665E+00
         21   -1    0    0  504  501  0.00000000000E+00  0.00000000000E+00  0.30212435524E+04  0.30212435524E+04  0.00000000000E+00 0.  1.
         21   -1    0    0  506  502 -0.00000000000E+00 -0.00000000000E+00 -0.20707825034E+03  0.20707825034E+03  0.00000000000E+00 0. -1.
         21    1    1    2  503  502 -0.10165041824E+03 -0.42054272968E+02  0.19759120059E+03  0.22614962293E+03  0.00000000000E+00 0.  1.
         21    1    1    2  504  503  0.54164878249E+02  0.20168690990E+02  0.59766597243E+03  0.60045418205E+03  0.00000000000E+00 0.  1.
         21    1    1    2  505  501  0.73783506522E+02  0.94582902813E+00  0.22082160292E+04  0.22094485583E+04  0.00000000000E+00 0.  1.
         21    1    1    2  506  505 -0.26297966535E+02  0.20939752950E+02 -0.18930790011E+03  0.19226943944E+03  0.00000000000E+00 0. -1.
<scales pt_clust_3="14000.00000" pt_clust_4="56.36810" pt_clust_5="120.26246" pt_clust_6="33.61631"></scales>
<clustering>
<clus scale="   33.616">  2  6  1 -1</clus>
<clus scale="   56.368">  1  4  2 -1</clus>
<clus scale="  120.262">  1  5  2 -1</clus>
<clus scale="   56.368">  1  3  2 -1</clus>
</clustering>
</event>
<event>
 6    0  0.8641190E+002  0.2267611E+03  0.7546771E-02  0.1128940E+00
         21   -1    0    0  506  501  0.00000000000E+00  0.00000000000E+00  0.16848317814E+03  0.16848317814E+03  0.00000000000E+00 0. -1.
         21   -1    0    0  503  502 -0.00000000000E+00 -0.00000000000E+00 -0.87552743983E+03  0.87552743983E+03  0.00000000000E+00 0. -1.
         21    1    1    2  503  505 -0.10286302445E+03 -0.74849797996E+02 -0.12667158346E+03  0.17952432737E+03  0.00000000000E+00 0. -1.
         21    1    1    2  504  502  0.13756250121E+03  0.13836179085E+03 -0.42399513598E+03  0.46673258108E+03  0.00000000000E+00 0. -1.
         21    1    1    2  505  501 -0.84242001692E+02 -0.41197461280E+02 -0.26238104056E+03  0.27863552557E+03  0.00000000000E+00 0. -1.
         21    1    1    2  506  504  0.49542524935E+02 -0.22314531570E+02  0.10600349831E+03  0.11911818396E+03  0.00000000000E+00 0.  1.
<scales pt_clust_3="87.64189" pt_clust_4="203.34045" pt_clust_5="87.64189" pt_clust_6="54.33599"></scales>
<clustering>
<clus scale="   54.336">  1  6  2 -1</clus>
<clus scale="   87.642">  3  5 -1 -1</clus>
<clus scale="  203.340">  2  4  1 -1</clus>
<clus scale="   54.336">  1  3  2 -1</clus>
</clustering>
</event>
<event>
 6    0  0.8641190E+002  0.1192679E+03  0.7546771E-02  0.1244310E+00
         21   -1    0    0  505  501  0.00000000000E+00  0.00000000000E+00  0.18331912614E+04  0.18331912614E+04  0.00000000000E+00 0. -1.
         21   -1    0    0  506  502 -0.00000000000E+00 -0.00000000000E+00 -0.20926375195E+03  0.20926375195E+03  0.00000000000E+00 0.  1.
         21    1    1    2  503  502 -0.74966686390E+02 -0.10891632729E+03  0.11006467773E+04  0.11085603722E+04  0.00000000000E+00 0. -1.
         21    1    1    2  504  501 -0.19603083694E+02  0.62762325558E+02  0.87025573613E+02  0.10907264030E+03  0.00000000000E+00 0. -1.
         21    1    1    2  505  503  0.16593443855E+02 -0.43826339271E+02  0.61131481761E+03  0.61310838896E+03  0.00000000000E+00 0.  1.
         21    1    1    2  506  504  0.77976326229E+02  0.89980341001E+02 -0.17505965907E+03  0.21171361188E+03  0.00000000000E+00 0.  1.
<scales pt_clust_3="119.26786" pt_clust_4="61.99626" pt_clust_5="46.86246" pt_clust_6="14000.00000"></scales>
<clustering>
<clus scale="   46.862">  1  5  2 -1</clus>
<clus scale="   61.996">  1  4  2 -1</clus>
<clus scale="  119.268">  1  3  2 -1</clus>
<clus scale="   46.862">  1  3  2 -1</clus>
</clustering>
</event>
<event>
 6    0  0.8641190E+002  0.1592398E+03  0.7546771E-02  0.1189558E+00
         21   -1    0    0  503  501  0.00000000000E+00  0.00000000000E+00  0.20339362448E+04  0.20339362448E+04  0.00000000000E+00 0. -1.
         21   -1    0    0  504  502 -0.00000000000E+00 -0.00000000000E+00 -0.93183809653E+02  0.93183809653E+02  0.00000000000E+00 0.  1.
         21    1    1    2  503  506  0.10742987301E+03 -0.18268508226E+02  0.39706041470E+03  0.41174250318E+03  0.00000000000E+00 0. -1.
         21    1    1    2  504  505 -0.23045980816E+03 -0.13406029665E+01  0.14410423292E+04  0.14593548283E+04  0.00000000000E+00 0. -1.
         21    1    1    2  505  501 -0.32079741971E+02  0.23954601678E+02  0.92180237397E+02  0.10049939777E+03  0.00000000000E+00 0. -1.
         21    1    1    2  506  502  0.15510967712E+03 -0.43454904855E+01  0.10469453906E+02  0.15552332523E+03  0.00000000000E+00 0.  1.
<scales pt_clust_3="101.60455" pt_clust_4="159.23980" pt_clust_5="40.03664" pt_clust_6="14000.00000"></scales>
<clustering>
<clus scale="   40.037">  1  5  2 -1</clus>
<clus scale="  101.605">  1  3  2 -1</clus>
<clus scale="  159.240">  1  4  2 -1</clus>
<clus scale="   40.037">  1  3  2 -1</clus>
</clustering>
</event>
<event>
 6    0  0.8641190E+002  0.8114915E+02  0.7546771E-02  0.1325822E+00
         21   -1    0    0  503  501  0.00000000000E+00  0.00000000000E+00  0.26831121963E+03  0.26831121963E+03  0.00000000000E+00 0.  1.
         21   -1    0    0  504  502 -0.00000000000E+00 -0.00000000000E+00 -0.16023186626E+03  0.16023186626E+03  0.00000000000E+00 0.  1.
         21    1    1    2  503  505 -0.38016548479E+01  0.39231989348E+02  0.12084975731E+03  0.12711516594E+03  0.00000000000E+00 0.  1.
         21    1    1    2  504  506 -0.31756619445E+02 -0.65629284403E+02 -0.51597080548E+02  0.89319340408E+02  0.00000000000E+00 0.  1.
         21    1    1    2  505  502 -0.56256639244E+02  0.34302923268E+02  0.86193541012E+02  0.10849343997E+03  0.00000000000E+00 0.  1.
         21    1    1    2  506  501  0.91814913536E+02 -0.79056282136E+01 -0.47366864411E+02  0.10361513958E+03  0.00000000000E+00 0.  1.
<scales pt_clust_3="39.41575" pt_clust_4="68.56254" pt_clust_5="14000.00000" pt_clust_6="81.14915"></scales>
<clustering>
<clus scale="   39.416">  1  3  2 -1</clus>
<clus scale="   68.563">  2  4  1 -1</clus>
<clus scale="   81.149">  2  6  1 -1</clus>
<clus scale="   39.416">  1  3  2 -1</clus>
</clustering>
</event>
<event>
 6    0  0.8641190E+002  0.1041013E+03  0.7546771E-02  0.1271900E+00
         21   -1    0    0  505  501  0.00000000000E+00  0.00000000000E+00  0.34056056110E+03  0.34056056110E+03  0.00000000000E+00 0. -1.
         21   -1    0    0  503  502 -0.00000000000E+00 -0.00000000000E+00 -0.18855508738E+03  0.18855508738E+03  0.00000000000E+00 0. -1.
         21    1    1    2  503  504 -0.51321372957E+02  0.93170551326E+02 -0.14787341808E+03  0.18215702768E+03  0.00000000000E+00 0. -1.
         21    1    1    2  504  501 -0.30147657437E+02 -0.17956677245E+02  0.23644422078E+02  0.42312908220E+02  0.00000000000E+00 0. -1.
         21    1    1    2  505  506 -0.16790620185E+01 -0.36230759731E+02  0.68224833372E+02  0.77266519842E+02  0.00000000000E+00 0. -1.
         21    1    1    2  506  502  0.83148092413E+02 -0.38983114350E+02  0.20800963636E+03  0.22737919275E+03  0.00000000000E+00 0. -1.
<scales pt_clust_3="104.10131" pt_clust_4="35.09022" pt_clust_5="41.42516" pt_clust_6="14000.00000"></scales>
<clustering>
<clus scale="   35.090">  1  4  2 -1</clus>
<clus scale="   41.425">  1  5  2 -1</clus>
<clus scale="  104.101">  2  3  1 -1</clus>
<clus scale="   35.090">  1  3  2 -1</clus>
</clustering>
</event>
<event>
 6    0  0.8641190E+002  0.1021225E+03  0.7546771E-02  0.1275895E+00
         21   -1    0    0  504  501  0.00000000000E+00  0.00000000000E+00  0.25741098823E+03  0.25741098823E+03  0.00000000000E+00 0.  1.
         21   -1    0    0  505  502 -0.00000000000E+00 -0.00000000000E+00 -0.31372830389E+03  0.31372830389E+03  0.00000000000E+00 0.  1.
         21    1    1    2  503  506 -0.45327374084E+02  0.64983036934E+02  0.96020087759E+02  0.12448784352E+03  0.00000000000E+00 0.  1.
         21    1    1    2  504  503 -0.36164358048E+02 -0.12869708260E+01  0.77672087845E+02  0.85688215742E+02  0.00000000000E+00 0.  1.
         21    1    1    2  505  501  0.77750070723E+02 -0.11313906543E+03 -0.12469838128E+02  0.13784418191E+03  0.00000000000E+00 0.  1.
         21    1    1    2  506  502  0.37416614087E+01  0.49442999321E+02 -0.21753965313E+03  0.22311905095E+03  0.00000000000E+00 0.  1.
<scales pt_clust_3="102.12250" pt_clust_4="36.18725" pt_clust_5="14000.00000" pt_clust_6="49.52397"></scales>
<clustering>
<clus scale="   36.187">  1  4  2 -1</clus>
<clus scale="   49.524">  2  6  1 -1</clus>
<clus scale="  102.123">  1  3  2 -1</clus>
<clus scale="   36.187">  1  3  2 -1</clus>
</clustering>
</event>
<event>
 6    0  0.8641190E+002  0.1216027E+03  0.7546771E-02  0.1240476E+00
         21   -1    0    0  502  501  0.00000000000E+00  0.00000000000E+00  0.52749346568E+03  0.52749346568E+03  0.00000000000E+00 0. -1.
         21   -1    0    0  506  502 -0.00000000000E+00 -0.00000000000E+00 -0.56457721684E+02  0.56457721684E+02  0.00000000000E+00 0. -1.
         21    1    1    2  503  505 -0.62584667554E+02  0.48699547021E+01  0.11811526392E+03  0.13376013099E+03  0.00000000000E+00 0. -1.
         21    1    1    2  504  503  0.10396163264E+03 -0.18211869868E+02  0.15774085465E+03  0.18979428467E+03  0.00000000000E+00 0. -1.
         21    1    1    2  505  501 -0.60767781898E+02 -0.10117921714E+02  0.21528086722E+03  0.22392174403E+03  0.00000000000E+00 0. -1.
         21    1    1    2  506  504  0.19390816812E+02  0.23459836880E+02 -0.20101241793E+02  0.36475027686E+02  0.00000000000E+00 0. -1.
<scales pt_clust_3="39.18812" pt_clust_4="115.09663" pt_clust_5="39.18812" pt_clust_6="30.43629"></scales>
<clustering>
<clus scale="   30.436">  2  6  1 -1</clus>
<clus scale="   39.188">  3  5 -1 -1</clus>
<clus scale="  115.097">  2  4  1 -1</clus>
<clus scale="  121.603">  1  3  2 -1</clus>
</clustering>
</event>
<event>
 6    0  0.8641190E+002  0.8844811E+02  0.7546771E-02  0.1306654E+00
         21   -1    0    0  503  501  0.00000000000E+00  0.00000000000E+00  0.32738122715E+03  0.32738122715E+03  0.00000000000E+00 0.  1.
         21   -1    0    0  506  502 -0.00000000000E+00 -0.00000000000E+00 -0.10570230058E+03  0.10570230058E+03  0.00000000000E+00 0. -1.
         21    1    1    2  503  502  0.28822143208E+02  0.10166976647E+03  0.15215831253E+03  0.18525552468E+03  0.00000000000E+00 0.  1.
         21    1    1    2  504  501  0.34786556760E+02  0.58728922374E+01  0.75018846341E+02  0.82900076603E+02  0.00000000000E+00 0. -1.
         21    1    1    2  505  504 -0.22193371235E+02 -0.31782613220E+02  0.49262346015E+02  0.62685396742E+02  0.00000000000E+00 0.  1.
         21    1    1    2  506  505 -0.41415328733E+02 -0.75760045484E+02 -0.54760578311E+02  0.10224252972E+03  0.00000000000E+00 0. -1.
<scales pt_clust_3="14000.00000" pt_clust_4="35.27882" pt_clust_5="33.67265" pt_clust_6="88.44811"></scales>
<clustering>
<clus scale="   35.279">  1  4  2 -1</clus>
<clus scale="   33.673">  1  5  2 -1</clus>
<clus scale="   88.448">  2  6  1 -1</clus>
<clus scale="   35.279">  1  3  2 -1</clus>
</clustering>
</event>
<event>
 6    0  0.8641190E+002  0.1111357E+03  0.7546771E-02  0.1258481E+00
         21   -1    0    0  504  501  0.00000000000E+00  0.00000000000E+00  0.12819407054E+04  0.12819407054E+04  0.00000000000E+00 0.  1.
         21   -1    0    0  503  502 -0.00000000000E+00 -0.00000000000E+00 -0.76860024124E+02  0.76860024124E+02  0.00000000000E+00 0. -1.
         21    1    1    2  503  506 -0.53152882566E+02  0.62150417740E+02  0.11440972179E+03  0.14063245639E+03  0.00000000000E+00 0.  1.
         21    1    1    2  504  505 -0.30105951661E+02  0.11959699057E+02  0.12682478847E+03  0.13089663745E+03  0.00000000000E+00 0.  1.
         21    1    1    2  505  502  0.63687613419E+02 -0.10957060540E+03  0.42349276880E+01  0.12680601044E+03  0.00000000000E+00 0. -1.
         21    1    1    2  506  501  0.19571220807E+02  0.35460488607E+02  0.95961124335E+03  0.96046562525E+03  0.00000000000E+00 0.  1.
<scales pt_clust_3="14000.00000" pt_clust_4="32.39449" pt_clust_5="111.13574" pt_clust_6="45.74912"></scales>
<clustering>
<clus scale="   32.394">  1  4  2 -1</clus>
<clus scale="   45.749">  1  6  2 -1</clus>
<clus scale="  111.136">  2  5  1 -1</clus>
<clus scale="   32.394">  1  3  2 -1</clus>
</clustering>
</event>
<event>
 6    0  0.8641190E+002  0.7343298E+02  0.7546771E-02  0.1348793E+00
         21   -1    0    0  506  501  0.00000000000E+00  0.00000000000E+00  0.76082620147E+02  0.76082620147E+02  0.00000000000E+00 0. -1.
         21   -1    0    0  504  502 -0.00000000000E+00 -0.00000000000E+00 -0.43954346908E+03  0.43954346908E+03  0.00000000000E+00 0. -1.
         21    1    1    2  503  505  0.58111936862E+02 -0.40535826663E+02 -0.69167935658E+02  0.99016936795E+02  0.00000000000E+00 0. -1.
         21    1    1    2  504  501 -0.91356125731E+02  0.36750368089E+02 -0.17356881875E+03  0.19955617281E+03  0.00000000000E+00 0. -1.
         21    1    1    2  505  502  0.30435668456E+02 -0.47852488774E+02 -0.14806632081E+03  0.15855543496E+03  0.00000000000E+00 0. -1.
         21    1    1    2  506  503  0.28085204133E+01  0.51637947348E+02  0.27342226289E+02  0.58497544663E+02  0.00000000000E+00 0. -1.
<scales pt_clust_3="14000.00000" pt_clust_4="73.43298" pt_clust_5="50.28473" pt_clust_6="51.71427"></scales>
<clustering>
<clus scale="   51.714">  1  6  2 -1</clus>
<clus scale="   50.285">  2  5  1 -1</clus>
<clus scale="   73.433">  2  4  1 -1</clus>
<clus scale="   51.714">  1  3  2 -1</clus>
</clustering>
</event>
<event>
 6    0  0.8641190E+002  0.1847465E+03  0.7546771E-02  0.1163287E+00
         21   -1    0    0  505  501  0.00000000000E+00  0.00000000000E+00  0.11734307453E+04  0.11734307453E+04  0.00000000000E+00 0. -1.
         21   -1    0    0  504  502 -0.00000000000E+00 -0.00000000000E+00 -0.70476299015E+02  0.70476299015E+02  0.00000000000E+00 0.  1.
         21    1    1    2  503  501  0.82764459636E+01  0.29846059836E+02  0.33894318620E+03  0.34035535888E+03  0.00000000000E+00 0. -1.
         21    1    1    2  504  506 -0.69843378812E+02  0.60763339994E+02  0.44696564545E+03  0.45645215441E+03  0.00000000000E+00 0. -1.
         21    1    1    2  505  502  0.10291206756E+03 -0.15208650963E+03  0.82837519148E+02  0.20145285960E+03  0.00000000000E+00 0.  1.
         21    1    1    2  506  503 -0.41345134711E+02  0.61477109804E+02  0.23420809552E+03  0.24564667147E+03  0.00000000000E+00 0. -1.
<scales pt_clust_3="30.97236" pt_clust_4="36.08380" pt_clust_5="180.25480" pt_clust_6="36.08380"></scales>
<clustering>
<clus scale="   30.972">  1  3  2 -1</clus>
<clus scale="   36.084">  4  6 -1 -1</clus>
<clus scale="  180.255">  2  5  1 -1</clus>
<clus scale="   30.972">  1  3  2 -1</clus>
</clustering>
</event>
<event>
 6    0  0.8641190E+002  0.8240814E+02  0.7546771E-02  0.1322353E+00
         21   -1    0    0  506  501  0.00000000000E+00  0.00000000000E+00  0.11571494203E+03  0.11571494203E+03  0.00000000000E+00 0. -1.
         21   -1    0    0  503  502 -0.00000000000E+00 -0.00000000000E+00 -0.37522162114E+03  0.37522162114E+03  0.00000000000E+00 0. -1.
         21    1    1    2  503  504 -0.13559782219E+02  0.53404937574E+02 -0.12987064448E+03  0.14107565116E+03  0.00000000000E+00 0. -1.
         21    1    1    2  504  505 -0.52527683059E+02 -0.37042029572E+02 -0.78916007431E+02  0.10177920058E+03  0.00000000000E+00 0. -1.
         21    1    1    2  505  501 -0.71193366020E+02  0.13451924937E+02  0.38117174941E+02  0.81867995427E+02  0.00000000000E+00 0. -1.
         21    1    1    2  506  502  0.13728083130E+03 -0.29814832938E+02 -0.88837202141E+02  0.16621371601E+03  0.00000000000E+00 0. -1.
<scales pt_clust_3="55.09950" pt_clust_4="60.06886" pt_clust_5="82.40814" pt_clust_6="14000.00000"></scales>
<clustering>
<clus scale="   55.100">  2  3  1 -1</clus>
<clus scale="   60.069">  2  4  1 -1</clus>
<clus scale="   82.408">  1  5  2 -1</clus>
<clus scale="   82.408">  1  3  2 -1</clus>
</clustering>
</event>
<event>
 6    0  0.8641190E+002  0.1133517E+03  0.7546771E-02  0.1254486E+00
         21   -1    0    0  504  501  0.00000000000E+00  0.00000000000E+00  0.14763500716E+04  0.14763500716E+04  0.00000000000E+00 0. -1.
         21   -1    0    0  505  502 -0.00000000000E+00 -0.00000000000E+00 -0.41473095018E+02  0.41473095018E+02  0.00000000000E+00 0.  1.
         21    1    1    2  503  501 -0.10143110584E+03 -0.11489297713E+02  0.11410063325E+04  0.11455634962E+04  0.00000000000E+00 0. -1.
         21    1    1    2  504  506  0.49601301048E+02 -0.17355588857E+02  0.19021361861E+02  0.55886650797E+02  0.00000000000E+00 0.  1.
         21    1    1    2  505  503 -0.81306432237E+01  0.74849375610E+02  0.17989055256E+03  0.19501063379E+03  0.00000000000E+00 0.  1.
         21    1    1    2  506  502  0.59960448015E+02 -0.46004489041E+02  0.94958729647E+02  0.12136238575E+03  0.00000000000E+00 0.  1.
<scales pt_clust_3="102.18182" pt_clust_4="40.91451" pt_clust_5="75.28968" pt_clust_6="40.91451"></scales>
<clustering>
<clus scale="   40.915">  4  6 -1 -1</clus>
<clus scale="   75.290">  2  5  1 -1</clus>
<clus scale="  102.182">  1  3  2 -1</clus>
<clus scale="  102.182">  1  3  2 -1</clus>
</clustering>
</event>
<event>
 6    0  0.8641190E+002  0.2427766E+03  0.7546771E-02  0.1117957E+00
         21   -1    0    0  506  501  0.00000000000E+00  0.00000000000E+00  0.20914276555E+04  0.20914276555E+04  0.00000000000E+00 0. -1.
         21   -1    0    0  505  502 -0.00000000000E+00 -0.00000000000E+00 -0.17645989908E+03  0.17645989908E+03  0.00000000000E+00 0.  1.
         21    1    1    2  503  501  0.40505792058E+02  0.15006740393E+02  0.70565188650E+03  0.70697277626E+03  0.00000000000E+00 0. -1.
         21    1    1    2  504  503  0.18272100405E+03  0.11326520425E+02  0.12083381336E+04  0.12221277759E+04  0.00000000000E+00 0. -1.
         21    1    1    2  505  504  0.29737042735E+02 -0.25283496499E+02 -0.66381143400E+02  0.77006513393E+02  0.00000000000E+00 0.  1.
         21    1    1    2  506  502 -0.25296383884E+03 -0.10497643179E+01  0.67358879679E+02  0.26178048904E+03  0.00000000000E+00 0.  1.
<scales pt_clust_3="42.04628" pt_clust_4="42.04628" pt_clust_5="39.03264" pt_clust_6="226.70015"></scales>
<clustering>
<clus scale="   39.033">  2  5  1 -1</clus>
<clus scale="   42.046">  3  4 -1 -1</clus>
<clus scale="  226.700">  2  6  1 -1</clus>
<clus scale="  242.777">  1  3  2 -1</clus>
</clustering>
</event>
<event>
 6    0  0.8641190E+002  0.9103043E+02  0.7546771E-02  0.1300375E+00
         21   -1    0    0  505  501  0.00000000000E+00  0.00000000000E+00  0.14127681827E+03  0.14127681827E+03  0.00000000000E+00 0. -1.
         21   -1    0    0  504  502 -0.00000000000E+00 -0.00000000000E+00 -0.49439381102E+03  0.49439381102E+03  0.00000000000E+00 0. -1.
         21    1    1    2  503  501 -0.40528249078E+02  0.26422131543E+02 -0.21539471751E+02  0.52958633403E+02  0.00000000000E+00 0. -1.
         21    1    1    2  504  503  0.33038438746E+02  0.10152845537E+02 -0.34922416156E+03  0.35093038302E+03  0.00000000000E+00 0. -1.
         21    1    1    2  505  506  0.28618410459E+02  0.79621307810E+02  0.62773407994E+02  0.10535210879E+03  0.00000000000E+00 0. -1.
         21    1    1    2  506  502 -0.21128600126E+02 -0.11619628489E+03 -0.45126767432E+02  0.12642950409E+03  0.00000000000E+00 0. -1.
<scales pt_clust_3="43.21490" pt_clust_4="34.56326" pt_clust_5="91.03043" pt_clust_6="14000.00000"></scales>
<clustering>
<clus scale="   34.563">  2  4  1 -1</clus>
<clus scale="   43.215">  2  3  1 -1</clus>
<clus scale="   91.030">  1  5  2 -1</clus>
<clus scale="   91.030">  1  3  2 -1</clus>
</clustering>
</event>
<event>
 6    0  0.8641190E+002  0.2316941E+03  0.7546771E-02  0.1125453E+00
         21   -1    0    0  504  501  0.00000000000E+00  0.00000000000E+00  0.66989516503E+03  0.66989516503E+03  0.00000000000E+00 0. -1.
         21   -1    0    0  503  502 -0.00000000000E+00 -0.00000000000E+00 -0.28700816349E+03  0.28700816349E+03  0.00000000000E+00 0.  1.
         21    1    1    2  503  505  0.13448874818E+02 -0.22926664200E+03 -0.18661540162E+03  0.29592122852E+03  0.00000000000E+00 0.  1.
         21    1    1    2  504  502  0.43629765592E+02  0.12535451163E+02  0.10313053197E+03  0.11267919332E+03  0.00000000000E+00 0.  1.
         21    1    1    2  505  506 -0.76426215855E+02  0.24353357115E+03  0.41531812801E+03  0.48748201423E+03  0.00000000000E+00 0. -1.
         21    1    1    2  506  501  0.19347575446E+02 -0.26802380318E+02  0.51053743178E+02  0.60820892454E+02  0.00000000000E+00 0.  1.
<scales pt_clust_3="14000.00000" pt_clust_4="47.67666" pt_clust_5="231.69409" pt_clust_6="33.05596"></scales>
<clustering>
<clus scale="   33.056">  1  6  2 -1</clus>
<clus scale="   47.677">  1  4  2 -1</clus>
<clus scale="  231.694">  1  5  2 -1</clus>
<clus scale="   33.056">  1  3  2 -1</clus>
</clustering>
</event>
<event>
 6    0  0.8641190E+002  0.6696190E+02  0.7546771E-02  0.1370740E+00
         21   -1    0    0  503  501  0.00000000000E+00  0.00000000000E+00  0.64728909256E+03  0.64728909256E+03  0.00000000000E+00 0. -1.
         21   -1    0    0  505  502 -0.00000000000E+00 -0.00000000000E+00 -0.41559631514E+02  0.41559631514E+02  0.00000000000E+00 0.  1.
         21    1    1    2  503  506 -0.69595403363E+02 -0.78962195494E+02  0.39509621083E+03  0.40887597667E+03  0.00000000000E+00 0. -1.
         21    1    1    2  504  501  0.28936012105E+02  0.48528051433E+02  0.12269318153E+03  0.13507731625E+03  0.00000000000E+00 0.  1.
         21    1    1    2  505  504  0.43414712035E+02  0.62652660610E+02  0.37423606553E+02  0.84915955097E+02  0.00000000000E+00 0.  1.
         21    1    1    2  506  502 -0.27553207764E+01 -0.32218516549E+02  0.50516462139E+02  0.59979476058E+02  0.00000000000E+00 0. -1.
<scales pt_clust_3="66.96190" pt_clust_4="51.66485" pt_clust_5="14000.00000" pt_clust_6="32.33612"></scales>
<clustering>
<clus scale="   32.336">  2  6  1 -1</clus>
<clus scale="   51.665">  1  4  2 -1</clus>
<clus scale="   66.962">  1  3  2 -1</clus>
<clus scale="   51.665">  1  3  2 -1</clus>
</clustering>
</event>
<event>
 6    0  0.8641190E+002  0.1688230E+03  0.7546771E-02  0.1179081E+00
         21   -1    0    0  506  501  0.00000000000E+00  0.00000000000E+00  0.25709643545E+03  0.25709643545E+03  0.00000000000E+00 0. -1.
         21   -1    0    0  503  502 -0.00000000000E+00 -0.00000000000E+00 -0.25361331302E+03  0.25361331302E+03  0.00000000000E+00 0. -1.
         21    1    1    2  503  504  0.51303803808E+02 -0.54651227854E+02 -0.90810193630E+01  0.75506965929E+02  0.00000000000E+00 0. -1.
         21    1    1    2  504  501  0.10446787471E+03 -0.19904636665E+02 -0.15529837534E+03  0.18822145677E+03  0.00000000000E+00 0. -1.
         21    1    1    2  505  502 -0.10569333212E+03  0.25434575103E+02  0.82363148081E+02  0.13638799883E+03  0.00000000000E+00 0. -1.
         21    1    1    2  506  505 -0.50078346401E+02  0.49121289417E+02  0.85499369060E+02  0.11059332693E+03  0.00000000000E+00 0. -1.
<scales pt_clust_3="74.95890" pt_clust_4="159.69549" pt_clust_5="43.98736" pt_clust_6="43.98736"></scales>
<clustering>
<clus scale="   43.987">  5  6 -1 -1</clus>
<clus scale="   74.959">  2  3  1 -1</clus>
<clus scale="  159.695">  2  4  1 -1</clus>
<clus scale="  168.823">  1  3  2 -1</clus>
</clustering>
</event>
<event>
 6    0  0.8641190E+002  0.8755799E+02  0.7546771E-02  0.1308875E+00
         21   -1    0    0  503  501  0.00000000000E+00  0.00000000000E+00  0.12849518279E+04  0.12849518279E+04  0.00000000000E+00 0.  1.
         21   -1    0    0  504  502 -0.00000000000E+00 -0.00000000000E+00 -0.23698747079E+03  0.23698747079E+03  0.00000000000E+00 0. -1.
         21    1    1    2  503  506  0.78833191491E+02  0.28688923034E+02  0.11337728009E+03  0.14103947684E+03  0.00000000000E+00 0.  1.
         21    1    1    2  504  505 -0.87873746016E+02 -0.16420132807E+02  0.23281997216E+03  0.24939237245E+03  0.00000000000E+00 0.  1.
         21    1    1    2  505  501 -0.39232448872E+02 -0.86460558201E+02  0.90493146208E+03  0.90989865602E+03  0.00000000000E+00 0.  1.
         21    1    1    2  506  502  0.48273003397E+02  0.74191767974E+02 -0.20316435718E+03  0.22160879342E+03  0.00000000000E+00 0. -1.
<scales pt_clust_3="83.89116" pt_clust_4="14000.00000" pt_clust_5="67.83448" pt_clust_6="87.55799"></scales>
<clustering>
<clus scale="   83.891">  1  3  2 -1</clus>
<clus scale="   67.834">  1  5  2 -1</clus>
<clus scale="   87.558">  2  6  1 -1</clus>
<clus scale="   83.891">  1  3  2 -1</clus>
</clustering>
</event>
<event>
 6    0  0.8641190E+002  0.3561009E+03  0.7546771E-02  0.1060138E+00
         21   -1    0    0  504  501  0.00000000000E+00  0.00000000000E+00  0.62558305603E+03  0.62558305603E+03  0.00000000000E+00 0.  1.
         21   -1    0    0  505  502 -0.00000000000E+00 -0.00000000000E+00 -0.22610527957E+04  0.22610527957E+04  0.00000000000E+00 0.  1.
         21    1    1    2  503  501  0.54327790354E+02 -0.27070626795E+02  0.12371063293E+03  0.13779930457E+03  0.00000000000E+00 0. -1.
         21    1    1    2  504  506 -0.27217320435E+03  0.28817353698E+00  0.34670367537E+03  0.44077406313E+03  0.00000000000E+00 0.  1.
         21    1    1    2  505  503 -0.11499906018E+03  0.16446751980E+03 -0.32107811215E+02  0.20323695641E+03  0.00000000000E+00 0.  1.
         21    1    1    2  506  502  0.33284447418E+03 -0.13768506654E+03 -0.20737762367E+04  0.21048255276E+04  0.00000000000E+00 0.  1.
<scales pt_clust_3="60.69866" pt_clust_4="14000.00000" pt_clust_5="191.53097" pt_clust_6="356.10087"></scales>
<clustering>
<clus scale="   60.699">  1  3  2 -1</clus>
<clus scale="  191.531">  1  5  2 -1</clus>
<clus scale="  356.101">  2  6  1 -1</clus>
<clus scale="   60.699">  1  3  2 -1</clus>
</clustering>
</event>
<event>
 6    0  0.1939381E+003  0.1387992E+03  0.7546771E-02  0.1214954E+00
         21   -1    0    0  505  501  0.00000000000E+00  0.00000000000E+00  0.18865521822E+04  0.18865521822E+04  0.00000000000E+00 0.  1.
         21   -1    0    0  503  502 -0.00000000000E+00 -0.00000000000E+00 -0.30473237029E+03  0.30473237029E+03  0.00000000000E+00 0. -1.
         21    1    1    2  503  504 -0.90412679150E+02 -0.25913380755E+02  0.38056635618E+02  0.10146064936E+03  0.00000000000E+00 0. -1.
         21    1    1    2  504  501  0.10251565296E+03  0.48733313262E+01  0.15122346675E+04  0.15157133298E+04  0.00000000000E+00 0.  1.
         21    1    1    2  505  506  0.44359684388E+02  0.26959276511E+02  0.29757781585E+03  0.30207141651E+03  0.00000000000E+00 0. -1.
         21    1    1    2  506  502 -0.56462658203E+02 -0.59192270819E+01 -0.26604930711E+03  0.27203915680E+03  0.00000000000E+00 0. -1.
<scales pt_clust_3="14000.00000" pt_clust_4="138.79925" pt_clust_5="51.90938" pt_clust_6="56.68352"></scales>
<clustering>
<clus scale="   51.909">  1  5  2 -1</clus>
<clus scale="   56.684">  2  6  1 -1</clus>
<clus scale="  138.799">  1  4  2 -1</clus>
<clus scale="   51.909">  1  3  2 -1</clus>
</clustering>
</event>
<event>
 6    0  0.8641190E+002  0.1535371E+03  0.7546771E-02  0.1196193E+00
         21   -1    0    0  504  501  0.00000000000E+00  0.00000000000E+00  0.16327130263E+03  0.16327130263E+03  0.00000000000E+00 0.  1.
         21   -1    0    0  505  502 -0.00000000000E+00 -0.00000000000E+00 -0.29332082390E+03  0.29332082390E+03  0.00000000000E+00 0.  1.
         21    1    1    2  503  506  0.47249641077E+02 -0.50218018653E+02 -0.39959797217E+02  0.79694186570E+02  0.00000000000E+00 0.  1.
         21    1    1    2  504  502 -0.10498169536E+03  0.71050349213E+02  0.29070242480E+02  0.13005532470E+03  0.00000000000E+00 0.  1.
         21    1    1    2  505  503 -0.11737778134E+02  0.44900986579E+02 -0.14125522241E+03  0.14868393286E+03  0.00000000000E+00 0.  1.
         21    1    1    2  506  501  0.69469832420E+02 -0.65733317138E+02  0.22095255878E+02  0.98158682401E+02  0.00000000000E+00 0.  1.
<scales pt_clust_3="51.34625" pt_clust_4="139.02977" pt_clust_5="46.40985" pt_clust_6="51.34625"></scales>
<clustering>
<clus scale="   46.410">  2  5  1 -1</clus>
<clus scale="   51.346">  3  6 -1 -1</clus>
<clus scale="  139.030">  1  4  2 -1</clus>
<clus scale="  139.030">  1  3  2 -1</clus>
</clustering>
</event>
<event>
 6    0  0.8641190E+002  0.1133497E+03  0.7546771E-02  0.1254489E+00
         21   -1    0    0  505  501  0.00000000000E+00  0.00000000000E+00  0.14808963628E+03  0.14808963628E+03  0.00000000000E+00 0.  1.
         21   -1    0    0  506  502 -0.00000000000E+00 -0.00000000000E+00 -0.12202891874E+04  0.12202891874E+04  0.00000000000E+00 0. -1.
         21    1    1    2  503  504 -0.12953834507E+03 -0.24967790877E+02 -0.27024666700E+03  0.30072717611E+03  0.00000000000E+00 0. -1.
         21    1    1    2  504  501  0.64868694568E+02 -0.31860109477E+02  0.10337800396E+03  0.12613495080E+03  0.00000000000E+00 0.  1.
         21    1    1    2  505  502 -0.21346457321E+02  0.12333322231E+03 -0.67880507942E+03  0.69024857176E+03  0.00000000000E+00 0. -1.
         21    1    1    2  506  503  0.86016107827E+02 -0.66505321961E+02 -0.22652580866E+03  0.25126812501E+03  0.00000000000E+00 0. -1.
<scales pt_clust_3="107.41946" pt_clust_4="72.27042" pt_clust_5="113.34975" pt_clust_6="14000.00000"></scales>
<clustering>
<clus scale="   72.270">  1  4  2 -1</clus>
<clus scale="  107.419">  1  3  2 -1</clus>
<clus scale="  113.350">  2  5  1 -1</clus>
<clus scale="   72.270">  1  3  2 -1</clus>
</clustering>
</event>
<event>
 6    0  0.8641190E+002  0.7862713E+02  0.7546771E-02  0.1332993E+00
         21   -1    0    0  504  501  0.00000000000E+00  0.00000000000E+00  0.86241896809E+03  0.86241896809E+03  0.00000000000E+00 0. -1.
         21   -1    0    0  503  502 -0.00000000000E+00 -0.00000000000E+00 -0.36633246720E+02  0.36633246720E+02  0.00000000000E+00 0. -1.
         21    1    1    2  503  505 -0.70957060930E+02  0.38463455681E+02  0.57198346332E+02  0.98924176731E+02  0.00000000000E+00 0. -1.
         21    1    1    2  504  502  0.84142222077E+02  0.95449172920E+01  0.14375005485E+03  0.16683853647E+03  0.00000000000E+00 0. -1.
         21    1    1    2  505  506  0.18584898941E+02 -0.62345428129E+02  0.32612757056E+03  0.33255306818E+03  0.00000000000E+00 0. -1.
         21    1    1    2  506  501 -0.31770060089E+02  0.14337055156E+02  0.29870974963E+03  0.30073643343E+03  0.00000000000E+00 0.  1.
<scales pt_clust_3="78.62713" pt_clust_4="14000.00000" pt_clust_5="53.95409" pt_clust_6="34.85524"></scales>
<clustering>
<clus scale="   34.855">  1  6  2 -1</clus>
<clus scale="   53.954">  1  5  2 -1</clus>
<clus scale="   78.627">  2  3  1 -1</clus>
<clus scale="   34.855">  1  3  2 -1</clus>
</clustering>
</event>
<event>
 6    0  0.8641190E+002  0.1156322E+03  0.7546771E-02  0.1250482E+00
         21   -1    0    0  506  501  0.00000000000E+00  0.00000000000E+00  0.17273318299E+03  0.17273318299E+03  0.00000000000E+00 0. -1.
         21   -1    0    0  504  502 -0.00000000000E+00 -0.00000000000E+00 -0.33906307280E+03  0.33906307280E+03  0.00000000000E+00 0. -1.
         21    1    1    2  503  502 -0.35056021999E+02 -0.96643559114E+02 -0.22313770408E+03  0.24568137328E+03  0.00000000000E+00 0. -1.
         21    1    1    2  504  505  0.68542198247E+02 -0.15758084064E+02 -0.31862537696E+02  0.77211213320E+02  0.00000000000E+00 0. -1.
         21    1    1    2  505  501  0.29664868480E+02 -0.77191414465E+01  0.21795097947E+02  0.37611379410E+02  0.00000000000E+00 0. -1.
         21    1    1    2  506  503 -0.63151044727E+02  0.12012078462E+03  0.66875254014E+02  0.15129228979E+03  0.00000000000E+00 0. -1.
<scales pt_clust_3="115.63222" pt_clust_4="75.18777" pt_clust_5="30.65273" pt_clust_6="14000.00000"></scales>
<clustering>
<clus scale="   30.653">  1  5  2 -1</clus>
<clus scale="   75.188">  2  4  1 -1</clus>
<clus scale="  115.632">  2  3  1 -1</clus>
<clus scale="   30.653">  1  3  2 -1</clus>
</clustering>
</event>
<event>
 6    0  0.8641190E+002  0.1270558E+03  0.7546771E-02  0.1231891E+00
         21   -1    0    0  504  501  0.00000000000E+00  0.00000000000E+00  0.34219792598E+02  0.34219792598E+02  0.00000000000E+00 0.  1.
         21   -1    0    0  506  502 -0.00000000000E+00 -0.00000000000E+00 -0.24287744600E+04  0.24287744600E+04  0.00000000000E+00 0. -1.
         21    1    1    2  503  501  0.54807804166E+02  0.81315178130E+02 -0.12100626127E+04  0.12140294808E+04  0.00000000000E+00 0. -1.
         21    1    1    2  504  502 -0.66357575865E+02 -0.11230742195E+03 -0.11079052458E+03  0.17114562582E+03  0.00000000000E+00 0.  1.
         21    1    1    2  505  503 -0.24242389396E+02  0.31315807815E+02 -0.87658654831E+03  0.87748068352E+03  0.00000000000E+00 0. -1.
         21    1    1    2  506  505  0.35792161094E+02 -0.32356399248E+00 -0.19711498180E+03  0.20033846246E+03  0.00000000000E+00 0. -1.
<scales pt_clust_3="14000.00000" pt_clust_4="127.05577" pt_clust_5="32.80357" pt_clust_6="35.79362"></scales>
<clustering>
<clus scale="   35.794">  2  6  1 -1</clus>
<clus scale="   32.804">  2  5  1 -1</clus>
<clus scale="  127.056">  1  4  2 -1</clus>
<clus scale="  127.056">  1  3  2 -1</clus>
</clustering>
</event>
<event>
 6    0  0.8641190E+002  0.1103274E+03  0.7546771E-02  0.1259965E+00
         21   -1    0    0  503  501  0.00000000000E+00  0.00000000000E+00  0.60197354120E+03  0.60197354120E+03  0.00000000000E+00 0.  1.
         21   -1    0    0  506  502 -0.00000000000E+00 -0.00000000000E+00 -0.81820672954E+02  0.81820672954E+02  0.00000000000E+00 0.  1.
         21    1    1    2  503  504 -0.40417651301E+02 -0.45131731475E+02  0.39182469135E+02  0.72150714551E+02  0.00000000000E+00 0. -1.
         21    1    1    2  504  502  0.10444551986E+03  0.10703963232E+02  0.34082318487E+02  0.11038589530E+03  0.00000000000E+00 0.  1.
         21    1    1    2  505  501  0.59742878737E+02  0.80205154643E+01  0.30597371217E+03  0.31185485849E+03  0.00000000000E+00 0.  1.
         21    1    1    2  506  505 -0.12377074729E+03  0.26407252778E+02  0.14091436846E+03  0.18940274582E+03  0.00000000000E+00 0.  1.
<scales pt_clust_3="52.40910" pt_clust_4="14000.00000" pt_clust_5="60.27885" pt_clust_6="110.32739"></scales>
<clustering>
<clus scale="   60.279">  1  5  2 -1</clus>
<clus scale="   52.409">  1  3  2 -1</clus>
<clus scale="  110.327">  1  6  2 -1</clus>
<clus scale="   60.279">  1  3  2 -1</clus>
</clustering>
</event>
<event>
 6    0  0.8641190E+002  0.1077772E+03  0.7546771E-02  0.1264742E+00
         21   -1    0    0  503  501  0.00000000000E+00  0.00000000000E+00  0.77451317130E+03  0.77451317130E+03  0.00000000000E+00 0. -1.
         21   -1    0    0  504  502 -0.00000000000E+00 -0.00000000000E+00 -0.20548751694E+03  0.20548751694E+03  0.00000000000E+00 0. -1.
         21    1    1    2  503  502 -0.11368524087E+03  0.75571120622E+02 -0.25396800109E+02  0.13885361256E+03  0.00000000000E+00 0. -1.
         21    1    1    2  504  505 -0.28149943594E+02 -0.15571565090E+02 -0.96172078679E+02  0.10140986974E+03  0.00000000000E+00 0. -1.
         21    1    1    2  505  506  0.43567078002E+02 -0.19063448788E+02  0.71953815147E+01  0.48096557885E+02  0.00000000000E+00 0. -1.
         21    1    1    2  506  501  0.98268106467E+02 -0.40936106744E+02  0.68339915163E+03  0.69164064805E+03  0.00000000000E+00 0. -1.
<scales pt_clust_3="107.77719" pt_clust_4="32.16975" pt_clust_5="44.08157" pt_clust_6="14000.00000"></scales>
<clustering>
<clus scale="   32.170">  2  4  1 -1</clus>
<clus scale="   44.082">  2  5  1 -1</clus>
<clus scale="  107.777">  2  3  1 -1</clus>
<clus scale="  107.777">  1  3  2 -1</clus>
</clustering>
</event>
<event>
 6    0  0.8641190E+002  0.1509640E+03  0.7546771E-02  0.1199293E+00
         21   -1    0    0  503  501  0.00000000000E+00  0.00000000000E+00  0.28316886920E+03  0.28316886920E+03  0.00000000000E+00 0. -1.
         21   -1    0    0  505  502 -0.00000000000E+00 -0.00000000000E+00 -0.80891931246E+03  0.80891931246E+03  0.00000000000E+00 0.  1.
         21    1    1    2  503  502  0.35346855647E+02 -0.39248568540E+02  0.19848589849E+03  0.20539353017E+03  0.00000000000E+00 0. -1.
         21    1    1    2  504  506 -0.49524192401E+02 -0.48542433671E+01 -0.34558784576E+02  0.60584807526E+02  0.00000000000E+00 0.  1.
         21    1    1    2  505  504  0.12949961997E+03 -0.21549986766E+02 -0.68054876375E+03  0.69309535660E+03  0.00000000000E+00 0.  1.
         21    1    1    2  506  501 -0.11532228322E+03  0.65652798673E+02 -0.91287934153E+01  0.13301448736E+03  0.00000000000E+00 0.  1.
<scales pt_clust_3="52.81903" pt_clust_4="41.98721" pt_clust_5="134.49483" pt_clust_6="41.98721"></scales>
<clustering>
<clus scale="   41.987">  4  6 -1 -1</clus>
<clus scale="   52.819">  1  3  2 -1</clus>
<clus scale="  134.495">  2  5  1 -1</clus>
<clus scale="   52.819">  1  3  2 -1</clus>
</clustering>
</event>
<event>
 6    0  0.8641190E+002  0.1522520E+03  0.7546771E-02  0.1197733E+00
         21   -1    0    0  504  501  0.00000000000E+00  0.00000000000E+00  0.43424632220E+03  0.43424632220E+03  0.00000000000E+00 0. -1.
         21   -1    0    0  505  502 -0.00000000000E+00 -0.00000000000E+00 -0.25980271138E+03  0.25980271138E+03  0.00000000000E+00 0. -1.
         21    1    1    2  503  506  0.67339689626E+02  0.66967418446E+02 -0.23386025844E+02  0.97806825616E+02  0.00000000000E+00 0. -1.
         21    1    1    2  504  502 -0.13571140707E+03 -0.44180528468E+02  0.35500566223E+03  0.38262060232E+03  0.00000000000E+00 0. -1.
         21    1    1    2  505  503  0.25789623867E+02 -0.20460971381E+02 -0.16670497057E+03  0.16992440455E+03  0.00000000000E+00 0. -1.
         21    1    1    2  506  501  0.42582093575E+02 -0.23259185965E+01  0.95289449947E+01  0.43697201091E+02  0.00000000000E+00 0. -1.
<scales pt_clust_3="41.32792" pt_clust_4="140.03791" pt_clust_5="32.92045" pt_clust_6="41.32792"></scales>
<clustering>
<clus scale="   32.920">  2  5  1 -1</clus>
<clus scale="   41.328">  3  6 -1 -1</clus>
<clus scale="  140.038">  1  4  2 -1</clus>
<clus scale="  140.038">  1  3  2 -1</clus>
</clustering>
</event>
<event>
 6    0  0.8641190E+002  0.1113502E+03  0.7546771E-02  0.1258090E+00
         21   -1    0    0  504  501  0.00000000000E+00  0.00000000000E+00  0.18732419320E+03  0.18732419320E+03  0.00000000000E+00 0.  1.
         21   -1    0    0  505  502 -0.00000000000E+00 -0.00000000000E+00 -0.19234369846E+03  0.19234369846E+03  0.00000000000E+00 0.  1.
         21    1    1    2  503  502 -0.44359035347E+02  0.14542023578E+02 -0.98713223475E+02  0.10919475700E+03  0.00000000000E+00 0.  1.
         21    1    1    2  504  503 -0.86828602990E+02 -0.41691931811E+01  0.92504445514E+02  0.12693959551E+03  0.00000000000E+00 0.  1.
         21    1    1    2  505  506  0.45351063418E+02  0.10047754928E+02 -0.23298425258E+02  0.51966267441E+02  0.00000000000E+00 0.  1.
         21    1    1    2  506  501  0.85836574918E+02 -0.20420585324E+02  0.24487697959E+02  0.91567271719E+02  0.00000000000E+00 0.  1.
<scales pt_clust_3="46.68184" pt_clust_4="95.47873" pt_clust_5="41.57160" pt_clust_6="41.57160"></scales>
<clustering>
<clus scale="   41.572">  5  6 -1 -1</clus>
<clus scale="   46.682">  2  3  1 -1</clus>
<clus scale="   95.479">  1  4  2 -1</clus>
<clus scale="   95.479">  1  3  2 -1</clus>
</clustering>
</event>
<event>
 6    0  0.8641190E+002  0.1558681E+03  0.7546771E-02  0.1193442E+00
         21   -1    0    0  504  501  0.00000000000E+00  0.00000000000E+00  0.14351080214E+04  0.14351080214E+04  0.00000000000E+00 0. -1.
         21   -1    0    0  506  502 -0.00000000000E+00 -0.00000000000E+00 -0.20945997083E+03  0.20945997083E+03  0.00000000000E+00 0.  1.
         21    1    1    2  503  502  0.13961522621E+02  0.40125645899E+02  0.40785127050E+03  0.41005810615E+03  0.00000000000E+00 0. -1.
         21    1    1    2  504  503  0.94577162373E+02  0.39574188466E+02  0.70799573398E+03  0.71538025929E+03  0.00000000000E+00 0. -1.
         21    1    1    2  505  501 -0.25036184519E+02  0.38922056192E+02  0.28666906877E+03  0.29038059850E+03  0.00000000000E+00 0. -1.
         21    1    1    2  506  505 -0.83502500475E+02 -0.11862189056E+03 -0.17686802268E+03  0.22874902831E+03  0.00000000000E+00 0.  1.
<scales pt_clust_3="37.33821" pt_clust_4="37.33821" pt_clust_5="46.27890" pt_clust_6="144.67412"></scales>
<clustering>
<clus scale="   37.338">  3  4 -1 -1</clus>
<clus scale="   46.279">  1  5  2 -1</clus>
<clus scale="  144.674">  2  6  1 -1</clus>
<clus scale="   46.279">  1  3  2 -1</clus>
</clustering>
</event>
<event>
 6    0  0.8641190E+002  0.1315859E+03  0.7546771E-02  0.1225121E+00
         21   -1    0    0  503  501  0.00000000000E+00  0.00000000000E+00  0.86360582209E+02  0.86360582209E+02  0.00000000000E+00 0. -1.
         21   -1    0    0  506  502 -0.00000000000E+00 -0.00000000000E+00 -0.13285008675E+04  0.13285008675E+04  0.00000000000E+00 0.  1.
         21    1    1    2  503  504  0.74498559327E+02  0.14782189644E+02  0.46183306999E+02  0.88890079974E+02  0.00000000000E+00 0. -1.
         21    1    1    2  504  502 -0.15221527784E+03 -0.50924664638E+02 -0.84375018503E+03  0.85888135794E+03  0.00000000000E+00 0.  1.
         21    1    1    2  505  501  0.71714226483E+02  0.71412077011E+02 -0.25844512720E+03  0.27755449699E+03  0.00000000000E+00 0. -1.
         21    1    1    2  506  505  0.60024920281E+01 -0.35269602017E+02 -0.18612828006E+03  0.18953551481E+03  0.00000000000E+00 0. -1.
<scales pt_clust_3="75.93563" pt_clust_4="131.58592" pt_clust_5="14000.00000" pt_clust_6="35.77673"></scales>
<clustering>
<clus scale="   35.777">  2  6  1 -1</clus>
<clus scale="   75.936">  1  3  2 -1</clus>
<clus scale="  131.586">  2  4  1 -1</clus>
<clus scale="   75.936">  1  3  2 -1</clus>
</clustering>
</event>
<event>
 6    0  0.8641190E+002  0.1146882E+03  0.7546771E-02  0.1252126E+00
         21   -1    0    0  505  501  0.00000000000E+00  0.00000000000E+00  0.91200371583E+03  0.91200371583E+03  0.00000000000E+00 0. -1.
         21   -1    0    0  504  502 -0.00000000000E+00 -0.00000000000E+00 -0.16265673399E+03  0.16265673399E+03  0.00000000000E+00 0.  1.
         21    1    1    2  503  501 -0.11166011680E+03  0.26323878593E+02  0.79789858743E+03  0.80610364352E+03  0.00000000000E+00 0. -1.
         21    1    1    2  504  506  0.24579797809E+02 -0.44453558257E+02 -0.68035130219E+02  0.84906208524E+02  0.00000000000E+00 0.  1.
         21    1    1    2  505  502  0.10903358845E+03 -0.34917021614E+02 -0.16832160345E+02  0.11571881191E+03  0.00000000000E+00 0.  1.
         21    1    1    2  506  503 -0.21953269452E+02  0.53046701279E+02  0.36315684971E+02  0.67931785867E+02  0.00000000000E+00 0. -1.
<scales pt_clust_3="114.68820" pt_clust_4="50.79651" pt_clust_5="14000.00000" pt_clust_6="48.16345"></scales>
<clustering>
<clus scale="   50.797">  2  4  1 -1</clus>
<clus scale="   48.163">  2  6  1 -1</clus>
<clus scale="  114.688">  1  3  2 -1</clus>
<clus scale="  114.688">  1  3  2 -1</clus>
</clustering>
</event>
<event>
 6    0  0.8641190E+002  0.8698926E+02  0.7546771E-02  0.1310311E+00
         21   -1    0    0  505  501  0.00000000000E+00  0.00000000000E+00  0.89592777050E+03  0.89592777050E+03  0.00000000000E+00 0. -1.
         21   -1    0    0  506  502 -0.00000000000E+00 -0.00000000000E+00 -0.74210147505E+03  0.74210147505E+03  0.00000000000E+00 0. -1.
         21    1    1    2  503  502  0.25489229584E+02 -0.23190928159E+02 -0.72326861617E+03  0.72408909059E+03  0.00000000000E+00 0. -1.
         21    1    1    2  504  503  0.48490937616E+02  0.70507813981E+02  0.32730499783E+03  0.33830649487E+03  0.00000000000E+00 0. -1.
         21    1    1    2  505  504 -0.98428675961E+02 -0.26217790996E+02  0.52535087249E+03  0.53513467094E+03  0.00000000000E+00 0. -1.
         21    1    1    2  506  501  0.24448508760E+02 -0.21099094827E+02  0.24439041302E+02  0.40498989159E+02  0.00000000000E+00 0. -1.
<scales pt_clust_3="34.47575" pt_clust_4="86.98926" pt_clust_5="14000.00000" pt_clust_6="32.29398"></scales>
<clustering>
<clus scale="   32.294">  1  6  2 -1</clus>
<clus scale="   34.476">  2  3  1 -1</clus>
<clus scale="   86.989">  2  4  1 -1</clus>
<clus scale="   32.294">  1  3  2 -1</clus>
</clustering>
</event>
<event>
 6    0  0.8641190E+002  0.8075088E+02  0.7546771E-02  0.1326934E+00
         21   -1    0    0  506  501  0.00000000000E+00  0.00000000000E+00  0.19077843101E+03  0.19077843101E+03  0.00000000000E+00 0.  1.
         21   -1    0    0  505  502 -0.00000000000E+00 -0.00000000000E+00 -0.19097052311E+03  0.19097052311E+03  0.00000000000E+00 0.  1.
         21    1    1    2  503  502 -0.69791478148E+01  0.10108260314E+03  0.26675253593E+02  0.10477580978E+03  0.00000000000E+00 0.  1.
         21    1    1    2  504  501  0.13748827697E+02 -0.56172152256E+02 -0.17781160995E+01  0.57857606665E+02  0.00000000000E+00 0.  1.
         21    1    1    2  505  504  0.19112696307E+02 -0.74645133417E+02 -0.10486557634E+03  0.13013062747E+03  0.00000000000E+00 0.  1.
         21    1    1    2  506  503 -0.25882376189E+02  0.29734682535E+02  0.79776346747E+02  0.88984910198E+02  0.00000000000E+00 0.  1.
<scales pt_clust_3="80.75088" pt_clust_4="48.82992" pt_clust_5="14000.00000" pt_clust_6="39.42142"></scales>
<clustering>
<clus scale="   39.421">  1  6  2 -1</clus>
<clus scale="   48.830">  1  4  2 -1</clus>
<clus scale="   80.751">  1  3  2 -1</clus>
<clus scale="   39.421">  1  3  2 -1</clus>
</clustering>
</event>
<event>
 6    0  0.8641190E+002  0.7971346E+02  0.7546771E-02  0.1329867E+00
         21   -1    0    0  503  501  0.00000000000E+00  0.00000000000E+00  0.45895188718E+03  0.45895188718E+03  0.00000000000E+00 0.  1.
         21   -1    0    0  504  502 -0.00000000000E+00 -0.00000000000E+00 -0.91959542075E+02  0.91959542075E+02  0.00000000000E+00 0.  1.
         21    1    1    2  503  506  0.34278515168E+02  0.96920540584E+01  0.92766912051E+02  0.99371286021E+02  0.00000000000E+00 0.  1.
         21    1    1    2  504  501  0.77346127363E+02  0.27226673078E+02 -0.50733498830E+02  0.96424079194E+02  0.00000000000E+00 0.  1.
         21    1    1    2  505  502 -0.46591809982E+02 -0.57345779055E+02  0.14640998049E+03  0.16399761438E+03  0.00000000000E+00 0.  1.
         21    1    1    2  506  505 -0.65032832549E+02  0.20427051919E+02  0.17854895139E+03  0.19111844967E+03  0.00000000000E+00 0.  1.
<scales pt_clust_3="35.62236" pt_clust_4="79.71346" pt_clust_5="14000.00000" pt_clust_6="53.91214"></scales>
<clustering>
<clus scale="   35.622">  1  3  2 -1</clus>
<clus scale="   53.912">  1  6  2 -1</clus>
<clus scale="   79.713">  2  4  1 -1</clus>
<clus scale="   35.622">  1  3  2 -1</clus>
</clustering>
</event>
<event>
 6    0  0.8641190E+002  0.1688338E+03  0.7546771E-02  0.1179069E+00
         21   -1    0    0  505  501  0.00000000000E+00  0.00000000000E+00  0.13307486781E+04  0.13307486781E+04  0.00000000000E+00 0. -1.
         21   -1    0    0  506  502 -0.00000000000E+00 -0.00000000000E+00 -0.13595216171E+03  0.13595216171E+03  0.00000000000E+00 0.  1.
         21    1    1    2  503  502  0.26234604240E+02  0.16093158004E+03  0.69619588943E+01  0.16320446313E+03  0.00000000000E+00 0.  1.
         21    1    1    2  504  501 -0.59091688780E+02  0.13239171704E+02  0.23748267557E+03  0.24508187314E+03  0.00000000000E+00 0. -1.
         21    1    1    2  505  503 -0.29968691247E+02  0.11153864862E+02  0.82587693090E+03  0.82649575689E+03  0.00000000000E+00 0. -1.
         21    1    1    2  506  504  0.62825775788E+02 -0.18532461660E+03  0.12447495106E+03  0.23191874668E+03  0.00000000000E+00 0.  1.
<scales pt_clust_3="14000.00000" pt_clust_4="75.73543" pt_clust_5="31.97704" pt_clust_6="168.83379"></scales>
<clustering>
<clus scale="   31.977">  1  5  2 -1</clus>
<clus scale="   75.735">  1  4  2 -1</clus>
<clus scale="  168.834">  1  6  2 -1</clus>
<clus scale="   31.977">  1  3  2 -1</clus>
</clustering>
</event>
<event>
 6    0  0.8641190E+002  0.3914244E+03  0.7546771E-02  0.1046790E+00
         21   -1    0    0  504  501  0.00000000000E+00  0.00000000000E+00  0.38828795173E+04  0.38828795173E+04  0.00000000000E+00 0.  1.
         21   -1    0    0  503  502 -0.00000000000E+00 -0.00000000000E+00 -0.11323710406E+04  0.11323710406E+04  0.00000000000E+00 0.  1.
         21    1    1    2  503  505  0.27954456986E+03 -0.27119539009E+03 -0.10791311394E+04  0.11472646260E+04  0.00000000000E+00 0.  1.
         21    1    1    2  504  506 -0.18362368103E+03  0.13726741154E+03  0.26174426408E+04  0.26274637917E+04  0.00000000000E+00 0.  1.
         21    1    1    2  505  501  0.54445012988E+01  0.54624129638E+02  0.60643626925E+02  0.81799068575E+02  0.00000000000E+00 0.  1.
         21    1    1    2  506  502 -0.10136539012E+03  0.79303848913E+02  0.11515533484E+04  0.11587230717E+04  0.00000000000E+00 0.  1.
<scales pt_clust_3="389.17188" pt_clust_4="31.41783" pt_clust_5="54.89479" pt_clust_6="31.41783"></scales>
<clustering>
<clus scale="   31.418">  4  6 -1 -1</clus>
<clus scale="   54.895">  1  5  2 -1</clus>
<clus scale="  389.172">  2  3  1 -1</clus>
<clus scale="   54.895">  1  3  2 -1</clus>
</clustering>
</event>
<event>
 6    0  0.8641190E+002  0.1355543E+03  0.7546771E-02  0.1219439E+00
         21   -1    0    0  504  501  0.00000000000E+00  0.00000000000E+00  0.14474636956E+04  0.14474636956E+04  0.00000000000E+00 0. -1.
         21   -1    0    0  505  502 -0.00000000000E+00 -0.00000000000E+00 -0.27795522704E+02  0.27795522704E+02  0.00000000000E+00 0. -1.
         21    1    1    2  503  506  0.17975717865E+02 -0.47516083339E+02  0.20443241437E+03  0.21065022348E+03  0.00000000000E+00 0. -1.
         21    1    1    2  504  503 -0.11010140664E+03  0.11252154042E+03  0.80732314034E+03  0.82252906923E+03  0.00000000000E+00 0. -1.
         21    1    1    2  505  501  0.11081743172E+03 -0.10886874601E+02  0.29848279827E+03  0.31857653409E+03  0.00000000000E+00 0. -1.
         21    1    1    2  506  502 -0.18691742949E+02 -0.54118582476E+02  0.10942981992E+03  0.12350339150E+03  0.00000000000E+00 0. -1.
<scales pt_clust_3="50.01301" pt_clust_4="124.72346" pt_clust_5="111.35092" pt_clust_6="50.01301"></scales>
<clustering>
<clus scale="   50.013">  3  6 -1 -1</clus>
<clus scale="  111.351">  2  5  1 -1</clus>
<clus scale="  124.723">  1  4  2 -1</clus>
<clus scale="  124.723">  1  3  2 -1</clus>
</clustering>
</event>
<event>
 6    0  0.8641190E+002  0.1283108E+03  0.7546771E-02  0.1229984E+00
         21   -1    0    0  504  501  0.00000000000E+00  0.00000000000E+00  0.10646803112E+03  0.10646803112E+03  0.00000000000E+00 0. -1.
         21   -1    0    0  505  502 -0.00000000000E+00 -0.00000000000E+00 -0.25689585246E+03  0.25689585246E+03  0.00000000000E+00 0. -1.
         21    1    1    2  503  506 -0.55921926659E+02  0.23966125922E+01 -0.14486538130E+02  0.57817518281E+02  0.00000000000E+00 0.  1.
         21    1    1    2  504  503 -0.67736279349E+02  0.59218611769E+02  0.75114571184E+01  0.90285488911E+02  0.00000000000E+00 0. -1.
         21    1    1    2  505  501  0.31637823824E+02 -0.31442670189E+02 -0.99242862317E+02  0.10880597008E+03  0.00000000000E+00 0. -1.
         21    1    1    2  506  502  0.92020382184E+02 -0.30172554171E+02 -0.44209878007E+02  0.10645490630E+03  0.00000000000E+00 0. -1.
<scales pt_clust_3="41.72190" pt_clust_4="41.72190" pt_clust_5="44.60486" pt_clust_6="116.89991"></scales>
<clustering>
<clus scale="   41.722">  3  4 -1 -1</clus>
<clus scale="   44.605">  2  5  1 -1</clus>
<clus scale="  116.900">  2  6  1 -1</clus>
<clus scale="  128.311">  1  3  2 -1</clus>
</clustering>
</event>
<event>
 6    0  0.8641190E+002  0.2466881E+03  0.7546771E-02  0.1115416E+00
         21   -1    0    0  506  501  0.00000000000E+00  0.00000000000E+00  0.18004223406E+03  0.18004223406E+03  0.00000000000E+00 0. -1.
         21   -1    0    0  504  502 -0.00000000000E+00 -0.00000000000E+00 -0.16489138053E+04  0.16489138053E+04  0.00000000000E+00 0.  1.
         21    1    1    2  503  505  0.70520339603E+01  0.53896435462E+02 -0.77905908925E+02  0.94994144998E+02  0.00000000000E+00 0. -1.
         21    1    1    2  504  501 -0.11680201190E+03  0.13921031077E+03 -0.13013040063E+04  0.13139308724E+04  0.00000000000E+00 0.  1.
         21    1    1    2  505  502  0.40720041564E+02  0.50156724477E+02 -0.14715248412E+03  0.16070990131E+03  0.00000000000E+00 0.  1.
         21    1    1    2  506  503  0.69029936372E+02 -0.24326347071E+03  0.57490828131E+02  0.25932112065E+03  0.00000000000E+00 0. -1.
<scales pt_clust_3="36.96486" pt_clust_4="14000.00000" pt_clust_5="121.38072" pt_clust_6="246.68814"></scales>
<clustering>
<clus scale="   36.965">  3  5 -1 -1</clus>
<clus scale="  121.381">  2  3  1 -1</clus>
<clus scale="  246.688">  1  6  2 -1</clus>
<clus scale="  246.688">  1  3  2 -1</clus>
</clustering>
</event>
<event>
 6    0  0.8641190E+002  0.1389817E+03  0.7546771E-02  0.1214706E+00
         21   -1    0    0  504  501  0.00000000000E+00  0.00000000000E+00  0.60177142335E+03  0.60177142335E+03  0.00000000000E+00 0. -1.
         21   -1    0    0  501  502 -0.00000000000E+00 -0.00000000000E+00 -0.10347628678E+03  0.10347628678E+03  0.00000000000E+00 0. -1.
         21    1    1    2  503  502  0.37054445336E+02  0.10730508869E+02  0.23676951975E+02  0.45263382492E+02  0.00000000000E+00 0.  1.
         21    1    1    2  504  506 -0.33363480648E+02  0.11832578949E+03  0.49865108858E+03  0.51358253713E+03  0.00000000000E+00 0. -1.
         21    1    1    2  505  503 -0.30011313939E+02 -0.85804572130E+02 -0.13232592220E+01  0.90911245606E+02  0.00000000000E+00 0. -1.
         21    1    1    2  506  505  0.26320349251E+02 -0.43251726233E+02 -0.22709644768E+02  0.55490544891E+02  0.00000000000E+00 0. -1.
<scales pt_clust_3="38.57688" pt_clust_4="123.00063" pt_clust_5="54.22542" pt_clust_6="54.22542"></scales>
<clustering>
<clus scale="   38.577">  2  3  1 -1</clus>
<clus scale="   54.225">  5  6 -1 -1</clus>
<clus scale="  123.001">  1  4  2 -1</clus>
<clus scale="  123.001">  1  3  2 -1</clus>
</clustering>
</event>
<event>
 6    0  0.8641190E+002  0.1346751E+03  0.7546771E-02  0.1220679E+00
         21   -1    0    0  502  501  0.00000000000E+00  0.00000000000E+00  0.31124969149E+03  0.31124969149E+03  0.00000000000E+00 0. -1.
         21   -1    0    0  505  502 -0.00000000000E+00 -0.00000000000E+00 -0.48630937801E+03  0.48630937801E+03  0.00000000000E+00 0. -1.
         21    1    1    2  503  506 -0.67464838438E+02  0.78204364455E+02  0.96963097548E+01  0.10373738703E+03  0.00000000000E+00 0. -1.
         21    1    1    2  504  503  0.50086982546E+02 -0.62207754811E+02 -0.29774106780E+03  0.30826653084E+03  0.00000000000E+00 0. -1.
         21    1    1    2  505  504  0.21110210639E+02 -0.52343503805E+02 -0.12901080829E+03  0.14081644804E+03  0.00000000000E+00 0. -1.
         21    1    1    2  506  501 -0.37323547471E+01  0.36346894161E+02  0.24199587982E+03  0.24473870359E+03  0.00000000000E+00 0. -1.
<scales pt_clust_3="129.49923" pt_clust_4="31.08495" pt_clust_5="31.08495" pt_clust_6="36.53802"></scales>
<clustering>
<clus scale="   31.085">  4  5 -1 -1</clus>
<clus scale="   36.538">  1  6  2 -1</clus>
<clus scale="  129.499">  1  3  2 -1</clus>
<clus scale="   36.538">  1  3  2 -1</clus>
</clustering>
</event>
<event>
 6    0  0.8641190E+002  0.1647336E+03  0.7546771E-02  0.1183454E+00
         21   -1    0    0  502  501  0.00000000000E+00  0.00000000000E+00  0.54792846102E+03  0.54792846102E+03  0.00000000000E+00 0. -1.
         21   -1    0    0  504  502 -0.00000000000E+00 -0.00000000000E+00 -0.57070805283E+03  0.57070805283E+03  0.00000000000E+00 0. -1.
         21    1    1    2  503  501 -0.33536566140E+02 -0.45179613192E+01  0.47867444392E+03  0.47986908267E+03  0.00000000000E+00 0. -1.
         21    1    1    2  504  506 -0.88025212580E+02 -0.17785800197E+02 -0.32366902052E+03  0.33589642389E+03  0.00000000000E+00 0. -1.
         21    1    1    2  505  503  0.17527379071E+03  0.78093470520E+00 -0.88180969410E+02  0.19620753027E+03  0.00000000000E+00 0.  1.
         21    1    1    2  506  505 -0.53712011987E+02  0.21522826811E+02 -0.89604045795E+02  0.10666347701E+03  0.00000000000E+00 0.  1.
<scales pt_clust_3="33.83952" pt_clust_4="57.36337" pt_clust_5="148.91589" pt_clust_6="57.36337"></scales>
<clustering>
<clus scale="   33.840">  1  3  2 -1</clus>
<clus scale="   57.363">  4  6 -1 -1</clus>
<clus scale="  148.916">  1  5  2 -1</clus>
<clus scale="   33.840">  1  3  2 -1</clus>
</clustering>
</event>
<event>
 6    0  0.8641190E+002  0.9101232E+02  0.7546771E-02  0.1300419E+00
         21   -1    0    0  505  501  0.00000000000E+00  0.00000000000E+00  0.11174514024E+04  0.11174514024E+04  0.00000000000E+00 0. -1.
         21   -1    0    0  506  502 -0.00000000000E+00 -0.00000000000E+00 -0.38772470900E+03  0.38772470900E+03  0.00000000000E+00 0.  1.
         21    1    1    2  503  501  0.50862019095E+02 -0.10085329989E+03  0.95660930124E+03  0.96325473697E+03  0.00000000000E+00 0. -1.
         21    1    1    2  504  502  0.91537454722E+02  0.40162711985E+02  0.24252819114E+02  0.10286081998E+03  0.00000000000E+00 0.  1.
         21    1    1    2  505  504 -0.54057676341E+02  0.33904045806E+02  0.75950265788E+02  0.99197578431E+02  0.00000000000E+00 0.  1.
         21    1    1    2  506  503 -0.88341797476E+02  0.26786542094E+02 -0.32708569279E+03  0.33986297598E+03  0.00000000000E+00 0.  1.
<scales pt_clust_3="69.25353" pt_clust_4="91.01232" pt_clust_5="63.81000" pt_clust_6="14000.00000"></scales>
<clustering>
<clus scale="   63.810">  1  5  2 -1</clus>
<clus scale="   69.254">  1  3  2 -1</clus>
<clus scale="   91.012">  1  4  2 -1</clus>
<clus scale="   63.810">  1  3  2 -1</clus>
</clustering>
</event>
<event>
 6    0  0.8641190E+002  0.1208182E+03  0.7546771E-02  0.1241753E+00
         21   -1    0    0  505  501  0.00000000000E+00  0.00000000000E+00  0.24373970723E+03  0.24373970723E+03  0.00000000000E+00 0. -1.
         21   -1    0    0  503  502 -0.00000000000E+00 -0.00000000000E+00 -0.40916260497E+03  0.40916260497E+03  0.00000000000E+00 0. -1.
         21    1    1    2  503  506 -0.59990424972E+02  0.41878573170E+02 -0.16153950870E+03  0.17733493409E+03  0.00000000000E+00 0. -1.
         21    1    1    2  504  501 -0.29770133178E+01 -0.32095280856E+02  0.20860284283E+03  0.21107845863E+03  0.00000000000E+00 0. -1.
         21    1    1    2  505  502  0.70294954527E+02 -0.66238159233E+02 -0.10373575823E+03  0.14173913329E+03  0.00000000000E+00 0.  1.
         21    1    1    2  506  504 -0.73275162367E+01  0.56454866919E+02 -0.10875047364E+03  0.12274978619E+03  0.00000000000E+00 0. -1.
<scales pt_clust_3="44.94709" pt_clust_4="32.23305" pt_clust_5="108.64642" pt_clust_6="44.94709"></scales>
<clustering>
<clus scale="   32.233">  1  4  2 -1</clus>
<clus scale="   44.947">  3  6 -1 -1</clus>
<clus scale="  108.646">  1  5  2 -1</clus>
<clus scale="   32.233">  1  3  2 -1</clus>
</clustering>
</event>
<event>
 6    0  0.8641190E+002  0.1292037E+03  0.7546771E-02  0.1228642E+00
         21   -1    0    0  503  501  0.00000000000E+00  0.00000000000E+00  0.21275358646E+03  0.21275358646E+03  0.00000000000E+00 0. -1.
         21   -1    0    0  501  502 -0.00000000000E+00 -0.00000000000E+00 -0.67400310209E+03  0.67400310209E+03  0.00000000000E+00 0. -1.
         21    1    1    2  503  504  0.18916449663E+02  0.12009350008E+03  0.15691184483E+03  0.19849838256E+03  0.00000000000E+00 0. -1.
         21    1    1    2  504  505  0.44754236304E+02 -0.17092106239E+02 -0.51680604344E+02  0.70469614929E+02  0.00000000000E+00 0. -1.
         21    1    1    2  505  506  0.30385426554E+02 -0.79155640622E+02 -0.64543657238E+02  0.10655877852E+03  0.00000000000E+00 0. -1.
         21    1    1    2  506  502 -0.94056112521E+02 -0.23845753218E+02 -0.50193709888E+03  0.51122991255E+03  0.00000000000E+00 0. -1.
<scales pt_clust_3="117.35511" pt_clust_4="40.62822" pt_clust_5="40.62822" pt_clust_6="97.03181"></scales>
<clustering>
<clus scale="   40.628">  4  5 -1 -1</clus>
<clus scale="   97.032">  2  6  1 -1</clus>
<clus scale="  117.355">  1  3  2 -1</clus>
<clus scale="  117.355">  1  3  2 -1</clus>
</clustering>
</event>
<event>
 6    0  0.8641190E+002  0.9560596E+02  0.7546771E-02  0.1289817E+00
         21   -1    0    0  505  501  0.00000000000E+00  0.00000000000E+00  0.83150799308E+03  0.83150799308E+03  0.00000000000E+00 0. -1.
         21   -1    0    0  506  502 -0.00000000000E+00 -0.00000000000E+00 -0.65443829388E+02  0.65443829388E+02  0.00000000000E+00 0. -1.
         21    1    1    2  503  504 -0.71774852445E+02 -0.15257089303E+02  0.46017180465E+03  0.46598551266E+03  0.00000000000E+00 0. -1.
         21    1    1    2  504  502  0.36990939789E+01 -0.32668477008E+02 -0.29511923528E+02  0.44179931152E+02  0.00000000000E+00 0. -1.
         21    1    1    2  505  503 -0.30449263826E+02  0.36033889068E+02  0.25424737989E+03  0.25858717874E+03  0.00000000000E+00 0. -1.
         21    1    1    2  506  501  0.98525022292E+02  0.11891677244E+02  0.81156902686E+02  0.12819919992E+03  0.00000000000E+00 0. -1.
<scales pt_clust_3="14000.00000" pt_clust_4="32.87724" pt_clust_5="45.12306" pt_clust_6="95.60596"></scales>
<clustering>
<clus scale="   32.877">  2  4  1 -1</clus>
<clus scale="   45.123">  1  5  2 -1</clus>
<clus scale="   95.606">  2  6  1 -1</clus>
<clus scale="   45.123">  1  3  2 -1</clus>
</clustering>
</event>
<event>
 6    0  0.8641190E+002  0.9117707E+02  0.7546771E-02  0.1300026E+00
         21   -1    0    0  505  501  0.00000000000E+00  0.00000000000E+00  0.75444071368E+02  0.75444071368E+02  0.00000000000E+00 0.  1.
         21   -1    0    0  504  502 -0.00000000000E+00 -0.00000000000E+00 -0.58202548710E+03  0.58202548710E+03  0.00000000000E+00 0.  1.
         21    1    1    2  503  501  0.31439419940E+02 -0.25230137524E+02 -0.81390378621E+01  0.41124699427E+02  0.00000000000E+00 0.  1.
         21    1    1    2  504  506 -0.36799086935E+02  0.59535495896E+02 -0.31595892146E+03  0.32361812081E+03  0.00000000000E+00 0.  1.
         21    1    1    2  505  502 -0.67306546052E+02 -0.70744982336E+02 -0.53069854014E+01  0.97791552607E+02  0.00000000000E+00 0.  1.
         21    1    1    2  506  503  0.72666213048E+02  0.36439623964E+02 -0.17717647101E+03  0.19493518562E+03  0.00000000000E+00 0.  1.
<scales pt_clust_3="40.31125" pt_clust_4="67.52802" pt_clust_5="14000.00000" pt_clust_6="91.17707"></scales>
<clustering>
<clus scale="   40.311">  1  3  2 -1</clus>
<clus scale="   67.528">  2  4  1 -1</clus>
<clus scale="   91.177">  2  6  1 -1</clus>
<clus scale="   40.311">  1  3  2 -1</clus>
</clustering>
</event>
<event>
 6    0  0.8641190E+002  0.1791774E+03  0.7546771E-02  0.1168602E+00
         21   -1    0    0  505  501  0.00000000000E+00  0.00000000000E+00  0.87820470452E+03  0.87820470452E+03  0.00000000000E+00 0.  1.
         21   -1    0    0  504  502 -0.00000000000E+00 -0.00000000000E+00 -0.25441600592E+03  0.25441600592E+03  0.00000000000E+00 0.  1.
         21    1    1    2  503  501  0.17440236519E+03 -0.30098472639E+02  0.80617679671E+03  0.82537453958E+03  0.00000000000E+00 0.  1.
         21    1    1    2  504  506 -0.24546912676E+02  0.36157244342E+02 -0.36458439726E+02  0.56913224014E+02  0.00000000000E+00 0.  1.
         21    1    1    2  505  502 -0.77927267775E+02 -0.43938922816E+02 -0.74698662009E+01  0.89772417268E+02  0.00000000000E+00 0. -1.
         21    1    1    2  506  503 -0.71928184742E+02  0.37880151113E+02 -0.13845979218E+03  0.16056052958E+03  0.00000000000E+00 0.  1.
<scales pt_clust_3="173.76727" pt_clust_4="32.03919" pt_clust_5="89.46110" pt_clust_6="32.03919"></scales>
<clustering>
<clus scale="   32.039">  4  6 -1 -1</clus>
<clus scale="   89.461">  2  5  1 -1</clus>
<clus scale="  173.767">  1  3  2 -1</clus>
<clus scale="  173.767">  1  3  2 -1</clus>
</clustering>
</event>
<event>
 6    0  0.8641190E+002  0.7080503E+02  0.7546771E-02  0.1357377E+00
         21   -1    0    0  504  501  0.00000000000E+00  0.00000000000E+00  0.11134022006E+04  0.11134022006E+04  0.00000000000E+00 0.  1.
         21   -1    0    0  506  502 -0.00000000000E+00 -0.00000000000E+00 -0.54959468309E+02  0.54959468309E+02  0.00000000000E+00 0.  1.
         21    1    1    2  503  501  0.28485399284E+02  0.63854281553E+02  0.81250147871E+03  0.81550440842E+03  0.00000000000E+00 0.  1.
         21    1    1    2  504  502 -0.20897730871E+02  0.33558751559E+02  0.28645567221E+02  0.48820830423E+02  0.00000000000E+00 0. -1.
         21    1    1    2  505  503 -0.81167424316E+02 -0.28159219080E+02  0.17410363283E+03  0.19414728263E+03  0.00000000000E+00 0.  1.
         21    1    1    2  506  505  0.73579755903E+02 -0.69253814032E+02  0.43192053539E+02  0.10988914744E+03  0.00000000000E+00 0.  1.
<scales pt_clust_3="70.66899" pt_clust_4="39.53359" pt_clust_5="14000.00000" pt_clust_6="70.80503"></scales>
<clustering>
<clus scale="   39.534">  2  4  1 -1</clus>
<clus scale="   70.669">  1  3  2 -1</clus>
<clus scale="   70.805">  2  6  1 -1</clus>
<clus scale="   70.669">  1  3  2 -1</clus>
</clustering>
</event>
<event>
 6    0  0.8641190E+002  0.1080716E+03  0.7546771E-02  0.1264183E+00
         21   -1    0    0  504  501  0.00000000000E+00  0.00000000000E+00  0.17693838908E+03  0.17693838908E+03  0.00000000000E+00 0.  1.
         21   -1    0    0  503  502 -0.00000000000E+00 -0.00000000000E+00 -0.80621121772E+03  0.80621121772E+03  0.00000000000E+00 0. -1.
         21    1    1    2  503  505 -0.34491523677E+02 -0.19994093883E+02 -0.74026054824E+02  0.84079044884E+02  0.00000000000E+00 0. -1.
         21    1    1    2  504  506  0.62028492248E-01 -0.10624273935E+03  0.13278188898E+03  0.17005456052E+03  0.00000000000E+00 0.  1.
         21    1    1    2  505  501  0.85917788830E+00 -0.45424795110E+02 -0.50506679859E+02  0.67934342625E+02  0.00000000000E+00 0. -1.
         21    1    1    2  506  502  0.33570317296E+02  0.17166162835E+03 -0.63752198293E+03  0.66108165877E+03  0.00000000000E+00 0. -1.
<scales pt_clust_3="39.86764" pt_clust_4="108.07156" pt_clust_5="47.09352" pt_clust_6="14000.00000"></scales>
<clustering>
<clus scale="   39.868">  2  3  1 -1</clus>
<clus scale="   47.094">  2  5  1 -1</clus>
<clus scale="  108.072">  1  4  2 -1</clus>
<clus scale="  108.072">  1  3  2 -1</clus>
</clustering>
</event>
<event>
 6    0  0.8641190E+002  0.2139820E+03  0.7546771E-02  0.1138451E+00
         21   -1    0    0  506  501  0.00000000000E+00  0.00000000000E+00  0.14371595154E+04  0.14371595154E+04  0.00000000000E+00 0.  1.
         21   -1    0    0  501  502 -0.00000000000E+00 -0.00000000000E+00 -0.21469935601E+03  0.21469935601E+03  0.00000000000E+00 0. -1.
         21    1    1    2  503  504 -0.70651273334E+02  0.77163333770E+01  0.12711204916E+03  0.14563178659E+03  0.00000000000E+00 0.  1.
         21    1    1    2  504  505 -0.96458106292E+02 -0.62313761966E+02  0.41044032007E+03  0.42620233169E+03  0.00000000000E+00 0.  1.
         21    1    1    2  505  502  0.19830589569E+03 -0.26244885591E+02 -0.14407904068E+03  0.24652138295E+03  0.00000000000E+00 0. -1.
         21    1    1    2  506  503 -0.31196516067E+02  0.80842314180E+02  0.82898683090E+03  0.83350337023E+03  0.00000000000E+00 0.  1.
<scales pt_clust_3="66.40651" pt_clust_4="66.40651" pt_clust_5="196.62914" pt_clust_6="86.65277"></scales>
<clustering>
<clus scale="   66.407">  3  4 -1 -1</clus>
<clus scale="   86.653">  1  6  2 -1</clus>
<clus scale="  196.629">  2  5  1 -1</clus>
<clus scale="   86.653">  1  3  2 -1</clus>
</clustering>
</event>
<event>
 6    0  0.8641190E+002  0.1191059E+03  0.7546771E-02  0.1244579E+00
         21   -1    0    0  505  501  0.00000000000E+00  0.00000000000E+00  0.11124912432E+03  0.11124912432E+03  0.00000000000E+00 0. -1.
         21   -1    0    0  503  502 -0.00000000000E+00 -0.00000000000E+00 -0.40729083427E+03  0.40729083427E+03  0.00000000000E+00 0.  1.
         21    1    1    2  503  504 -0.83682054064E-01  0.54265189509E+02 -0.26142875751E+02  0.60234273862E+02  0.00000000000E+00 0.  1.
         21    1    1    2  504  501 -0.97431583610E-01  0.76106331889E+02  0.25944241316E+02  0.80407007804E+02  0.00000000000E+00 0. -1.
         21    1    1    2  505  506  0.36822402611E+02 -0.32210904891E+02  0.13945158850E+02  0.50871398480E+02  0.00000000000E+00 0. -1.
         21    1    1    2  506  502 -0.36641288973E+02 -0.98160616506E+02 -0.30978823437E+03  0.32702727844E+03  0.00000000000E+00 0.  1.
<scales pt_clust_3="44.54713" pt_clust_4="44.54713" pt_clust_5="48.92271" pt_clust_6="106.78502"></scales>
<clustering>
<clus scale="   44.547">  3  4 -1 -1</clus>
<clus scale="   48.923">  1  5  2 -1</clus>
<clus scale="  106.785">  2  6  1 -1</clus>
<clus scale="   48.923">  1  3  2 -1</clus>
</clustering>
</event>
<event>
 6    0  0.8641190E+002  0.1088022E+03  0.7546771E-02  0.1262804E+00
         21   -1    0    0  505  501  0.00000000000E+00  0.00000000000E+00  0.40808655503E+03  0.40808655503E+03  0.00000000000E+00 0. -1.
         21   -1    0    0  506  502 -0.00000000000E+00 -0.00000000000E+00 -0.66347239298E+03  0.66347239298E+03  0.00000000000E+00 0. -1.
         21    1    1    2  503  501  0.93362072190E+02 -0.56390175775E+02  0.38617477653E+03  0.40128205351E+03  0.00000000000E+00 0. -1.
         21    1    1    2  504  502 -0.25297582932E+02  0.16303007445E+02 -0.57137525475E+02  0.64579041270E+02  0.00000000000E+00 0. -1.
         21    1    1    2  505  504 -0.60639036709E+02  0.71831270226E+02 -0.55117271117E+03  0.55913163181E+03  0.00000000000E+00 0. -1.
         21    1    1    2  506  503 -0.74254525490E+01 -0.31744101896E+02 -0.33250377829E+02  0.46566221411E+02  0.00000000000E+00 0. -1.
<scales pt_clust_3="108.80220" pt_clust_4="30.09578" pt_clust_5="14000.00000" pt_clust_6="31.98643"></scales>
<clustering>
<clus scale="   30.096">  2  4  1 -1</clus>
<clus scale="   31.986">  2  6  1 -1</clus>
<clus scale="  108.802">  1  3  2 -1</clus>
<clus scale="  108.802">  1  3  2 -1</clus>
</clustering>
</event>
<event>
 6    0  0.8641190E+002  0.8995500E+02  0.7546771E-02  0.1302961E+00
         21   -1    0    0  506  501  0.00000000000E+00  0.00000000000E+00  0.73543063161E+02  0.73543063161E+02  0.00000000000E+00 0. -1.
         21   -1    0    0  504  502 -0.00000000000E+00 -0.00000000000E+00 -0.44371094189E+03  0.44371094189E+03  0.00000000000E+00 0. -1.
         21    1    1    2  503  502  0.37082199658E+02  0.96192255046E+02 -0.83726139881E+02  0.13280853121E+03  0.00000000000E+00 0. -1.
         21    1    1    2  504  505 -0.54621291049E+02 -0.49415463860E+02 -0.18971468953E+03  0.20351176115E+03  0.00000000000E+00 0. -1.
         21    1    1    2  505  501 -0.64862104816E+01 -0.81480045248E+02 -0.10967580168E+03  0.13678395437E+03  0.00000000000E+00 0.  1.
         21    1    1    2  506  503  0.24025301872E+02  0.34703254062E+02  0.12948752353E+02  0.44149758324E+02  0.00000000000E+00 0. -1.
<scales pt_clust_3="14000.00000" pt_clust_4="67.37203" pt_clust_5="89.95500" pt_clust_6="42.20819"></scales>
<clustering>
<clus scale="   42.208">  1  6  2 -1</clus>
<clus scale="   67.372">  2  4  1 -1</clus>
<clus scale="   89.955">  1  5  2 -1</clus>
<clus scale="   42.208">  1  3  2 -1</clus>
</clustering>
</event>
<event>
 6    0  0.8641190E+002  0.1290744E+03  0.7546771E-02  0.1228836E+00
         21   -1    0    0  506  501  0.00000000000E+00  0.00000000000E+00  0.58513558690E+03  0.58513558690E+03  0.00000000000E+00 0. -1.
         21   -1    0    0  503  502 -0.00000000000E+00 -0.00000000000E+00 -0.75378192587E+03  0.75378192587E+03  0.00000000000E+00 0. -1.
         21    1    1    2  503  504  0.12156551813E+03 -0.70844306360E+01 -0.58038877726E+03  0.59302571371E+03  0.00000000000E+00 0. -1.
         21    1    1    2  504  505 -0.58475364412E+02  0.87534817698E+01 -0.69184793560E+02  0.91008391625E+02  0.00000000000E+00 0. -1.
         21    1    1    2  505  501 -0.36441289739E+02  0.57525338462E+02 -0.71451135906E+02  0.98703581421E+02  0.00000000000E+00 0. -1.
         21    1    1    2  506  502 -0.26648863976E+02 -0.59194389596E+02  0.55237836775E+03  0.55617982602E+03  0.00000000000E+00 0. -1.
<scales pt_clust_3="117.68634" pt_clust_4="49.39605" pt_clust_5="49.39605" pt_clust_6="64.91639"></scales>
<clustering>
<clus scale="   49.396">  4  5 -1 -1</clus>
<clus scale="   64.916">  1  6  2 -1</clus>
<clus scale="  117.686">  2  3  1 -1</clus>
<clus scale="   64.916">  1  3  2 -1</clus>
</clustering>
</event>
<event>
 6    0  0.8641190E+002  0.7508236E+02  0.7546771E-02  0.1343616E+00
         21   -1    0    0  504  501  0.00000000000E+00  0.00000000000E+00  0.39432114962E+03  0.39432114962E+03  0.00000000000E+00 0. -1.
         21   -1    0    0  503  502 -0.00000000000E+00 -0.00000000000E+00 -0.90958974832E+03  0.90958974832E+03  0.00000000000E+00 0.  1.
         21    1    1    2  503  506 -0.68515850627E+02  0.79905531739E+02  0.14978617525E+03  0.18307160917E+03  0.00000000000E+00 0. -1.
         21    1    1    2  504  505 -0.10422106210E+02 -0.65034058266E+02  0.81929268958E+02  0.10512114033E+03  0.00000000000E+00 0. -1.
         21    1    1    2  505  502  0.49003378313E+02 -0.22707504552E+02 -0.87872946890E+03  0.88038766538E+03  0.00000000000E+00 0.  1.
         21    1    1    2  506  501  0.29934578524E+02  0.78360310784E+01  0.13174542599E+03  0.13533048305E+03  0.00000000000E+00 0.  1.
<scales pt_clust_3="14000.00000" pt_clust_4="75.08236" pt_clust_5="54.08482" pt_clust_6="30.94321"></scales>
<clustering>
<clus scale="   30.943">  1  6  2 -1</clus>
<clus scale="   54.085">  2  5  1 -1</clus>
<clus scale="   75.082">  1  4  2 -1</clus>
<clus scale="   30.943">  1  3  2 -1</clus>
</clustering>
</event>
<event>
 6    0  0.8641190E+002  0.9383389E+02  0.7546771E-02  0.1293824E+00
         21   -1    0    0  503  501  0.00000000000E+00  0.00000000000E+00  0.41753093879E+02  0.41753093879E+02  0.00000000000E+00 0.  1.
         21   -1    0    0  506  502 -0.00000000000E+00 -0.00000000000E+00 -0.68743075704E+03  0.68743075704E+03  0.00000000000E+00 0.  1.
         21    1    1    2  503  504  0.83689688869E+01 -0.29151037457E+02 -0.47634309687E+02  0.56469904236E+02  0.00000000000E+00 0. -1.
         21    1    1    2  504  502  0.11870167150E+03  0.33246018321E+02 -0.18933467956E+03  0.22592699139E+03  0.00000000000E+00 0.  1.
         21    1    1    2  505  501 -0.75928131379E+02 -0.17129674876E+02 -0.72206296404E+02  0.10617088177E+03  0.00000000000E+00 0.  1.
         21    1    1    2  506  505 -0.51142509009E+02  0.13034694012E+02 -0.33650237751E+03  0.34061607352E+03  0.00000000000E+00 0.  1.
<scales pt_clust_3="30.32858" pt_clust_4="93.83389" pt_clust_5="14000.00000" pt_clust_6="51.95407"></scales>
<clustering>
<clus scale="   30.329">  1  3  2 -1</clus>
<clus scale="   51.954">  2  6  1 -1</clus>
<clus scale="   93.834">  2  4  1 -1</clus>
<clus scale="   30.329">  1  3  2 -1</clus>
</clustering>
</event>
<event>
 6    0  0.8641190E+002  0.8963973E+02  0.7546771E-02  0.1303726E+00
         21   -1    0    0  506  501  0.00000000000E+00  0.00000000000E+00  0.24963431041E+03  0.24963431041E+03  0.00000000000E+00 0.  1.
         21   -1    0    0  504  502 -0.00000000000E+00 -0.00000000000E+00 -0.15480709392E+03  0.15480709392E+03  0.00000000000E+00 0.  1.
         21    1    1    2  503  502 -0.30772258499E+02  0.30658019823E+01 -0.29700732625E+02  0.42877319802E+02  0.00000000000E+00 0.  1.
         21    1    1    2  504  501  0.68040555643E+02 -0.50178905552E+02 -0.39661171817E+02  0.93383340723E+02  0.00000000000E+00 0.  1.
         21    1    1    2  505  503 -0.33099328011E+02 -0.48212647656E+02 -0.19118109736E+02  0.61526636741E+02  0.00000000000E+00 0.  1.
         21    1    1    2  506  505 -0.41689691334E+01  0.95325751226E+02  0.18330723066E+03  0.20665410706E+03  0.00000000000E+00 0.  1.
<scales pt_clust_3="30.92460" pt_clust_4="14000.00000" pt_clust_5="64.21217" pt_clust_6="89.63973"></scales>
<clustering>
<clus scale="   30.925">  2  3  1 -1</clus>
<clus scale="   64.212">  2  5  1 -1</clus>
<clus scale="   89.640">  1  6  2 -1</clus>
<clus scale="   89.640">  1  3  2 -1</clus>
</clustering>
</event>
<event>
 6    0  0.8641190E+002  0.1229615E+03  0.7546771E-02  0.1238290E+00
         21   -1    0    0  502  501  0.00000000000E+00  0.00000000000E+00  0.97224459680E+01  0.97224459680E+01  0.00000000000E+00 0. -1.
         21   -1    0    0  503  502 -0.00000000000E+00 -0.00000000000E+00 -0.22278408209E+04  0.22278408209E+04  0.00000000000E+00 0. -1.
         21    1    1    2  503  505 -0.26567946476E+02 -0.16021840364E+02 -0.61478973147E+03  0.61557206651E+03  0.00000000000E+00 0. -1.
         21    1    1    2  504  506 -0.54250428889E+01  0.50935544807E+02 -0.21245029878E+03  0.21853830389E+03  0.00000000000E+00 0. -1.
         21    1    1    2  505  504  0.61929279344E+02 -0.98768013638E+02 -0.90745832897E+03  0.91491582945E+03  0.00000000000E+00 0. -1.
         21    1    1    2  506  501 -0.29936289979E+02  0.63854309194E+02 -0.48342001572E+03  0.48853706703E+03  0.00000000000E+00 0. -1.
<scales pt_clust_3="31.02507" pt_clust_4="30.64499" pt_clust_5="117.58650" pt_clust_6="30.64499"></scales>
<clustering>
<clus scale="   30.645">  4  6 -1 -1</clus>
<clus scale="   31.025">  2  3  1 -1</clus>
<clus scale="  117.586">  2  5  1 -1</clus>
<clus scale="  122.962">  1  3  2 -1</clus>
</clustering>
</event>
<event>
 6    0  0.8641190E+002  0.1341313E+03  0.7546771E-02  0.1221451E+00
         21   -1    0    0  506  501  0.00000000000E+00  0.00000000000E+00  0.83149534515E+02  0.83149534515E+02  0.00000000000E+00 0.  1.
         21   -1    0    0  505  502 -0.00000000000E+00 -0.00000000000E+00 -0.13938847319E+04  0.13938847319E+04  0.00000000000E+00 0.  1.
         21    1    1    2  503  502 -0.39710809849E+02  0.21149158412E+02 -0.11682165839E+04  0.11690826413E+04  0.00000000000E+00 0.  1.
         21    1    1    2  504  501  0.53256766676E+01 -0.61947123937E+02 -0.20688582849E+02  0.65527295506E+02  0.00000000000E+00 0.  1.
         21    1    1    2  505  504 -0.82647484705E+01 -0.70563942408E+02 -0.97629286744E+02  0.12074375208E+03  0.00000000000E+00 0.  1.
         21    1    1    2  506  503  0.42649881652E+02  0.11136190793E+03 -0.24200743909E+02  0.12168057753E+03  0.00000000000E+00 0.  1.
<scales pt_clust_3="44.99150" pt_clust_4="52.30521" pt_clust_5="52.30521" pt_clust_6="121.90673"></scales>
<clustering>
<clus scale="   44.992">  2  3  1 -1</clus>
<clus scale="   52.305">  4  5 -1 -1</clus>
<clus scale="  121.907">  1  6  2 -1</clus>
<clus scale="  121.907">  1  3  2 -1</clus>
</clustering>
</event>
<event>
 6    0  0.8641190E+002  0.7223830E+02  0.7546771E-02  0.1352643E+00
         21   -1    0    0  503  501  0.00000000000E+00  0.00000000000E+00  0.13083074913E+03  0.13083074913E+03  0.00000000000E+00 0. -1.
         21   -1    0    0  501  502 -0.00000000000E+00 -0.00000000000E+00 -0.85694958950E+03  0.85694958950E+03  0.00000000000E+00 0. -1.
         21    1    1    2  503  506  0.30674602317E+02  0.42338190456E+02 -0.34359677606E+01  0.52395223759E+02  0.00000000000E+00 0. -1.
         21    1    1    2  504  505 -0.12363434018E+03 -0.62133547823E+01 -0.75647193478E+02  0.14507430417E+03  0.00000000000E+00 0. -1.
         21    1    1    2  505  502  0.62148548137E+02  0.32544525919E+02 -0.69664410862E+03  0.70016755300E+03  0.00000000000E+00 0. -1.
         21    1    1    2  506  504  0.30811189727E+02 -0.68669361592E+02  0.49608429476E+02  0.90143257701E+02  0.00000000000E+00 0. -1.
<scales pt_clust_3="52.28244" pt_clust_4="72.23830" pt_clust_5="14000.00000" pt_clust_6="65.31724"></scales>
<clustering>
<clus scale="   52.282">  1  3  2 -1</clus>
<clus scale="   65.317">  1  6  2 -1</clus>
<clus scale="   72.238">  1  4  2 -1</clus>
<clus scale="   52.282">  1  3  2 -1</clus>
</clustering>
</event>
<event>
 6    0  0.8641190E+002  0.1307032E+03  0.7546771E-02  0.1226416E+00
         21   -1    0    0  503  501  0.00000000000E+00  0.00000000000E+00  0.61129412081E+03  0.61129412081E+03  0.00000000000E+00 0.  1.
         21   -1    0    0  506  502 -0.00000000000E+00 -0.00000000000E+00 -0.38025956303E+03  0.38025956303E+03  0.00000000000E+00 0. -1.
         21    1    1    2  503  504  0.30155102360E+02 -0.82469562778E+00  0.83417515536E+02  0.88704521978E+02  0.00000000000E+00 0. -1.
         21    1    1    2  504  502  0.22345257973E+02 -0.39928462517E+02 -0.32365279104E+03  0.32687110889E+03  0.00000000000E+00 0. -1.
         21    1    1    2  505  501 -0.16102394221E+03  0.48238369243E+01  0.42161366070E+03  0.45134250659E+03  0.00000000000E+00 0.  1.
         21    1    1    2  506  505  0.10852358188E+03  0.35929321220E+02  0.49656172586E+02  0.12463554639E+03  0.00000000000E+00 0. -1.
<scales pt_clust_3="30.16638" pt_clust_4="45.80319" pt_clust_5="14000.00000" pt_clust_6="130.70324"></scales>
<clustering>
<clus scale="   30.166">  1  3  2 -1</clus>
<clus scale="   45.803">  2  4  1 -1</clus>
<clus scale="  130.703">  2  6  1 -1</clus>
<clus scale="   30.166">  1  3  2 -1</clus>
</clustering>
</event>
<event>
 6    0  0.8641190E+002  0.1394004E+03  0.7546771E-02  0.1214138E+00
         21   -1    0    0  506  501  0.00000000000E+00  0.00000000000E+00  0.44651850944E+03  0.44651850944E+03  0.00000000000E+00 0.  1.
         21   -1    0    0  503  502 -0.00000000000E+00 -0.00000000000E+00 -0.14378795750E+03  0.14378795750E+03  0.00000000000E+00 0.  1.
         21    1    1    2  503  504  0.29353108105E+02  0.13285856100E+03 -0.51244685126E+02  0.14539264060E+03  0.00000000000E+00 0.  1.
         21    1    1    2  504  505  0.34201060145E+02 -0.67045077822E+02  0.19990395267E+03  0.21360324265E+03  0.00000000000E+00 0.  1.
         21    1    1    2  505  501  0.42394453137E+02 -0.44017279791E+02  0.77915642918E+02  0.99023522399E+02  0.00000000000E+00 0. -1.
         21    1    1    2  506  502 -0.10594862139E+03 -0.21796203391E+02  0.76155641473E+02  0.13228706129E+03  0.00000000000E+00 0.  1.
<scales pt_clust_3="130.69975" pt_clust_4="43.68276" pt_clust_5="43.68276" pt_clust_6="108.16739"></scales>
<clustering>
<clus scale="   43.683">  4  5 -1 -1</clus>
<clus scale="  108.167">  1  6  2 -1</clus>
<clus scale="  130.700">  2  3  1 -1</clus>
<clus scale="  108.167">  1  3  2 -1</clus>
</clustering>
</event>
<event>
 6    0  0.8641190E+002  0.8047136E+02  0.7546771E-02  0.1327719E+00
         21   -1    0    0  503  501  0.00000000000E+00  0.00000000000E+00  0.26981546133E+03  0.26981546133E+03  0.00000000000E+00 0.  1.
         21   -1    0    0  505  502 -0.00000000000E+00 -0.00000000000E+00 -0.14116659403E+03  0.14116659403E+03  0.00000000000E+00 0. -1.
         21    1    1    2  503  506 -0.77482479307E+02 -0.50640017030E+02  0.10633386318E+03  0.14097814151E+03  0.00000000000E+00 0.  1.
         21    1    1    2  504  502 -0.38216954568E+02  0.56126105149E+01 -0.31916002951E+02  0.50106569007E+02  0.00000000000E+00 0. -1.
         21    1    1    2  505  501  0.82225511464E+02 -0.30844288312E+02  0.93384226099E+02  0.12819133567E+03  0.00000000000E+00 0.  1.
         21    1    1    2  506  504  0.33473922412E+02  0.75871694827E+02 -0.39153219034E+02  0.91706009172E+02  0.00000000000E+00 0. -1.
<scales pt_clust_3="14000.00000" pt_clust_4="38.62689" pt_clust_5="80.47136" pt_clust_6="79.99200"></scales>
<clustering>
<clus scale="   38.627">  2  4  1 -1</clus>
<clus scale="   79.992">  2  6  1 -1</clus>
<clus scale="   80.471">  2  5  1 -1</clus>
<clus scale="   80.471">  1  3  2 -1</clus>
</clustering>
</event>
<event>
 6    0  0.8641190E+002  0.8153146E+02  0.7546771E-02  0.1324761E+00
         21   -1    0    0  505  501  0.00000000000E+00  0.00000000000E+00  0.15932109710E+03  0.15932109710E+03  0.00000000000E+00 0.  1.
         21   -1    0    0  506  502 -0.00000000000E+00 -0.00000000000E+00 -0.16083315870E+04  0.16083315870E+04  0.00000000000E+00 0. -1.
         21    1    1    2  503  504 -0.26463388218E+02  0.54118514623E+02 -0.35072750569E+03  0.35586360840E+03  0.00000000000E+00 0.  1.
         21    1    1    2  504  502  0.19460902044E+02  0.76911449975E+02 -0.11469814932E+04  0.11497219854E+04  0.00000000000E+00 0. -1.
         21    1    1    2  505  503  0.19610660317E+02 -0.79891592849E+02  0.13667930247E+03  0.15952578578E+03  0.00000000000E+00 0.  1.
         21    1    1    2  506  501 -0.12608174143E+02 -0.51138371749E+02 -0.87980793456E+02  0.10254130454E+03  0.00000000000E+00 0. -1.
<scales pt_clust_3="81.53146" pt_clust_4="39.36293" pt_clust_5="14000.00000" pt_clust_6="52.66972"></scales>
<clustering>
<clus scale="   52.670">  2  6  1 -1</clus>
<clus scale="   39.363">  2  4  1 -1</clus>
<clus scale="   81.531">  2  3  1 -1</clus>
<clus scale="   81.531">  1  3  2 -1</clus>
</clustering>
</event>
<event>
 6    0  0.8641190E+002  0.1066119E+03  0.7546771E-02  0.1266976E+00
         21   -1    0    0  506  501  0.00000000000E+00  0.00000000000E+00  0.12375049782E+04  0.12375049782E+04  0.00000000000E+00 0.  1.
         21   -1    0    0  503  502 -0.00000000000E+00 -0.00000000000E+00 -0.22805889700E+02  0.22805889700E+02  0.00000000000E+00 0.  1.
         21    1    1    2  503  505 -0.23744088367E+02  0.21384020667E+02  0.33260131552E+02  0.46122602086E+02  0.00000000000E+00 0.  1.
         21    1    1    2  504  502 -0.47086256981E+02 -0.11386315514E+03  0.45372525767E+03  0.47015799807E+03  0.00000000000E+00 0.  1.
         21    1    1    2  505  501  0.10696411055E+02  0.93155662615E+02  0.39991003065E+03  0.41075591694E+03  0.00000000000E+00 0.  1.
         21    1    1    2  506  504  0.60133934293E+02 -0.67652814366E+00  0.32780366866E+03  0.33327435084E+03  0.00000000000E+00 0.  1.
<scales pt_clust_3="31.95400" pt_clust_4="106.61192" pt_clust_5="14000.00000" pt_clust_6="56.24214"></scales>
<clustering>
<clus scale="   31.954">  2  3  1 -1</clus>
<clus scale="   56.242">  1  6  2 -1</clus>
<clus scale="  106.612">  2  4  1 -1</clus>
<clus scale="   56.242">  1  3  2 -1</clus>
</clustering>
</event>
<event>
 6    0  0.8641190E+002  0.8738760E+02  0.7546771E-02  0.1309304E+00
         21   -1    0    0  505  501  0.00000000000E+00  0.00000000000E+00  0.21236269075E+03  0.21236269075E+03  0.00000000000E+00 0.  1.
         21   -1    0    0  504  502 -0.00000000000E+00 -0.00000000000E+00 -0.16214448267E+03  0.16214448267E+03  0.00000000000E+00 0.  1.
         21    1    1    2  503  501  0.41662594472E+02  0.16997618154E+02  0.10263953143E+02  0.46152351351E+02  0.00000000000E+00 0.  1.
         21    1    1    2  504  503  0.68667091971E+02 -0.11314582033E+02 -0.57781692552E+02  0.90453929050E+02  0.00000000000E+00 0.  1.
         21    1    1    2  505  506 -0.10038783643E+03  0.56903633182E+02  0.12392478866E+03  0.16933131553E+03  0.00000000000E+00 0.  1.
         21    1    1    2  506  502 -0.99418500111E+01 -0.62586669303E+02 -0.26188841176E+02  0.68569577498E+02  0.00000000000E+00 0.  1.
<scales pt_clust_3="44.99656" pt_clust_4="87.38760" pt_clust_5="14000.00000" pt_clust_6="60.84892"></scales>
<clustering>
<clus scale="   44.997">  1  3  2 -1</clus>
<clus scale="   60.849">  2  6  1 -1</clus>
<clus scale="   87.388">  2  4  1 -1</clus>
<clus scale="   44.997">  1  3  2 -1</clus>
</clustering>
</event>
<event>
 6    0  0.8641190E+002  0.2372364E+03  0.7546771E-02  0.1121648E+00
         21   -1    0    0  504  501  0.00000000000E+00  0.00000000000E+00  0.12869425385E+03  0.12869425385E+03  0.00000000000E+00 0.  1.
         21   -1    0    0  503  502 -0.00000000000E+00 -0.00000000000E+00 -0.95659923051E+03  0.95659923051E+03  0.00000000000E+00 0.  1.
         21    1    1    2  503  505 -0.15991418461E+03 -0.19377055606E+03 -0.42272086102E+03  0.49174434535E+03  0.00000000000E+00 0.  1.
         21    1    1    2  504  506  0.91343890662E+02  0.23064204717E+03 -0.20511135206E+03  0.32188526997E+03  0.00000000000E+00 0.  1.
         21    1    1    2  505  501  0.73449152670E+01 -0.39273391985E+02  0.18958237599E+02  0.44223996553E+02  0.00000000000E+00 0. -1.
         21    1    1    2  506  502  0.61225378684E+02  0.24019008784E+01 -0.21903100117E+03  0.22743987249E+03  0.00000000000E+00 0.  1.
<scales pt_clust_3="237.23638" pt_clust_4="14000.00000" pt_clust_5="39.95431" pt_clust_6="61.54740"></scales>
<clustering>
<clus scale="   39.954">  1  5  2 -1</clus>
<clus scale="   61.547">  2  6  1 -1</clus>
<clus scale="  237.236">  2  3  1 -1</clus>
<clus scale="   39.954">  1  3  2 -1</clus>
</clustering>
</event>
<event>
 6    0  0.8641190E+002  0.1021632E+03  0.7546771E-02  0.1275812E+00
         21   -1    0    0  503  501  0.00000000000E+00  0.00000000000E+00  0.58555069260E+03  0.58555069260E+03  0.00000000000E+00 0.  1.
         21   -1    0    0  505  502 -0.00000000000E+00 -0.00000000000E+00 -0.15487874383E+03  0.15487874383E+03  0.00000000000E+00 0.  1.
         21    1    1    2  503  506  0.14368986131E+02 -0.43400571508E+02  0.37346250610E+03  0.37625034330E+03  0.00000000000E+00 0.  1.
         21    1    1    2  504  502  0.59182280198E+02  0.87163234601E+02 -0.10506296249E+03  0.14878910526E+03  0.00000000000E+00 0.  1.
         21    1    1    2  505  501  0.29588552338E+02 -0.18166755463E+02  0.49205240195E+02  0.60221832388E+02  0.00000000000E+00 0. -1.
         21    1    1    2  506  504 -0.10313981867E+03 -0.25595907629E+02  0.11306716496E+03  0.15516815548E+03  0.00000000000E+00 0.  1.
<scales pt_clust_3="66.37186" pt_clust_4="14000.00000" pt_clust_5="34.72050" pt_clust_6="102.16319"></scales>
<clustering>
<clus scale="   34.721">  1  5  2 -1</clus>
<clus scale="   66.372">  1  3  2 -1</clus>
<clus scale="  102.163">  1  6  2 -1</clus>
<clus scale="   34.721">  1  3  2 -1</clus>
</clustering>
</event>
<event>
 6    0  0.8641190E+002  0.1197197E+03  0.7546771E-02  0.1243560E+00
         21   -1    0    0  506  501  0.00000000000E+00  0.00000000000E+00  0.95593094236E+03  0.95593094236E+03  0.00000000000E+00 0.  1.
         21   -1    0    0  503  502 -0.00000000000E+00 -0.00000000000E+00 -0.29880290597E+04  0.29880290597E+04  0.00000000000E+00 0.  1.
         21    1    1    2  503  505  0.78218969028E+02  0.15228426897E+02 -0.16652629718E+04  0.16671685210E+04  0.00000000000E+00 0.  1.
         21    1    1    2  504  502 -0.13308280670E+03  0.80391470646E+02 -0.44883403524E+03  0.47500085598E+03  0.00000000000E+00 0. -1.
         21    1    1    2  505  501  0.50386291334E+02 -0.59451378990E+02 -0.85777625105E+03  0.86130908604E+03  0.00000000000E+00 0. -1.
         21    1    1    2  506  504  0.44775463423E+01 -0.36168518553E+02  0.93977514075E+03  0.94048153907E+03  0.00000000000E+00 0.  1.
<scales pt_clust_3="79.56605" pt_clust_4="119.71971" pt_clust_5="14000.00000" pt_clust_6="36.44462"></scales>
<clustering>
<clus scale="   36.445">  1  6  2 -1</clus>
<clus scale="   79.566">  2  3  1 -1</clus>
<clus scale="  119.720">  1  4  2 -1</clus>
<clus scale="   36.445">  1  3  2 -1</clus>
</clustering>
</event>
<event>
 6    0  0.8641190E+002  0.2154363E+03  0.7546771E-02  0.1137332E+00
         21   -1    0    0  502  501  0.00000000000E+00  0.00000000000E+00  0.64889316620E+03  0.64889316620E+03  0.00000000000E+00 0.  1.
         21   -1    0    0  505  502 -0.00000000000E+00 -0.00000000000E+00 -0.85158916602E+02  0.85158916602E+02  0.00000000000E+00 0.  1.
         21    1    1    2  503  504  0.61248608055E+02 -0.29158625681E+02  0.14347812073E+03  0.15870598151E+03  0.00000000000E+00 0.  1.
         21    1    1    2  504  501  0.30858482852E+02 -0.17676419760E+02  0.20239012888E+03  0.20549079310E+03  0.00000000000E+00 0.  1.
         21    1    1    2  505  506 -0.13022757838E+03  0.13074747062E+03  0.73623927483E+02  0.19868217319E+03  0.00000000000E+00 0.  1.
         21    1    1    2  506  503  0.38120487476E+02 -0.83912425182E+02  0.14424207250E+03  0.17117313500E+03  0.00000000000E+00 0.  1.
<scales pt_clust_3="87.33953" pt_clust_4="35.00402" pt_clust_5="184.53759" pt_clust_6="87.33953"></scales>
<clustering>
<clus scale="   35.004">  3  4 -1 -1</clus>
<clus scale="   87.340">  3  6 -1 -1</clus>
<clus scale="  184.538">  2  5  1 -1</clus>
<clus scale="  215.436">  1  3  2 -1</clus>
</clustering>
</event>
<event>
 6    0  0.8641190E+002  0.1345437E+03  0.7546771E-02  0.1220865E+00
         21   -1    0    0  506  501  0.00000000000E+00  0.00000000000E+00  0.54279968474E+03  0.54279968474E+03  0.00000000000E+00 0. -1.
         21   -1    0    0  504  502 -0.00000000000E+00 -0.00000000000E+00 -0.91028481610E+03  0.91028481610E+03  0.00000000000E+00 0.  1.
         21    1    1    2  503  501  0.11013178307E+03  0.18197246452E+02 -0.21968423332E+02  0.11376625617E+03  0.00000000000E+00 0.  1.
         21    1    1    2  504  503  0.36790379601E+02  0.15590294340E+02  0.23613603261E+02  0.46413269307E+02  0.00000000000E+00 0.  1.
         21    1    1    2  505  502 -0.44406088200E+02  0.30814242389E+02 -0.82216772589E+03  0.82394246625E+03  0.00000000000E+00 0.  1.
         21    1    1    2  506  505 -0.10251607447E+03 -0.64601783180E+02  0.45303741460E+03  0.46896250910E+03  0.00000000000E+00 0. -1.
<scales pt_clust_3="32.36927" pt_clust_4="32.36927" pt_clust_5="54.05015" pt_clust_6="123.18666"></scales>
<clustering>
<clus scale="   32.369">  3  4 -1 -1</clus>
<clus scale="   54.050">  2  5  1 -1</clus>
<clus scale="  123.187">  1  6  2 -1</clus>
<clus scale="  123.187">  1  3  2 -1</clus>
</clustering>
</event>
<event>
 6    0  0.8641190E+002  0.1107525E+03  0.7546771E-02  0.1259183E+00
         21   -1    0    0  503  501  0.00000000000E+00  0.00000000000E+00  0.10701250738E+03  0.10701250738E+03  0.00000000000E+00 0.  1.
         21   -1    0    0  505  502 -0.00000000000E+00 -0.00000000000E+00 -0.61373575808E+03  0.61373575808E+03  0.00000000000E+00 0.  1.
         21    1    1    2  503  502  0.73730603772E+02 -0.88388763859E+01 -0.13714688424E+03  0.15596023700E+03  0.00000000000E+00 0.  1.
         21    1    1    2  504  506  0.87256523332E+02  0.11868322095E+03 -0.76472163954E+02  0.16597409334E+03  0.00000000000E+00 0.  1.
         21    1    1    2  505  504 -0.10056434858E+03 -0.36509188480E+02 -0.28385072291E+03  0.30334360377E+03  0.00000000000E+00 0.  1.
         21    1    1    2  506  501 -0.60422778528E+02 -0.73335156088E+02 -0.92534795897E+01  0.95470331350E+02  0.00000000000E+00 0.  1.
<scales pt_clust_3="74.25852" pt_clust_4="110.75246" pt_clust_5="68.63051" pt_clust_6="14000.00000"></scales>
<clustering>
<clus scale="   74.259">  2  3  1 -1</clus>
<clus scale="   68.631">  2  5  1 -1</clus>
<clus scale="  110.752">  2  4  1 -1</clus>
<clus scale="  110.752">  1  3  2 -1</clus>
</clustering>
</event>
<event>
 6    0  0.8641190E+002  0.1351682E+03  0.7546771E-02  0.1219982E+00
         21   -1    0    0  506  501  0.00000000000E+00  0.00000000000E+00  0.48047050936E+03  0.48047050936E+03  0.00000000000E+00 0.  1.
         21   -1    0    0  505  502 -0.00000000000E+00 -0.00000000000E+00 -0.22739679235E+03  0.22739679235E+03  0.00000000000E+00 0.  1.
         21    1    1    2  503  504 -0.19308469064E+02  0.12183254606E+03  0.15193276344E+03  0.19570271041E+03  0.00000000000E+00 0.  1.
         21    1    1    2  504  502  0.19687338494E+02 -0.13547365669E+03 -0.15898475795E+03  0.20980194521E+03  0.00000000000E+00 0.  1.
         21    1    1    2  505  501 -0.23280192126E+02 -0.35901501298E+02  0.24063125007E+03  0.24440598121E+03  0.00000000000E+00 0.  1.
         21    1    1    2  506  503  0.22901322696E+02  0.49542611923E+02  0.19494461455E+02  0.57956664887E+02  0.00000000000E+00 0.  1.
<scales pt_clust_3="135.16824" pt_clust_4="14000.00000" pt_clust_5="42.78884" pt_clust_6="47.69658"></scales>
<clustering>
<clus scale="   42.789">  1  5  2 -1</clus>
<clus scale="   47.697">  1  6  2 -1</clus>
<clus scale="  135.168">  1  3  2 -1</clus>
<clus scale="   42.789">  1  3  2 -1</clus>
</clustering>
</event>
<event>
 6    0  0.8641190E+002  0.1725364E+03  0.7546771E-02  0.1175228E+00
         21   -1    0    0  506  501  0.00000000000E+00  0.00000000000E+00  0.27480918295E+03  0.27480918295E+03  0.00000000000E+00 0. -1.
         21   -1    0    0  504  502 -0.00000000000E+00 -0.00000000000E+00 -0.26600898835E+03  0.26600898835E+03  0.00000000000E+00 0.  1.
         21    1    1    2  503  502 -0.59616806347E+02 -0.35925975442E+01 -0.10494805122E+03  0.12075248987E+03  0.00000000000E+00 0.  1.
         21    1    1    2  504  501  0.15696611331E+03 -0.78826194935E+02  0.19298824867E+03  0.26095285754E+03  0.00000000000E+00 0. -1.
         21    1    1    2  505  503 -0.21639507778E+02  0.33547409006E+02 -0.50818884057E+02  0.64623957823E+02  0.00000000000E+00 0.  1.
         21    1    1    2  506  505 -0.75709799186E+02  0.48871383474E+02 -0.28421118801E+02  0.94488866060E+02  0.00000000000E+00 0. -1.
<scales pt_clust_3="59.72496" pt_clust_4="164.31872" pt_clust_5="35.01898" pt_clust_6="35.01898"></scales>
<clustering>
<clus scale="   35.019">  5  6 -1 -1</clus>
<clus scale="   59.725">  2  3  1 -1</clus>
<clus scale="  164.319">  1  4  2 -1</clus>
<clus scale="  164.319">  1  3  2 -1</clus>
</clustering>
</event>
<event>
 6    0  0.8641190E+002  0.7709776E+02  0.7546771E-02  0.1337495E+00
         21   -1    0    0  504  501  0.00000000000E+00  0.00000000000E+00  0.11984323752E+03  0.11984323752E+03  0.00000000000E+00 0.  1.
         21   -1    0    0  503  502 -0.00000000000E+00 -0.00000000000E+00 -0.21249585151E+03  0.21249585151E+03  0.00000000000E+00 0.  1.
         21    1    1    2  503  506 -0.15567638897E+02 -0.44408488103E+02 -0.45758143633E+02  0.65637435242E+02  0.00000000000E+00 0.  1.
         21    1    1    2  504  502 -0.59761945355E+02  0.85365091399E+02 -0.95384806295E+02  0.14126907027E+03  0.00000000000E+00 0.  1.
         21    1    1    2  505  501  0.53443557330E+02  0.14109552304E+02  0.32234791044E+02  0.63987303740E+02  0.00000000000E+00 0.  1.
         21    1    1    2  506  505  0.21886026922E+02 -0.55066155601E+02  0.16255544894E+02  0.61445279777E+02  0.00000000000E+00 0.  1.
<scales pt_clust_3="47.05810" pt_clust_4="77.09776" pt_clust_5="52.75061" pt_clust_6="14000.00000"></scales>
<clustering>
<clus scale="   47.058">  2  3  1 -1</clus>
<clus scale="   52.751">  1  5  2 -1</clus>
<clus scale="   77.098">  2  4  1 -1</clus>
<clus scale="   52.751">  1  3  2 -1</clus>
</clustering>
</event>
<event>
 6    0  0.8641190E+002  0.1435503E+03  0.7546771E-02  0.1208630E+00
         21   -1    0    0  503  501  0.00000000000E+00  0.00000000000E+00  0.59695938190E+03  0.59695938190E+03  0.00000000000E+00 0.  1.
         21   -1    0    0  506  502 -0.00000000000E+00 -0.00000000000E+00 -0.29726442916E+03  0.29726442916E+03  0.00000000000E+00 0. -1.
         21    1    1    2  503  504  0.25427118351E+02 -0.26512780908E+02  0.83666558797E+02  0.91375921117E+02  0.00000000000E+00 0.  1.
         21    1    1    2  504  502 -0.53246592178E+02 -0.15471254987E+03  0.36334438875E+03  0.39848502795E+03  0.00000000000E+00 0.  1.
         21    1    1    2  505  501 -0.60276156167E+02  0.68654432622E+02  0.89407166960E+02  0.12782913449E+03  0.00000000000E+00 0.  1.
         21    1    1    2  506  505  0.88095629994E+02  0.11257089815E+03 -0.23672316176E+03  0.27653372751E+03  0.00000000000E+00 0. -1.
<scales pt_clust_3="36.73508" pt_clust_4="14000.00000" pt_clust_5="83.53592" pt_clust_6="143.55026"></scales>
<clustering>
<clus scale="   36.735">  1  3  2 -1</clus>
<clus scale="   83.536">  1  5  2 -1</clus>
<clus scale="  143.550">  2  6  1 -1</clus>
<clus scale="   36.735">  1  3  2 -1</clus>
</clustering>
</event>
<event>
 6    0  0.8641190E+002  0.1124201E+03  0.7546771E-02  0.1256153E+00
         21   -1    0    0  504  501  0.00000000000E+00  0.00000000000E+00  0.11501099085E+03  0.11501099085E+03  0.00000000000E+00 0.  1.
         21   -1    0    0  503  502 -0.00000000000E+00 -0.00000000000E+00 -0.27048976284E+03  0.27048976284E+03  0.00000000000E+00 0.  1.
         21    1    1    2  503  506  0.30729822796E+02 -0.29322407185E+02  0.20993791588E+02  0.47380004827E+02  0.00000000000E+00 0.  1.
         21    1    1    2  504  505 -0.83877736090E+02  0.16212126786E+02  0.13736087329E+02  0.86527381571E+02  0.00000000000E+00 0.  1.
         21    1    1    2  505  502 -0.21023143355E+02  0.46925485515E+02 -0.15407381502E+03  0.16242756608E+03  0.00000000000E+00 0.  1.
         21    1    1    2  506  501  0.74171056648E+02 -0.33815205117E+02 -0.36134835887E+02  0.89165801213E+02  0.00000000000E+00 0.  1.
<scales pt_clust_3="42.24481" pt_clust_4="95.98604" pt_clust_5="51.41959" pt_clust_6="42.24481"></scales>
<clustering>
<clus scale="   42.245">  3  6 -1 -1</clus>
<clus scale="   51.420">  2  5  1 -1</clus>
<clus scale="   95.986">  1  4  2 -1</clus>
<clus scale="   95.986">  1  3  2 -1</clus>
</clustering>
</event>
<event>
 6    0  0.8641190E+002  0.1597610E+03  0.7546771E-02  0.1188967E+00
         21   -1    0    0  505  501  0.00000000000E+00  0.00000000000E+00  0.74983784916E+02  0.74983784916E+02  0.00000000000E+00 0. -1.
         21   -1    0    0  504  502 -0.00000000000E+00 -0.00000000000E+00 -0.79263512713E+03  0.79263512713E+03  0.00000000000E+00 0. -1.
         21    1    1    2  503  501 -0.44828328452E+02 -0.77022551308E+02 -0.10845251907E+03  0.14037094192E+03  0.00000000000E+00 0. -1.
         21    1    1    2  504  503 -0.86750161812E+02 -0.31899267195E+02 -0.12589027018E+03  0.15617782796E+03  0.00000000000E+00 0. -1.
         21    1    1    2  505  506  0.13861316766E+03  0.30231059267E+02 -0.85825907155E+02  0.16581198248E+03  0.00000000000E+00 0. -1.
         21    1    1    2  506  502 -0.70346773988E+01  0.78690759236E+02 -0.39748264580E+03  0.40525815968E+03  0.00000000000E+00 0. -1.
<scales pt_clust_3="60.90923" pt_clust_4="60.90923" pt_clust_5="147.22707" pt_clust_6="79.00457"></scales>
<clustering>
<clus scale="   60.909">  3  4 -1 -1</clus>
<clus scale="   79.005">  2  6  1 -1</clus>
<clus scale="  147.227">  1  5  2 -1</clus>
<clus scale="  147.227">  1  3  2 -1</clus>
</clustering>
</event>
<event>
 6    0  0.8641190E+002  0.9280225E+02  0.7546771E-02  0.1296204E+00
         21   -1    0    0  505  501  0.00000000000E+00  0.00000000000E+00  0.11978129560E+04  0.11978129560E+04  0.00000000000E+00 0. -1.
         21   -1    0    0  506  502 -0.00000000000E+00 -0.00000000000E+00 -0.31146382936E+02  0.31146382936E+02  0.00000000000E+00 0.  1.
         21    1    1    2  503  502 -0.16991409816E+02  0.74372655385E+02  0.96353601422E+02  0.12289839862E+03  0.00000000000E+00 0.  1.
         21    1    1    2  504  501  0.10778761461E+03 -0.96803692275E+02  0.82067651162E+03  0.83336610288E+03  0.00000000000E+00 0. -1.
         21    1    1    2  505  503 -0.47675700020E+02  0.27361942389E+02  0.19672256873E+03  0.20425821235E+03  0.00000000000E+00 0. -1.
         21    1    1    2  506  504 -0.43120504775E+02 -0.49309054991E+01  0.52913891267E+02  0.68436625063E+02  0.00000000000E+00 0. -1.
<scales pt_clust_3="14000.00000" pt_clust_4="92.80225" pt_clust_5="60.74157" pt_clust_6="43.40152"></scales>
<clustering>
<clus scale="   43.402">  2  6  1 -1</clus>
<clus scale="   60.742">  1  5  2 -1</clus>
<clus scale="   92.802">  1  4  2 -1</clus>
<clus scale="   60.742">  1  3  2 -1</clus>
</clustering>
</event>
<event>
 6    0  0.8641190E+002  0.6212509E+02  0.7546771E-02  0.1389124E+00
         21   -1    0    0  503  501  0.00000000000E+00  0.00000000000E+00  0.96301444182E+02  0.96301444182E+02  0.00000000000E+00 0.  1.
         21   -1    0    0  506  502 -0.00000000000E+00 -0.00000000000E+00 -0.11213438450E+04  0.11213438450E+04  0.00000000000E+00 0.  1.
         21    1    1    2  503  505  0.61753333354E+02 -0.40323743283E+02 -0.32378057251E+03  0.33207429528E+03  0.00000000000E+00 0.  1.
         21    1    1    2  504  501 -0.48301785652E+02  0.55307552155E+01  0.78084734735E+02  0.91983028593E+02  0.00000000000E+00 0.  1.
         21    1    1    2  505  502 -0.33945411536E+01 -0.46314401723E+02 -0.11185990122E+03  0.12111640771E+03  0.00000000000E+00 0.  1.
         21    1    1    2  506  504 -0.10057006549E+02  0.81107389791E+02 -0.66748666182E+03  0.67247155759E+03  0.00000000000E+00 0.  1.
<scales pt_clust_3="14000.00000" pt_clust_4="48.60535" pt_clust_5="46.43863" pt_clust_6="62.12509"></scales>
<clustering>
<clus scale="   46.439">  2  5  1 -1</clus>
<clus scale="   48.605">  1  4  2 -1</clus>
<clus scale="   62.125">  2  6  1 -1</clus>
<clus scale="   48.605">  1  3  2 -1</clus>
</clustering>
</event>
<event>
 6    0  0.8641190E+002  0.1785358E+03  0.7546771E-02  0.1169228E+00
         21   -1    0    0  505  501  0.00000000000E+00  0.00000000000E+00  0.22468380316E+03  0.22468380316E+03  0.00000000000E+00 0. -1.
         21   -1    0    0  504  502 -0.00000000000E+00 -0.00000000000E+00 -0.32295121653E+03  0.32295121653E+03  0.00000000000E+00 0. -1.
         21    1    1    2  503  501 -0.24040620438E+02 -0.42778051358E+02  0.17128721339E+01  0.49100377188E+02  0.00000000000E+00 0.  1.
         21    1    1    2  504  503  0.43464447734E+02 -0.11320226044E+03  0.23267243638E+02  0.12347175634E+03  0.00000000000E+00 0. -1.
         21    1    1    2  505  506  0.33627574862E+02 -0.42275056020E+01  0.94025471065E+02  0.99947360164E+02  0.00000000000E+00 0. -1.
         21    1    1    2  506  502 -0.53051402158E+02  0.16020781740E+03 -0.21727300021E+03  0.27511552600E+03  0.00000000000E+00 0. -1.
<scales pt_clust_3="39.84512" pt_clust_4="39.84512" pt_clust_5="33.89226" pt_clust_6="165.60509"></scales>
<clustering>
<clus scale="   33.892">  1  5  2 -1</clus>
<clus scale="   39.845">  3  4 -1 -1</clus>
<clus scale="  165.605">  2  6  1 -1</clus>
<clus scale="   33.892">  1  3  2 -1</clus>
</clustering>
</event>
<event>
 6    0  0.8641190E+002  0.1302845E+03  0.7546771E-02  0.1227034E+00
         21   -1    0    0  503  501  0.00000000000E+00  0.00000000000E+00  0.76139964087E+02  0.76139964087E+02  0.00000000000E+00 0.  1.
         21   -1    0    0  506  502 -0.00000000000E+00 -0.00000000000E+00 -0.12673723288E+04  0.12673723288E+04  0.00000000000E+00 0.  1.
         21    1    1    2  503  502 -0.17493013370E+03  0.20497364815E+02 -0.16284257269E+03  0.23987162634E+03  0.00000000000E+00 0.  1.
         21    1    1    2  504  501  0.33185113688E+02  0.87805245518E+02 -0.12786715802E+03  0.15862226518E+03  0.00000000000E+00 0.  1.
         21    1    1    2  505  504  0.20737744135E+02 -0.13677376168E+03 -0.28171460265E+03  0.31384746815E+03  0.00000000000E+00 0.  1.
         21    1    1    2  506  505  0.12100727588E+03  0.28471151346E+02 -0.61880803137E+03  0.63117093324E+03  0.00000000000E+00 0.  1.
<scales pt_clust_3="14000.00000" pt_clust_4="93.86700" pt_clust_5="117.32916" pt_clust_6="130.28447"></scales>
<clustering>
<clus scale="   93.867">  1  4  2 -1</clus>
<clus scale="  117.329">  1  5  2 -1</clus>
<clus scale="  130.284">  2  6  1 -1</clus>
<clus scale="   93.867">  1  3  2 -1</clus>
</clustering>
</event>
<event>
 6    0  0.8641190E+002  0.1801549E+03  0.7546771E-02  0.1167653E+00
         21   -1    0    0  504  501  0.00000000000E+00  0.00000000000E+00  0.43159257080E+02  0.43159257080E+02  0.00000000000E+00 0.  1.
         21   -1    0    0  503  502 -0.00000000000E+00 -0.00000000000E+00 -0.24813752185E+04  0.24813752185E+04  0.00000000000E+00 0. -1.
         21    1    1    2  503  506  0.37076531966E+02  0.26994604917E+02 -0.11928979915E+04  0.11937792912E+04  0.00000000000E+00 0. -1.
         21    1    1    2  504  502  0.13427859147E+03 -0.14389104232E+03 -0.58098998288E+03  0.61342051840E+03  0.00000000000E+00 0. -1.
         21    1    1    2  505  501 -0.83854694099E+02  0.14984569412E+03 -0.35791635826E+03  0.39697539128E+03  0.00000000000E+00 0.  1.
         21    1    1    2  506  505 -0.87500429338E+02 -0.32949256715E+02 -0.30641162873E+03  0.32035927468E+03  0.00000000000E+00 0. -1.
<scales pt_clust_3="45.86260" pt_clust_4="14000.00000" pt_clust_5="180.15491" pt_clust_6="82.79500"></scales>
<clustering>
<clus scale="   45.863">  2  3  1 -1</clus>
<clus scale="   82.795">  2  6  1 -1</clus>
<clus scale="  180.155">  1  5  2 -1</clus>
<clus scale="  180.155">  1  3  2 -1</clus>
</clustering>
</event>
<event>
 6    0  0.8641190E+002  0.2748923E+03  0.7546771E-02  0.1098512E+00
         21   -1    0    0  504  501  0.00000000000E+00  0.00000000000E+00  0.75250626567E+03  0.75250626567E+03  0.00000000000E+00 0. -1.
         21   -1    0    0  506  502 -0.00000000000E+00 -0.00000000000E+00 -0.29274211413E+03  0.29274211413E+03  0.00000000000E+00 0.  1.
         21    1    1    2  503  502  0.45974938596E+02  0.73498611892E+02 -0.48789106558E+02  0.99479233248E+02  0.00000000000E+00 0.  1.
         21    1    1    2  504  505 -0.21987614556E+03 -0.15828264818E+03  0.63562297332E+03  0.69095258905E+03  0.00000000000E+00 0. -1.
         21    1    1    2  505  503  0.15105393608E+03  0.10882933056E+03 -0.96450241101E+02  0.20967537720E+03  0.00000000000E+00 0.  1.
         21    1    1    2  506  501  0.22847270883E+02 -0.24045294273E+02 -0.30619474122E+02  0.45141180301E+02  0.00000000000E+00 0.  1.
<scales pt_clust_3="32.86266" pt_clust_4="270.45802" pt_clust_5="32.86266" pt_clust_6="33.16887"></scales>
<clustering>
<clus scale="   33.169">  2  6  1 -1</clus>
<clus scale="   32.863">  3  5 -1 -1</clus>
<clus scale="  270.458">  1  4  2 -1</clus>
<clus scale="  270.458">  1  3  2 -1</clus>
</clustering>
</event>
<event>
 6    0  0.8641190E+002  0.8388871E+02  0.7546771E-02  0.1318365E+00
         21   -1    0    0  503  501  0.00000000000E+00  0.00000000000E+00  0.72846799202E+02  0.72846799202E+02  0.00000000000E+00 0.  1.
         21   -1    0    0  505  502 -0.00000000000E+00 -0.00000000000E+00 -0.45257792299E+03  0.45257792299E+03  0.00000000000E+00 0.  1.
         21    1    1    2  503  502  0.43331430244E+02  0.91502910692E+01 -0.13179181637E+03  0.13903389348E+03  0.00000000000E+00 0. -1.
         21    1    1    2  504  506  0.33146572193E+02 -0.48026277887E+02 -0.62910009585E+02  0.85807271964E+02  0.00000000000E+00 0.  1.
         21    1    1    2  505  504 -0.96504967402E+02  0.73633898183E+02 -0.21742872316E+03  0.24901889356E+03  0.00000000000E+00 0.  1.
         21    1    1    2  506  501  0.20026964965E+02 -0.34757911365E+02  0.32399425329E+02  0.51564663189E+02  0.00000000000E+00 0.  1.
<scales pt_clust_3="45.96175" pt_clust_4="83.88871" pt_clust_5="14000.00000" pt_clust_6="40.11473"></scales>
<clustering>
<clus scale="   40.115">  1  6  2 -1</clus>
<clus scale="   45.962">  2  3  1 -1</clus>
<clus scale="   83.889">  1  4  2 -1</clus>
<clus scale="   40.115">  1  3  2 -1</clus>
</clustering>
</event>
<event>
 6    0  0.8641190E+002  0.9850843E+02  0.7546771E-02  0.1283464E+00
         21   -1    0    0  504  501  0.00000000000E+00  0.00000000000E+00  0.86227081048E+03  0.86227081048E+03  0.00000000000E+00 0. -1.
         21   -1    0    0  506  502 -0.00000000000E+00 -0.00000000000E+00 -0.60550711450E+03  0.60550711450E+03  0.00000000000E+00 0.  1.
         21    1    1    2  503  501  0.96658629670E+00  0.41879780906E+02 -0.64068522436E+02  0.76548193349E+02  0.00000000000E+00 0. -1.
         21    1    1    2  504  505  0.23057465964E+02  0.26449746298E+02  0.83359651531E+03  0.83433469672E+03  0.00000000000E+00 0. -1.
         21    1    1    2  505  502 -0.85273354394E+02 -0.86815308627E+02 -0.45399572680E+03  0.47002187474E+03  0.00000000000E+00 0.  1.
         21    1    1    2  506  503  0.61249302133E+02  0.18485781423E+02 -0.58768570097E+02  0.86873160169E+02  0.00000000000E+00 0. -1.
<scales pt_clust_3="48.09259" pt_clust_4="35.08897" pt_clust_5="98.50843" pt_clust_6="14000.00000"></scales>
<clustering>
<clus scale="   35.089">  1  4  2 -1</clus>
<clus scale="   48.093">  1  3  2 -1</clus>
<clus scale="   98.508">  2  5  1 -1</clus>
<clus scale="   35.089">  1  3  2 -1</clus>
</clustering>
</event>
<event>
 6    0  0.8641190E+002  0.2594546E+03  0.7546771E-02  0.1107471E+00
         21   -1    0    0  506  501  0.00000000000E+00  0.00000000000E+00  0.21928184152E+04  0.21928184152E+04  0.00000000000E+00 0.  1.
         21   -1    0    0  504  502 -0.00000000000E+00 -0.00000000000E+00 -0.79894314821E+02  0.79894314821E+02  0.00000000000E+00 0. -1.
         21    1    1    2  503  502  0.16875860220E+03 -0.21945799510E+03  0.26784999579E+03  0.38520760334E+03  0.00000000000E+00 0. -1.
         21    1    1    2  504  505 -0.20322268287E+02 -0.39002638938E+02  0.93222973838E+02  0.10307629836E+03  0.00000000000E+00 0.  1.
         21    1    1    2  505  501  0.14896621897E+02  0.60755130829E+02  0.15550611660E+03  0.16761637022E+03  0.00000000000E+00 0. -1.
         21    1    1    2  506  503 -0.16333295581E+03  0.19770550321E+03  0.15963450141E+04  0.16168124581E+04  0.00000000000E+00 0.  1.
<scales pt_clust_3="259.45464" pt_clust_4="43.97955" pt_clust_5="59.11027" pt_clust_6="14000.00000"></scales>
<clustering>
<clus scale="   43.980">  2  4  1 -1</clus>
<clus scale="   59.110">  2  5  1 -1</clus>
<clus scale="  259.455">  2  3  1 -1</clus>
<clus scale="  259.455">  1  3  2 -1</clus>
</clustering>
</event>
<event>
 6    0  0.8641190E+002  0.1131611E+03  0.7546771E-02  0.1254826E+00
         21   -1    0    0  502  501  0.00000000000E+00  0.00000000000E+00  0.48203370456E+03  0.48203370456E+03  0.00000000000E+00 0. -1.
         21   -1    0    0  503  502 -0.00000000000E+00 -0.00000000000E+00 -0.59788169125E+02  0.59788169125E+02  0.00000000000E+00 0.  1.
         21    1    1    2  503  504  0.21156073217E+01 -0.59464725176E+02  0.32682415525E+02  0.67887183025E+02  0.00000000000E+00 0.  1.
         21    1    1    2  504  505 -0.28780280002E+02 -0.62303336985E+02  0.16534639933E+02  0.70593233629E+02  0.00000000000E+00 0.  1.
         21    1    1    2  505  506  0.13844765061E+02  0.82925326233E+02  0.11704423679E+03  0.14410982138E+03  0.00000000000E+00 0. -1.
         21    1    1    2  506  501  0.12819907619E+02  0.38842735927E+02  0.25598424318E+03  0.25923163565E+03  0.00000000000E+00 0. -1.
<scales pt_clust_3="32.47026" pt_clust_4="32.47026" pt_clust_5="107.65405" pt_clust_6="40.90364"></scales>
<clustering>
<clus scale="   32.470">  3  4 -1 -1</clus>
<clus scale="   40.904">  1  6  2 -1</clus>
<clus scale="  107.654">  1  5  2 -1</clus>
<clus scale="   40.904">  1  3  2 -1</clus>
</clustering>
</event>
<event>
 6    0  0.8641190E+002  0.1167937E+03  0.7546771E-02  0.1248482E+00
         21   -1    0    0  504  501  0.00000000000E+00  0.00000000000E+00  0.41720513628E+03  0.41720513628E+03  0.00000000000E+00 0.  1.
         21   -1    0    0  506  502 -0.00000000000E+00 -0.00000000000E+00 -0.94797339890E+03  0.94797339890E+03  0.00000000000E+00 0. -1.
         21    1    1    2  503  502  0.25348726564E+02 -0.39741709318E+02 -0.69108302731E+03  0.69268875552E+03  0.00000000000E+00 0. -1.
         21    1    1    2  504  505 -0.12113381412E+03 -0.12935139333E+02  0.36682111335E+03  0.38652095410E+03  0.00000000000E+00 0.  1.
         21    1    1    2  505  503  0.17638348103E+02  0.98106257650E+02 -0.14749673960E+03  0.17802032835E+03  0.00000000000E+00 0. -1.
         21    1    1    2  506  501  0.78146739454E+02 -0.45429409000E+02 -0.59009609063E+02  0.10794849722E+03  0.00000000000E+00 0.  1.
<scales pt_clust_3="47.13769" pt_clust_4="14000.00000" pt_clust_5="80.28596" pt_clust_6="116.79366"></scales>
<clustering>
<clus scale="   47.138">  2  3  1 -1</clus>
<clus scale="   80.286">  2  5  1 -1</clus>
<clus scale="  116.794">  2  6  1 -1</clus>
<clus scale="  116.794">  1  3  2 -1</clus>
</clustering>
</event>
<event>
 6    0  0.8641190E+002  0.1012645E+03  0.7546771E-02  0.1277659E+00
         21   -1    0    0  506  501  0.00000000000E+00  0.00000000000E+00  0.79310926044E+03  0.79310926044E+03  0.00000000000E+00 0. -1.
         21   -1    0    0  503  502 -0.00000000000E+00 -0.00000000000E+00 -0.83934175049E+02  0.83934175049E+02  0.00000000000E+00 0. -1.
         21    1    1    2  503  505  0.17923370511E+02 -0.26061352520E+02 -0.48902895751E+02  0.58240316950E+02  0.00000000000E+00 0. -1.
         21    1    1    2  504  502  0.58538977979E+02  0.86841008186E+02  0.31036496285E+03  0.32755851815E+03  0.00000000000E+00 0. -1.
         21    1    1    2  505  501 -0.12415362337E+03  0.95954759545E+00  0.27616362779E+03  0.30278935292E+03  0.00000000000E+00 0. -1.
         21    1    1    2  506  504  0.47691274878E+02 -0.61739203261E+02  0.17154939050E+03  0.18845524747E+03  0.00000000000E+00 0. -1.
<scales pt_clust_3="31.62975" pt_clust_4="101.26451" pt_clust_5="14000.00000" pt_clust_6="86.80764"></scales>
<clustering>
<clus scale="   31.630">  2  3  1 -1</clus>
<clus scale="   86.808">  1  6  2 -1</clus>
<clus scale="  101.265">  1  4  2 -1</clus>
<clus scale="   86.808">  1  3  2 -1</clus>
</clustering>
</event>
<event>
 6    0  0.8641190E+002  0.1943597E+03  0.7546771E-02  0.1154587E+00
         21   -1    0    0  506  501  0.00000000000E+00  0.00000000000E+00  0.14248208516E+03  0.14248208516E+03  0.00000000000E+00 0. -1.
         21   -1    0    0  504  502 -0.00000000000E+00 -0.00000000000E+00 -0.60889284978E+03  0.60889284978E+03  0.00000000000E+00 0. -1.
         21    1    1    2  503  501  0.25576393443E+02 -0.67712609047E+02 -0.46814894491E+02  0.86201993432E+02  0.00000000000E+00 0. -1.
         21    1    1    2  504  503  0.84699180845E+02 -0.12934084696E+03  0.51595439156E+01  0.15469203865E+03  0.00000000000E+00 0. -1.
         21    1    1    2  505  502 -0.27808908881E+02  0.85495806564E+02 -0.33112094985E+03  0.34310924176E+03  0.00000000000E+00 0. -1.
         21    1    1    2  506  505 -0.82466665407E+02  0.11155764945E+03 -0.93634464188E+02  0.16737166109E+03  0.00000000000E+00 0. -1.
<scales pt_clust_3="49.83148" pt_clust_4="49.83148" pt_clust_5="89.90477" pt_clust_6="180.19901"></scales>
<clustering>
<clus scale="   49.831">  3  4 -1 -1</clus>
<clus scale="   89.905">  2  5  1 -1</clus>
<clus scale="  180.199">  1  6  2 -1</clus>
<clus scale="  180.199">  1  3  2 -1</clus>
</clustering>
</event>
<event>
 6    0  0.8641190E+002  0.9627805E+02  0.7546771E-02  0.1288323E+00
         21   -1    0    0  504  501  0.00000000000E+00  0.00000000000E+00  0.13864450704E+03  0.13864450704E+03  0.00000000000E+00 0.  1.
         21   -1    0    0  505  502 -0.00000000000E+00 -0.00000000000E+00 -0.12890033556E+04  0.12890033556E+04  0.00000000000E+00 0.  1.
         21    1    1    2  503  506 -0.30728148529E+02 -0.94585840780E+02  0.61584734358E+02  0.11697597999E+03  0.00000000000E+00 0.  1.
         21    1    1    2  504  502  0.39773802870E+02 -0.11356740821E+02 -0.42405798614E+02  0.59238355083E+02  0.00000000000E+00 0. -1.
         21    1    1    2  505  503  0.56403985063E+02  0.78067057402E+02 -0.11760595707E+04  0.11799966054E+04  0.00000000000E+00 0.  1.
         21    1    1    2  506  501 -0.65449639404E+02  0.27875524199E+02  0.65217863876E+01  0.71436922143E+02  0.00000000000E+00 0.  1.
<scales pt_clust_3="96.27805" pt_clust_4="41.36340" pt_clust_5="14000.00000" pt_clust_6="58.87380"></scales>
<clustering>
<clus scale="   41.363">  1  4  2 -1</clus>
<clus scale="   58.874">  1  6  2 -1</clus>
<clus scale="   96.278">  1  3  2 -1</clus>
<clus scale="   41.363">  1  3  2 -1</clus>
</clustering>
</event>
<event>
 6    0  0.8641190E+002  0.1069518E+03  0.7546771E-02  0.1266321E+00
         21   -1    0    0  505  501  0.00000000000E+00  0.00000000000E+00  0.34806827802E+02  0.34806827802E+02  0.00000000000E+00 0. -1.
         21   -1    0    0  503  502 -0.00000000000E+00 -0.00000000000E+00 -0.38715590840E+04  0.38715590840E+04  0.00000000000E+00 0.  1.
         21    1    1    2  503  501 -0.20650621999E+02 -0.73716529243E+02 -0.19852221196E+04  0.19866976215E+04  0.00000000000E+00 0.  1.
         21    1    1    2  504  502 -0.36653197376E+02  0.11927094243E+02 -0.93910161502E+03  0.93989231074E+03  0.00000000000E+00 0.  1.
         21    1    1    2  505  506  0.88742706751E+00  0.10847002664E+03 -0.59520534601E+02  0.12373046611E+03  0.00000000000E+00 0. -1.
         21    1    1    2  506  504  0.56416392307E+02 -0.46680591636E+02 -0.85290798697E+03  0.85604551350E+03  0.00000000000E+00 0. -1.
<scales pt_clust_3="106.95180" pt_clust_4="38.54494" pt_clust_5="14000.00000" pt_clust_6="62.91514"></scales>
<clustering>
<clus scale="   38.545">  2  4  1 -1</clus>
<clus scale="   62.915">  2  6  1 -1</clus>
<clus scale="  106.952">  2  3  1 -1</clus>
<clus scale="  106.952">  1  3  2 -1</clus>
</clustering>
</event>
<event>
 6    0  0.8641190E+002  0.1335163E+03  0.7546771E-02  0.1222329E+00
         21   -1    0    0  505  501  0.00000000000E+00  0.00000000000E+00  0.48693782136E+03  0.48693782136E+03  0.00000000000E+00 0.  1.
         21   -1    0    0  503  502 -0.00000000000E+00 -0.00000000000E+00 -0.14284668025E+03  0.14284668025E+03  0.00000000000E+00 0.  1.
         21    1    1    2  503  506 -0.73291629425E+02  0.35064281148E+02  0.29625316016E+02  0.86480206436E+02  0.00000000000E+00 0.  1.
         21    1    1    2  504  502  0.87606066023E+02 -0.37454156165E+02 -0.68463260588E+02  0.11732371742E+03  0.00000000000E+00 0.  1.
         21    1    1    2  505  504  0.75238502181E+02 -0.38050001567E+02  0.22142401804E+03  0.23693296646E+03  0.00000000000E+00 0.  1.
         21    1    1    2  506  501 -0.89552938779E+02  0.40439876584E+02  0.16150506765E+03  0.18904761130E+03  0.00000000000E+00 0.  1.
<scales pt_clust_3="76.97325" pt_clust_4="103.25253" pt_clust_5="84.31272" pt_clust_6="76.97325"></scales>
<clustering>
<clus scale="   76.973">  3  6 -1 -1</clus>
<clus scale="   84.313">  1  5  2 -1</clus>
<clus scale="  103.253">  2  4  1 -1</clus>
<clus scale="   84.313">  1  3  2 -1</clus>
</clustering>
</event>
<event>
 6    0  0.8641190E+002  0.9763065E+02  0.7546771E-02  0.1285359E+00
         21   -1    0    0  503  501  0.00000000000E+00  0.00000000000E+00  0.47155651622E+03  0.47155651622E+03  0.00000000000E+00 0.  1.
         21   -1    0    0  504  502 -0.00000000000E+00 -0.00000000000E+00 -0.87300193689E+02  0.87300193689E+02  0.00000000000E+00 0.  1.
         21    1    1    2  503  505 -0.16355360847E+02 -0.96853634468E+02  0.34890965705E+03  0.36247216876E+03  0.00000000000E+00 0.  1.
         21    1    1    2  504  506 -0.53863661078E+01 -0.32509294878E+02  0.32400414977E+01  0.33111403810E+02  0.00000000000E+00 0. -1.
         21    1    1    2  505  502  0.46756608204E+02  0.85752900338E+02 -0.93389569362E+01  0.98117054805E+02  0.00000000000E+00 0.  1.
         21    1    1    2  506  501 -0.25014881249E+02  0.43610029009E+02  0.41445580915E+02  0.65156082536E+02  0.00000000000E+00 0.  1.
<scales pt_clust_3="97.63065" pt_clust_4="32.95250" pt_clust_5="14000.00000" pt_clust_6="46.22062"></scales>
<clustering>
<clus scale="   32.952">  2  4  1 -1</clus>
<clus scale="   46.221">  2  6  1 -1</clus>
<clus scale="   97.631">  1  3  2 -1</clus>
<clus scale="   97.631">  1  3  2 -1</clus>
</clustering>
</event>
<event>
 6    0  0.8641190E+002  0.1775523E+03  0.7546771E-02  0.1170193E+00
         21   -1    0    0  505  501  0.00000000000E+00  0.00000000000E+00  0.82478687926E+02  0.82478687926E+02  0.00000000000E+00 0. -1.
         21   -1    0    0  506  502 -0.00000000000E+00 -0.00000000000E+00 -0.12310327720E+04  0.12310327720E+04  0.00000000000E+00 0.  1.
         21    1    1    2  503  501  0.69839331292E+02 -0.66014244099E+02 -0.20532572737E+03  0.22670259580E+03  0.00000000000E+00 0.  1.
         21    1    1    2  504  502  0.42482980359E+02  0.26478014644E+02 -0.64767528717E+03  0.64960693230E+03  0.00000000000E+00 0.  1.
         21    1    1    2  505  504 -0.11013772209E+03  0.11605139441E+03 -0.32531649060E+02  0.16326834403E+03  0.00000000000E+00 0. -1.
         21    1    1    2  506  503 -0.21845895620E+01 -0.76515164957E+02 -0.26302142048E+03  0.27393358781E+03  0.00000000000E+00 0.  1.
<scales pt_clust_3="64.50827" pt_clust_4="50.05885" pt_clust_5="158.52148" pt_clust_6="64.50827"></scales>
<clustering>
<clus scale="   50.059">  2  4  1 -1</clus>
<clus scale="   64.508">  3  6 -1 -1</clus>
<clus scale="  158.521">  1  5  2 -1</clus>
<clus scale="  158.521">  1  3  2 -1</clus>
</clustering>
</event>
<event>
 6    0  0.8641190E+002  0.1287899E+03  0.7546771E-02  0.1229262E+00
         21   -1    0    0  503  501  0.00000000000E+00  0.00000000000E+00  0.12434710333E+04  0.12434710333E+04  0.00000000000E+00 0.  1.
         21   -1    0    0  506  502 -0.00000000000E+00 -0.00000000000E+00 -0.90301647706E+02  0.90301647706E+02  0.00000000000E+00 0. -1.
         21    1    1    2  503  504  0.26855163287E+01  0.38821826127E+02  0.10844887106E+03  0.11521937257E+03  0.00000000000E+00 0.  1.
         21    1    1    2  504  505  0.11880405803E+03 -0.10027666357E+03  0.15612147510E+03  0.22032641341E+03  0.00000000000E+00 0. -1.
         21    1    1    2  505  502 -0.11259298941E+02  0.33253887213E+02 -0.45361726266E+02  0.57360953943E+02  0.00000000000E+00 0. -1.
         21    1    1    2  506  501 -0.11023027541E+03  0.28200950230E+02  0.93396076571E+03  0.94086594109E+03  0.00000000000E+00 0.  1.
<scales pt_clust_3="41.74763" pt_clust_4="14000.00000" pt_clust_5="35.10830" pt_clust_6="128.78995"></scales>
<clustering>
<clus scale="   35.108">  2  5  1 -1</clus>
<clus scale="   41.748">  1  3  2 -1</clus>
<clus scale="  128.790">  1  6  2 -1</clus>
<clus scale="   41.748">  1  3  2 -1</clus>
</clustering>
</event>
<event>
 6    0  0.8641190E+002  0.2183896E+03  0.7546771E-02  0.1135089E+00
         21   -1    0    0  502  501  0.00000000000E+00  0.00000000000E+00  0.59054995330E+02  0.59054995330E+02  0.00000000000E+00 0. -1.
         21   -1    0    0  505  502 -0.00000000000E+00 -0.00000000000E+00 -0.21584872580E+04  0.21584872580E+04  0.00000000000E+00 0. -1.
         21    1    1    2  503  501 -0.11054227498E+03  0.45796901166E+02 -0.86350795088E+02  0.14755815981E+03  0.00000000000E+00 0. -1.
         21    1    1    2  504  506  0.14459428191E+03 -0.10358472470E+03 -0.62026320634E+03  0.64526254090E+03  0.00000000000E+00 0. -1.
         21    1    1    2  505  504  0.29927307643E+02 -0.21932753677E+02 -0.12418418511E+04  0.12423960208E+04  0.00000000000E+00 0. -1.
         21    1    1    2  506  503 -0.63979314566E+02  0.79720577210E+02 -0.15097641015E+03  0.18232553180E+03  0.00000000000E+00 0.  1.
<scales pt_clust_3="72.31773" pt_clust_4="203.48805" pt_clust_5="37.10377" pt_clust_6="72.31773"></scales>
<clustering>
<clus scale="   37.104">  2  5  1 -1</clus>
<clus scale="   72.318">  3  6 -1 -1</clus>
<clus scale="  203.488">  2  4  1 -1</clus>
<clus scale="  218.390">  1  3  2 -1</clus>
</clustering>
</event>
<event>
 6    0  0.8641190E+002  0.1009712E+03  0.7546771E-02  0.1278267E+00
         21   -1    0    0  503  501  0.00000000000E+00  0.00000000000E+00  0.26584808382E+03  0.26584808382E+03  0.00000000000E+00 0. -1.
         21   -1    0    0  506  502 -0.00000000000E+00 -0.00000000000E+00 -0.15856316704E+03  0.15856316704E+03  0.00000000000E+00 0.  1.
         21    1    1    2  503  505  0.31807128074E+02  0.13162641831E+02  0.97486818377E+02  0.10338582250E+03  0.00000000000E+00 0. -1.
         21    1    1    2  504  502 -0.10538561083E+03 -0.41068498519E+02  0.24545074650E+02  0.11573767420E+03  0.00000000000E+00 0.  1.
         21    1    1    2  505  504  0.62331708242E+02  0.62556695265E+02  0.70229979261E+02  0.11283098848E+03  0.00000000000E+00 0. -1.
         21    1    1    2  506  501  0.11246774515E+02 -0.34650838576E+02 -0.84976955514E+02  0.92456765677E+02  0.00000000000E+00 0.  1.
<scales pt_clust_3="34.42308" pt_clust_4="14000.00000" pt_clust_5="100.97119" pt_clust_6="36.37758"></scales>
<clustering>
<clus scale="   34.423">  1  3  2 -1</clus>
<clus scale="   36.378">  2  6  1 -1</clus>
<clus scale="  100.971">  1  5  2 -1</clus>
<clus scale="   34.423">  1  3  2 -1</clus>
</clustering>
</event>
<event>
 6    0  0.8641190E+002  0.1209308E+03  0.7546771E-02  0.1241569E+00
         21   -1    0    0  505  501  0.00000000000E+00  0.00000000000E+00  0.32989855826E+03  0.32989855826E+03  0.00000000000E+00 0. -1.
         21   -1    0    0  506  502 -0.00000000000E+00 -0.00000000000E+00 -0.10259193101E+04  0.10259193101E+04  0.00000000000E+00 0. -1.
         21    1    1    2  503  501 -0.45638019616E+02 -0.24361253719E+02  0.16185872537E+03  0.16992512026E+03  0.00000000000E+00 0. -1.
         21    1    1    2  504  502 -0.62196560590E+02  0.54092711174E+02  0.24085878643E+02  0.85875276427E+02  0.00000000000E+00 0. -1.
         21    1    1    2  505  504  0.34965276082E+00  0.31596770243E+02  0.10277957777E+03  0.10752729771E+03  0.00000000000E+00 0. -1.
         21    1    1    2  506  503  0.10748492745E+03 -0.61328227699E+02 -0.98474493364E+03  0.99249017400E+03  0.00000000000E+00 0. -1.
<scales pt_clust_3="45.39181" pt_clust_4="120.93078" pt_clust_5="31.59870" pt_clust_6="14000.00000"></scales>
<clustering>
<clus scale="   31.599">  1  5  2 -1</clus>
<clus scale="   45.392">  1  3  2 -1</clus>
<clus scale="  120.931">  1  4  2 -1</clus>
<clus scale="   31.599">  1  3  2 -1</clus>
</clustering>
</event>
<event>
 6    0  0.8641190E+002  0.1397881E+03  0.7546771E-02  0.1213614E+00
         21   -1    0    0  506  501  0.00000000000E+00  0.00000000000E+00  0.23609843337E+04  0.23609843337E+04  0.00000000000E+00 0. -1.
         21   -1    0    0  504  502 -0.00000000000E+00 -0.00000000000E+00 -0.44780927390E+03  0.44780927390E+03  0.00000000000E+00 0.  1.
         21    1    1    2  503  505  0.23477040759E+02 -0.90312100423E+02  0.94333157136E+03  0.94793559932E+03  0.00000000000E+00 0. -1.
         21    1    1    2  504  503  0.22055464090E+02  0.15698034772E+03 -0.14576221714E+03  0.21535063736E+03  0.00000000000E+00 0.  1.
         21    1    1    2  505  501 -0.13966848701E+02 -0.50481431897E+02  0.13788696826E+04  0.13798641417E+04  0.00000000000E+00 0. -1.
         21    1    1    2  506  502 -0.31565656149E+02 -0.16186815400E+02 -0.26326397704E+03  0.26564322925E+03  0.00000000000E+00 0.  1.
<scales pt_clust_3="14000.00000" pt_clust_4="139.78811" pt_clust_5="52.44311" pt_clust_6="35.47399"></scales>
<clustering>
<clus scale="   35.474">  2  6  1 -1</clus>
<clus scale="   52.443">  1  5  2 -1</clus>
<clus scale="  139.788">  2  4  1 -1</clus>
<clus scale="   52.443">  1  3  2 -1</clus>
</clustering>
</event>
<event>
 6    0  0.8641190E+002  0.1524258E+03  0.7546771E-02  0.1197523E+00
         21   -1    0    0  505  501  0.00000000000E+00  0.00000000000E+00  0.11761079520E+04  0.11761079520E+04  0.00000000000E+00 0. -1.
         21   -1    0    0  506  502 -0.00000000000E+00 -0.00000000000E+00 -0.70527652133E+03  0.70527652133E+03  0.00000000000E+00 0.  1.
         21    1    1    2  503  502 -0.18803933129E+02  0.26309040014E+02 -0.24582758443E+03  0.24794546730E+03  0.00000000000E+00 0.  1.
         21    1    1    2  504  503 -0.42025646596E+02  0.31983963057E+02 -0.15762140441E+02  0.55114189969E+02  0.00000000000E+00 0.  1.
         21    1    1    2  505  504  0.29821262505E+02 -0.15032874022E+03  0.11446223875E+04  0.11548369789E+04  0.00000000000E+00 0. -1.
         21    1    1    2  506  501  0.31008317220E+02  0.92035737150E+02 -0.41220123194E+03  0.42348783720E+03  0.00000000000E+00 0.  1.
<scales pt_clust_3="32.33811" pt_clust_4="55.20575" pt_clust_5="152.42581" pt_clust_6="14000.00000"></scales>
<clustering>
<clus scale="   32.338">  2  3  1 -1</clus>
<clus scale="   55.206">  2  4  1 -1</clus>
<clus scale="  152.426">  1  5  2 -1</clus>
<clus scale="  152.426">  1  3  2 -1</clus>
</clustering>
</event>
