<event>
 5    0  0.5655767E-005  0.4108811E+03  0.7546771E-02  0.1040076E+00
         21   -1    0    0  502  501  0.00000000000E+00  0.00000000000E+00  0.82896185243E+03  0.82896185243E+03  0.00000000000E+00 0. -1.
         21   -1    0    0  501  502 -0.00000000000E+00 -0.00000000000E+00 -0.20365625126E+03  0.20365625126E+03  0.00000000000E+00 0. -1.
         25    1    1    2    0    0 -0.28237810322E+03 -0.23408248705E+02  0.13508710045E+03  0.33787403569E+03  0.12500000000E+03 0.  0.
         25    1    1    2    0    0  0.31227915544E+03  0.80926639743E+02  0.39326342896E+03  0.52378289062E+03  0.12500000000E+03 0.  0.
         25    1    1    2    0    0 -0.29901052223E+02 -0.57518391038E+02  0.96955071773E+02  0.17096117739E+03  0.12500000000E+03 0.  0.
</event>
<event>
 5    0  0.5655767E-005  0.2368690E+03  0.7546771E-02  0.1121896E+00
         21   -1    0    0  502  501  0.00000000000E+00  0.00000000000E+00  0.37944657697E+02  0.37944657697E+02  0.00000000000E+00 0.  1.
         21   -1    0    0  501  502 -0.00000000000E+00 -0.00000000000E+00 -0.14786515390E+04  0.14786515390E+04  0.00000000000E+00 0.  1.
         25    1    1    2    0    0  0.81649328436E+02  0.12047345485E+02 -0.48650735271E+03  0.50904435525E+03  0.12500000000E+03 0.  0.
         25    1    1    2    0    0  0.20213000073E+02 -0.10457527083E+02 -0.20488768492E+03  0.24108481636E+03  0.12500000000E+03 0.  0.
         25    1    1    2    0    0 -0.10186232851E+03 -0.15898184024E+01 -0.74931184369E+03  0.76646702511E+03  0.12500000000E+03 0.  0.
</event>
<event>
 5    0  0.5655767E-005  0.2694987E+03  0.7546771E-02  0.1101567E+00
         21   -1    0    0  502  501  0.00000000000E+00  0.00000000000E+00  0.33582656541E+02  0.33582656541E+02  0.00000000000E+00 0. -1.
         21   -1    0    0  501  502 -0.00000000000E+00 -0.00000000000E+00 -0.21627103086E+04  0.21627103086E+04  0.00000000000E+00 0. -1.
         25    1    1    2    0    0 -0.53678983366E+02 -0.72491883824E+02 -0.51125432754E+03  0.53398735369E+03  0.12500000000E+03 0.  0.
         25    1    1    2    0    0  0.16380365527E+03  0.32038501719E+02 -0.96759286198E+03  0.98980758213E+03  0.12500000000E+03 0.  0.
         25    1    1    2    0    0 -0.11012467191E+03  0.40453382104E+02 -0.65028046252E+03  0.67249802931E+03  0.12500000000E+03 0.  0.
</event>
<event>
 5    0  0.5655767E-005  0.2440565E+03  0.7546771E-02  0.1117120E+00
         21   -1    0    0  502  501  0.00000000000E+00  0.00000000000E+00  0.21517876651E+04  0.21517876651E+04  0.00000000000E+00 0. -1.
         21   -1    0    0  501  502 -0.00000000000E+00 -0.00000000000E+00 -0.27680967290E+02  0.27680967290E+02  0.00000000000E+00 0. -1.
         25    1    1    2    0    0 -0.83100367299E+02  0.75853499117E+02  0.93009937265E+03  0.94518213450E+03  0.12500000000E+03 0.  0.
         25    1    1    2    0    0  0.11544752482E+03 -0.59945452405E+02  0.61950872305E+03  0.64524231587E+03  0.12500000000E+03 0.  0.
         25    1    1    2    0    0 -0.32347157519E+02 -0.15908046712E+02  0.57449860212E+03  0.58904418203E+03  0.12500000000E+03 0.  0.
</event>
<event>
 5    0  0.5655767E-005  0.3288084E+03  0.7546771E-02  0.1071665E+00
         21   -1    0    0  502  501  0.00000000000E+00  0.00000000000E+00  0.12604957997E+03  0.12604957997E+03  0.00000000000E+00 0. -1.
         21   -1    0    0  501  502 -0.00000000000E+00 -0.00000000000E+00 -0.85771769325E+03  0.85771769325E+03  0.00000000000E+00 0. -1.
         25    1    1    2    0    0 -0.59068480885E+02 -0.61071621314E+02 -0.55011459215E+03  0.57049968700E+03  0.12500000000E+03 0.  0.
         25    1    1    2    0    0  0.51966550936E+02 -0.90545296742E+02 -0.31396518179E+02  0.16586052735E+03  0.12500000000E+03 0.  0.
         25    1    1    2    0    0  0.71019299493E+01  0.15161691806E+03 -0.15015700295E+03  0.24740705888E+03  0.12500000000E+03 0.  0.
</event>
<event>
 5    0  0.5655767E-005  0.4196312E+03  0.7546771E-02  0.1037186E+00
         21   -1    0    0  502  501  0.00000000000E+00  0.00000000000E+00  0.13900425846E+03  0.13900425846E+03  0.00000000000E+00 0. -1.
         21   -1    0    0  501  502 -0.00000000000E+00 -0.00000000000E+00 -0.12667980619E+04  0.12667980619E+04  0.00000000000E+00 0. -1.
         25    1    1    2    0    0  0.75287588660E+02  0.52888584603E+02 -0.89232957001E+03  0.90572759972E+03  0.12500000000E+03 0.  0.
         25    1    1    2    0    0 -0.40387013167E+02  0.36911432656E+00 -0.31324276789E+03  0.33967231079E+03  0.12500000000E+03 0.  0.
         25    1    1    2    0    0 -0.34900575493E+02 -0.53257698930E+02  0.77778534459E+02  0.16040240986E+03  0.12500000000E+03 0.  0.
</event>
<event>
 5    0  0.5845738E-005  0.3309175E+03  0.7546771E-02  0.1070732E+00
         21   -1    0    0  502  501  0.00000000000E+00  0.00000000000E+00  0.47829804902E+03  0.47829804902E+03  0.00000000000E+00 0.  1.
         21   -1    0    0  501  502 -0.00000000000E+00 -0.00000000000E+00 -0.22895009212E+03  0.22895009212E+03  0.00000000000E+00 0.  1.
         25    1    1    2    0    0  0.49753484792E+02 -0.15353703685E+03  0.51305570680E+02  0.21049059959E+03  0.12500000000E+03 0.  0.
         25    1    1    2    0    0  0.11942303710E+03  0.10754422682E+03  0.19426264823E+03  0.28140824261E+03  0.12500000000E+03 0.  0.
         25    1    1    2    0    0 -0.16917652189E+03  0.45992810032E+02  0.37797379846E+01  0.21534929894E+03  0.12500000000E+03 0.  0.
</event>
<event>
 5    0  0.5655767E-005  0.3122573E+03  0.7546771E-02  0.1079269E+00
         21   -1    0    0  502  501  0.00000000000E+00  0.00000000000E+00  0.10797297744E+03  0.10797297744E+03  0.00000000000E+00 0. -1.
         21   -1    0    0  501  502 -0.00000000000E+00 -0.00000000000E+00 -0.90304661082E+03  0.90304661082E+03  0.00000000000E+00 0. -1.
         25    1    1    2    0    0 -0.16827392668E+03  0.12253650781E+03 -0.45931131034E+03  0.51954132651E+03  0.12500000000E+03 0.  0.
         25    1    1    2    0    0  0.54736708362E+02 -0.84969269898E+02 -0.72217657254E+02  0.17622790383E+03  0.12500000000E+03 0.  0.
         25    1    1    2    0    0  0.11353721832E+03 -0.37567237910E+02 -0.26354466578E+03  0.31525035792E+03  0.12500000000E+03 0.  0.
</event>
<event>
 5    0  0.5655767E-005  0.4641187E+03  0.7546771E-02  0.1023593E+00
         21   -1    0    0  502  501  0.00000000000E+00  0.00000000000E+00  0.14755528434E+03  0.14755528434E+03  0.00000000000E+00 0. -1.
         21   -1    0    0  501  502 -0.00000000000E+00 -0.00000000000E+00 -0.14598335634E+04  0.14598335634E+04  0.00000000000E+00 0. -1.
         25    1    1    2    0    0  0.92162270281E+01 -0.81615039765E+02 -0.57627748731E+02  0.16028696447E+03  0.12500000000E+03 0.  0.
         25    1    1    2    0    0  0.15985971164E+03  0.40035746329E+02 -0.12107804923E+04  0.12283209633E+04  0.12500000000E+03 0.  0.
         25    1    1    2    0    0 -0.16907593867E+03  0.41579293436E+02 -0.43870037970E+02  0.21878091990E+03  0.12500000000E+03 0.  0.
</event>
<event>
 5    0  0.5655767E-005  0.2430919E+03  0.7546771E-02  0.1117750E+00
         21   -1    0    0  502  501  0.00000000000E+00  0.00000000000E+00  0.55589021778E+02  0.55589021778E+02  0.00000000000E+00 0. -1.
         21   -1    0    0  501  502 -0.00000000000E+00 -0.00000000000E+00 -0.10630458220E+04  0.10630458220E+04  0.00000000000E+00 0. -1.
         25    1    1    2    0    0  0.91411686523E+02 -0.89391032388E+02 -0.22981631066E+03  0.29118274288E+03  0.12500000000E+03 0.  0.
         25    1    1    2    0    0 -0.28054572144E+02  0.41958795695E+02 -0.36872485484E+03  0.39259472504E+03  0.12500000000E+03 0.  0.
         25    1    1    2    0    0 -0.63357114379E+02  0.47432236692E+02 -0.40891563477E+03  0.43485737590E+03  0.12500000000E+03 0.  0.
</event>
<event>
 5    0  0.5655767E-005  0.2325686E+03  0.7546771E-02  0.1124845E+00
         21   -1    0    0  502  501  0.00000000000E+00  0.00000000000E+00  0.32190769751E+04  0.32190769751E+04  0.00000000000E+00 0.  1.
         21   -1    0    0  501  502 -0.00000000000E+00 -0.00000000000E+00 -0.16802384122E+02  0.16802384122E+02  0.00000000000E+00 0.  1.
         25    1    1    2    0    0 -0.49976350351E+02  0.38976210997E+02  0.15296541449E+04  0.15360610611E+04  0.12500000000E+03 0.  0.
         25    1    1    2    0    0  0.53322067401E+02 -0.55816142196E+02  0.52134782285E+03  0.54165232114E+03  0.12500000000E+03 0.  0.
         25    1    1    2    0    0 -0.33457170497E+01  0.16839931199E+02  0.11512726233E+04  0.11581659770E+04  0.12500000000E+03 0.  0.
</event>
<event>
 5    0  0.5655767E-005  0.3851791E+03  0.7546771E-02  0.1049036E+00
         21   -1    0    0  502  501  0.00000000000E+00  0.00000000000E+00  0.32109440821E+03  0.32109440821E+03  0.00000000000E+00 0. -1.
         21   -1    0    0  501  502 -0.00000000000E+00 -0.00000000000E+00 -0.46205391891E+03  0.46205391891E+03  0.00000000000E+00 0. -1.
         25    1    1    2    0    0  0.10596423446E+03  0.13591995189E+02 -0.19223002525E+03  0.25296352291E+03  0.12500000000E+03 0.  0.
         25    1    1    2    0    0 -0.25084188373E+03  0.10835618143E+03  0.38287634628E+02  0.30290865893E+03  0.12500000000E+03 0.  0.
         25    1    1    2    0    0  0.14487764928E+03 -0.12194817662E+03  0.12982879926E+02  0.22727614528E+03  0.12500000000E+03 0.  0.
</event>
<event>
 5    0  0.5655767E-005  0.3471167E+03  0.7546771E-02  0.1063805E+00
         21   -1    0    0  502  501  0.00000000000E+00  0.00000000000E+00  0.68196376185E+02  0.68196376185E+02  0.00000000000E+00 0.  1.
         21   -1    0    0  501  502 -0.00000000000E+00 -0.00000000000E+00 -0.17668097425E+04  0.17668097425E+04  0.00000000000E+00 0.  1.
         25    1    1    2    0    0  0.10447963997E+03  0.17262792626E+02 -0.71118450293E+03  0.72980983577E+03  0.12500000000E+03 0.  0.
         25    1    1    2    0    0 -0.15635329314E+03  0.13917602353E+02 -0.13574643291E+03  0.24226461975E+03  0.12500000000E+03 0.  0.
         25    1    1    2    0    0  0.51873653171E+02 -0.31180394979E+02 -0.85168243048E+03  0.86293166318E+03  0.12500000000E+03 0.  0.
</event>
<event>
 5    0  0.5655767E-005  0.2180937E+03  0.7546771E-02  0.1135312E+00
         21   -1    0    0  502  501  0.00000000000E+00  0.00000000000E+00  0.74665963002E+02  0.74665963002E+02  0.00000000000E+00 0.  1.
         21   -1    0    0  501  502 -0.00000000000E+00 -0.00000000000E+00 -0.63703537237E+03  0.63703537237E+03  0.00000000000E+00 0.  1.
         25    1    1    2    0    0 -0.37401234312E+02 -0.52845507067E+02 -0.20096524556E+03  0.24536407616E+03  0.12500000000E+03 0.  0.
         25    1    1    2    0    0  0.34386236716E+02  0.86830999359E+02 -0.25371214564E+03  0.29785380402E+03  0.12500000000E+03 0.  0.
         25    1    1    2    0    0  0.30149975962E+01 -0.33985492293E+02 -0.10769201817E+03  0.16848345520E+03  0.12500000000E+03 0.  0.
</event>
<event>
 5    0  0.5655767E-005  0.3514750E+03  0.7546771E-02  0.1062011E+00
         21   -1    0    0  502  501  0.00000000000E+00  0.00000000000E+00  0.86558090889E+03  0.86558090889E+03  0.00000000000E+00 0.  1.
         21   -1    0    0  501  502 -0.00000000000E+00 -0.00000000000E+00 -0.14271880517E+03  0.14271880517E+03  0.00000000000E+00 0.  1.
         25    1    1    2    0    0 -0.67749341592E+02  0.10911587465E+03  0.26692373053E+02  0.18120080067E+03  0.12500000000E+03 0.  0.
         25    1    1    2    0    0  0.15261035791E+03  0.71968046664E+02  0.35215485175E+03  0.41000897635E+03  0.12500000000E+03 0.  0.
         25    1    1    2    0    0 -0.84861016319E+02 -0.18108392131E+03  0.34401487893E+03  0.41708993703E+03  0.12500000000E+03 0.  0.
</event>
<event>
 5    0  0.5655767E-005  0.3518041E+03  0.7546771E-02  0.1061877E+00
         21   -1    0    0  502  501  0.00000000000E+00  0.00000000000E+00  0.23783216548E+03  0.23783216548E+03  0.00000000000E+00 0. -1.
         21   -1    0    0  501  502 -0.00000000000E+00 -0.00000000000E+00 -0.52039269538E+03  0.52039269538E+03  0.00000000000E+00 0. -1.
         25    1    1    2    0    0  0.10501803868E+02  0.42214691846E+02 -0.19511750458E+03  0.23577151797E+03  0.12500000000E+03 0.  0.
         25    1    1    2    0    0  0.28891117412E+02 -0.69015216075E+02  0.17510987672E+03  0.22778556943E+03  0.12500000000E+03 0.  0.
         25    1    1    2    0    0 -0.39392921280E+02  0.26800524229E+02 -0.26255290204E+03  0.29466777346E+03  0.12500000000E+03 0.  0.
</event>
<event>
 5    0  0.5655767E-005  0.2393254E+03  0.7546771E-02  0.1120243E+00
         21   -1    0    0  502  501  0.00000000000E+00  0.00000000000E+00  0.74749907106E+03  0.74749907106E+03  0.00000000000E+00 0. -1.
         21   -1    0    0  501  502 -0.00000000000E+00 -0.00000000000E+00 -0.76624391593E+02  0.76624391593E+02  0.00000000000E+00 0. -1.
         25    1    1    2    0    0  0.39249971081E+02 -0.34888958468E+02  0.41036276605E+02  0.14165724708E+03  0.12500000000E+03 0.  0.
         25    1    1    2    0    0 -0.17622248810E+02  0.37332307543E+02  0.38184270027E+03  0.40389737879E+03  0.12500000000E+03 0.  0.
         25    1    1    2    0    0 -0.21627722272E+02 -0.24433490743E+01  0.24799570259E+03  0.27856883679E+03  0.12500000000E+03 0.  0.
</event>
<event>
 5    0  0.5655767E-005  0.2170393E+03  0.7546771E-02  0.1136110E+00
         21   -1    0    0  502  501  0.00000000000E+00  0.00000000000E+00  0.10192721085E+03  0.10192721085E+03  0.00000000000E+00 0.  1.
         21   -1    0    0  501  502 -0.00000000000E+00 -0.00000000000E+00 -0.46215394270E+03  0.46215394270E+03  0.00000000000E+00 0.  1.
         25    1    1    2    0    0 -0.34221656737E+01 -0.58612957707E+02 -0.49771796213E+02  0.14679721294E+03  0.12500000000E+03 0.  0.
         25    1    1    2    0    0 -0.32796078017E+02  0.35913496005E+02 -0.21829106415E+03  0.25620568030E+03  0.12500000000E+03 0.  0.
         25    1    1    2    0    0  0.36218243691E+02  0.22699461702E+02 -0.92163871479E+02  0.16107826031E+03  0.12500000000E+03 0.  0.
</event>
<event>
 5    0  0.5655767E-005  0.2651435E+03  0.7546771E-02  0.1104092E+00
         21   -1    0    0  502  501  0.00000000000E+00  0.00000000000E+00  0.68597588428E+03  0.68597588428E+03  0.00000000000E+00 0. -1.
         21   -1    0    0  501  502 -0.00000000000E+00 -0.00000000000E+00 -0.10248328082E+03  0.10248328082E+03  0.00000000000E+00 0. -1.
         25    1    1    2    0    0  0.82181051212E+02 -0.58191082295E+02  0.30603804846E+03  0.34557808718E+03  0.12500000000E+03 0.  0.
         25    1    1    2    0    0 -0.11190141598E+03 -0.10021037461E+02  0.54534048464E+02  0.17669553060E+03  0.12500000000E+03 0.  0.
         25    1    1    2    0    0  0.29720364770E+02  0.68212119755E+02  0.22292050655E+03  0.26618554732E+03  0.12500000000E+03 0.  0.
</event>
<event>
 5    0  0.5655767E-005  0.2738745E+03  0.7546771E-02  0.1099082E+00
         21   -1    0    0  502  501  0.00000000000E+00  0.00000000000E+00  0.93447934000E+03  0.93447934000E+03  0.00000000000E+00 0. -1.
         21   -1    0    0  501  502 -0.00000000000E+00 -0.00000000000E+00 -0.80266345788E+02  0.80266345788E+02  0.00000000000E+00 0. -1.
         25    1    1    2    0    0  0.17726247116E+03 -0.61625603166E+02  0.40897650580E+03  0.46701871584E+03  0.12500000000E+03 0.  0.
         25    1    1    2    0    0 -0.10100937480E+03  0.58110181583E+02  0.21180273635E+03  0.27214901456E+03  0.12500000000E+03 0.  0.
         25    1    1    2    0    0 -0.76253096362E+02  0.35154215833E+01  0.23343375206E+03  0.27557795538E+03  0.12500000000E+03 0.  0.
</event>
<event>
 5    0  0.5655767E-005  0.5237110E+03  0.7546771E-02  0.1007769E+00
         21   -1    0    0  502  501  0.00000000000E+00  0.00000000000E+00  0.66898635975E+03  0.66898635975E+03  0.00000000000E+00 0. -1.
         21   -1    0    0  501  502 -0.00000000000E+00 -0.00000000000E+00 -0.40998327123E+03  0.40998327123E+03  0.00000000000E+00 0. -1.
         25    1    1    2    0    0 -0.23245651544E+03 -0.25523217021E+03 -0.27357392661E+02  0.36817512031E+03  0.12500000000E+03 0.  0.
         25    1    1    2    0    0  0.15805296358E+03 -0.11813531510E+03  0.18365277828E+03  0.29713639113E+03  0.12500000000E+03 0.  0.
         25    1    1    2    0    0  0.74403551861E+02  0.37336748531E+03  0.10270770291E+03  0.41365811953E+03  0.12500000000E+03 0.  0.
</event>
<event>
 5    0  0.5655767E-005  0.3576806E+03  0.7546771E-02  0.1059506E+00
         21   -1    0    0  502  501  0.00000000000E+00  0.00000000000E+00  0.82935388265E+03  0.82935388265E+03  0.00000000000E+00 0. -1.
         21   -1    0    0  501  502 -0.00000000000E+00 -0.00000000000E+00 -0.15425912730E+03  0.15425912730E+03  0.00000000000E+00 0. -1.
         25    1    1    2    0    0  0.86424324570E+02  0.42228000297E+02  0.14125422889E+03  0.21173125670E+03  0.12500000000E+03 0.  0.
         25    1    1    2    0    0 -0.16403281951E+03 -0.18781101858E+03  0.48456399622E+03  0.55911269973E+03  0.12500000000E+03 0.  0.
         25    1    1    2    0    0  0.77608494938E+02  0.14558301828E+03  0.49276530246E+02  0.21276905351E+03  0.12500000000E+03 0.  0.
</event>
<event>
 5    0  0.5655767E-005  0.3024266E+03  0.7546771E-02  0.1084034E+00
         21   -1    0    0  502  501  0.00000000000E+00  0.00000000000E+00  0.35627913668E+03  0.35627913668E+03  0.00000000000E+00 0. -1.
         21   -1    0    0  501  502 -0.00000000000E+00 -0.00000000000E+00 -0.25671409716E+03  0.25671409716E+03  0.00000000000E+00 0. -1.
         25    1    1    2    0    0  0.70998630964E+02 -0.15754226587E+02 -0.93930395270E+02  0.17244396310E+03  0.12500000000E+03 0.  0.
         25    1    1    2    0    0 -0.16125470987E+03 -0.40781530104E+01  0.19895392548E+03  0.28500417059E+03  0.12500000000E+03 0.  0.
         25    1    1    2    0    0  0.90256078909E+02  0.19832379598E+02 -0.54584906938E+01  0.15554510015E+03  0.12500000000E+03 0.  0.
</event>
<event>
 5    0  0.6449010E-005  0.4179027E+03  0.7546771E-02  0.1037751E+00
         21   -1    0    0  502  501  0.00000000000E+00  0.00000000000E+00  0.36642630712E+03  0.36642630712E+03  0.00000000000E+00 0. -1.
         21   -1    0    0  501  502 -0.00000000000E+00 -0.00000000000E+00 -0.47661062602E+03  0.47661062602E+03  0.00000000000E+00 0. -1.
         25    1    1    2    0    0 -0.93651921201E+02  0.94439226299E+02 -0.23053741248E+03  0.29404412656E+03  0.12500000000E+03 0.  0.
         25    1    1    2    0    0 -0.15505847838E+03 -0.89048823096E+02  0.15615138788E+03  0.26829290067E+03  0.12500000000E+03 0.  0.
         25    1    1    2    0    0  0.24871039958E+03 -0.53904032033E+01 -0.35798294299E+02  0.28069990592E+03  0.12500000000E+03 0.  0.
</event>
<event>
 5    0  0.5655767E-005  0.5185263E+03  0.7546771E-02  0.1009053E+00
         21   -1    0    0  502  501  0.00000000000E+00  0.00000000000E+00  0.14886966790E+04  0.14886966790E+04  0.00000000000E+00 0.  1.
         21   -1    0    0  501  502 -0.00000000000E+00 -0.00000000000E+00 -0.18060734932E+03  0.18060734932E+03  0.00000000000E+00 0.  1.
         25    1    1    2    0    0 -0.12392477754E+03 -0.15865119215E+03  0.11170239388E+04  0.11418822317E+04  0.12500000000E+03 0.  0.
         25    1    1    2    0    0  0.39600266550E+02  0.14208082359E+02  0.27294235281E+03  0.30313788722E+03  0.12500000000E+03 0.  0.
         25    1    1    2    0    0  0.84324510993E+02  0.14444310980E+03 -0.81876961911E+02  0.22428390939E+03  0.12500000000E+03 0.  0.
</event>
<event>
 5    0  0.5655767E-005  0.4073331E+03  0.7546771E-02  0.1041270E+00
         21   -1    0    0  502  501  0.00000000000E+00  0.00000000000E+00  0.84263425440E+03  0.84263425440E+03  0.00000000000E+00 0. -1.
         21   -1    0    0  501  502 -0.00000000000E+00 -0.00000000000E+00 -0.19690660265E+03  0.19690660265E+03  0.00000000000E+00 0. -1.
         25    1    1    2    0    0  0.17651814502E+03 -0.34912015909E+02  0.30205186216E+01  0.21911555835E+03  0.12500000000E+03 0.  0.
         25    1    1    2    0    0 -0.11110653788E+03 -0.12998343885E+03  0.54055439781E+03  0.58057248826E+03  0.12500000000E+03 0.  0.
         25    1    1    2    0    0 -0.65411607137E+02  0.16489545475E+03  0.10215273532E+03  0.23985281045E+03  0.12500000000E+03 0.  0.
</event>
<event>
 5    0  0.5655767E-005  0.6042097E+03  0.7546771E-02  0.9896711E-01
         21   -1    0    0  502  501  0.00000000000E+00  0.00000000000E+00  0.40482621549E+03  0.40482621549E+03  0.00000000000E+00 0. -1.
         21   -1    0    0  501  502 -0.00000000000E+00 -0.00000000000E+00 -0.90179271831E+03  0.90179271831E+03  0.00000000000E+00 0. -1.
         25    1    1    2    0    0  0.13769163598E+03  0.25996267521E+03  0.10118962633E+03  0.33526693783E+03  0.12500000000E+03 0.  0.
         25    1    1    2    0    0 -0.24168845520E+03 -0.26760076707E+03 -0.68701108508E+03  0.78589611969E+03  0.12500000000E+03 0.  0.
         25    1    1    2    0    0  0.10399681922E+03  0.76380918580E+01  0.88854955933E+02  0.18545587629E+03  0.12500000000E+03 0.  0.
</event>
<event>
 5    0  0.5655767E-005  0.2752996E+03  0.7546771E-02  0.1098284E+00
         21   -1    0    0  502  501  0.00000000000E+00  0.00000000000E+00  0.22835271223E+03  0.22835271223E+03  0.00000000000E+00 0. -1.
         21   -1    0    0  501  502 -0.00000000000E+00 -0.00000000000E+00 -0.33189834956E+03  0.33189834956E+03  0.00000000000E+00 0. -1.
         25    1    1    2    0    0  0.57192260440E+02 -0.67166247888E+02 -0.91313491930E+02  0.17817242581E+03  0.12500000000E+03 0.  0.
         25    1    1    2    0    0 -0.15326890989E+03  0.87387904490E+02  0.28233726553E+02  0.21805996401E+03  0.12500000000E+03 0.  0.
         25    1    1    2    0    0  0.96076649446E+02 -0.20221656602E+02 -0.40465871949E+02  0.16401867198E+03  0.12500000000E+03 0.  0.
</event>
<event>
 5    0  0.5655767E-005  0.3883060E+03  0.7546771E-02  0.1047906E+00
         21   -1    0    0  502  501  0.00000000000E+00  0.00000000000E+00  0.27427887829E+03  0.27427887829E+03  0.00000000000E+00 0.  1.
         21   -1    0    0  501  502 -0.00000000000E+00 -0.00000000000E+00 -0.54973810286E+03  0.54973810286E+03  0.00000000000E+00 0.  1.
         25    1    1    2    0    0 -0.12617498046E+03  0.37904612002E+02  0.41138852703E+02  0.18621033942E+03  0.12500000000E+03 0.  0.
         25    1    1    2    0    0  0.13401973216E+03  0.17894052461E+03 -0.31054077605E+02  0.25801231693E+03  0.12500000000E+03 0.  0.
         25    1    1    2    0    0 -0.78447517007E+01 -0.21684513661E+03 -0.28554399967E+03  0.37979432480E+03  0.12500000000E+03 0.  0.
</event>
<event>
 5    0  0.5655767E-005  0.2365194E+03  0.7546771E-02  0.1122133E+00
         21   -1    0    0  502  501  0.00000000000E+00  0.00000000000E+00  0.21107129478E+03  0.21107129478E+03  0.00000000000E+00 0.  1.
         21   -1    0    0  501  502 -0.00000000000E+00 -0.00000000000E+00 -0.26503573900E+03  0.26503573900E+03  0.00000000000E+00 0.  1.
         25    1    1    2    0    0 -0.99683940630E+02  0.57544310919E+01 -0.10312324954E+03  0.19034023772E+03  0.12500000000E+03 0.  0.
         25    1    1    2    0    0  0.46964944404E+02  0.38148189159E+02  0.21746447811E+02  0.14056634850E+03  0.12500000000E+03 0.  0.
         25    1    1    2    0    0  0.52718996226E+02 -0.43902620251E+02  0.27412357513E+02  0.14520044756E+03  0.12500000000E+03 0.  0.
</event>
<event>
 5    0  0.5655767E-005  0.3443098E+03  0.7546771E-02  0.1064975E+00
         21   -1    0    0  502  501  0.00000000000E+00  0.00000000000E+00  0.83650324786E+02  0.83650324786E+02  0.00000000000E+00 0.  1.
         21   -1    0    0  501  502 -0.00000000000E+00 -0.00000000000E+00 -0.14172002346E+04  0.14172002346E+04  0.00000000000E+00 0.  1.
         25    1    1    2    0    0 -0.23211599352E+03 -0.78663636433E+01 -0.72656216415E+03  0.77295361601E+03  0.12500000000E+03 0.  0.
         25    1    1    2    0    0  0.16774229769E+02 -0.31309968667E+02 -0.10842754202E+03  0.16924308196E+03  0.12500000000E+03 0.  0.
         25    1    1    2    0    0  0.21534176375E+03  0.39176332310E+02 -0.49856020368E+03  0.55865386146E+03  0.12500000000E+03 0.  0.
</event>
<event>
 5    0  0.5655767E-005  0.2735269E+03  0.7546771E-02  0.1099278E+00
         21   -1    0    0  502  501  0.00000000000E+00  0.00000000000E+00  0.71266301030E+03  0.71266301030E+03  0.00000000000E+00 0.  1.
         21   -1    0    0  501  502 -0.00000000000E+00 -0.00000000000E+00 -0.10498226993E+03  0.10498226993E+03  0.00000000000E+00 0.  1.
         25    1    1    2    0    0  0.10901119078E+03 -0.59950895766E+01  0.29231574400E+03  0.33614412832E+03  0.12500000000E+03 0.  0.
         25    1    1    2    0    0 -0.52278284995E+02  0.77346605908E+02  0.32903268428E+02  0.15944635963E+03  0.12500000000E+03 0.  0.
         25    1    1    2    0    0 -0.56732905781E+02 -0.71351516332E+02  0.28246172793E+03  0.32205479227E+03  0.12500000000E+03 0.  0.
</event>
<event>
 5    0  0.5655767E-005  0.2171173E+03  0.7546771E-02  0.1136051E+00
         21   -1    0    0  502  501  0.00000000000E+00  0.00000000000E+00  0.17668403234E+03  0.17668403234E+03  0.00000000000E+00 0. -1.
         21   -1    0    0  501  502 -0.00000000000E+00 -0.00000000000E+00 -0.26680362819E+03  0.26680362819E+03  0.00000000000E+00 0. -1.
         25    1    1    2    0    0 -0.49151179679E+02  0.72511239650E+01 -0.10368628502E+03  0.16983598842E+03  0.12500000000E+03 0.  0.
         25    1    1    2    0    0 -0.23907770030E+02  0.16612139894E+01  0.17894276622E+02  0.12852838689E+03  0.12500000000E+03 0.  0.
         25    1    1    2    0    0  0.73058949709E+02 -0.89123379544E+01 -0.43275874467E+01  0.14512328522E+03  0.12500000000E+03 0.  0.
</event>
<event>
 5    0  0.5655767E-005  0.3156113E+03  0.7546771E-02  0.1077687E+00
         21   -1    0    0  502  501  0.00000000000E+00  0.00000000000E+00  0.97531711523E+03  0.97531711523E+03  0.00000000000E+00 0.  1.
         21   -1    0    0  501  502 -0.00000000000E+00 -0.00000000000E+00 -0.10213141782E+03  0.10213141782E+03  0.00000000000E+00 0.  1.
         25    1    1    2    0    0 -0.12833571509E+03 -0.10657810371E+03  0.62054874051E+03  0.65462560851E+03  0.12500000000E+03 0.  0.
         25    1    1    2    0    0  0.29190265871E+02 -0.25208338644E+02  0.80060393479E+02  0.15336948381E+03  0.12500000000E+03 0.  0.
         25    1    1    2    0    0  0.99145449217E+02  0.13178644236E+03  0.17257656341E+03  0.26945344074E+03  0.12500000000E+03 0.  0.
</event>
<event>
 5    0  0.5655767E-005  0.5231297E+03  0.7546771E-02  0.1007912E+00
         21   -1    0    0  502  501  0.00000000000E+00  0.00000000000E+00  0.66772969515E+03  0.66772969515E+03  0.00000000000E+00 0.  1.
         21   -1    0    0  501  502 -0.00000000000E+00 -0.00000000000E+00 -0.40984344223E+03  0.40984344223E+03  0.00000000000E+00 0.  1.
         25    1    1    2    0    0 -0.12148122119E+03 -0.15519521889E+03  0.41931000734E+03  0.47988449165E+03  0.12500000000E+03 0.  0.
         25    1    1    2    0    0  0.10880508073E+03 -0.14124340321E+03  0.34993492962E+02  0.22053976760E+03  0.12500000000E+03 0.  0.
         25    1    1    2    0    0  0.12676140459E+02  0.29643862210E+03 -0.19641724739E+03  0.37714887814E+03  0.12500000000E+03 0.  0.
</event>
<event>
 5    0  0.5655767E-005  0.2967991E+03  0.7546771E-02  0.1086852E+00
         21   -1    0    0  502  501  0.00000000000E+00  0.00000000000E+00  0.61226186419E+03  0.61226186419E+03  0.00000000000E+00 0.  1.
         21   -1    0    0  501  502 -0.00000000000E+00 -0.00000000000E+00 -0.14387588580E+03  0.14387588580E+03  0.00000000000E+00 0.  1.
         25    1    1    2    0    0  0.71679216705E+02 -0.41515152570E+02  0.14803643925E+03  0.21071593520E+03  0.12500000000E+03 0.  0.
         25    1    1    2    0    0 -0.10679795350E+01  0.78072127256E+02  0.36256706783E+03  0.39137740905E+03  0.12500000000E+03 0.  0.
         25    1    1    2    0    0 -0.70611237170E+02 -0.36556974686E+02 -0.42217528697E+02  0.15404440575E+03  0.12500000000E+03 0.  0.
</event>
<event>
 5    0  0.5655767E-005  0.3081077E+03  0.7546771E-02  0.1081256E+00
         21   -1    0    0  502  501  0.00000000000E+00  0.00000000000E+00  0.15983083856E+04  0.15983083856E+04  0.00000000000E+00 0. -1.
         21   -1    0    0  501  502 -0.00000000000E+00 -0.00000000000E+00 -0.59394282937E+02  0.59394282937E+02  0.00000000000E+00 0. -1.
         25    1    1    2    0    0 -0.16628335156E+03 -0.15402936407E+02  0.32640739419E+03  0.38736828786E+03  0.12500000000E+03 0.  0.
         25    1    1    2    0    0  0.16554543533E+03  0.29800736642E+02  0.43660095638E+03  0.48429202985E+03  0.12500000000E+03 0.  0.
         25    1    1    2    0    0  0.73791622873E+00 -0.14397800235E+02  0.77590575205E+03  0.78604235079E+03  0.12500000000E+03 0.  0.
</event>
<event>
 5    0  0.5655767E-005  0.2648927E+03  0.7546771E-02  0.1104239E+00
         21   -1    0    0  502  501  0.00000000000E+00  0.00000000000E+00  0.12719827873E+04  0.12719827873E+04  0.00000000000E+00 0.  1.
         21   -1    0    0  501  502 -0.00000000000E+00 -0.00000000000E+00 -0.55164387043E+02  0.55164387043E+02  0.00000000000E+00 0.  1.
         25    1    1    2    0    0 -0.43632677867E+02  0.13474578764E+03  0.36971399145E+03  0.41517908586E+03  0.12500000000E+03 0.  0.
         25    1    1    2    0    0  0.91977398777E+02 -0.90987933559E+02  0.32841906549E+03  0.37446325389E+03  0.12500000000E+03 0.  0.
         25    1    1    2    0    0 -0.48344720910E+02 -0.43757854078E+02  0.51868534336E+03  0.53750483463E+03  0.12500000000E+03 0.  0.
</event>
<event>
 5    0  0.5655767E-005  0.3548340E+03  0.7546771E-02  0.1060648E+00
         21   -1    0    0  502  501  0.00000000000E+00  0.00000000000E+00  0.86742491528E+03  0.86742491528E+03  0.00000000000E+00 0.  1.
         21   -1    0    0  501  502 -0.00000000000E+00 -0.00000000000E+00 -0.14515051665E+03  0.14515051665E+03  0.00000000000E+00 0.  1.
         25    1    1    2    0    0  0.18456972280E+03  0.13765323085E+03  0.50201610499E+03  0.56626810276E+03  0.12500000000E+03 0.  0.
         25    1    1    2    0    0  0.60818250000E+01 -0.91836338432E+02  0.78197073468E+02  0.17381220887E+03  0.12500000000E+03 0.  0.
         25    1    1    2    0    0 -0.19065154780E+03 -0.45816892414E+02  0.14206122017E+03  0.27249512030E+03  0.12500000000E+03 0.  0.
</event>
<event>
 5    0  0.5655767E-005  0.3040795E+03  0.7546771E-02  0.1083219E+00
         21   -1    0    0  502  501  0.00000000000E+00  0.00000000000E+00  0.79916686378E+02  0.79916686378E+02  0.00000000000E+00 0. -1.
         21   -1    0    0  501  502 -0.00000000000E+00 -0.00000000000E+00 -0.11570093237E+04  0.11570093237E+04  0.00000000000E+00 0. -1.
         25    1    1    2    0    0  0.18606294723E+02  0.11279725582E+03 -0.15668365072E+03  0.23074700762E+03  0.12500000000E+03 0.  0.
         25    1    1    2    0    0 -0.20549403295E+01 -0.19858260909E+03 -0.39862658158E+03  0.46256613252E+03  0.12500000000E+03 0.  0.
         25    1    1    2    0    0 -0.16551354393E+02  0.85785353272E+02 -0.52178240498E+03  0.54361286989E+03  0.12500000000E+03 0.  0.
</event>
<event>
 5    0  0.5655767E-005  0.3480832E+03  0.7546771E-02  0.1063405E+00
         21   -1    0    0  502  501  0.00000000000E+00  0.00000000000E+00  0.82832764090E+03  0.82832764090E+03  0.00000000000E+00 0. -1.
         21   -1    0    0  501  502 -0.00000000000E+00 -0.00000000000E+00 -0.14627294849E+03  0.14627294849E+03  0.00000000000E+00 0. -1.
         25    1    1    2    0    0 -0.68437156259E+02 -0.70864528594E+01  0.10369276508E+03  0.17638325232E+03  0.12500000000E+03 0.  0.
         25    1    1    2    0    0  0.21556333140E+03  0.61051339689E+02  0.92658457710E+02  0.27277354291E+03  0.12500000000E+03 0.  0.
         25    1    1    2    0    0 -0.14712617515E+03 -0.53964886830E+02  0.48570346962E+03  0.52544379416E+03  0.12500000000E+03 0.  0.
</event>
<event>
 5    0  0.5655767E-005  0.2334307E+03  0.7546771E-02  0.1124248E+00
         21   -1    0    0  502  501  0.00000000000E+00  0.00000000000E+00  0.21617064228E+03  0.21617064228E+03  0.00000000000E+00 0. -1.
         21   -1    0    0  501  502 -0.00000000000E+00 -0.00000000000E+00 -0.25206877813E+03  0.25206877813E+03  0.00000000000E+00 0. -1.
         25    1    1    2    0    0  0.20255176534E+02  0.76112815149E+02 -0.49129298147E+01  0.14782614683E+03  0.12500000000E+03 0.  0.
         25    1    1    2    0    0  0.40507267250E+01 -0.18079035375E+02  0.73119581949E+02  0.14599566148E+03  0.12500000000E+03 0.  0.
         25    1    1    2    0    0 -0.24305903259E+02 -0.58033779774E+02 -0.10410478798E+03  0.17441761209E+03  0.12500000000E+03 0.  0.
</event>
<event>
 5    0  0.5655767E-005  0.2955211E+03  0.7546771E-02  0.1087501E+00
         21   -1    0    0  502  501  0.00000000000E+00  0.00000000000E+00  0.10439043684E+03  0.10439043684E+03  0.00000000000E+00 0.  1.
         21   -1    0    0  501  502 -0.00000000000E+00 -0.00000000000E+00 -0.83659717327E+03  0.83659717327E+03  0.00000000000E+00 0.  1.
         25    1    1    2    0    0 -0.10428558903E+03 -0.98417047332E+01 -0.25621129217E+03  0.30371297217E+03  0.12500000000E+03 0.  0.
         25    1    1    2    0    0 -0.73141104338E+02  0.10992123104E+03 -0.16914126597E+03  0.24832653107E+03  0.12500000000E+03 0.  0.
         25    1    1    2    0    0  0.17742669337E+03 -0.10007952631E+03 -0.30685417828E+03  0.38894810686E+03  0.12500000000E+03 0.  0.
</event>
<event>
 5    0  0.5655767E-005  0.3092680E+03  0.7546771E-02  0.1080697E+00
         21   -1    0    0  502  501  0.00000000000E+00  0.00000000000E+00  0.39488621955E+03  0.39488621955E+03  0.00000000000E+00 0. -1.
         21   -1    0    0  501  502 -0.00000000000E+00 -0.00000000000E+00 -0.24221329553E+03  0.24221329553E+03  0.00000000000E+00 0. -1.
         25    1    1    2    0    0 -0.90089595858E+01  0.84088539682E+02 -0.19567205214E+02  0.15218383416E+03  0.12500000000E+03 0.  0.
         25    1    1    2    0    0 -0.17208321798E+02  0.10618964476E+03  0.19410809371E+03  0.25470633883E+03  0.12500000000E+03 0.  0.
         25    1    1    2    0    0  0.26217281384E+02 -0.19027818444E+03 -0.21867964473E+02  0.23020934210E+03  0.12500000000E+03 0.  0.
</event>
<event>
 5    0  0.5655767E-005  0.3919034E+03  0.7546771E-02  0.1046620E+00
         21   -1    0    0  502  501  0.00000000000E+00  0.00000000000E+00  0.19065232794E+03  0.19065232794E+03  0.00000000000E+00 0. -1.
         21   -1    0    0  501  502 -0.00000000000E+00 -0.00000000000E+00 -0.80559363926E+03  0.80559363926E+03  0.00000000000E+00 0. -1.
         25    1    1    2    0    0 -0.13944693157E+03  0.17245492926E+03 -0.10965172878E+03  0.27719064013E+03  0.12500000000E+03 0.  0.
         25    1    1    2    0    0  0.19121545253E+03 -0.24731695132E+03 -0.24532003499E+03  0.41657645548E+03  0.12500000000E+03 0.  0.
         25    1    1    2    0    0 -0.51768520958E+02  0.74862022056E+02 -0.25996954755E+03  0.30247887159E+03  0.12500000000E+03 0.  0.
</event>
<event>
 5    0  0.5894774E-005  0.4424818E+03  0.7546771E-02  0.1029988E+00
         21   -1    0    0  502  501  0.00000000000E+00  0.00000000000E+00  0.47909670619E+03  0.47909670619E+03  0.00000000000E+00 0.  1.
         21   -1    0    0  501  502 -0.00000000000E+00 -0.00000000000E+00 -0.40866518709E+03  0.40866518709E+03  0.00000000000E+00 0.  1.
         25    1    1    2    0    0 -0.37274456528E+02  0.53707404414E+01  0.28302307330E+03  0.31168139178E+03  0.12500000000E+03 0.  0.
         25    1    1    2    0    0 -0.24618660654E+02  0.22877955258E+03 -0.12186419526E+03  0.28882874548E+03  0.12500000000E+03 0.  0.
         25    1    1    2    0    0  0.61893117182E+02 -0.23415029302E+03 -0.90727358943E+02  0.28725175602E+03  0.12500000000E+03 0.  0.
</event>
<event>
 5    0  0.5655767E-005  0.3035811E+03  0.7546771E-02  0.1083464E+00
         21   -1    0    0  502  501  0.00000000000E+00  0.00000000000E+00  0.22764753196E+03  0.22764753196E+03  0.00000000000E+00 0. -1.
         21   -1    0    0  501  502 -0.00000000000E+00 -0.00000000000E+00 -0.40484278219E+03  0.40484278219E+03  0.00000000000E+00 0. -1.
         25    1    1    2    0    0  0.75742090067E+02 -0.66320917343E+01 -0.23176861147E+03  0.27408491040E+03  0.12500000000E+03 0.  0.
         25    1    1    2    0    0 -0.61691475877E+02 -0.82170823655E+02  0.10899356412E+03  0.19509607755E+03  0.12500000000E+03 0.  0.
         25    1    1    2    0    0 -0.14050614190E+02  0.88802915389E+02 -0.54420202881E+02  0.16330932620E+03  0.12500000000E+03 0.  0.
</event>
<event>
 5    0  0.6141116E-005  0.2995002E+03  0.7546771E-02  0.1085491E+00
         21   -1    0    0  502  501  0.00000000000E+00  0.00000000000E+00  0.13302676528E+03  0.13302676528E+03  0.00000000000E+00 0.  1.
         21   -1    0    0  501  502 -0.00000000000E+00 -0.00000000000E+00 -0.67430300984E+03  0.67430300984E+03  0.00000000000E+00 0.  1.
         25    1    1    2    0    0  0.97142135707E+02  0.33531147144E+02 -0.67289389566E+02  0.17525351439E+03  0.12500000000E+03 0.  0.
         25    1    1    2    0    0 -0.69609211839E+01 -0.96651687292E+02 -0.43238005142E+03  0.46039929621E+03  0.12500000000E+03 0.  0.
         25    1    1    2    0    0 -0.90181214523E+02  0.63120540148E+02 -0.41606803570E+02  0.17167696451E+03  0.12500000000E+03 0.  0.
</event>
<event>
 5    0  0.5655767E-005  0.3060906E+03  0.7546771E-02  0.1082235E+00
         21   -1    0    0  502  501  0.00000000000E+00  0.00000000000E+00  0.24699286134E+03  0.24699286134E+03  0.00000000000E+00 0. -1.
         21   -1    0    0  501  502 -0.00000000000E+00 -0.00000000000E+00 -0.37932859285E+03  0.37932859285E+03  0.00000000000E+00 0. -1.
         25    1    1    2    0    0  0.17249719586E+03 -0.11867112964E+03 -0.54883594917E+02  0.24995065229E+03  0.12500000000E+03 0.  0.
         25    1    1    2    0    0 -0.51570168536E+02  0.13651736499E+03 -0.56512151728E+02  0.20028753461E+03  0.12500000000E+03 0.  0.
         25    1    1    2    0    0 -0.12092702732E+03 -0.17846235345E+02 -0.20939984865E+02  0.17608326729E+03  0.12500000000E+03 0.  0.
</event>
<event>
 5    0  0.5655767E-005  0.3268548E+03  0.7546771E-02  0.1072537E+00
         21   -1    0    0  502  501  0.00000000000E+00  0.00000000000E+00  0.16335567885E+03  0.16335567885E+03  0.00000000000E+00 0.  1.
         21   -1    0    0  501  502 -0.00000000000E+00 -0.00000000000E+00 -0.65399659711E+03  0.65399659711E+03  0.00000000000E+00 0.  1.
         25    1    1    2    0    0 -0.42493913467E+02 -0.27261406527E+02 -0.52872512024E+03  0.54564106310E+03  0.12500000000E+03 0.  0.
         25    1    1    2    0    0  0.58253151997E+02  0.21443604303E+02 -0.13348107994E+01  0.13957091245E+03  0.12500000000E+03 0.  0.
         25    1    1    2    0    0 -0.15759238531E+02  0.58178022239E+01  0.39419012779E+02  0.13214030040E+03  0.12500000000E+03 0.  0.
</event>
<event>
 5    0  0.5655767E-005  0.4880081E+03  0.7546771E-02  0.1016957E+00
         21   -1    0    0  502  501  0.00000000000E+00  0.00000000000E+00  0.12580868740E+04  0.12580868740E+04  0.00000000000E+00 0. -1.
         21   -1    0    0  501  502 -0.00000000000E+00 -0.00000000000E+00 -0.18929683345E+03  0.18929683345E+03  0.00000000000E+00 0. -1.
         25    1    1    2    0    0  0.39359988635E+03 -0.16742460065E+03  0.63698775793E+03  0.77738682211E+03  0.12500000000E+03 0.  0.
         25    1    1    2    0    0 -0.16339986440E+03  0.50483224146E+02  0.10928808495E+03  0.23836307834E+03  0.12500000000E+03 0.  0.
         25    1    1    2    0    0 -0.23020002195E+03  0.11694137650E+03  0.32251419770E+03  0.43163380702E+03  0.12500000000E+03 0.  0.
</event>
<event>
 5    0  0.5655767E-005  0.3068926E+03  0.7546771E-02  0.1081845E+00
         21   -1    0    0  502  501  0.00000000000E+00  0.00000000000E+00  0.26615521025E+03  0.26615521025E+03  0.00000000000E+00 0.  1.
         21   -1    0    0  501  502 -0.00000000000E+00 -0.00000000000E+00 -0.35386529332E+03  0.35386529332E+03  0.00000000000E+00 0.  1.
         25    1    1    2    0    0  0.48046202833E+02  0.30986122951E+02 -0.87738645515E+01  0.13773364920E+03  0.12500000000E+03 0.  0.
         25    1    1    2    0    0  0.14883763878E+03  0.69168435062E+02 -0.96725937309E+02  0.22785482676E+03  0.12500000000E+03 0.  0.
         25    1    1    2    0    0 -0.19688384162E+03 -0.10015455801E+03  0.17789718786E+02  0.25443202761E+03  0.12500000000E+03 0.  0.
</event>
<event>
 5    0  0.5655767E-005  0.3479008E+03  0.7546771E-02  0.1063480E+00
         21   -1    0    0  502  501  0.00000000000E+00  0.00000000000E+00  0.17626913154E+04  0.17626913154E+04  0.00000000000E+00 0.  1.
         21   -1    0    0  501  502 -0.00000000000E+00 -0.00000000000E+00 -0.68664882394E+02  0.68664882394E+02  0.00000000000E+00 0.  1.
         25    1    1    2    0    0  0.21724328917E+02 -0.24395052161E+01  0.18622667449E+03  0.22535144096E+03  0.12500000000E+03 0.  0.
         25    1    1    2    0    0  0.11465220601E+03 -0.66574351322E+02  0.13232480535E+04  0.13357348852E+04  0.12500000000E+03 0.  0.
         25    1    1    2    0    0 -0.13637653492E+03  0.69013856538E+02  0.18455170511E+03  0.27026987167E+03  0.12500000000E+03 0.  0.
</event>
<event>
 5    0  0.5655767E-005  0.2886124E+03  0.7546771E-02  0.1091076E+00
         21   -1    0    0  502  501  0.00000000000E+00  0.00000000000E+00  0.79531018600E+02  0.79531018600E+02  0.00000000000E+00 0. -1.
         21   -1    0    0  501  502 -0.00000000000E+00 -0.00000000000E+00 -0.10473536130E+04  0.10473536130E+04  0.00000000000E+00 0. -1.
         25    1    1    2    0    0 -0.36442012192E+02  0.94290137565E+02 -0.23275974665E+03  0.28287939118E+03  0.12500000000E+03 0.  0.
         25    1    1    2    0    0  0.14406205781E+03  0.47638470456E+02 -0.32689285102E+03  0.38145410787E+03  0.12500000000E+03 0.  0.
         25    1    1    2    0    0 -0.10762004561E+03 -0.14192860802E+03 -0.40816999678E+03  0.46255113259E+03  0.12500000000E+03 0.  0.
</event>
<event>
 5    0  0.5655767E-005  0.5100131E+03  0.7546771E-02  0.1011198E+00
         21   -1    0    0  502  501  0.00000000000E+00  0.00000000000E+00  0.12524840416E+04  0.12524840416E+04  0.00000000000E+00 0.  1.
         21   -1    0    0  501  502 -0.00000000000E+00 -0.00000000000E+00 -0.20767799337E+03  0.20767799337E+03  0.00000000000E+00 0.  1.
         25    1    1    2    0    0  0.17345586698E+03  0.20235129831E+02  0.83698736664E+03  0.86410025470E+03  0.12500000000E+03 0.  0.
         25    1    1    2    0    0 -0.12154214944E+02 -0.38732773830E+02  0.33158430233E+03  0.35668067268E+03  0.12500000000E+03 0.  0.
         25    1    1    2    0    0 -0.16130165203E+03  0.18497643998E+02 -0.12376562075E+03  0.23938110757E+03  0.12500000000E+03 0.  0.
</event>
<event>
 5    0  0.5655767E-005  0.3312725E+03  0.7546771E-02  0.1070575E+00
         21   -1    0    0  502  501  0.00000000000E+00  0.00000000000E+00  0.12128035594E+04  0.12128035594E+04  0.00000000000E+00 0.  1.
         21   -1    0    0  501  502 -0.00000000000E+00 -0.00000000000E+00 -0.90485778993E+02  0.90485778993E+02  0.00000000000E+00 0.  1.
         25    1    1    2    0    0  0.13876567786E+03 -0.61442641338E+02  0.25336954835E+03  0.32070584585E+03  0.12500000000E+03 0.  0.
         25    1    1    2    0    0 -0.17707318602E+03  0.16765714267E+03  0.65697056510E+03  0.71182803690E+03  0.12500000000E+03 0.  0.
         25    1    1    2    0    0  0.38307508160E+02 -0.10621450133E+03  0.21197766692E+03  0.27075545562E+03  0.12500000000E+03 0.  0.
</event>
<event>
 5    0  0.5655767E-005  0.2201298E+03  0.7546771E-02  0.1133786E+00
         21   -1    0    0  502  501  0.00000000000E+00  0.00000000000E+00  0.43066906711E+02  0.43066906711E+02  0.00000000000E+00 0. -1.
         21   -1    0    0  501  502 -0.00000000000E+00 -0.00000000000E+00 -0.11251593637E+04  0.11251593637E+04  0.00000000000E+00 0. -1.
         25    1    1    2    0    0  0.82844686362E+02  0.36890533764E+02 -0.34397774026E+03  0.37705415968E+03  0.12500000000E+03 0.  0.
         25    1    1    2    0    0 -0.54240592077E+02 -0.43177638376E+02 -0.26671621953E+03  0.30260352286E+03  0.12500000000E+03 0.  0.
         25    1    1    2    0    0 -0.28604094285E+02  0.62871046122E+01 -0.47139849721E+03  0.48856858788E+03  0.12500000000E+03 0.  0.
</event>
<event>
 5    0  0.5826933E-005  0.2701611E+03  0.7546771E-02  0.1101187E+00
         21   -1    0    0  502  501  0.00000000000E+00  0.00000000000E+00  0.41676292262E+03  0.41676292262E+03  0.00000000000E+00 0.  1.
         21   -1    0    0  501  502 -0.00000000000E+00 -0.00000000000E+00 -0.17512834390E+03  0.17512834390E+03  0.00000000000E+00 0.  1.
         25    1    1    2    0    0 -0.17243381942E+02 -0.19425069673E+02 -0.47271717113E+02  0.13614067280E+03  0.12500000000E+03 0.  0.
         25    1    1    2    0    0 -0.74549037077E+02  0.95266711821E+02  0.18648539830E+03  0.25501982098E+03  0.12500000000E+03 0.  0.
         25    1    1    2    0    0  0.91792419018E+02 -0.75841642148E+02  0.10242089753E+03  0.20073077274E+03  0.12500000000E+03 0.  0.
</event>
<event>
 5    0  0.6844569E-005  0.2792137E+03  0.7546771E-02  0.1096119E+00
         21   -1    0    0  502  501  0.00000000000E+00  0.00000000000E+00  0.21908476599E+03  0.21908476599E+03  0.00000000000E+00 0. -1.
         21   -1    0    0  501  502 -0.00000000000E+00 -0.00000000000E+00 -0.35584532149E+03  0.35584532149E+03  0.00000000000E+00 0. -1.
         25    1    1    2    0    0 -0.67788060096E+02 -0.58414835614E+02 -0.88307047656E+02  0.17728691090E+03  0.12500000000E+03 0.  0.
         25    1    1    2    0    0  0.17739484096E+03  0.68155257505E+01 -0.62305216073E+00  0.21711925107E+03  0.12500000000E+03 0.  0.
         25    1    1    2    0    0 -0.10960678087E+03  0.51599309864E+02 -0.47830455683E+02  0.18052392551E+03  0.12500000000E+03 0.  0.
</event>
<event>
 5    0  0.5655767E-005  0.3129613E+03  0.7546771E-02  0.1078935E+00
         21   -1    0    0  502  501  0.00000000000E+00  0.00000000000E+00  0.26743148887E+03  0.26743148887E+03  0.00000000000E+00 0. -1.
         21   -1    0    0  501  502 -0.00000000000E+00 -0.00000000000E+00 -0.36624260917E+03  0.36624260917E+03  0.00000000000E+00 0. -1.
         25    1    1    2    0    0 -0.45680059084E+02  0.60708912855E+02 -0.15742293361E+03  0.21489350833E+03  0.12500000000E+03 0.  0.
         25    1    1    2    0    0  0.11101576901E+02 -0.11282227979E+03  0.17038763004E+03  0.23981045910E+03  0.12500000000E+03 0.  0.
         25    1    1    2    0    0  0.34578482183E+02  0.52113366931E+02 -0.11177581672E+03  0.17897013060E+03  0.12500000000E+03 0.  0.
</event>
<event>
 5    0  0.5655767E-005  0.2634711E+03  0.7546771E-02  0.1105075E+00
         21   -1    0    0  502  501  0.00000000000E+00  0.00000000000E+00  0.25405287043E+03  0.25405287043E+03  0.00000000000E+00 0.  1.
         21   -1    0    0  501  502 -0.00000000000E+00 -0.00000000000E+00 -0.27323852960E+03  0.27323852960E+03  0.00000000000E+00 0.  1.
         25    1    1    2    0    0  0.73566079690E+02 -0.48165703834E+02 -0.11723567236E+02  0.15327865192E+03  0.12500000000E+03 0.  0.
         25    1    1    2    0    0 -0.16968209915E+03  0.15838969886E+02  0.13050797954E+02  0.21175035081E+03  0.12500000000E+03 0.  0.
         25    1    1    2    0    0  0.96116019465E+02  0.32326733948E+02 -0.20512889882E+02  0.16226239730E+03  0.12500000000E+03 0.  0.
</event>
<event>
 5    0  0.5655767E-005  0.2449058E+03  0.7546771E-02  0.1116567E+00
         21   -1    0    0  502  501  0.00000000000E+00  0.00000000000E+00  0.80766758474E+03  0.80766758474E+03  0.00000000000E+00 0. -1.
         21   -1    0    0  501  502 -0.00000000000E+00 -0.00000000000E+00 -0.74261774183E+02  0.74261774183E+02  0.00000000000E+00 0. -1.
         25    1    1    2    0    0  0.44394509244E+02  0.37878959729E+02  0.38305597598E+03  0.40713949547E+03  0.12500000000E+03 0.  0.
         25    1    1    2    0    0  0.73305741984E+02 -0.52503239081E+01  0.14368633170E+03  0.20413735481E+03  0.12500000000E+03 0.  0.
         25    1    1    2    0    0 -0.11770025123E+03 -0.32628635821E+02  0.20666350288E+03  0.27065250865E+03  0.12500000000E+03 0.  0.
</event>
<event>
 5    0  0.5655767E-005  0.2511836E+03  0.7546771E-02  0.1112559E+00
         21   -1    0    0  502  501  0.00000000000E+00  0.00000000000E+00  0.73209549660E+03  0.73209549660E+03  0.00000000000E+00 0.  1.
         21   -1    0    0  501  502 -0.00000000000E+00 -0.00000000000E+00 -0.86181687616E+02  0.86181687616E+02  0.00000000000E+00 0.  1.
         25    1    1    2    0    0 -0.34844385069E+02 -0.14313530227E+02  0.12792779990E+03  0.18278274072E+03  0.12500000000E+03 0.  0.
         25    1    1    2    0    0  0.14243407343E+03 -0.23784159564E+02  0.33930829896E+03  0.38936907076E+03  0.12500000000E+03 0.  0.
         25    1    1    2    0    0 -0.10758968836E+03  0.38097689791E+02  0.17867771012E+03  0.24612537274E+03  0.12500000000E+03 0.  0.
</event>
<event>
 5    0  0.5655767E-005  0.2171483E+03  0.7546771E-02  0.1136027E+00
         21   -1    0    0  502  501  0.00000000000E+00  0.00000000000E+00  0.76174371692E+02  0.76174371692E+02  0.00000000000E+00 0.  1.
         21   -1    0    0  501  502 -0.00000000000E+00 -0.00000000000E+00 -0.61901910073E+03  0.61901910073E+03  0.00000000000E+00 0.  1.
         25    1    1    2    0    0  0.32872801056E+02 -0.68349523758E+02 -0.21811829614E+03  0.26258878415E+03  0.12500000000E+03 0.  0.
         25    1    1    2    0    0  0.47401236960E+01  0.62673428684E+02 -0.23703126668E+03  0.27524398053E+03  0.12500000000E+03 0.  0.
         25    1    1    2    0    0 -0.37612924752E+02  0.56760950742E+01 -0.87695166216E+02  0.15736070774E+03  0.12500000000E+03 0.  0.
</event>
<event>
 5    0  0.5655767E-005  0.3214614E+03  0.7546771E-02  0.1074979E+00
         21   -1    0    0  502  501  0.00000000000E+00  0.00000000000E+00  0.14186078274E+04  0.14186078274E+04  0.00000000000E+00 0. -1.
         21   -1    0    0  501  502 -0.00000000000E+00 -0.00000000000E+00 -0.72844277849E+02  0.72844277849E+02  0.00000000000E+00 0. -1.
         25    1    1    2    0    0 -0.14799165757E+03  0.17650263300E+03  0.43141685722E+03  0.50477739139E+03  0.12500000000E+03 0.  0.
         25    1    1    2    0    0  0.10996512183E+03 -0.28456780389E+02  0.49837233749E+03  0.52621488305E+03  0.12500000000E+03 0.  0.
         25    1    1    2    0    0  0.38026535743E+02 -0.14804585262E+03  0.41597435481E+03  0.46045983077E+03  0.12500000000E+03 0.  0.
</event>
<event>
 5    0  0.6124714E-005  0.2955260E+03  0.7546771E-02  0.1087499E+00
         21   -1    0    0  502  501  0.00000000000E+00  0.00000000000E+00  0.52528475898E+03  0.52528475898E+03  0.00000000000E+00 0. -1.
         21   -1    0    0  501  502 -0.00000000000E+00 -0.00000000000E+00 -0.16626342768E+03  0.16626342768E+03  0.00000000000E+00 0. -1.
         25    1    1    2    0    0 -0.20499387806E+03  0.40220473036E+02  0.76010103996E+02  0.25503472783E+03  0.12500000000E+03 0.  0.
         25    1    1    2    0    0  0.12582885046E+03 -0.14653084504E+02  0.11865937025E+03  0.21389871117E+03  0.12500000000E+03 0.  0.
         25    1    1    2    0    0  0.79165027594E+02 -0.25567388532E+02  0.16435185706E+03  0.22261474764E+03  0.12500000000E+03 0.  0.
</event>
<event>
 5    0  0.5802686E-005  0.4243936E+03  0.7546771E-02  0.1035646E+00
         21   -1    0    0  502  501  0.00000000000E+00  0.00000000000E+00  0.78685494239E+03  0.78685494239E+03  0.00000000000E+00 0.  1.
         21   -1    0    0  501  502 -0.00000000000E+00 -0.00000000000E+00 -0.22889851092E+03  0.22889851092E+03  0.00000000000E+00 0.  1.
         25    1    1    2    0    0 -0.25651376238E+03 -0.82316820164E+02  0.77405470176E+02  0.30690711296E+03  0.12500000000E+03 0.  0.
         25    1    1    2    0    0  0.10633932907E+03  0.22546712051E+03  0.25803871480E+03  0.37993743389E+03  0.12500000000E+03 0.  0.
         25    1    1    2    0    0  0.15017443331E+03 -0.14315030034E+03  0.22251224650E+03  0.32890890646E+03  0.12500000000E+03 0.  0.
</event>
<event>
 5    0  0.5794621E-005  0.2763715E+03  0.7546771E-02  0.1097687E+00
         21   -1    0    0  502  501  0.00000000000E+00  0.00000000000E+00  0.36324598458E+03  0.36324598458E+03  0.00000000000E+00 0. -1.
         21   -1    0    0  501  502 -0.00000000000E+00 -0.00000000000E+00 -0.21027400226E+03  0.21027400226E+03  0.00000000000E+00 0. -1.
         25    1    1    2    0    0 -0.28696642332E+02  0.45893048382E+02  0.16564016529E+03  0.21445590113E+03  0.12500000000E+03 0.  0.
         25    1    1    2    0    0  0.17755576874E+02 -0.10848165964E+03  0.86236812361E+02  0.18747084785E+03  0.12500000000E+03 0.  0.
         25    1    1    2    0    0  0.10941065458E+02  0.62588611261E+02 -0.98904995336E+02  0.17159323785E+03  0.12500000000E+03 0.  0.
</event>
<event>
 5    0  0.5655767E-005  0.2593280E+03  0.7546771E-02  0.1107548E+00
         21   -1    0    0  502  501  0.00000000000E+00  0.00000000000E+00  0.35334998488E+03  0.35334998488E+03  0.00000000000E+00 0.  1.
         21   -1    0    0  501  502 -0.00000000000E+00 -0.00000000000E+00 -0.19032413624E+03  0.19032413624E+03  0.00000000000E+00 0.  1.
         25    1    1    2    0    0 -0.93436806102E+01  0.56439385082E+02 -0.89511070993E+02  0.16404249567E+03  0.12500000000E+03 0.  0.
         25    1    1    2    0    0  0.13949886675E+02  0.19913320315E+02  0.16677896659E+03  0.20983651579E+03  0.12500000000E+03 0.  0.
         25    1    1    2    0    0 -0.46062060651E+01 -0.76352705396E+02  0.85757953047E+02  0.16979510967E+03  0.12500000000E+03 0.  0.
</event>
<event>
 5    0  0.5655767E-005  0.2840019E+03  0.7546771E-02  0.1093523E+00
         21   -1    0    0  502  501  0.00000000000E+00  0.00000000000E+00  0.14813758908E+03  0.14813758908E+03  0.00000000000E+00 0. -1.
         21   -1    0    0  501  502 -0.00000000000E+00 -0.00000000000E+00 -0.54447424750E+03  0.54447424750E+03  0.00000000000E+00 0. -1.
         25    1    1    2    0    0  0.66834731499E+02  0.64320706925E+02 -0.22679806737E+03  0.27507525886E+03  0.12500000000E+03 0.  0.
         25    1    1    2    0    0  0.93104799189E+02  0.13809105533E+02 -0.30594997841E+02  0.15943728836E+03  0.12500000000E+03 0.  0.
         25    1    1    2    0    0 -0.15993953069E+03 -0.78129812458E+02 -0.13894359321E+03  0.25809928936E+03  0.12500000000E+03 0.  0.
</event>
<event>
 5    0  0.5655767E-005  0.2481298E+03  0.7546771E-02  0.1114492E+00
         21   -1    0    0  502  501  0.00000000000E+00  0.00000000000E+00  0.51641238544E+02  0.51641238544E+02  0.00000000000E+00 0. -1.
         21   -1    0    0  501  502 -0.00000000000E+00 -0.00000000000E+00 -0.11922333817E+04  0.11922333817E+04  0.00000000000E+00 0. -1.
         25    1    1    2    0    0 -0.25457251265E+02 -0.26557513869E+02 -0.47172112923E+03  0.48938655166E+03  0.12500000000E+03 0.  0.
         25    1    1    2    0    0  0.11419485077E+03  0.59458795211E+02 -0.25411572281E+03  0.31108778962E+03  0.12500000000E+03 0.  0.
         25    1    1    2    0    0 -0.88737599506E+02 -0.32901281342E+02 -0.41475529116E+03  0.44340027901E+03  0.12500000000E+03 0.  0.
</event>
<event>
 5    0  0.5655767E-005  0.2809959E+03  0.7546771E-02  0.1095146E+00
         21   -1    0    0  502  501  0.00000000000E+00  0.00000000000E+00  0.34921578255E+02  0.34921578255E+02  0.00000000000E+00 0. -1.
         21   -1    0    0  501  502 -0.00000000000E+00 -0.00000000000E+00 -0.22610295890E+04  0.22610295890E+04  0.00000000000E+00 0. -1.
         25    1    1    2    0    0 -0.10608563106E+03 -0.14255832099E+03 -0.75744029801E+03  0.78798340151E+03  0.12500000000E+03 0.  0.
         25    1    1    2    0    0  0.10266214872E+02  0.74713162913E+02 -0.96321160201E+03  0.97421201087E+03  0.12500000000E+03 0.  0.
         25    1    1    2    0    0  0.95819416189E+02  0.67845158074E+02 -0.50545611070E+03  0.53375575485E+03  0.12500000000E+03 0.  0.
</event>
<event>
 5    0  0.5655767E-005  0.3027123E+03  0.7546771E-02  0.1083893E+00
         21   -1    0    0  502  501  0.00000000000E+00  0.00000000000E+00  0.26036654235E+04  0.26036654235E+04  0.00000000000E+00 0. -1.
         21   -1    0    0  501  502 -0.00000000000E+00 -0.00000000000E+00 -0.35194509696E+02  0.35194509696E+02  0.00000000000E+00 0. -1.
         25    1    1    2    0    0  0.15399032411E+02 -0.22618761197E+02  0.56772201740E+03  0.58196394012E+03  0.12500000000E+03 0.  0.
         25    1    1    2    0    0  0.16952343501E+03  0.85310544902E+02  0.12725312686E+04  0.12926627223E+04  0.12500000000E+03 0.  0.
         25    1    1    2    0    0 -0.18492246742E+03 -0.62691783705E+02  0.72821762777E+03  0.76423327073E+03  0.12500000000E+03 0.  0.
</event>
<event>
 5    0  0.5655767E-005  0.2986819E+03  0.7546771E-02  0.1085901E+00
         21   -1    0    0  502  501  0.00000000000E+00  0.00000000000E+00  0.14427042497E+03  0.14427042497E+03  0.00000000000E+00 0.  1.
         21   -1    0    0  501  502 -0.00000000000E+00 -0.00000000000E+00 -0.61835859812E+03  0.61835859812E+03  0.00000000000E+00 0.  1.
         25    1    1    2    0    0 -0.52047878677E+00  0.18565270793E+03 -0.15726482811E+03  0.27354053634E+03  0.12500000000E+03 0.  0.
         25    1    1    2    0    0 -0.97226602721E+02 -0.59658540352E+02 -0.12872994510E+03  0.21262302904E+03  0.12500000000E+03 0.  0.
         25    1    1    2    0    0  0.97747081508E+02 -0.12599416758E+03 -0.18809339994E+03  0.27646545772E+03  0.12500000000E+03 0.  0.
</event>
<event>
 5    0  0.5655767E-005  0.2770075E+03  0.7546771E-02  0.1097335E+00
         21   -1    0    0  502  501  0.00000000000E+00  0.00000000000E+00  0.48051145170E+03  0.48051145170E+03  0.00000000000E+00 0. -1.
         21   -1    0    0  501  502 -0.00000000000E+00 -0.00000000000E+00 -0.15969059437E+03  0.15969059437E+03  0.00000000000E+00 0. -1.
         25    1    1    2    0    0 -0.32571780952E+02 -0.27249283248E+02  0.16932097512E+03  0.21470453411E+03  0.12500000000E+03 0.  0.
         25    1    1    2    0    0  0.53829150617E+02  0.16145675410E+03  0.10104981579E+03  0.23409811228E+03  0.12500000000E+03 0.  0.
         25    1    1    2    0    0 -0.21257369665E+02 -0.13420747085E+03  0.50450066427E+02  0.19139939968E+03  0.12500000000E+03 0.  0.
</event>
<event>
 5    0  0.5655767E-005  0.2764323E+03  0.7546771E-02  0.1097654E+00
         21   -1    0    0  502  501  0.00000000000E+00  0.00000000000E+00  0.22401945853E+04  0.22401945853E+04  0.00000000000E+00 0. -1.
         21   -1    0    0  501  502 -0.00000000000E+00 -0.00000000000E+00 -0.34110782103E+02  0.34110782103E+02  0.00000000000E+00 0. -1.
         25    1    1    2    0    0 -0.41505757612E+02 -0.46124061200E+02  0.82664055711E+03  0.83833750221E+03  0.12500000000E+03 0.  0.
         25    1    1    2    0    0  0.29533533422E+02 -0.12448895085E+03  0.48946463168E+03  0.52112412547E+03  0.12500000000E+03 0.  0.
         25    1    1    2    0    0  0.11972224189E+02  0.17061301205E+03  0.88997861443E+03  0.91484373976E+03  0.12500000000E+03 0.  0.
</event>
<event>
 5    0  0.5655767E-005  0.3949491E+03  0.7546771E-02  0.1045543E+00
         21   -1    0    0  502  501  0.00000000000E+00  0.00000000000E+00  0.18310396644E+03  0.18310396644E+03  0.00000000000E+00 0.  1.
         21   -1    0    0  501  502 -0.00000000000E+00 -0.00000000000E+00 -0.85189176488E+03  0.85189176488E+03  0.00000000000E+00 0.  1.
         25    1    1    2    0    0 -0.73812798625E+02 -0.64508464779E+02  0.94000945889E+02  0.18458290576E+03  0.12500000000E+03 0.  0.
         25    1    1    2    0    0  0.14203987094E+03  0.81360336252E+02 -0.28543193075E+03  0.35198184093E+03  0.12500000000E+03 0.  0.
         25    1    1    2    0    0 -0.68227072314E+02 -0.16851871473E+02 -0.47735681359E+03  0.49843098464E+03  0.12500000000E+03 0.  0.
</event>
<event>
 5    0  0.5655767E-005  0.4375258E+03  0.7546771E-02  0.1031509E+00
         21   -1    0    0  502  501  0.00000000000E+00  0.00000000000E+00  0.80368938373E+03  0.80368938373E+03  0.00000000000E+00 0.  1.
         21   -1    0    0  501  502 -0.00000000000E+00 -0.00000000000E+00 -0.23818754390E+03  0.23818754390E+03  0.00000000000E+00 0.  1.
         25    1    1    2    0    0 -0.17064049857E+03  0.47669674291E+02  0.13839270414E+02  0.21727195632E+03  0.12500000000E+03 0.  0.
         25    1    1    2    0    0  0.12013784684E+03 -0.28824778373E+03  0.32333587029E+03  0.46657365130E+03  0.12500000000E+03 0.  0.
         25    1    1    2    0    0  0.50502651731E+02  0.24057810944E+03  0.22832669913E+03  0.35803132001E+03  0.12500000000E+03 0.  0.
</event>
<event>
 5    0  0.5655767E-005  0.5853747E+03  0.7546771E-02  0.9936222E-01
         21   -1    0    0  502  501  0.00000000000E+00  0.00000000000E+00  0.11127203869E+03  0.11127203869E+03  0.00000000000E+00 0. -1.
         21   -1    0    0  501  502 -0.00000000000E+00 -0.00000000000E+00 -0.30795114843E+04  0.30795114843E+04  0.00000000000E+00 0. -1.
         25    1    1    2    0    0 -0.13247175886E+03 -0.13768797182E+03 -0.64774156791E+03  0.68680483638E+03  0.12500000000E+03 0.  0.
         25    1    1    2    0    0  0.35267150030E+03  0.33959941648E+03 -0.19380135267E+04  0.20028046287E+04  0.12500000000E+03 0.  0.
         25    1    1    2    0    0 -0.22019974144E+03 -0.20191144466E+03 -0.38248435092E+03  0.50117405790E+03  0.12500000000E+03 0.  0.
</event>
<event>
 5    0  0.5655767E-005  0.2702777E+03  0.7546771E-02  0.1101121E+00
         21   -1    0    0  502  501  0.00000000000E+00  0.00000000000E+00  0.52988565345E+02  0.52988565345E+02  0.00000000000E+00 0. -1.
         21   -1    0    0  501  502 -0.00000000000E+00 -0.00000000000E+00 -0.13785999730E+04  0.13785999730E+04  0.00000000000E+00 0. -1.
         25    1    1    2    0    0 -0.42550417756E+02 -0.10541730718E+03 -0.21842134607E+03  0.27614530799E+03  0.12500000000E+03 0.  0.
         25    1    1    2    0    0 -0.98306586822E+01  0.24007937813E+02 -0.22068876107E+03  0.25495401976E+03  0.12500000000E+03 0.  0.
         25    1    1    2    0    0  0.52381076438E+02  0.81409369367E+02 -0.88650130046E+03  0.90048921055E+03  0.12500000000E+03 0.  0.
</event>
<event>
 5    0  0.5655767E-005  0.3269736E+03  0.7546771E-02  0.1072484E+00
         21   -1    0    0  502  501  0.00000000000E+00  0.00000000000E+00  0.16904271408E+03  0.16904271408E+03  0.00000000000E+00 0. -1.
         21   -1    0    0  501  502 -0.00000000000E+00 -0.00000000000E+00 -0.63245387294E+03  0.63245387294E+03  0.00000000000E+00 0. -1.
         25    1    1    2    0    0  0.38150345474E+02  0.57034372645E+02 -0.48229831278E+02  0.15053067843E+03  0.12500000000E+03 0.  0.
         25    1    1    2    0    0 -0.42193090109E+02  0.15584884540E+03 -0.50124067046E+02  0.21025351736E+03  0.12500000000E+03 0.  0.
         25    1    1    2    0    0  0.40427446351E+01 -0.21288321804E+03 -0.36505726054E+03  0.44071239122E+03  0.12500000000E+03 0.  0.
</event>
<event>
 5    0  0.5655767E-005  0.4792761E+03  0.7546771E-02  0.1019334E+00
         21   -1    0    0  502  501  0.00000000000E+00  0.00000000000E+00  0.27194239282E+03  0.27194239282E+03  0.00000000000E+00 0.  1.
         21   -1    0    0  501  502 -0.00000000000E+00 -0.00000000000E+00 -0.84468468924E+03  0.84468468924E+03  0.00000000000E+00 0.  1.
         25    1    1    2    0    0  0.65875830076E+02  0.16261055813E+03  0.97289753830E+01  0.21564199861E+03  0.12500000000E+03 0.  0.
         25    1    1    2    0    0 -0.48369903118E+02 -0.36892110952E+03 -0.18087698418E+03  0.43218504831E+03  0.12500000000E+03 0.  0.
         25    1    1    2    0    0 -0.17505926958E+02  0.20631055139E+03 -0.40159428762E+03  0.46880003513E+03  0.12500000000E+03 0.  0.
</event>
<event>
 5    0  0.5655767E-005  0.4054128E+03  0.7546771E-02  0.1041921E+00
         21   -1    0    0  502  501  0.00000000000E+00  0.00000000000E+00  0.84224032962E+03  0.84224032962E+03  0.00000000000E+00 0. -1.
         21   -1    0    0  501  502 -0.00000000000E+00 -0.00000000000E+00 -0.19514565470E+03  0.19514565470E+03  0.00000000000E+00 0. -1.
         25    1    1    2    0    0 -0.13353819780E+03 -0.11073648084E+03  0.69185288800E+03  0.72414117208E+03  0.12500000000E+03 0.  0.
         25    1    1    2    0    0  0.48634363143E+02  0.63169479581E+02 -0.44616365633E+02  0.15482669186E+03  0.12500000000E+03 0.  0.
         25    1    1    2    0    0  0.84903834652E+02  0.47567001261E+02 -0.14184744254E+00  0.15841812039E+03  0.12500000000E+03 0.  0.
</event>
<event>
 5    0  0.5655767E-005  0.2587430E+03  0.7546771E-02  0.1107901E+00
         21   -1    0    0  502  501  0.00000000000E+00  0.00000000000E+00  0.23835545808E+03  0.23835545808E+03  0.00000000000E+00 0. -1.
         21   -1    0    0  501  502 -0.00000000000E+00 -0.00000000000E+00 -0.28087442116E+03  0.28087442116E+03  0.00000000000E+00 0. -1.
         25    1    1    2    0    0 -0.87063374548E+02 -0.70782536604E+02 -0.14732714629E+02  0.16861865720E+03  0.12500000000E+03 0.  0.
         25    1    1    2    0    0  0.25746856373E+02 -0.68014593987E+02  0.25674096295E+02  0.14687765259E+03  0.12500000000E+03 0.  0.
         25    1    1    2    0    0  0.61316518175E+02  0.13879713059E+03 -0.53460344748E+02  0.20373356945E+03  0.12500000000E+03 0.  0.
</event>
<event>
 5    0  0.5655767E-005  0.2392937E+03  0.7546771E-02  0.1120264E+00
         21   -1    0    0  502  501  0.00000000000E+00  0.00000000000E+00  0.92903892655E+03  0.92903892655E+03  0.00000000000E+00 0.  1.
         21   -1    0    0  501  502 -0.00000000000E+00 -0.00000000000E+00 -0.61635190241E+02  0.61635190241E+02  0.00000000000E+00 0.  1.
         25    1    1    2    0    0 -0.29393162046E+02 -0.56854831302E+01  0.41520456808E+03  0.43464481597E+03  0.12500000000E+03 0.  0.
         25    1    1    2    0    0 -0.72773870068E+02  0.84641826371E+01  0.12581857763E+03  0.19189318130E+03  0.12500000000E+03 0.  0.
         25    1    1    2    0    0  0.10216703211E+03 -0.27786995070E+01  0.32638059060E+03  0.36413611952E+03  0.12500000000E+03 0.  0.
</event>
<event>
 5    0  0.5655767E-005  0.3789192E+03  0.7546771E-02  0.1051334E+00
         21   -1    0    0  502  501  0.00000000000E+00  0.00000000000E+00  0.89220595156E+02  0.89220595156E+02  0.00000000000E+00 0.  1.
         21   -1    0    0  501  502 -0.00000000000E+00 -0.00000000000E+00 -0.16092666522E+04  0.16092666522E+04  0.00000000000E+00 0.  1.
         25    1    1    2    0    0  0.16871096571E+02  0.22842427549E+03 -0.57226828741E+03  0.62895013817E+03  0.12500000000E+03 0.  0.
         25    1    1    2    0    0 -0.89523677170E+02 -0.29133680600E+03 -0.54270286072E+03  0.63485669118E+03  0.12500000000E+03 0.  0.
         25    1    1    2    0    0  0.72652580599E+02  0.62912530514E+02 -0.40507490891E+03  0.43468041800E+03  0.12500000000E+03 0.  0.
</event>
<event>
 5    0  0.5655767E-005  0.4314530E+03  0.7546771E-02  0.1033402E+00
         21   -1    0    0  502  501  0.00000000000E+00  0.00000000000E+00  0.19412984939E+03  0.19412984939E+03  0.00000000000E+00 0. -1.
         21   -1    0    0  501  502 -0.00000000000E+00 -0.00000000000E+00 -0.95890303483E+03  0.95890303483E+03  0.00000000000E+00 0. -1.
         25    1    1    2    0    0  0.20092529106E+03  0.69332316620E+02 -0.17601784910E+03  0.30296076630E+03  0.12500000000E+03 0.  0.
         25    1    1    2    0    0 -0.27646714007E+03  0.45337153350E+02 -0.58931178103E+03  0.66438160140E+03  0.12500000000E+03 0.  0.
         25    1    1    2    0    0  0.75541849006E+02 -0.11466946997E+03  0.55644469138E+00  0.18569051652E+03  0.12500000000E+03 0.  0.
</event>
<event>
 5    0  0.5655767E-005  0.4521943E+03  0.7546771E-02  0.1027070E+00
         21   -1    0    0  502  501  0.00000000000E+00  0.00000000000E+00  0.19628630342E+04  0.19628630342E+04  0.00000000000E+00 0. -1.
         21   -1    0    0  501  502 -0.00000000000E+00 -0.00000000000E+00 -0.10417418699E+03  0.10417418699E+03  0.00000000000E+00 0. -1.
         25    1    1    2    0    0  0.23552059672E+03 -0.30758543265E+03  0.95348193323E+03  0.10367408292E+04  0.12500000000E+03 0.  0.
         25    1    1    2    0    0 -0.14901868001E+03  0.93860173686E+02  0.29054852835E+03  0.36202174869E+03  0.12500000000E+03 0.  0.
         25    1    1    2    0    0 -0.86501916706E+02  0.21372525896E+03  0.61465838566E+03  0.66827464337E+03  0.12500000000E+03 0.  0.
</event>
<event>
 5    0  0.5655767E-005  0.2488328E+03  0.7546771E-02  0.1114045E+00
         21   -1    0    0  502  501  0.00000000000E+00  0.00000000000E+00  0.13488444810E+03  0.13488444810E+03  0.00000000000E+00 0.  1.
         21   -1    0    0  501  502 -0.00000000000E+00 -0.00000000000E+00 -0.45904308444E+03  0.45904308444E+03  0.00000000000E+00 0.  1.
         25    1    1    2    0    0  0.10285212831E+03  0.20580111322E+02 -0.17036589681E+03  0.23590599839E+03  0.12500000000E+03 0.  0.
         25    1    1    2    0    0 -0.13987913718E+03 -0.17748397676E+02 -0.11971091151E+03  0.22324175455E+03  0.12500000000E+03 0.  0.
         25    1    1    2    0    0  0.37027008871E+02 -0.28317136456E+01 -0.34081828021E+02  0.13477977960E+03  0.12500000000E+03 0.  0.
</event>
<event>
 5    0  0.5655767E-005  0.2747207E+03  0.7546771E-02  0.1098608E+00
         21   -1    0    0  502  501  0.00000000000E+00  0.00000000000E+00  0.76645699975E+03  0.76645699975E+03  0.00000000000E+00 0.  1.
         21   -1    0    0  501  502 -0.00000000000E+00 -0.00000000000E+00 -0.98467965901E+02  0.98467965901E+02  0.00000000000E+00 0.  1.
         25    1    1    2    0    0 -0.85024969102E+02 -0.31143962467E+02  0.16122754170E+03  0.22320060925E+03  0.12500000000E+03 0.  0.
         25    1    1    2    0    0 -0.66415160771E+02  0.11209624356E+03  0.25263930537E+03  0.31052883927E+03  0.12500000000E+03 0.  0.
         25    1    1    2    0    0  0.15144012987E+03 -0.80952281095E+02  0.25412218678E+03  0.33119551713E+03  0.12500000000E+03 0.  0.
</event>
<event>
 5    0  0.5887987E-005  0.3765553E+03  0.7546771E-02  0.1052214E+00
         21   -1    0    0  502  501  0.00000000000E+00  0.00000000000E+00  0.24723338230E+03  0.24723338230E+03  0.00000000000E+00 0.  1.
         21   -1    0    0  501  502 -0.00000000000E+00 -0.00000000000E+00 -0.57352237569E+03  0.57352237569E+03  0.00000000000E+00 0.  1.
         25    1    1    2    0    0 -0.47188164571E+02  0.16033990650E+03 -0.75029113245E+01  0.20884659961E+03  0.12500000000E+03 0.  0.
         25    1    1    2    0    0  0.13731022684E+03 -0.49625834567E+02 -0.36862548289E+03  0.41572414951E+03  0.12500000000E+03 0.  0.
         25    1    1    2    0    0 -0.90122062265E+02 -0.11071407193E+03  0.49839400819E+02  0.19618500887E+03  0.12500000000E+03 0.  0.
</event>
<event>
 5    0  0.5655767E-005  0.3562996E+03  0.7546771E-02  0.1060059E+00
         21   -1    0    0  502  501  0.00000000000E+00  0.00000000000E+00  0.11964994621E+04  0.11964994621E+04  0.00000000000E+00 0.  1.
         21   -1    0    0  501  502 -0.00000000000E+00 -0.00000000000E+00 -0.10610067369E+03  0.10610067369E+03  0.00000000000E+00 0.  1.
         25    1    1    2    0    0  0.99026502340E+02  0.25013306350E+00  0.10206671094E+03  0.18933812140E+03  0.12500000000E+03 0.  0.
         25    1    1    2    0    0  0.10992408787E+03 -0.92861641352E+02  0.69633122992E+03  0.72194790068E+03  0.12500000000E+03 0.  0.
         25    1    1    2    0    0 -0.20895059021E+03  0.92611508289E+02  0.29200084756E+03  0.39131411371E+03  0.12500000000E+03 0.  0.
</event>
<event>
 5    0  0.5655767E-005  0.3812911E+03  0.7546771E-02  0.1050458E+00
         21   -1    0    0  502  501  0.00000000000E+00  0.00000000000E+00  0.65448439513E+03  0.65448439513E+03  0.00000000000E+00 0. -1.
         21   -1    0    0  501  502 -0.00000000000E+00 -0.00000000000E+00 -0.22213354574E+03  0.22213354574E+03  0.00000000000E+00 0. -1.
         25    1    1    2    0    0 -0.15065959254E+02  0.92470071785E+02  0.37792754651E+03  0.40894000503E+03  0.12500000000E+03 0.  0.
         25    1    1    2    0    0  0.24598817084E+02 -0.82318938701E+02  0.21536701194E+03  0.26341879071E+03  0.12500000000E+03 0.  0.
         25    1    1    2    0    0 -0.95328578301E+01 -0.10151133084E+02 -0.16094370906E+03  0.20425914512E+03  0.12500000000E+03 0.  0.
</event>
<event>
 5    0  0.5655767E-005  0.3332016E+03  0.7546771E-02  0.1069729E+00
         21   -1    0    0  502  501  0.00000000000E+00  0.00000000000E+00  0.61803192441E+02  0.61803192441E+02  0.00000000000E+00 0. -1.
         21   -1    0    0  501  502 -0.00000000000E+00 -0.00000000000E+00 -0.17964003870E+04  0.17964003870E+04  0.00000000000E+00 0. -1.
         25    1    1    2    0    0  0.12236686048E+03  0.53085288923E+02 -0.69147159730E+03  0.71522700334E+03  0.12500000000E+03 0.  0.
         25    1    1    2    0    0  0.13034767450E+03 -0.88898849927E+01 -0.44170562979E+03  0.47728231655E+03  0.12500000000E+03 0.  0.
         25    1    1    2    0    0 -0.25271453498E+03 -0.44195403930E+02 -0.60141996744E+03  0.66569425951E+03  0.12500000000E+03 0.  0.
</event>
<event>
 5    0  0.5655767E-005  0.3371308E+03  0.7546771E-02  0.1068025E+00
         21   -1    0    0  502  501  0.00000000000E+00  0.00000000000E+00  0.14692288172E+03  0.14692288172E+03  0.00000000000E+00 0. -1.
         21   -1    0    0  501  502 -0.00000000000E+00 -0.00000000000E+00 -0.77358394163E+03  0.77358394163E+03  0.00000000000E+00 0. -1.
         25    1    1    2    0    0 -0.78662380453E+02  0.19365476604E+03 -0.29691188663E+03  0.38402032098E+03  0.12500000000E+03 0.  0.
         25    1    1    2    0    0 -0.10215735611E+02  0.46796479372E+02 -0.14133692417E+03  0.19466740320E+03  0.12500000000E+03 0.  0.
         25    1    1    2    0    0  0.88878116065E+02 -0.24045124541E+03 -0.18841224912E+03  0.34181909916E+03  0.12500000000E+03 0.  0.
</event>
<event>
 5    0  0.5655767E-005  0.5944136E+03  0.7546771E-02  0.9917064E-01
         21   -1    0    0  502  501  0.00000000000E+00  0.00000000000E+00  0.16800749078E+04  0.16800749078E+04  0.00000000000E+00 0. -1.
         21   -1    0    0  501  502 -0.00000000000E+00 -0.00000000000E+00 -0.21030465053E+03  0.21030465053E+03  0.00000000000E+00 0. -1.
         25    1    1    2    0    0 -0.10537593971E+03 -0.33707567743E+03  0.13230084654E+04  0.13750274545E+04  0.12500000000E+03 0.  0.
         25    1    1    2    0    0  0.26461724919E+02  0.24142006498E+03  0.19161446124E+03  0.33365397107E+03  0.12500000000E+03 0.  0.
         25    1    1    2    0    0  0.78914214789E+02  0.95655612459E+02 -0.44852669417E+02  0.18169813275E+03  0.12500000000E+03 0.  0.
</event>
<event>
 5    0  0.5655767E-005  0.3474796E+03  0.7546771E-02  0.1063654E+00
         21   -1    0    0  502  501  0.00000000000E+00  0.00000000000E+00  0.14177207809E+04  0.14177207809E+04  0.00000000000E+00 0. -1.
         21   -1    0    0  501  502 -0.00000000000E+00 -0.00000000000E+00 -0.85166333226E+02  0.85166333226E+02  0.00000000000E+00 0. -1.
         25    1    1    2    0    0 -0.94288498567E+02  0.10025322912E+03  0.17648073258E+03  0.25634250503E+03  0.12500000000E+03 0.  0.
         25    1    1    2    0    0  0.21737009230E+03 -0.13661683724E+03  0.75850280611E+03  0.81047234630E+03  0.12500000000E+03 0.  0.
         25    1    1    2    0    0 -0.12308159373E+03  0.36363608114E+02  0.39757090896E+03  0.43607226277E+03  0.12500000000E+03 0.  0.
</event>
<event>
 5    0  0.5655767E-005  0.3192749E+03  0.7546771E-02  0.1075984E+00
         21   -1    0    0  502  501  0.00000000000E+00  0.00000000000E+00  0.12628760938E+03  0.12628760938E+03  0.00000000000E+00 0.  1.
         21   -1    0    0  501  502 -0.00000000000E+00 -0.00000000000E+00 -0.80717701153E+03  0.80717701153E+03  0.00000000000E+00 0.  1.
         25    1    1    2    0    0  0.33390597236E+02  0.13332775081E+03 -0.47238133164E+03  0.50760254492E+03  0.12500000000E+03 0.  0.
         25    1    1    2    0    0  0.50301384523E+02 -0.86519960337E+02  0.53760408676E+01  0.16021808461E+03  0.12500000000E+03 0.  0.
         25    1    1    2    0    0 -0.83691981760E+02 -0.46807790474E+02 -0.21388411138E+03  0.26564399139E+03  0.12500000000E+03 0.  0.
</event>
<event>
 5    0  0.5655767E-005  0.4908095E+03  0.7546771E-02  0.1016206E+00
         21   -1    0    0  502  501  0.00000000000E+00  0.00000000000E+00  0.13598884476E+04  0.13598884476E+04  0.00000000000E+00 0.  1.
         21   -1    0    0  501  502 -0.00000000000E+00 -0.00000000000E+00 -0.17714241613E+03  0.17714241613E+03  0.00000000000E+00 0.  1.
         25    1    1    2    0    0  0.26451026805E+03 -0.27963900923E+03  0.28907977028E+03  0.49734874180E+03  0.12500000000E+03 0.  0.
         25    1    1    2    0    0 -0.11061893314E+03  0.16774772646E+02  0.49487587572E+03  0.52253715058E+03  0.12500000000E+03 0.  0.
         25    1    1    2    0    0 -0.15389133491E+03  0.26286423658E+03  0.39879038543E+03  0.51714497131E+03  0.12500000000E+03 0.  0.
</event>
<event>
 5    0  0.5655767E-005  0.3516100E+03  0.7546771E-02  0.1061956E+00
         21   -1    0    0  502  501  0.00000000000E+00  0.00000000000E+00  0.25305400255E+03  0.25305400255E+03  0.00000000000E+00 0.  1.
         21   -1    0    0  501  502 -0.00000000000E+00 -0.00000000000E+00 -0.48855024396E+03  0.48855024396E+03  0.00000000000E+00 0.  1.
         25    1    1    2    0    0  0.12607727805E+03 -0.84276575445E+02 -0.27616583508E+03  0.33895514404E+03  0.12500000000E+03 0.  0.
         25    1    1    2    0    0 -0.16383748551E+03  0.97255046810E+02 -0.61860544909E+02  0.23612071660E+03  0.12500000000E+03 0.  0.
         25    1    1    2    0    0  0.37760207465E+02 -0.12978471364E+02  0.10253013857E+03  0.16652838587E+03  0.12500000000E+03 0.  0.
</event>
<event>
 5    0  0.5655767E-005  0.2769135E+03  0.7546771E-02  0.1097387E+00
         21   -1    0    0  502  501  0.00000000000E+00  0.00000000000E+00  0.14364776642E+04  0.14364776642E+04  0.00000000000E+00 0. -1.
         21   -1    0    0  501  502 -0.00000000000E+00 -0.00000000000E+00 -0.53381332213E+02  0.53381332213E+02  0.00000000000E+00 0. -1.
         25    1    1    2    0    0 -0.69443948017E+02  0.52755268331E+02  0.22877843805E+03  0.27490026186E+03  0.12500000000E+03 0.  0.
         25    1    1    2    0    0  0.13740185756E+03 -0.61440847306E+02  0.37768641384E+03  0.42535429395E+03  0.12500000000E+03 0.  0.
         25    1    1    2    0    0 -0.67957909546E+02  0.86855789755E+01  0.77663148011E+03  0.78960444062E+03  0.12500000000E+03 0.  0.
</event>
<event>
 5    0  0.5655767E-005  0.4162652E+03  0.7546771E-02  0.1038289E+00
         21   -1    0    0  502  501  0.00000000000E+00  0.00000000000E+00  0.45092596758E+03  0.45092596758E+03  0.00000000000E+00 0.  1.
         21   -1    0    0  501  502 -0.00000000000E+00 -0.00000000000E+00 -0.38426865899E+03  0.38426865899E+03  0.00000000000E+00 0.  1.
         25    1    1    2    0    0  0.22985025311E+03 -0.88242816100E+02 -0.40800444224E+02  0.27911934669E+03  0.12500000000E+03 0.  0.
         25    1    1    2    0    0 -0.27398747843E+02 -0.13013345836E+03  0.14204595769E+03  0.23127356629E+03  0.12500000000E+03 0.  0.
         25    1    1    2    0    0 -0.20245150527E+03  0.21837627446E+03 -0.34588204872E+02  0.32480171359E+03  0.12500000000E+03 0.  0.
</event>
<event>
 5    0  0.5655767E-005  0.2535899E+03  0.7546771E-02  0.1111057E+00
         21   -1    0    0  502  501  0.00000000000E+00  0.00000000000E+00  0.11248582336E+03  0.11248582336E+03  0.00000000000E+00 0. -1.
         21   -1    0    0  501  502 -0.00000000000E+00 -0.00000000000E+00 -0.57169728322E+03  0.57169728322E+03  0.00000000000E+00 0. -1.
         25    1    1    2    0    0  0.28374851440E+02  0.15686792562E+02 -0.28433130758E+03  0.31228272466E+03  0.12500000000E+03 0.  0.
         25    1    1    2    0    0  0.54646257345E+02  0.71883448205E+02 -0.74660079181E+02  0.17132592037E+03  0.12500000000E+03 0.  0.
         25    1    1    2    0    0 -0.83021108786E+02 -0.87570240767E+02 -0.10022007310E+03  0.20057446154E+03  0.12500000000E+03 0.  0.
</event>
<event>
 5    0  0.5655767E-005  0.3644158E+03  0.7546771E-02  0.1056849E+00
         21   -1    0    0  502  501  0.00000000000E+00  0.00000000000E+00  0.46655178659E+02  0.46655178659E+02  0.00000000000E+00 0. -1.
         21   -1    0    0  501  502 -0.00000000000E+00 -0.00000000000E+00 -0.28463904684E+04  0.28463904684E+04  0.00000000000E+00 0. -1.
         25    1    1    2    0    0  0.10261052960E+03  0.26990747411E+02 -0.73605758708E+03  0.75409760159E+03  0.12500000000E+03 0.  0.
         25    1    1    2    0    0 -0.18043065648E+03  0.19104731509E+03 -0.12655034929E+04  0.12985293177E+04  0.12500000000E+03 0.  0.
         25    1    1    2    0    0  0.77820126883E+02 -0.21803806250E+03 -0.79817420984E+03  0.84041872784E+03  0.12500000000E+03 0.  0.
</event>
<event>
 5    0  0.5655767E-005  0.3654264E+03  0.7546771E-02  0.1056456E+00
         21   -1    0    0  502  501  0.00000000000E+00  0.00000000000E+00  0.82114893894E+03  0.82114893894E+03  0.00000000000E+00 0. -1.
         21   -1    0    0  501  502 -0.00000000000E+00 -0.00000000000E+00 -0.16262148307E+03  0.16262148307E+03  0.00000000000E+00 0. -1.
         25    1    1    2    0    0  0.10252948435E+00  0.60339612315E+00  0.55809295544E+01  0.12512602197E+03  0.12500000000E+03 0.  0.
         25    1    1    2    0    0  0.12223518474E+03  0.19764742566E+03  0.18872624908E+03  0.32442031741E+03  0.12500000000E+03 0.  0.
         25    1    1    2    0    0 -0.12233771422E+03 -0.19825082178E+03  0.46422027724E+03  0.53422408263E+03  0.12500000000E+03 0.  0.
</event>
<event>
 5    0  0.5655767E-005  0.3305448E+03  0.7546771E-02  0.1070896E+00
         21   -1    0    0  502  501  0.00000000000E+00  0.00000000000E+00  0.24391257987E+03  0.24391257987E+03  0.00000000000E+00 0. -1.
         21   -1    0    0  501  502 -0.00000000000E+00 -0.00000000000E+00 -0.44794695188E+03  0.44794695188E+03  0.00000000000E+00 0. -1.
         25    1    1    2    0    0  0.11454148840E+03 -0.18431940921E+03 -0.18081133301E+03  0.30888692967E+03  0.12500000000E+03 0.  0.
         25    1    1    2    0    0 -0.79349098018E+02  0.15150702740E+02 -0.70261245629E+02  0.16458270197E+03  0.12500000000E+03 0.  0.
         25    1    1    2    0    0 -0.35192390384E+02  0.16916870647E+03  0.47038206626E+02  0.21838990012E+03  0.12500000000E+03 0.  0.
</event>
<event>
 5    0  0.5655767E-005  0.3006331E+03  0.7546771E-02  0.1084925E+00
         21   -1    0    0  502  501  0.00000000000E+00  0.00000000000E+00  0.17417683143E+04  0.17417683143E+04  0.00000000000E+00 0.  1.
         21   -1    0    0  501  502 -0.00000000000E+00 -0.00000000000E+00 -0.51889942008E+02  0.51889942008E+02  0.00000000000E+00 0.  1.
         25    1    1    2    0    0  0.71433891228E+02 -0.16461171995E+03  0.98750521799E+03  0.10114303608E+04  0.12500000000E+03 0.  0.
         25    1    1    2    0    0  0.10834589004E+02  0.44452690659E+02  0.16739464284E+03  0.21386770789E+03  0.12500000000E+03 0.  0.
         25    1    1    2    0    0 -0.82268480232E+02  0.12015902929E+03  0.53497851144E+03  0.56836018761E+03  0.12500000000E+03 0.  0.
</event>
<event>
 5    0  0.5655767E-005  0.2666154E+03  0.7546771E-02  0.1103232E+00
         21   -1    0    0  502  501  0.00000000000E+00  0.00000000000E+00  0.74847972478E+02  0.74847972478E+02  0.00000000000E+00 0.  1.
         21   -1    0    0  501  502 -0.00000000000E+00 -0.00000000000E+00 -0.94970882154E+03  0.94970882154E+03  0.00000000000E+00 0.  1.
         25    1    1    2    0    0 -0.28839004794E+02 -0.24643680718E+02 -0.13385408153E+03  0.18703185381E+03  0.12500000000E+03 0.  0.
         25    1    1    2    0    0 -0.60276564399E+02 -0.73141843921E+01 -0.84696966715E+02  0.16274316477E+03  0.12500000000E+03 0.  0.
         25    1    1    2    0    0  0.89115569193E+02  0.31957865110E+02 -0.65630980082E+03  0.67478177544E+03  0.12500000000E+03 0.  0.
</event>
<event>
 5    0  0.5655767E-005  0.4570540E+03  0.7546771E-02  0.1025639E+00
         21   -1    0    0  502  501  0.00000000000E+00  0.00000000000E+00  0.19811025683E+03  0.19811025683E+03  0.00000000000E+00 0. -1.
         21   -1    0    0  501  502 -0.00000000000E+00 -0.00000000000E+00 -0.10544549905E+04  0.10544549905E+04  0.00000000000E+00 0. -1.
         25    1    1    2    0    0  0.61489811446E+02 -0.10961590919E+03 -0.24217106217E+03  0.30011409132E+03  0.12500000000E+03 0.  0.
         25    1    1    2    0    0  0.23394738362E+03  0.25538639577E+03 -0.24594656675E+03  0.44279600624E+03  0.12500000000E+03 0.  0.
         25    1    1    2    0    0 -0.29543719507E+03 -0.14577048659E+03 -0.36822710473E+03  0.50965514973E+03  0.12500000000E+03 0.  0.
</event>
<event>
 5    0  0.5655767E-005  0.4080853E+03  0.7546771E-02  0.1041015E+00
         21   -1    0    0  502  501  0.00000000000E+00  0.00000000000E+00  0.16073652073E+03  0.16073652073E+03  0.00000000000E+00 0. -1.
         21   -1    0    0  501  502 -0.00000000000E+00 -0.00000000000E+00 -0.10360658121E+04  0.10360658121E+04  0.00000000000E+00 0. -1.
         25    1    1    2    0    0  0.59298158994E+02 -0.66181448502E+02 -0.69326251889E+02  0.16830741216E+03  0.12500000000E+03 0.  0.
         25    1    1    2    0    0 -0.19322008317E+03  0.16716680150E+03 -0.11548314856E+03  0.30698550074E+03  0.12500000000E+03 0.  0.
         25    1    1    2    0    0  0.13392192418E+03 -0.10098535300E+03 -0.69051989091E+03  0.72150941992E+03  0.12500000000E+03 0.  0.
</event>
<event>
 5    0  0.5655767E-005  0.3129512E+03  0.7546771E-02  0.1078940E+00
         21   -1    0    0  502  501  0.00000000000E+00  0.00000000000E+00  0.38882357749E+03  0.38882357749E+03  0.00000000000E+00 0. -1.
         21   -1    0    0  501  502 -0.00000000000E+00 -0.00000000000E+00 -0.25188403557E+03  0.25188403557E+03  0.00000000000E+00 0. -1.
         25    1    1    2    0    0 -0.48428916441E+02 -0.13020840163E+01 -0.35861399142E+02  0.13877353969E+03  0.12500000000E+03 0.  0.
         25    1    1    2    0    0  0.10960531817E+03  0.14598686163E+03  0.20136217025E+03  0.29916084828E+03  0.12500000000E+03 0.  0.
         25    1    1    2    0    0 -0.61176401725E+02 -0.14468477761E+03 -0.28561229190E+02  0.20277322509E+03  0.12500000000E+03 0.  0.
</event>
<event>
 5    0  0.5655767E-005  0.3167080E+03  0.7546771E-02  0.1077174E+00
         21   -1    0    0  502  501  0.00000000000E+00  0.00000000000E+00  0.24395459504E+03  0.24395459504E+03  0.00000000000E+00 0.  1.
         21   -1    0    0  501  502 -0.00000000000E+00 -0.00000000000E+00 -0.41115839537E+03  0.41115839537E+03  0.00000000000E+00 0.  1.
         25    1    1    2    0    0  0.25514461716E+02 -0.12578424456E+03  0.13286363234E+03  0.22304799648E+03  0.12500000000E+03 0.  0.
         25    1    1    2    0    0 -0.66611130620E+02  0.25584531506E+02 -0.16119903107E+03  0.21610585043E+03  0.12500000000E+03 0.  0.
         25    1    1    2    0    0  0.41096668904E+02  0.10019971306E+03 -0.13886840161E+03  0.21595914349E+03  0.12500000000E+03 0.  0.
</event>
<event>
 5    0  0.5655767E-005  0.3702286E+03  0.7546771E-02  0.1054606E+00
         21   -1    0    0  502  501  0.00000000000E+00  0.00000000000E+00  0.15020981583E+03  0.15020981583E+03  0.00000000000E+00 0.  1.
         21   -1    0    0  501  502 -0.00000000000E+00 -0.00000000000E+00 -0.91251834620E+03  0.91251834620E+03  0.00000000000E+00 0.  1.
         25    1    1    2    0    0 -0.22668758452E+03 -0.89438505047E+02 -0.21279245810E+03  0.34683156919E+03  0.12500000000E+03 0.  0.
         25    1    1    2    0    0  0.22070809626E+03 -0.14601049132E+02 -0.47110945333E+03  0.53525168977E+03  0.12500000000E+03 0.  0.
         25    1    1    2    0    0  0.59794882526E+01  0.10403955418E+03 -0.78406618942E+02  0.18064490308E+03  0.12500000000E+03 0.  0.
</event>
<event>
 5    0  0.5655767E-005  0.3286031E+03  0.7546771E-02  0.1071757E+00
         21   -1    0    0  502  501  0.00000000000E+00  0.00000000000E+00  0.24862477673E+03  0.24862477673E+03  0.00000000000E+00 0.  1.
         21   -1    0    0  501  502 -0.00000000000E+00 -0.00000000000E+00 -0.43430907526E+03  0.43430907526E+03  0.00000000000E+00 0.  1.
         25    1    1    2    0    0 -0.15208207248E+03 -0.10223033171E+03 -0.18940318262E+03  0.29168229819E+03  0.12500000000E+03 0.  0.
         25    1    1    2    0    0  0.14538382530E+03  0.16337301606E+03  0.44270782241E+01  0.25193609915E+03  0.12500000000E+03 0.  0.
         25    1    1    2    0    0  0.66982471865E+01 -0.61142684351E+02 -0.70819413461E+00  0.13931545465E+03  0.12500000000E+03 0.  0.
</event>
<event>
 5    0  0.5655767E-005  0.2376109E+03  0.7546771E-02  0.1121395E+00
         21   -1    0    0  502  501  0.00000000000E+00  0.00000000000E+00  0.78591534823E+02  0.78591534823E+02  0.00000000000E+00 0. -1.
         21   -1    0    0  501  502 -0.00000000000E+00 -0.00000000000E+00 -0.71838422826E+03  0.71838422826E+03  0.00000000000E+00 0. -1.
         25    1    1    2    0    0 -0.91020473848E+02  0.48547248993E+02 -0.21687907960E+03  0.27074544726E+03  0.12500000000E+03 0.  0.
         25    1    1    2    0    0  0.18915861861E+02  0.31125655909E+02 -0.10177440814E+03  0.16525630529E+03  0.12500000000E+03 0.  0.
         25    1    1    2    0    0  0.72104611987E+02 -0.79672904902E+02 -0.32113920570E+03  0.36097401053E+03  0.12500000000E+03 0.  0.
</event>
<event>
 5    0  0.5655767E-005  0.3621485E+03  0.7546771E-02  0.1057736E+00
         21   -1    0    0  502  501  0.00000000000E+00  0.00000000000E+00  0.82452704491E+03  0.82452704491E+03  0.00000000000E+00 0. -1.
         21   -1    0    0  501  502 -0.00000000000E+00 -0.00000000000E+00 -0.15906273696E+03  0.15906273696E+03  0.00000000000E+00 0. -1.
         25    1    1    2    0    0  0.12748662927E+03  0.91800878254E+00  0.99735993946E+02  0.20451394053E+03  0.12500000000E+03 0.  0.
         25    1    1    2    0    0  0.80947848110E+02  0.31667893709E+02  0.50359786053E+03  0.52610950831E+03  0.12500000000E+03 0.  0.
         25    1    1    2    0    0 -0.20843447738E+03 -0.32585902492E+02  0.62130453480E+02  0.25296633304E+03  0.12500000000E+03 0.  0.
</event>
<event>
 5    0  0.5655767E-005  0.4981099E+03  0.7546771E-02  0.1014273E+00
         21   -1    0    0  502  501  0.00000000000E+00  0.00000000000E+00  0.14535880512E+04  0.14535880512E+04  0.00000000000E+00 0.  1.
         21   -1    0    0  501  502 -0.00000000000E+00 -0.00000000000E+00 -0.17069033907E+03  0.17069033907E+03  0.00000000000E+00 0.  1.
         25    1    1    2    0    0  0.81329146420E+02  0.33002649820E+03  0.41834980590E+03  0.55332944948E+03  0.12500000000E+03 0.  0.
         25    1    1    2    0    0 -0.23587320060E+03 -0.29320994302E+03  0.39481040403E+03  0.55956098200E+03  0.12500000000E+03 0.  0.
         25    1    1    2    0    0  0.15454405418E+03 -0.36816555175E+02  0.46973750219E+03  0.51138795877E+03  0.12500000000E+03 0.  0.
</event>
<event>
 5    0  0.5655767E-005  0.3078877E+03  0.7546771E-02  0.1081363E+00
         21   -1    0    0  502  501  0.00000000000E+00  0.00000000000E+00  0.14525963845E+03  0.14525963845E+03  0.00000000000E+00 0.  1.
         21   -1    0    0  501  502 -0.00000000000E+00 -0.00000000000E+00 -0.65258888195E+03  0.65258888195E+03  0.00000000000E+00 0.  1.
         25    1    1    2    0    0  0.62727387233E+02  0.10617065628E+02  0.51841582427E+02  0.14953259464E+03  0.12500000000E+03 0.  0.
         25    1    1    2    0    0  0.59226065258E+02 -0.51224546873E+02 -0.22400056339E+03  0.26820315697E+03  0.12500000000E+03 0.  0.
         25    1    1    2    0    0 -0.12195345249E+03  0.40607481244E+02 -0.33517026254E+03  0.38011276879E+03  0.12500000000E+03 0.  0.
</event>
<event>
 5    0  0.5655767E-005  0.2176348E+03  0.7546771E-02  0.1135659E+00
         21   -1    0    0  502  501  0.00000000000E+00  0.00000000000E+00  0.51827536472E+03  0.51827536472E+03  0.00000000000E+00 0.  1.
         21   -1    0    0  501  502 -0.00000000000E+00 -0.00000000000E+00 -0.91389490554E+02  0.91389490554E+02  0.00000000000E+00 0.  1.
         25    1    1    2    0    0 -0.13578594155E+02  0.48682348688E+02  0.88802293919E+02  0.16144719477E+03  0.12500000000E+03 0.  0.
         25    1    1    2    0    0  0.75943496375E+02 -0.49801614048E+02  0.17265395775E+03  0.23169377318E+03  0.12500000000E+03 0.  0.
         25    1    1    2    0    0 -0.62364902221E+02  0.11192653601E+01  0.16542962250E+03  0.21652388733E+03  0.12500000000E+03 0.  0.
</event>
<event>
 5    0  0.5655767E-005  0.2712023E+03  0.7546771E-02  0.1100593E+00
         21   -1    0    0  502  501  0.00000000000E+00  0.00000000000E+00  0.13962343142E+04  0.13962343142E+04  0.00000000000E+00 0. -1.
         21   -1    0    0  501  502 -0.00000000000E+00 -0.00000000000E+00 -0.52677895694E+02  0.52677895694E+02  0.00000000000E+00 0. -1.
         25    1    1    2    0    0 -0.80293143651E+02 -0.12516205544E+03  0.49947104628E+03  0.53591870196E+03  0.12500000000E+03 0.  0.
         25    1    1    2    0    0  0.74102294384E+02  0.10766097195E+03  0.69207780975E+03  0.71531722310E+03  0.12500000000E+03 0.  0.
         25    1    1    2    0    0  0.61908492668E+01  0.17501083497E+02  0.15200756251E+03  0.19767628486E+03  0.12500000000E+03 0.  0.
</event>
<event>
 5    0  0.5655767E-005  0.5017314E+03  0.7546771E-02  0.1013328E+00
         21   -1    0    0  502  501  0.00000000000E+00  0.00000000000E+00  0.39344008122E+03  0.39344008122E+03  0.00000000000E+00 0. -1.
         21   -1    0    0  501  502 -0.00000000000E+00 -0.00000000000E+00 -0.63982903109E+03  0.63982903109E+03  0.00000000000E+00 0. -1.
         25    1    1    2    0    0  0.19222499451E+03 -0.12592927551E+03 -0.38310148165E+02  0.26438853681E+03  0.12500000000E+03 0.  0.
         25    1    1    2    0    0 -0.37486468867E+03  0.15269029983E+03  0.51456996955E+02  0.42674428527E+03  0.12500000000E+03 0.  0.
         25    1    1    2    0    0  0.18263969416E+03 -0.26761024330E+02 -0.25953579866E+03  0.34213629023E+03  0.12500000000E+03 0.  0.
</event>
<event>
 5    0  0.5655767E-005  0.4117849E+03  0.7546771E-02  0.1039774E+00
         21   -1    0    0  502  501  0.00000000000E+00  0.00000000000E+00  0.21472310918E+04  0.21472310918E+04  0.00000000000E+00 0.  1.
         21   -1    0    0  501  502 -0.00000000000E+00 -0.00000000000E+00 -0.78969981523E+02  0.78969981523E+02  0.00000000000E+00 0.  1.
         25    1    1    2    0    0 -0.27360687507E+02  0.28395173441E+02  0.13431949689E+04  0.13495749766E+04  0.12500000000E+03 0.  0.
         25    1    1    2    0    0 -0.16292887971E+03 -0.12677469390E+03  0.30666836086E+03  0.39024111317E+03  0.12500000000E+03 0.  0.
         25    1    1    2    0    0  0.19028956722E+03  0.98379520464E+02  0.41839778050E+03  0.48638498349E+03  0.12500000000E+03 0.  0.
</event>
<event>
 5    0  0.5655767E-005  0.2032865E+03  0.7546771E-02  0.1146995E+00
         21   -1    0    0  502  501  0.00000000000E+00  0.00000000000E+00  0.36931364931E+03  0.36931364931E+03  0.00000000000E+00 0. -1.
         21   -1    0    0  501  502 -0.00000000000E+00 -0.00000000000E+00 -0.11189786200E+03  0.11189786200E+03  0.00000000000E+00 0. -1.
         25    1    1    2    0    0  0.17579569530E+02  0.43721721454E+02  0.87636093169E+02  0.15976769078E+03  0.12500000000E+03 0.  0.
         25    1    1    2    0    0 -0.13708422734E+02 -0.13632664871E+02  0.14140772880E+03  0.18972326207E+03  0.12500000000E+03 0.  0.
         25    1    1    2    0    0 -0.38711467965E+01 -0.30089056583E+02  0.28371965344E+02  0.13172055846E+03  0.12500000000E+03 0.  0.
</event>
<event>
 5    0  0.5655767E-005  0.3640142E+03  0.7546771E-02  0.1057006E+00
         21   -1    0    0  502  501  0.00000000000E+00  0.00000000000E+00  0.71818812729E+02  0.71818812729E+02  0.00000000000E+00 0. -1.
         21   -1    0    0  501  502 -0.00000000000E+00 -0.00000000000E+00 -0.18450085926E+04  0.18450085926E+04  0.00000000000E+00 0. -1.
         25    1    1    2    0    0  0.52573289809E+02  0.11789435642E+03 -0.14345878436E+03  0.22993140909E+03  0.12500000000E+03 0.  0.
         25    1    1    2    0    0  0.11499887062E+03 -0.10338723391E+02 -0.10067292385E+04  0.10210094951E+04  0.12500000000E+03 0.  0.
         25    1    1    2    0    0 -0.16757216043E+03 -0.10755563303E+03 -0.62300175700E+03  0.66588650112E+03  0.12500000000E+03 0.  0.
</event>
<event>
 5    0  0.5655767E-005  0.3465532E+03  0.7546771E-02  0.1064039E+00
         21   -1    0    0  502  501  0.00000000000E+00  0.00000000000E+00  0.19202922291E+03  0.19202922291E+03  0.00000000000E+00 0. -1.
         21   -1    0    0  501  502 -0.00000000000E+00 -0.00000000000E+00 -0.62542106049E+03  0.62542106049E+03  0.00000000000E+00 0. -1.
         25    1    1    2    0    0 -0.11512159515E+02 -0.24087158604E+02 -0.13165665042E+03  0.18349712430E+03  0.12500000000E+03 0.  0.
         25    1    1    2    0    0  0.16022430716E+03  0.16551327380E+03 -0.29353934110E+03  0.39351850933E+03  0.12500000000E+03 0.  0.
         25    1    1    2    0    0 -0.14871214764E+03 -0.14142611519E+03 -0.81958460540E+01  0.24043464977E+03  0.12500000000E+03 0.  0.
</event>
<event>
 5    0  0.5655767E-005  0.3375099E+03  0.7546771E-02  0.1067861E+00
         21   -1    0    0  502  501  0.00000000000E+00  0.00000000000E+00  0.13250248153E+03  0.13250248153E+03  0.00000000000E+00 0. -1.
         21   -1    0    0  501  502 -0.00000000000E+00 -0.00000000000E+00 -0.85970390739E+03  0.85970390739E+03  0.00000000000E+00 0. -1.
         25    1    1    2    0    0 -0.15114296391E+03  0.11541080460E+03 -0.98127555935E+02  0.24782628309E+03  0.12500000000E+03 0.  0.
         25    1    1    2    0    0  0.87176986860E+02  0.54510222722E+02 -0.16776917333E+03  0.23311517956E+03  0.12500000000E+03 0.  0.
         25    1    1    2    0    0  0.63965977046E+02 -0.16992102732E+03 -0.46130469658E+03  0.51126492627E+03  0.12500000000E+03 0.  0.
</event>
<event>
 5    0  0.5655767E-005  0.4427883E+03  0.7546771E-02  0.1029895E+00
         21   -1    0    0  502  501  0.00000000000E+00  0.00000000000E+00  0.10095235715E+04  0.10095235715E+04  0.00000000000E+00 0. -1.
         21   -1    0    0  501  502 -0.00000000000E+00 -0.00000000000E+00 -0.19421192031E+03  0.19421192031E+03  0.00000000000E+00 0. -1.
         25    1    1    2    0    0 -0.29245580650E+02  0.26271840650E+03  0.15435955105E+03  0.33064805474E+03  0.12500000000E+03 0.  0.
         25    1    1    2    0    0 -0.19862277437E+03 -0.96252213355E+02  0.37232012329E+03  0.45051389466E+03  0.12500000000E+03 0.  0.
         25    1    1    2    0    0  0.22786835502E+03 -0.16646619314E+03  0.28863197684E+03  0.42257354240E+03  0.12500000000E+03 0.  0.
</event>
<event>
 5    0  0.5655767E-005  0.3485500E+03  0.7546771E-02  0.1063212E+00
         21   -1    0    0  502  501  0.00000000000E+00  0.00000000000E+00  0.33042988045E+03  0.33042988045E+03  0.00000000000E+00 0. -1.
         21   -1    0    0  501  502 -0.00000000000E+00 -0.00000000000E+00 -0.36766377776E+03  0.36766377776E+03  0.00000000000E+00 0. -1.
         25    1    1    2    0    0 -0.41285170813E+02  0.24368043594E+02 -0.65684767559E+02  0.14912328982E+03  0.12500000000E+03 0.  0.
         25    1    1    2    0    0  0.18889080511E+03 -0.35534761351E+02  0.18916916888E+03  0.29724136652E+03  0.12500000000E+03 0.  0.
         25    1    1    2    0    0 -0.14760563430E+03  0.11166717756E+02 -0.16071829863E+03  0.25172900186E+03  0.12500000000E+03 0.  0.
</event>
<event>
 5    0  0.5655767E-005  0.5989851E+03  0.7546771E-02  0.9907514E-01
         21   -1    0    0  502  501  0.00000000000E+00  0.00000000000E+00  0.26922552000E+03  0.26922552000E+03  0.00000000000E+00 0. -1.
         21   -1    0    0  501  502 -0.00000000000E+00 -0.00000000000E+00 -0.13326492371E+04  0.13326492371E+04  0.00000000000E+00 0. -1.
         25    1    1    2    0    0  0.21085022054E+03  0.47982040542E+03 -0.33110343081E+03  0.63240803193E+03  0.12500000000E+03 0.  0.
         25    1    1    2    0    0  0.38262821819E+02 -0.19052557216E+03 -0.22680784150E+03  0.32377590112E+03  0.12500000000E+03 0.  0.
         25    1    1    2    0    0 -0.24911304236E+03 -0.28929483326E+03 -0.50551244480E+03  0.64569082406E+03  0.12500000000E+03 0.  0.
</event>
<event>
 5    0  0.5655767E-005  0.5942915E+03  0.7546771E-02  0.9917321E-01
         21   -1    0    0  502  501  0.00000000000E+00  0.00000000000E+00  0.52945322262E+03  0.52945322262E+03  0.00000000000E+00 0. -1.
         21   -1    0    0  501  502 -0.00000000000E+00 -0.00000000000E+00 -0.66707009573E+03  0.66707009573E+03  0.00000000000E+00 0. -1.
         25    1    1    2    0    0 -0.22085462039E+03 -0.11666031882E+03  0.37540643084E+03  0.46791172421E+03  0.12500000000E+03 0.  0.
         25    1    1    2    0    0  0.31933493576E+03  0.65938880640E+02 -0.32393044916E+03  0.47631782779E+03  0.12500000000E+03 0.  0.
         25    1    1    2    0    0 -0.98480315370E+02  0.50721438179E+02 -0.18909285480E+03  0.25229376635E+03  0.12500000000E+03 0.  0.
</event>
<event>
 5    0  0.5655767E-005  0.4870944E+03  0.7546771E-02  0.1017203E+00
         21   -1    0    0  502  501  0.00000000000E+00  0.00000000000E+00  0.12616229509E+04  0.12616229509E+04  0.00000000000E+00 0.  1.
         21   -1    0    0  501  502 -0.00000000000E+00 -0.00000000000E+00 -0.18806009517E+03  0.18806009517E+03  0.00000000000E+00 0.  1.
         25    1    1    2    0    0  0.12855158179E+03 -0.14501428571E+00  0.12422760696E+03  0.21813534455E+03  0.12500000000E+03 0.  0.
         25    1    1    2    0    0 -0.23640917000E+03 -0.41783879275E+02  0.10138805099E+04  0.10493873816E+04  0.12500000000E+03 0.  0.
         25    1    1    2    0    0  0.10785758821E+03  0.41928893561E+02 -0.64545261097E+02  0.18216031999E+03  0.12500000000E+03 0.  0.
</event>
<event>
 5    0  0.5655767E-005  0.4159913E+03  0.7546771E-02  0.1038379E+00
         21   -1    0    0  502  501  0.00000000000E+00  0.00000000000E+00  0.59106141026E+03  0.59106141026E+03  0.00000000000E+00 0.  1.
         21   -1    0    0  501  502 -0.00000000000E+00 -0.00000000000E+00 -0.29277632535E+03  0.29277632535E+03  0.00000000000E+00 0.  1.
         25    1    1    2    0    0  0.25621290359E+03 -0.13450778822E+03  0.52986935194E+02  0.31964044230E+03  0.12500000000E+03 0.  0.
         25    1    1    2    0    0 -0.30686730446E+03  0.65170901541E+02  0.95282366391E+02  0.35088248503E+03  0.12500000000E+03 0.  0.
         25    1    1    2    0    0  0.50654400873E+02  0.69336886676E+02  0.15001578333E+03  0.21331480828E+03  0.12500000000E+03 0.  0.
</event>
<event>
 5    0  0.5655767E-005  0.2859913E+03  0.7546771E-02  0.1092461E+00
         21   -1    0    0  502  501  0.00000000000E+00  0.00000000000E+00  0.92170741213E+03  0.92170741213E+03  0.00000000000E+00 0.  1.
         21   -1    0    0  501  502 -0.00000000000E+00 -0.00000000000E+00 -0.88738625846E+02  0.88738625846E+02  0.00000000000E+00 0.  1.
         25    1    1    2    0    0  0.19582020923E+01  0.12803625110E+03  0.41643849820E+03  0.45325835782E+03  0.12500000000E+03 0.  0.
         25    1    1    2    0    0  0.50036060431E+02 -0.86909244753E+02  0.37796374403E+03  0.41053430547E+03  0.12500000000E+03 0.  0.
         25    1    1    2    0    0 -0.51994262523E+02 -0.41127006349E+02  0.38566544057E+02  0.14665337469E+03  0.12500000000E+03 0.  0.
</event>
<event>
 5    0  0.5655767E-005  0.3322794E+03  0.7546771E-02  0.1070133E+00
         21   -1    0    0  502  501  0.00000000000E+00  0.00000000000E+00  0.17919330031E+03  0.17919330031E+03  0.00000000000E+00 0.  1.
         21   -1    0    0  501  502 -0.00000000000E+00 -0.00000000000E+00 -0.61614818252E+03  0.61614818252E+03  0.00000000000E+00 0.  1.
         25    1    1    2    0    0 -0.34245998810E+02  0.61005292058E+02 -0.29777760494E+01  0.14327700878E+03  0.12500000000E+03 0.  0.
         25    1    1    2    0    0  0.22333833290E+03 -0.33881842744E+02 -0.22071568234E+03  0.33965924489E+03  0.12500000000E+03 0.  0.
         25    1    1    2    0    0 -0.18909233409E+03 -0.27123449314E+02 -0.21326142383E+03  0.31240522916E+03  0.12500000000E+03 0.  0.
</event>
<event>
 5    0  0.5655767E-005  0.5704256E+03  0.7546771E-02  0.9968737E-01
         21   -1    0    0  502  501  0.00000000000E+00  0.00000000000E+00  0.53338097459E+03  0.53338097459E+03  0.00000000000E+00 0.  1.
         21   -1    0    0  501  502 -0.00000000000E+00 -0.00000000000E+00 -0.61004300776E+03  0.61004300776E+03  0.00000000000E+00 0.  1.
         25    1    1    2    0    0 -0.16717573023E+03  0.24153513793E+03 -0.26348191176E+03  0.41392591783E+03  0.12500000000E+03 0.  0.
         25    1    1    2    0    0  0.20561612139E+03 -0.24922899010E+03  0.36832823022E+03  0.50565182097E+03  0.12500000000E+03 0.  0.
         25    1    1    2    0    0 -0.38440391161E+02  0.76938521672E+01 -0.18150835163E+03  0.22384624353E+03  0.12500000000E+03 0.  0.
</event>
<event>
 5    0  0.5655767E-005  0.2604821E+03  0.7546771E-02  0.1106854E+00
         21   -1    0    0  502  501  0.00000000000E+00  0.00000000000E+00  0.78084025740E+03  0.78084025740E+03  0.00000000000E+00 0.  1.
         21   -1    0    0  501  502 -0.00000000000E+00 -0.00000000000E+00 -0.86894737693E+02  0.86894737693E+02  0.00000000000E+00 0.  1.
         25    1    1    2    0    0  0.54391762489E+02 -0.76629841918E+01  0.32866276025E+03  0.35589520245E+03  0.12500000000E+03 0.  0.
         25    1    1    2    0    0 -0.68077418860E+02  0.62723410948E+02  0.42752349357E+02  0.16131188616E+03  0.12500000000E+03 0.  0.
         25    1    1    2    0    0  0.13685656371E+02 -0.55060426756E+02  0.32253041010E+03  0.35052790648E+03  0.12500000000E+03 0.  0.
</event>
<event>
 5    0  0.5655767E-005  0.3819437E+03  0.7546771E-02  0.1050218E+00
         21   -1    0    0  502  501  0.00000000000E+00  0.00000000000E+00  0.51383914470E+03  0.51383914470E+03  0.00000000000E+00 0.  1.
         21   -1    0    0  501  502 -0.00000000000E+00 -0.00000000000E+00 -0.28390394462E+03  0.28390394462E+03  0.00000000000E+00 0.  1.
         25    1    1    2    0    0 -0.17432638677E+03 -0.84171408190E+02 -0.56417042979E+02  0.23723911528E+03  0.12500000000E+03 0.  0.
         25    1    1    2    0    0 -0.93983810145E+02  0.15656992940E+01  0.27699761738E+02  0.15883225360E+03  0.12500000000E+03 0.  0.
         25    1    1    2    0    0  0.26831019692E+03  0.82605708896E+02  0.25865248131E+03  0.40167172044E+03  0.12500000000E+03 0.  0.
</event>
<event>
 5    0  0.5655767E-005  0.3174809E+03  0.7546771E-02  0.1076815E+00
         21   -1    0    0  502  501  0.00000000000E+00  0.00000000000E+00  0.12945005777E+03  0.12945005777E+03  0.00000000000E+00 0. -1.
         21   -1    0    0  501  502 -0.00000000000E+00 -0.00000000000E+00 -0.77863339108E+03  0.77863339108E+03  0.00000000000E+00 0.  1.
         25    1    1    2    0    0  0.17066178347E+03 -0.10876120675E+03 -0.40848193626E+03  0.47269116417E+03  0.12500000000E+03 0.  0.
         25    1    1    2    0    0 -0.86112927708E+02  0.92071354753E+02 -0.37023324602E+02  0.18135130893E+03  0.12500000000E+03 0.  0.
         25    1    1    2    0    0 -0.84548855759E+02  0.16689852000E+02 -0.20367807245E+03  0.25404097576E+03  0.12500000000E+03 0.  0.
</event>
<event>
 5    0  0.5655767E-005  0.2188616E+03  0.7546771E-02  0.1134735E+00
         21   -1    0    0  502  501  0.00000000000E+00  0.00000000000E+00  0.34520524252E+03  0.34520524252E+03  0.00000000000E+00 0. -1.
         21   -1    0    0  501  502 -0.00000000000E+00 -0.00000000000E+00 -0.13875922094E+03  0.13875922094E+03  0.00000000000E+00 0. -1.
         25    1    1    2    0    0 -0.42144184144E+02 -0.43822065575E+02  0.10902279835E+03  0.17665637902E+03  0.12500000000E+03 0.  0.
         25    1    1    2    0    0 -0.31206409280E+02  0.53832423928E+02  0.15406937899E+02  0.14047826729E+03  0.12500000000E+03 0.  0.
         25    1    1    2    0    0  0.73350593424E+02 -0.10010358353E+02  0.82016285325E+02  0.16682981714E+03  0.12500000000E+03 0.  0.
</event>
<event>
 5    0  0.5655767E-005  0.3054882E+03  0.7546771E-02  0.1082529E+00
         21   -1    0    0  502  501  0.00000000000E+00  0.00000000000E+00  0.31613170446E+03  0.31613170446E+03  0.00000000000E+00 0.  1.
         21   -1    0    0  501  502 -0.00000000000E+00 -0.00000000000E+00 -0.29520302225E+03  0.29520302225E+03  0.00000000000E+00 0.  1.
         25    1    1    2    0    0 -0.61437560629E+02  0.10438096264E+03 -0.18143205006E+02  0.17499752885E+03  0.12500000000E+03 0.  0.
         25    1    1    2    0    0  0.12134225804E+03  0.88568434355E+02  0.36122738797E+02  0.19874144864E+03  0.12500000000E+03 0.  0.
         25    1    1    2    0    0 -0.59904697413E+02 -0.19294939699E+03  0.29491484218E+01  0.23759574922E+03  0.12500000000E+03 0.  0.
</event>
<event>
 5    0  0.5655767E-005  0.3105798E+03  0.7546771E-02  0.1080068E+00
         21   -1    0    0  502  501  0.00000000000E+00  0.00000000000E+00  0.32181606485E+03  0.32181606485E+03  0.00000000000E+00 0. -1.
         21   -1    0    0  501  502 -0.00000000000E+00 -0.00000000000E+00 -0.29973577958E+03  0.29973577958E+03  0.00000000000E+00 0. -1.
         25    1    1    2    0    0 -0.23187928374E+03 -0.34077695038E+02  0.18870410109E+02  0.26629003718E+03  0.12500000000E+03 0.  0.
         25    1    1    2    0    0  0.16092630382E+03  0.51633652380E+02 -0.44551473460E+01  0.21025736053E+03  0.12500000000E+03 0.  0.
         25    1    1    2    0    0  0.70952979915E+02 -0.17555957341E+02  0.76650225069E+01  0.14500444671E+03  0.12500000000E+03 0.  0.
</event>
<event>
 5    0  0.5655767E-005  0.4114319E+03  0.7546771E-02  0.1039892E+00
         21   -1    0    0  502  501  0.00000000000E+00  0.00000000000E+00  0.11978396297E+04  0.11978396297E+04  0.00000000000E+00 0.  1.
         21   -1    0    0  501  502 -0.00000000000E+00 -0.00000000000E+00 -0.14131790113E+03  0.14131790113E+03  0.00000000000E+00 0.  1.
         25    1    1    2    0    0 -0.28912200672E+03  0.61163809901E+02  0.18672505993E+03  0.37124627192E+03  0.12500000000E+03 0.  0.
         25    1    1    2    0    0  0.98544013035E+02 -0.80012095985E+02  0.24770735755E+03  0.30511767073E+03  0.12500000000E+03 0.  0.
         25    1    1    2    0    0  0.19057799368E+03  0.18848286084E+02  0.62208931109E+03  0.66279358818E+03  0.12500000000E+03 0.  0.
</event>
<event>
 5    0  0.5655767E-005  0.8241087E+03  0.7546771E-02  0.9525762E-01
         21   -1    0    0  502  501  0.00000000000E+00  0.00000000000E+00  0.44596187144E+03  0.44596187144E+03  0.00000000000E+00 0. -1.
         21   -1    0    0  501  502 -0.00000000000E+00 -0.00000000000E+00 -0.15228996238E+04  0.15228996238E+04  0.00000000000E+00 0. -1.
         25    1    1    2    0    0  0.41952302497E+03  0.33150494597E+02  0.17579298805E+03  0.47289184643E+03  0.12500000000E+03 0.  0.
         25    1    1    2    0    0  0.14063976339E+03  0.11599477256E+03 -0.40539570719E+03  0.46174128006E+03  0.12500000000E+03 0.  0.
         25    1    1    2    0    0 -0.56016278836E+03 -0.14914526716E+03 -0.84733503325E+03  0.10342283688E+04  0.12500000000E+03 0.  0.
</event>
<event>
 5    0  0.7033630E-005  0.3602002E+03  0.7546771E-02  0.1058505E+00
         21   -1    0    0  502  501  0.00000000000E+00  0.00000000000E+00  0.47496380356E+03  0.47496380356E+03  0.00000000000E+00 0. -1.
         21   -1    0    0  501  502 -0.00000000000E+00 -0.00000000000E+00 -0.27316646604E+03  0.27316646604E+03  0.00000000000E+00 0. -1.
         25    1    1    2    0    0 -0.42902269041E+02 -0.57024775965E+02 -0.15785471482E+03  0.21362476624E+03  0.12500000000E+03 0.  0.
         25    1    1    2    0    0  0.16562134234E+03  0.49197531914E+02  0.14760785654E+03  0.25935285905E+03  0.12500000000E+03 0.  0.
         25    1    1    2    0    0 -0.12271907330E+03  0.78272440507E+01  0.21204419580E+03  0.27515264431E+03  0.12500000000E+03 0.  0.
</event>
<event>
 5    0  0.5655767E-005  0.3219103E+03  0.7546771E-02  0.1074773E+00
         21   -1    0    0  502  501  0.00000000000E+00  0.00000000000E+00  0.60528873447E+02  0.60528873447E+02  0.00000000000E+00 0. -1.
         21   -1    0    0  501  502 -0.00000000000E+00 -0.00000000000E+00 -0.17120132706E+04  0.17120132706E+04  0.00000000000E+00 0. -1.
         25    1    1    2    0    0 -0.95625288357E+02 -0.13249739461E+02 -0.66846772040E+03  0.68687250970E+03  0.12500000000E+03 0.  0.
         25    1    1    2    0    0 -0.12253429620E+03 -0.80152841007E+02 -0.42076421333E+03  0.46271660321E+03  0.12500000000E+03 0.  0.
         25    1    1    2    0    0  0.21815958456E+03  0.93402580468E+02 -0.56225246343E+03  0.62295303114E+03  0.12500000000E+03 0.  0.
</event>
<event>
 5    0  0.5655767E-005  0.2510243E+03  0.7546771E-02  0.1112659E+00
         21   -1    0    0  502  501  0.00000000000E+00  0.00000000000E+00  0.12402754192E+04  0.12402754192E+04  0.00000000000E+00 0.  1.
         21   -1    0    0  501  502 -0.00000000000E+00 -0.00000000000E+00 -0.50805795280E+02  0.50805795280E+02  0.00000000000E+00 0.  1.
         25    1    1    2    0    0  0.13420614270E+02 -0.11419711966E+03  0.64594164724E+03  0.66789722762E+03  0.12500000000E+03 0.  0.
         25    1    1    2    0    0  0.12936128432E+02  0.11709610450E+03  0.25302081533E+03  0.30581591538E+03  0.12500000000E+03 0.  0.
         25    1    1    2    0    0 -0.26356742702E+02 -0.28989848408E+01  0.29050716133E+03  0.31736807146E+03  0.12500000000E+03 0.  0.
</event>
<event>
 5    0  0.5655767E-005  0.2510867E+03  0.7546771E-02  0.1112620E+00
         21   -1    0    0  502  501  0.00000000000E+00  0.00000000000E+00  0.58822915138E+03  0.58822915138E+03  0.00000000000E+00 0. -1.
         21   -1    0    0  501  502 -0.00000000000E+00 -0.00000000000E+00 -0.10717684930E+03  0.10717684930E+03  0.00000000000E+00 0. -1.
         25    1    1    2    0    0 -0.29786831451E+02  0.56471432401E+01  0.80566006193E+02  0.15177294525E+03  0.12500000000E+03 0.  0.
         25    1    1    2    0    0  0.36334090856E+02  0.98698478163E+02  0.32561581857E+03  0.36429688038E+03  0.12500000000E+03 0.  0.
         25    1    1    2    0    0 -0.65472594053E+01 -0.10434562140E+03  0.74870477313E+02  0.17933617506E+03  0.12500000000E+03 0.  0.
</event>
<event>
 5    0  0.5655767E-005  0.3161177E+03  0.7546771E-02  0.1077450E+00
         21   -1    0    0  502  501  0.00000000000E+00  0.00000000000E+00  0.38667265851E+03  0.38667265851E+03  0.00000000000E+00 0.  1.
         21   -1    0    0  501  502 -0.00000000000E+00 -0.00000000000E+00 -0.25843667669E+03  0.25843667669E+03  0.00000000000E+00 0.  1.
         25    1    1    2    0    0  0.17578018096E+03  0.12089492960E+02  0.50212135168E+02  0.22179063636E+03  0.12500000000E+03 0.  0.
         25    1    1    2    0    0 -0.17277529127E+02 -0.12508589811E+03 -0.44107494162E+01  0.17773421063E+03  0.12500000000E+03 0.  0.
         25    1    1    2    0    0 -0.15850265183E+03  0.11299640515E+03  0.82434596069E+02  0.24558448820E+03  0.12500000000E+03 0.  0.
</event>
<event>
 5    0  0.5655767E-005  0.2568889E+03  0.7546771E-02  0.1109027E+00
         21   -1    0    0  502  501  0.00000000000E+00  0.00000000000E+00  0.65043020120E+02  0.65043020120E+02  0.00000000000E+00 0.  1.
         21   -1    0    0  501  502 -0.00000000000E+00 -0.00000000000E+00 -0.10145882451E+04  0.10145882451E+04  0.00000000000E+00 0.  1.
         25    1    1    2    0    0 -0.33879462468E+02 -0.90578023909E+02 -0.37544642475E+03  0.40735391768E+03  0.12500000000E+03 0.  0.
         25    1    1    2    0    0 -0.45967507600E+02  0.28656417943E+02 -0.92766917549E+02  0.16481778738E+03  0.12500000000E+03 0.  0.
         25    1    1    2    0    0  0.79846970067E+02  0.61921605966E+02 -0.48133188269E+03  0.50745956017E+03  0.12500000000E+03 0.  0.
</event>
<event>
 5    0  0.5655767E-005  0.4200911E+03  0.7546771E-02  0.1037037E+00
         21   -1    0    0  502  501  0.00000000000E+00  0.00000000000E+00  0.66005997591E+03  0.66005997591E+03  0.00000000000E+00 0. -1.
         21   -1    0    0  501  502 -0.00000000000E+00 -0.00000000000E+00 -0.26736439707E+03  0.26736439707E+03  0.00000000000E+00 0.  1.
         25    1    1    2    0    0 -0.17778284459E+02  0.26561588445E+02  0.16079341512E+03  0.20615796789E+03  0.12500000000E+03 0.  0.
         25    1    1    2    0    0  0.97564615831E+02  0.27907071440E+03  0.21533630920E+02  0.32169553177E+03  0.12500000000E+03 0.  0.
         25    1    1    2    0    0 -0.79786331372E+02 -0.30563230285E+03  0.21036853280E+03  0.39957087333E+03  0.12500000000E+03 0.  0.
</event>
<event>
 5    0  0.5655767E-005  0.2540533E+03  0.7546771E-02  0.1110770E+00
         21   -1    0    0  502  501  0.00000000000E+00  0.00000000000E+00  0.24873701981E+03  0.24873701981E+03  0.00000000000E+00 0. -1.
         21   -1    0    0  501  502 -0.00000000000E+00 -0.00000000000E+00 -0.25948311317E+03  0.25948311317E+03  0.00000000000E+00 0. -1.
         25    1    1    2    0    0 -0.89876483932E+02 -0.29288191200E+02  0.11057730929E+03  0.19180177746E+03  0.12500000000E+03 0.  0.
         25    1    1    2    0    0  0.45200741171E+01 -0.22215815853E+02 -0.24135006912E+02  0.12931153121E+03  0.12500000000E+03 0.  0.
         25    1    1    2    0    0  0.85356409815E+02  0.51504007053E+02 -0.97188395742E+02  0.18710682432E+03  0.12500000000E+03 0.  0.
</event>
<event>
 5    0  0.5655767E-005  0.3446717E+03  0.7546771E-02  0.1064823E+00
         21   -1    0    0  502  501  0.00000000000E+00  0.00000000000E+00  0.99949762240E+03  0.99949762240E+03  0.00000000000E+00 0. -1.
         21   -1    0    0  501  502 -0.00000000000E+00 -0.00000000000E+00 -0.11885830140E+03  0.11885830140E+03  0.00000000000E+00 0. -1.
         25    1    1    2    0    0  0.10880965899E+03 -0.90724838102E+02  0.22810161642E+03  0.29618555933E+03  0.12500000000E+03 0.  0.
         25    1    1    2    0    0  0.21314958001E+02 -0.18961981667E+02 -0.82345457621E+01  0.12847837144E+03  0.12500000000E+03 0.  0.
         25    1    1    2    0    0 -0.13012461699E+03  0.10968681977E+03  0.66077225034E+03  0.69369199303E+03  0.12500000000E+03 0.  0.
</event>
<event>
 5    0  0.5655767E-005  0.2225574E+03  0.7546771E-02  0.1131991E+00
         21   -1    0    0  502  501  0.00000000000E+00  0.00000000000E+00  0.35510370247E+02  0.35510370247E+02  0.00000000000E+00 0.  1.
         21   -1    0    0  501  502 -0.00000000000E+00 -0.00000000000E+00 -0.13948543270E+04  0.13948543270E+04  0.00000000000E+00 0.  1.
         25    1    1    2    0    0  0.58093566834E+02  0.16157592042E+02 -0.27717776460E+03  0.30998135988E+03  0.12500000000E+03 0.  0.
         25    1    1    2    0    0  0.28234382700E+02  0.17571920345E+02 -0.59781484809E+03  0.61164822027E+03  0.12500000000E+03 0.  0.
         25    1    1    2    0    0 -0.86327949534E+02 -0.33729512387E+02 -0.48435134407E+03  0.50873511711E+03  0.12500000000E+03 0.  0.
</event>
<event>
 5    0  0.5655767E-005  0.4312986E+03  0.7546771E-02  0.1033451E+00
         21   -1    0    0  502  501  0.00000000000E+00  0.00000000000E+00  0.23758715890E+03  0.23758715890E+03  0.00000000000E+00 0. -1.
         21   -1    0    0  501  502 -0.00000000000E+00 -0.00000000000E+00 -0.78294834025E+03  0.78294834025E+03  0.00000000000E+00 0. -1.
         25    1    1    2    0    0 -0.93038496051E+02 -0.91363873449E+02  0.38327906952E+02  0.18465521268E+03  0.12500000000E+03 0.  0.
         25    1    1    2    0    0  0.15156016819E+03 -0.66984782872E+02 -0.59028989205E+03  0.62571926802E+03  0.12500000000E+03 0.  0.
         25    1    1    2    0    0 -0.58521672136E+02  0.15834865632E+03  0.66008037456E+01  0.21016101846E+03  0.12500000000E+03 0.  0.
</event>
<event>
 5    0  0.5655767E-005  0.3032068E+03  0.7546771E-02  0.1083648E+00
         21   -1    0    0  502  501  0.00000000000E+00  0.00000000000E+00  0.12451824578E+04  0.12451824578E+04  0.00000000000E+00 0.  1.
         21   -1    0    0  501  502 -0.00000000000E+00 -0.00000000000E+00 -0.73832037183E+02  0.73832037183E+02  0.00000000000E+00 0.  1.
         25    1    1    2    0    0  0.11933577136E+03 -0.12882677238E+02  0.28735209702E+03  0.33556402871E+03  0.12500000000E+03 0.  0.
         25    1    1    2    0    0 -0.19949879887E+03  0.40404867766E+01  0.73943534183E+03  0.77601914992E+03  0.12500000000E+03 0.  0.
         25    1    1    2    0    0  0.80163027513E+02  0.88421904610E+01  0.14456298177E+03  0.20743131637E+03  0.12500000000E+03 0.  0.
</event>
<event>
 5    0  0.5655767E-005  0.4719147E+03  0.7546771E-02  0.1021381E+00
         21   -1    0    0  502  501  0.00000000000E+00  0.00000000000E+00  0.27541857056E+03  0.27541857056E+03  0.00000000000E+00 0. -1.
         21   -1    0    0  501  502 -0.00000000000E+00 -0.00000000000E+00 -0.80860022938E+03  0.80860022938E+03  0.00000000000E+00 0. -1.
         25    1    1    2    0    0  0.34914794064E+02  0.28068367677E+03 -0.71756443028E+02  0.31745291992E+03  0.12500000000E+03 0.  0.
         25    1    1    2    0    0 -0.67504522269E+02  0.97440651050E+02 -0.27764712117E+03  0.32674832042E+03  0.12500000000E+03 0.  0.
         25    1    1    2    0    0  0.32589728205E+02 -0.37812432782E+03 -0.18377809462E+03  0.43981755960E+03  0.12500000000E+03 0.  0.
</event>
<event>
 5    0  0.5655767E-005  0.2253424E+03  0.7546771E-02  0.1129962E+00
         21   -1    0    0  502  501  0.00000000000E+00  0.00000000000E+00  0.64382166844E+03  0.64382166844E+03  0.00000000000E+00 0. -1.
         21   -1    0    0  501  502 -0.00000000000E+00 -0.00000000000E+00 -0.78871530244E+02  0.78871530244E+02  0.00000000000E+00 0. -1.
         25    1    1    2    0    0 -0.20794523796E+02 -0.12925710507E+02  0.36504358027E+03  0.38662811811E+03  0.12500000000E+03 0.  0.
         25    1    1    2    0    0  0.29885700928E+02  0.47860841201E+02  0.12703146713E+03  0.18693798138E+03  0.12500000000E+03 0.  0.
         25    1    1    2    0    0 -0.90911771321E+01 -0.34935130694E+02  0.72875090801E+02  0.14912709921E+03  0.12500000000E+03 0.  0.
</event>
<event>
 5    0  0.5655767E-005  0.6049779E+03  0.7546771E-02  0.9895132E-01
         21   -1    0    0  502  501  0.00000000000E+00  0.00000000000E+00  0.28428082271E+03  0.28428082271E+03  0.00000000000E+00 0. -1.
         21   -1    0    0  501  502 -0.00000000000E+00 -0.00000000000E+00 -0.12874530607E+04  0.12874530607E+04  0.00000000000E+00 0. -1.
         25    1    1    2    0    0 -0.10436070394E+03  0.43864301791E+03 -0.26714966778E+03  0.53878826888E+03  0.12500000000E+03 0.  0.
         25    1    1    2    0    0  0.18492119363E+02 -0.29571742765E+03 -0.75800513107E+03  0.82339998435E+03  0.12500000000E+03 0.  0.
         25    1    1    2    0    0  0.85868584575E+02 -0.14292559026E+03  0.21982560819E+02  0.20954563023E+03  0.12500000000E+03 0.  0.
</event>
<event>
 5    0  0.5655767E-005  0.3360607E+03  0.7546771E-02  0.1068486E+00
         21   -1    0    0  502  501  0.00000000000E+00  0.00000000000E+00  0.15832262110E+04  0.15832262110E+04  0.00000000000E+00 0. -1.
         21   -1    0    0  501  502 -0.00000000000E+00 -0.00000000000E+00 -0.71333320761E+02  0.71333320761E+02  0.00000000000E+00 0. -1.
         25    1    1    2    0    0  0.17506303814E+03  0.20751155437E+02  0.41004936539E+03  0.46351176882E+03  0.12500000000E+03 0.  0.
         25    1    1    2    0    0  0.89283116150E+02 -0.38621919147E+02  0.35132531282E+03  0.38537981641E+03  0.12500000000E+03 0.  0.
         25    1    1    2    0    0 -0.26434615429E+03  0.17870763710E+02  0.75051821202E+03  0.80566794652E+03  0.12500000000E+03 0.  0.
</event>
<event>
 5    0  0.5655767E-005  0.2874108E+03  0.7546771E-02  0.1091709E+00
         21   -1    0    0  502  501  0.00000000000E+00  0.00000000000E+00  0.32577827211E+02  0.32577827211E+02  0.00000000000E+00 0. -1.
         21   -1    0    0  501  502 -0.00000000000E+00 -0.00000000000E+00 -0.25356199084E+04  0.25356199084E+04  0.00000000000E+00 0. -1.
         25    1    1    2    0    0 -0.16120485577E+00 -0.94941606536E+02 -0.56294896645E+03  0.58442319723E+03  0.12500000000E+03 0.  0.
         25    1    1    2    0    0 -0.56616905083E+02 -0.88603365075E+02 -0.51258773325E+03  0.53798439989E+03  0.12500000000E+03 0.  0.
         25    1    1    2    0    0  0.56778109938E+02  0.18354497161E+03 -0.14275053814E+04  0.14457901384E+04  0.12500000000E+03 0.  0.
</event>
<event>
 5    0  0.5655767E-005  0.2982337E+03  0.7546771E-02  0.1086127E+00
         21   -1    0    0  502  501  0.00000000000E+00  0.00000000000E+00  0.49298449558E+02  0.49298449558E+02  0.00000000000E+00 0.  1.
         21   -1    0    0  501  502 -0.00000000000E+00 -0.00000000000E+00 -0.18041818520E+04  0.18041818520E+04  0.00000000000E+00 0.  1.
         25    1    1    2    0    0 -0.35955358621E+02  0.46905943732E+02 -0.17206732418E+03  0.22073767105E+03  0.12500000000E+03 0.  0.
         25    1    1    2    0    0  0.97036175281E+02  0.53276465111E+02 -0.12209999416E+04  0.12323636875E+04  0.12500000000E+03 0.  0.
         25    1    1    2    0    0 -0.61080816660E+02 -0.10018240884E+03 -0.36181613673E+03  0.40037894301E+03  0.12500000000E+03 0.  0.
</event>
<event>
 5    0  0.5655767E-005  0.3617044E+03  0.7546771E-02  0.1057911E+00
         21   -1    0    0  502  501  0.00000000000E+00  0.00000000000E+00  0.12412138946E+04  0.12412138946E+04  0.00000000000E+00 0.  1.
         21   -1    0    0  501  502 -0.00000000000E+00 -0.00000000000E+00 -0.10540493484E+03  0.10540493484E+03  0.00000000000E+00 0.  1.
         25    1    1    2    0    0  0.24613406555E+03  0.17372335386E+02  0.71415444085E+03  0.76584942492E+03  0.12500000000E+03 0.  0.
         25    1    1    2    0    0 -0.73796359851E+02  0.43174393560E+02  0.27896857268E+03  0.31742462968E+03  0.12500000000E+03 0.  0.
         25    1    1    2    0    0 -0.17233770570E+03 -0.60546728946E+02  0.14268594624E+03  0.26334477486E+03  0.12500000000E+03 0.  0.
</event>
<event>
 5    0  0.5655767E-005  0.3205693E+03  0.7546771E-02  0.1075388E+00
         21   -1    0    0  502  501  0.00000000000E+00  0.00000000000E+00  0.10258403052E+04  0.10258403052E+04  0.00000000000E+00 0. -1.
         21   -1    0    0  501  502 -0.00000000000E+00 -0.00000000000E+00 -0.10017608711E+03  0.10017608711E+03  0.00000000000E+00 0. -1.
         25    1    1    2    0    0  0.95871461672E+02  0.16228837029E+03  0.34609079631E+03  0.41344007013E+03  0.12500000000E+03 0.  0.
         25    1    1    2    0    0 -0.49829878327E-01 -0.42347076585E+02  0.40116854360E+02  0.13794070966E+03  0.12500000000E+03 0.  0.
         25    1    1    2    0    0 -0.95821631794E+02 -0.11994129371E+03  0.53945656739E+03  0.57463561250E+03  0.12500000000E+03 0.  0.
</event>
<event>
 5    0  0.5655767E-005  0.2979903E+03  0.7546771E-02  0.1086250E+00
         21   -1    0    0  502  501  0.00000000000E+00  0.00000000000E+00  0.57021470539E+03  0.57021470539E+03  0.00000000000E+00 0. -1.
         21   -1    0    0  501  502 -0.00000000000E+00 -0.00000000000E+00 -0.15572764137E+03  0.15572764137E+03  0.00000000000E+00 0. -1.
         25    1    1    2    0    0 -0.24342979822E+02  0.34349114995E+02  0.62250410109E+02  0.14585114304E+03  0.12500000000E+03 0.  0.
         25    1    1    2    0    0  0.11964340539E+03 -0.17440671060E+03  0.14822134260E+03  0.28692649156E+03  0.12500000000E+03 0.  0.
         25    1    1    2    0    0 -0.95300425572E+02  0.14005759561E+03  0.20401531132E+03  0.29316471216E+03  0.12500000000E+03 0.  0.
</event>
<event>
 5    0  0.5655767E-005  0.2895541E+03  0.7546771E-02  0.1090582E+00
         21   -1    0    0  502  501  0.00000000000E+00  0.00000000000E+00  0.72966725983E+02  0.72966725983E+02  0.00000000000E+00 0. -1.
         21   -1    0    0  501  502 -0.00000000000E+00 -0.00000000000E+00 -0.11490386017E+04  0.11490386017E+04  0.00000000000E+00 0. -1.
         25    1    1    2    0    0  0.39166324561E+02 -0.13794311827E+03 -0.14214899731E+03  0.23747345598E+03  0.12500000000E+03 0.  0.
         25    1    1    2    0    0 -0.19712884442E+02  0.69358037717E+02 -0.28040680417E+03  0.31536028766E+03  0.12500000000E+03 0.  0.
         25    1    1    2    0    0 -0.19453440119E+02  0.68585080553E+02 -0.65351607422E+03  0.66917158403E+03  0.12500000000E+03 0.  0.
</event>
<event>
 5    0  0.6524973E-005  0.3351664E+03  0.7546771E-02  0.1068873E+00
         21   -1    0    0  502  501  0.00000000000E+00  0.00000000000E+00  0.34900080576E+03  0.34900080576E+03  0.00000000000E+00 0.  1.
         21   -1    0    0  501  502 -0.00000000000E+00 -0.00000000000E+00 -0.32188046158E+03  0.32188046158E+03  0.00000000000E+00 0.  1.
         25    1    1    2    0    0 -0.11128159761E+03  0.10633775140E+03 -0.21877255818E+02  0.19948665535E+03  0.12500000000E+03 0.  0.
         25    1    1    2    0    0  0.15113477017E+03 -0.11606545984E+03 -0.11973274684E+03  0.25743706102E+03  0.12500000000E+03 0.  0.
         25    1    1    2    0    0 -0.39853172558E+02  0.97277084414E+01  0.16873034684E+03  0.21395755097E+03  0.12500000000E+03 0.  0.
</event>
<event>
 5    0  0.5655767E-005  0.2064995E+03  0.7546771E-02  0.1144368E+00
         21   -1    0    0  502  501  0.00000000000E+00  0.00000000000E+00  0.61710104702E+03  0.61710104702E+03  0.00000000000E+00 0.  1.
         21   -1    0    0  501  502 -0.00000000000E+00 -0.00000000000E+00 -0.69100562113E+02  0.69100562113E+02  0.00000000000E+00 0.  1.
         25    1    1    2    0    0 -0.49314751227E+02 -0.38079990382E+02  0.14272297099E+03  0.19969195478E+03  0.12500000000E+03 0.  0.
         25    1    1    2    0    0  0.12585152069E+02 -0.17338516841E+02  0.17348632185E+03  0.21489884618E+03  0.12500000000E+03 0.  0.
         25    1    1    2    0    0  0.36729599158E+02  0.55418507223E+02  0.23179119206E+03  0.27161080817E+03  0.12500000000E+03 0.  0.
</event>
<event>
 5    0  0.5655767E-005  0.5720820E+03  0.7546771E-02  0.9965082E-01
         21   -1    0    0  502  501  0.00000000000E+00  0.00000000000E+00  0.35520747273E+03  0.35520747273E+03  0.00000000000E+00 0. -1.
         21   -1    0    0  501  502 -0.00000000000E+00 -0.00000000000E+00 -0.92137073275E+03  0.92137073275E+03  0.00000000000E+00 0. -1.
         25    1    1    2    0    0  0.66324683233E+02  0.32479927002E+02 -0.87837062347E+02  0.16968871143E+03  0.12500000000E+03 0.  0.
         25    1    1    2    0    0 -0.22182336586E+03  0.73282388969E+01 -0.73585552465E+03  0.77869612936E+03  0.12500000000E+03 0.  0.
         25    1    1    2    0    0  0.15549868263E+03 -0.39808165898E+02  0.25752932698E+03  0.32819336469E+03  0.12500000000E+03 0.  0.
</event>
<event>
 5    0  0.6013234E-005  0.4802860E+03  0.7546771E-02  0.1019057E+00
         21   -1    0    0  502  501  0.00000000000E+00  0.00000000000E+00  0.12110519707E+04  0.12110519707E+04  0.00000000000E+00 0. -1.
         21   -1    0    0  501  502 -0.00000000000E+00 -0.00000000000E+00 -0.19047458178E+03  0.19047458178E+03  0.00000000000E+00 0. -1.
         25    1    1    2    0    0 -0.15070173108E+03 -0.22123103516E+03  0.65534359128E+03  0.71885631757E+03  0.12500000000E+03 0.  0.
         25    1    1    2    0    0  0.48070297058E+02  0.77577174757E+01 -0.84992438150E+02  0.15880695886E+03  0.12500000000E+03 0.  0.
         25    1    1    2    0    0  0.10263143402E+03  0.21347331768E+03  0.45022623575E+03  0.52386327603E+03  0.12500000000E+03 0.  0.
</event>
<event>
 5    0  0.5655767E-005  0.2442841E+03  0.7546771E-02  0.1116971E+00
         21   -1    0    0  502  501  0.00000000000E+00  0.00000000000E+00  0.30422240872E+03  0.30422240872E+03  0.00000000000E+00 0.  1.
         21   -1    0    0  501  502 -0.00000000000E+00 -0.00000000000E+00 -0.19615489872E+03  0.19615489872E+03  0.00000000000E+00 0.  1.
         25    1    1    2    0    0  0.88842425831E+02 -0.50715008884E+02  0.22516847366E+02  0.16308585827E+03  0.12500000000E+03 0.  0.
         25    1    1    2    0    0 -0.10862713070E+03 -0.20551603002E+02  0.94498248249E+02  0.19177367085E+03  0.12500000000E+03 0.  0.
         25    1    1    2    0    0  0.19784704870E+02  0.71266611885E+02 -0.89475856119E+01  0.14551777831E+03  0.12500000000E+03 0.  0.
</event>
<event>
 5    0  0.5655767E-005  0.4089933E+03  0.7546771E-02  0.1040709E+00
         21   -1    0    0  502  501  0.00000000000E+00  0.00000000000E+00  0.96891994160E+03  0.96891994160E+03  0.00000000000E+00 0. -1.
         21   -1    0    0  501  502 -0.00000000000E+00 -0.00000000000E+00 -0.17264124704E+03  0.17264124704E+03  0.00000000000E+00 0. -1.
         25    1    1    2    0    0  0.73248934041E+02  0.17032896341E+03 -0.56627933596E+02  0.23067094524E+03  0.12500000000E+03 0.  0.
         25    1    1    2    0    0 -0.14978963748E+02 -0.90201056950E+02  0.50390319018E+03  0.52716603182E+03  0.12500000000E+03 0.  0.
         25    1    1    2    0    0 -0.58269970292E+02 -0.80127906461E+02  0.34900343798E+03  0.38372421158E+03  0.12500000000E+03 0.  0.
</event>
<event>
 5    0  0.5655767E-005  0.3375661E+03  0.7546771E-02  0.1067837E+00
         21   -1    0    0  502  501  0.00000000000E+00  0.00000000000E+00  0.12173136578E+04  0.12173136578E+04  0.00000000000E+00 0. -1.
         21   -1    0    0  501  502 -0.00000000000E+00 -0.00000000000E+00 -0.93608483968E+02  0.93608483968E+02  0.00000000000E+00 0. -1.
         25    1    1    2    0    0 -0.48025543847E+02  0.13232462338E+03  0.41166484222E+03  0.45266897523E+03  0.12500000000E+03 0.  0.
         25    1    1    2    0    0  0.73919285949E+02  0.66373848509E+02  0.54777942938E+03  0.57057589491E+03  0.12500000000E+03 0.  0.
         25    1    1    2    0    0 -0.25893742102E+02 -0.19869847189E+03  0.16426090225E+03  0.28767727164E+03  0.12500000000E+03 0.  0.
</event>
<event>
 5    0  0.6029409E-005  0.2852118E+03  0.7546771E-02  0.1092876E+00
         21   -1    0    0  502  501  0.00000000000E+00  0.00000000000E+00  0.38021149568E+03  0.38021149568E+03  0.00000000000E+00 0.  1.
         21   -1    0    0  501  502 -0.00000000000E+00 -0.00000000000E+00 -0.21394873050E+03  0.21394873050E+03  0.00000000000E+00 0.  1.
         25    1    1    2    0    0  0.35908596787E+02  0.42684818300E+02  0.12460273524E+03  0.18510068251E+03  0.12500000000E+03 0.  0.
         25    1    1    2    0    0  0.86651412490E+02 -0.10270704418E+03  0.10742778334E+03  0.21265684293E+03  0.12500000000E+03 0.  0.
         25    1    1    2    0    0 -0.12256000928E+03  0.60022225880E+02 -0.65767753392E+02  0.19640270074E+03  0.12500000000E+03 0.  0.
</event>
<event>
 5    0  0.5655767E-005  0.4173368E+03  0.7546771E-02  0.1037937E+00
         21   -1    0    0  502  501  0.00000000000E+00  0.00000000000E+00  0.89014671097E+03  0.89014671097E+03  0.00000000000E+00 0. -1.
         21   -1    0    0  501  502 -0.00000000000E+00 -0.00000000000E+00 -0.19566434103E+03  0.19566434103E+03  0.00000000000E+00 0. -1.
         25    1    1    2    0    0 -0.30519150431E+01 -0.23383493250E+03  0.19650653430E+03  0.33004228194E+03  0.12500000000E+03 0.  0.
         25    1    1    2    0    0 -0.86082695031E+02 -0.11168396374E+03  0.13648184347E+03  0.23267108058E+03  0.12500000000E+03 0.  0.
         25    1    1    2    0    0  0.89134610074E+02  0.34551889624E+03  0.36149399217E+03  0.52309768949E+03  0.12500000000E+03 0.  0.
</event>
<event>
 5    0  0.5655767E-005  0.3545017E+03  0.7546771E-02  0.1060782E+00
         21   -1    0    0  502  501  0.00000000000E+00  0.00000000000E+00  0.32074487785E+03  0.32074487785E+03  0.00000000000E+00 0. -1.
         21   -1    0    0  501  502 -0.00000000000E+00 -0.00000000000E+00 -0.39181136516E+03  0.39181136516E+03  0.00000000000E+00 0. -1.
         25    1    1    2    0    0  0.73197066825E+02 -0.31153389860E+02 -0.71546476061E+02  0.16453644742E+03  0.12500000000E+03 0.  0.
         25    1    1    2    0    0 -0.16176268837E+03  0.51498212718E+02 -0.20289332301E+03  0.29259175276E+03  0.12500000000E+03 0.  0.
         25    1    1    2    0    0  0.88565621541E+02 -0.20344822858E+02  0.20337331175E+03  0.25542804284E+03  0.12500000000E+03 0.  0.
</event>
<event>
 5    0  0.5655767E-005  0.2972567E+03  0.7546771E-02  0.1086620E+00
         21   -1    0    0  502  501  0.00000000000E+00  0.00000000000E+00  0.97580692058E+02  0.97580692058E+02  0.00000000000E+00 0. -1.
         21   -1    0    0  501  502 -0.00000000000E+00 -0.00000000000E+00 -0.90552269991E+03  0.90552269991E+03  0.00000000000E+00 0. -1.
         25    1    1    2    0    0 -0.58325972555E+02 -0.12449740187E+02 -0.14440085200E+03  0.20008378536E+03  0.12500000000E+03 0.  0.
         25    1    1    2    0    0 -0.89461550465E+02 -0.19831818330E+01 -0.53383707662E+02  0.16273328567E+03  0.12500000000E+03 0.  0.
         25    1    1    2    0    0  0.14778752302E+03  0.14432922020E+02 -0.61015744819E+03  0.64028632093E+03  0.12500000000E+03 0.  0.
</event>
<event>
 5    0  0.5655767E-005  0.3625709E+03  0.7546771E-02  0.1057571E+00
         21   -1    0    0  502  501  0.00000000000E+00  0.00000000000E+00  0.13625406821E+04  0.13625406821E+04  0.00000000000E+00 0.  1.
         21   -1    0    0  501  502 -0.00000000000E+00 -0.00000000000E+00 -0.96479807367E+02  0.96479807367E+02  0.00000000000E+00 0.  1.
         25    1    1    2    0    0 -0.13142005446E+03  0.14720234443E+03  0.23164211243E+03  0.32897238360E+03  0.12500000000E+03 0.  0.
         25    1    1    2    0    0  0.11386920244E+03 -0.11220303700E+03  0.95617093927E+03  0.97746794417E+03  0.12500000000E+03 0.  0.
         25    1    1    2    0    0  0.17550852020E+02 -0.34999307432E+02  0.78247822999E+02  0.15258016166E+03  0.12500000000E+03 0.  0.
</event>
<event>
 5    0  0.5655767E-005  0.2825828E+03  0.7546771E-02  0.1094287E+00
         21   -1    0    0  502  501  0.00000000000E+00  0.00000000000E+00  0.21196867885E+03  0.21196867885E+03  0.00000000000E+00 0. -1.
         21   -1    0    0  501  502 -0.00000000000E+00 -0.00000000000E+00 -0.37672091671E+03  0.37672091671E+03  0.00000000000E+00 0. -1.
         25    1    1    2    0    0 -0.14255522712E+03 -0.14288106574E+03 -0.46328662905E+02  0.24188496591E+03  0.12500000000E+03 0.  0.
         25    1    1    2    0    0  0.87901074531E+02  0.86507568587E+02 -0.86626637477E+02  0.19580432234E+03  0.12500000000E+03 0.  0.
         25    1    1    2    0    0  0.54654152586E+02  0.56373497156E+02 -0.31796937474E+02  0.15100030732E+03  0.12500000000E+03 0.  0.
</event>
<event>
 5    0  0.5655767E-005  0.4610551E+03  0.7546771E-02  0.1024476E+00
         21   -1    0    0  502  501  0.00000000000E+00  0.00000000000E+00  0.49546815714E+03  0.49546815714E+03  0.00000000000E+00 0. -1.
         21   -1    0    0  501  502 -0.00000000000E+00 -0.00000000000E+00 -0.42903221949E+03  0.42903221949E+03  0.00000000000E+00 0. -1.
         25    1    1    2    0    0 -0.32920884497E+02 -0.41979693987E+01  0.15487219729E+03  0.20177166570E+03  0.12500000000E+03 0.  0.
         25    1    1    2    0    0  0.10154498962E+03 -0.27000851427E+03  0.13418691176E+03  0.34182906544E+03  0.12500000000E+03 0.  0.
         25    1    1    2    0    0 -0.68624105122E+02  0.27420648366E+03 -0.22262317141E+03  0.38089964549E+03  0.12500000000E+03 0.  0.
</event>
<event>
 5    0  0.5655767E-005  0.2164234E+03  0.7546771E-02  0.1136578E+00
         21   -1    0    0  502  501  0.00000000000E+00  0.00000000000E+00  0.88859584201E+03  0.88859584201E+03  0.00000000000E+00 0. -1.
         21   -1    0    0  501  502 -0.00000000000E+00 -0.00000000000E+00 -0.52711353137E+02  0.52711353137E+02  0.00000000000E+00 0. -1.
         25    1    1    2    0    0  0.39329053956E+02 -0.36120198287E+02  0.33491224994E+03  0.36144523564E+03  0.12500000000E+03 0.  0.
         25    1    1    2    0    0 -0.63086669891E+02  0.42922575341E+02  0.36616872386E+03  0.39436887520E+03  0.12500000000E+03 0.  0.
         25    1    1    2    0    0  0.23757615935E+02 -0.68023770537E+01  0.13480351507E+03  0.18549308430E+03  0.12500000000E+03 0.  0.
</event>
<event>
 5    0  0.5655767E-005  0.2780180E+03  0.7546771E-02  0.1096776E+00
         21   -1    0    0  502  501  0.00000000000E+00  0.00000000000E+00  0.21709468916E+03  0.21709468916E+03  0.00000000000E+00 0.  1.
         21   -1    0    0  501  502 -0.00000000000E+00 -0.00000000000E+00 -0.35603817450E+03  0.35603817450E+03  0.00000000000E+00 0.  1.
         25    1    1    2    0    0 -0.17030985151E+01 -0.13804423188E+03 -0.11007315398E+03  0.21633356126E+03  0.12500000000E+03 0.  0.
         25    1    1    2    0    0 -0.96054910328E+02  0.43864963175E+02 -0.49906342625E+02  0.17107403025E+03  0.12500000000E+03 0.  0.
         25    1    1    2    0    0  0.97758008844E+02  0.94179268702E+02  0.21036011268E+02  0.18572527215E+03  0.12500000000E+03 0.  0.
</event>
<event>
 5    0  0.5655767E-005  0.2857643E+03  0.7546771E-02  0.1092582E+00
         21   -1    0    0  502  501  0.00000000000E+00  0.00000000000E+00  0.71597524354E+03  0.71597524354E+03  0.00000000000E+00 0.  1.
         21   -1    0    0  501  502 -0.00000000000E+00 -0.00000000000E+00 -0.11405592671E+03  0.11405592671E+03  0.00000000000E+00 0.  1.
         25    1    1    2    0    0 -0.16820784361E+03  0.64120306781E+02  0.12531416992E+03  0.25245580520E+03  0.12500000000E+03 0.  0.
         25    1    1    2    0    0  0.14001554950E+03 -0.62542625624E+02  0.30048145127E+03  0.35976386239E+03  0.12500000000E+03 0.  0.
         25    1    1    2    0    0  0.28192294108E+02 -0.15776811570E+01  0.17612369564E+03  0.21781150266E+03  0.12500000000E+03 0.  0.
</event>
<event>
 5    0  0.6100988E-005  0.3651129E+03  0.7546771E-02  0.1056578E+00
         21   -1    0    0  502  501  0.00000000000E+00  0.00000000000E+00  0.74969300511E+03  0.74969300511E+03  0.00000000000E+00 0.  1.
         21   -1    0    0  501  502 -0.00000000000E+00 -0.00000000000E+00 -0.17781606117E+03  0.17781606117E+03  0.00000000000E+00 0.  1.
         25    1    1    2    0    0  0.15940939318E+03  0.19107654230E+03  0.78845319818E+02  0.28941870035E+03  0.12500000000E+03 0.  0.
         25    1    1    2    0    0 -0.17786794282E+03 -0.10033589021E+03  0.22712781824E+03  0.33002475932E+03  0.12500000000E+03 0.  0.
         25    1    1    2    0    0  0.18458549645E+02 -0.90740652091E+02  0.26590380588E+03  0.30806560661E+03  0.12500000000E+03 0.  0.
</event>
<event>
 5    0  0.5687179E-005  0.3424011E+03  0.7546771E-02  0.1065778E+00
         21   -1    0    0  502  501  0.00000000000E+00  0.00000000000E+00  0.29509376722E+03  0.29509376722E+03  0.00000000000E+00 0.  1.
         21   -1    0    0  501  502 -0.00000000000E+00 -0.00000000000E+00 -0.39729234342E+03  0.39729234342E+03  0.00000000000E+00 0.  1.
         25    1    1    2    0    0  0.15430938965E+03  0.17246053202E+03 -0.62462107585E+02  0.27033412238E+03  0.12500000000E+03 0.  0.
         25    1    1    2    0    0 -0.62220940632E+02 -0.13507993693E+03 -0.13456120009E+03  0.23632551996E+03  0.12500000000E+03 0.  0.
         25    1    1    2    0    0 -0.92088449018E+02 -0.37380595083E+02  0.94824731477E+02  0.18572646831E+03  0.12500000000E+03 0.  0.
</event>
<event>
 5    0  0.5655767E-005  0.2854428E+03  0.7546771E-02  0.1092753E+00
         21   -1    0    0  502  501  0.00000000000E+00  0.00000000000E+00  0.18879828849E+03  0.18879828849E+03  0.00000000000E+00 0.  1.
         21   -1    0    0  501  502 -0.00000000000E+00 -0.00000000000E+00 -0.43155886658E+03  0.43155886658E+03  0.00000000000E+00 0.  1.
         25    1    1    2    0    0  0.72413874883E+02 -0.15289406378E+03 -0.48831528780E+02  0.21593953370E+03  0.12500000000E+03 0.  0.
         25    1    1    2    0    0 -0.52167927573E+02  0.17887672729E+03 -0.10654148787E+03  0.24838370492E+03  0.12500000000E+03 0.  0.
         25    1    1    2    0    0 -0.20245947310E+02 -0.25982663517E+02 -0.87387561437E+02  0.15603391644E+03  0.12500000000E+03 0.  0.
</event>
<event>
 5    0  0.5655767E-005  0.3920305E+03  0.7546771E-02  0.1046575E+00
         21   -1    0    0  502  501  0.00000000000E+00  0.00000000000E+00  0.55479353727E+03  0.55479353727E+03  0.00000000000E+00 0.  1.
         21   -1    0    0  501  502 -0.00000000000E+00 -0.00000000000E+00 -0.27701827322E+03  0.27701827322E+03  0.00000000000E+00 0.  1.
         25    1    1    2    0    0 -0.14810614447E+03  0.24145751320E+03  0.64022688679E+02  0.31616619898E+03  0.12500000000E+03 0.  0.
         25    1    1    2    0    0 -0.25062623925E+02  0.22640914479E+02  0.53704158074E+02  0.14017803937E+03  0.12500000000E+03 0.  0.
         25    1    1    2    0    0  0.17316876840E+03 -0.26409842768E+03  0.16004841730E+03  0.37546757214E+03  0.12500000000E+03 0.  0.
</event>
<event>
 5    0  0.5655767E-005  0.5337290E+03  0.7546771E-02  0.1005332E+00
         21   -1    0    0  502  501  0.00000000000E+00  0.00000000000E+00  0.26318068879E+03  0.26318068879E+03  0.00000000000E+00 0.  1.
         21   -1    0    0  501  502 -0.00000000000E+00 -0.00000000000E+00 -0.10823996679E+04  0.10823996679E+04  0.00000000000E+00 0.  1.
         25    1    1    2    0    0 -0.43307533214E+03 -0.84393840191E+02 -0.17822394781E+03  0.49200136092E+03  0.12500000000E+03 0.  0.
         25    1    1    2    0    0  0.35898244087E+03  0.50420145315E+02 -0.57329577589E+03  0.68971271596E+03  0.12500000000E+03 0.  0.
         25    1    1    2    0    0  0.74092891275E+02  0.33973694876E+02 -0.67699255454E+02  0.16386627984E+03  0.12500000000E+03 0.  0.
</event>
<event>
 5    0  0.5655767E-005  0.2702848E+03  0.7546771E-02  0.1101117E+00
         21   -1    0    0  502  501  0.00000000000E+00  0.00000000000E+00  0.51656683844E+03  0.51656683844E+03  0.00000000000E+00 0. -1.
         21   -1    0    0  501  502 -0.00000000000E+00 -0.00000000000E+00 -0.14142195810E+03  0.14142195810E+03  0.00000000000E+00 0. -1.
         25    1    1    2    0    0 -0.21696218971E+02  0.78750716219E+01  0.11564620345E+03  0.17184815112E+03  0.12500000000E+03 0.  0.
         25    1    1    2    0    0  0.66811674908E+02  0.14761746241E+03  0.10644907428E+03  0.23067535744E+03  0.12500000000E+03 0.  0.
         25    1    1    2    0    0 -0.45115455937E+02 -0.15549253404E+03  0.15304960261E+03  0.25546528798E+03  0.12500000000E+03 0.  0.
</event>
<event>
 5    0  0.5655767E-005  0.4207619E+03  0.7546771E-02  0.1036819E+00
         21   -1    0    0  502  501  0.00000000000E+00  0.00000000000E+00  0.10089305109E+04  0.10089305109E+04  0.00000000000E+00 0.  1.
         21   -1    0    0  501  502 -0.00000000000E+00 -0.00000000000E+00 -0.17547347949E+03  0.17547347949E+03  0.00000000000E+00 0.  1.
         25    1    1    2    0    0 -0.11749417578E+03  0.19309346086E+03  0.32729713901E+03  0.41693930395E+03  0.12500000000E+03 0.  0.
         25    1    1    2    0    0  0.27756998499E+03 -0.15569281488E+03  0.19384631757E+03  0.39304801743E+03  0.12500000000E+03 0.  0.
         25    1    1    2    0    0 -0.16007580921E+03 -0.37400645985E+02  0.31231357479E+03  0.37441666898E+03  0.12500000000E+03 0.  0.
</event>
<event>
 5    0  0.5655767E-005  0.3142145E+03  0.7546771E-02  0.1078343E+00
         21   -1    0    0  502  501  0.00000000000E+00  0.00000000000E+00  0.16561224905E+03  0.16561224905E+03  0.00000000000E+00 0. -1.
         21   -1    0    0  501  502 -0.00000000000E+00 -0.00000000000E+00 -0.59615620660E+03  0.59615620660E+03  0.00000000000E+00 0. -1.
         25    1    1    2    0    0  0.10071821534E+02 -0.97349711408E+02  0.50328148807E+02  0.16654227830E+03  0.12500000000E+03 0.  0.
         25    1    1    2    0    0 -0.11124397248E+03  0.83183350453E+02 -0.29304698277E+03  0.34755751368E+03  0.12500000000E+03 0.  0.
         25    1    1    2    0    0  0.10117215094E+03  0.14166360955E+02 -0.18782512359E+03  0.24766866366E+03  0.12500000000E+03 0.  0.
</event>
<event>
 5    0  0.5655767E-005  0.4355261E+03  0.7546771E-02  0.1032128E+00
         21   -1    0    0  502  501  0.00000000000E+00  0.00000000000E+00  0.12329695919E+04  0.12329695919E+04  0.00000000000E+00 0.  1.
         21   -1    0    0  501  502 -0.00000000000E+00 -0.00000000000E+00 -0.15384236121E+03  0.15384236121E+03  0.00000000000E+00 0.  1.
         25    1    1    2    0    0 -0.35616110301E+02  0.36037487174E+02  0.11413900982E+03  0.17669159957E+03  0.12500000000E+03 0.  0.
         25    1    1    2    0    0  0.69140875079E+02  0.29666169800E+03  0.67187950981E+03  0.74822169132E+03  0.12500000000E+03 0.  0.
         25    1    1    2    0    0 -0.33524764778E+02 -0.33269918517E+03  0.29310871110E+03  0.46189866226E+03  0.12500000000E+03 0.  0.
</event>
<event>
 5    0  0.5655767E-005  0.2095598E+03  0.7546771E-02  0.1141915E+00
         21   -1    0    0  502  501  0.00000000000E+00  0.00000000000E+00  0.10171743289E+04  0.10171743289E+04  0.00000000000E+00 0. -1.
         21   -1    0    0  501  502 -0.00000000000E+00 -0.00000000000E+00 -0.43173830915E+02  0.43173830915E+02  0.00000000000E+00 0. -1.
         25    1    1    2    0    0 -0.32986088062E+02  0.84279225877E+01  0.23666684648E+03  0.26980605647E+03  0.12500000000E+03 0.  0.
         25    1    1    2    0    0 -0.37515210352E+02  0.34766496629E+02  0.36409454762E+03  0.38833740472E+03  0.12500000000E+03 0.  0.
         25    1    1    2    0    0  0.70501298414E+02 -0.43194419216E+02  0.37323910387E+03  0.40220469861E+03  0.12500000000E+03 0.  0.
</event>
<event>
 5    0  0.5655767E-005  0.3626526E+03  0.7546771E-02  0.1057538E+00
         21   -1    0    0  502  501  0.00000000000E+00  0.00000000000E+00  0.15439827934E+03  0.15439827934E+03  0.00000000000E+00 0. -1.
         21   -1    0    0  501  502 -0.00000000000E+00 -0.00000000000E+00 -0.85180315005E+03  0.85180315005E+03  0.00000000000E+00 0. -1.
         25    1    1    2    0    0  0.22480135055E+03  0.17092111723E+03 -0.19816764668E+03  0.36694017458E+03  0.12500000000E+03 0.  0.
         25    1    1    2    0    0 -0.96452386338E+02 -0.13989501109E+03 -0.32479972600E+03  0.38728999338E+03  0.12500000000E+03 0.  0.
         25    1    1    2    0    0 -0.12834896421E+03 -0.31026106141E+02 -0.17443749802E+03  0.25197126144E+03  0.12500000000E+03 0.  0.
</event>
<event>
 5    0  0.5655767E-005  0.2467780E+03  0.7546771E-02  0.1115358E+00
         21   -1    0    0  502  501  0.00000000000E+00  0.00000000000E+00  0.50817630898E+02  0.50817630898E+02  0.00000000000E+00 0. -1.
         21   -1    0    0  501  502 -0.00000000000E+00 -0.00000000000E+00 -0.11983912277E+04  0.11983912277E+04  0.00000000000E+00 0. -1.
         25    1    1    2    0    0 -0.11382668876E+03  0.60577826852E+01 -0.49561478707E+03  0.52369096705E+03  0.12500000000E+03 0.  0.
         25    1    1    2    0    0  0.98178781800E+02 -0.61487788779E+02 -0.44935595655E+03  0.48058880246E+03  0.12500000000E+03 0.  0.
         25    1    1    2    0    0  0.15647906960E+02  0.55430006094E+02 -0.20260285322E+03  0.24492908913E+03  0.12500000000E+03 0.  0.
</event>
<event>
 5    0  0.5655767E-005  0.2136827E+03  0.7546771E-02  0.1138682E+00
         21   -1    0    0  502  501  0.00000000000E+00  0.00000000000E+00  0.14502087061E+03  0.14502087061E+03  0.00000000000E+00 0. -1.
         21   -1    0    0  501  502 -0.00000000000E+00 -0.00000000000E+00 -0.31485324745E+03  0.31485324745E+03  0.00000000000E+00 0. -1.
         25    1    1    2    0    0 -0.15643066244E+02  0.14745384190E+02 -0.98402368057E+02  0.16053086281E+03  0.12500000000E+03 0.  0.
         25    1    1    2    0    0  0.69250502152E+02  0.83183740332E+01 -0.74475062197E+02  0.16135787023E+03  0.12500000000E+03 0.  0.
         25    1    1    2    0    0 -0.53607435908E+02 -0.23063758223E+02  0.30450534132E+01  0.13798538502E+03  0.12500000000E+03 0.  0.
</event>
<event>
 5    0  0.5655767E-005  0.3225527E+03  0.7546771E-02  0.1074480E+00
         21   -1    0    0  502  501  0.00000000000E+00  0.00000000000E+00  0.21190219848E+03  0.21190219848E+03  0.00000000000E+00 0.  1.
         21   -1    0    0  501  502 -0.00000000000E+00 -0.00000000000E+00 -0.49098243487E+03  0.49098243487E+03  0.00000000000E+00 0.  1.
         25    1    1    2    0    0 -0.14769641089E+03  0.79186784631E+01 -0.17077615482E+03  0.25819843205E+03  0.12500000000E+03 0.  0.
         25    1    1    2    0    0  0.43860233090E+02 -0.12671312055E+03 -0.15266634772E+03  0.23856225328E+03  0.12500000000E+03 0.  0.
         25    1    1    2    0    0  0.10383617780E+03  0.11879444208E+03  0.44362266156E+02  0.20612394802E+03  0.12500000000E+03 0.  0.
</event>
<event>
 5    0  0.5655767E-005  0.2850938E+03  0.7546771E-02  0.1092939E+00
         21   -1    0    0  502  501  0.00000000000E+00  0.00000000000E+00  0.26127323660E+03  0.26127323660E+03  0.00000000000E+00 0. -1.
         21   -1    0    0  501  502 -0.00000000000E+00 -0.00000000000E+00 -0.31108609787E+03  0.31108609787E+03  0.00000000000E+00 0. -1.
         25    1    1    2    0    0 -0.10030557455E+03  0.29834632368E+02 -0.46579278255E+02  0.16954628494E+03  0.12500000000E+03 0.  0.
         25    1    1    2    0    0  0.15066284453E+03 -0.12815010383E+03  0.17910559399E+02  0.23466471821E+03  0.12500000000E+03 0.  0.
         25    1    1    2    0    0 -0.50357269984E+02  0.98315471465E+02 -0.21144142415E+02  0.16814833133E+03  0.12500000000E+03 0.  0.
</event>
<event>
 5    0  0.5655767E-005  0.4138134E+03  0.7546771E-02  0.1039099E+00
         21   -1    0    0  502  501  0.00000000000E+00  0.00000000000E+00  0.98515684147E+03  0.98515684147E+03  0.00000000000E+00 0.  1.
         21   -1    0    0  501  502 -0.00000000000E+00 -0.00000000000E+00 -0.17382155312E+03  0.17382155312E+03  0.00000000000E+00 0.  1.
         25    1    1    2    0    0  0.15908264329E+03 -0.78786124219E+02 -0.40138913042E+02  0.22079554594E+03  0.12500000000E+03 0.  0.
         25    1    1    2    0    0 -0.52380161160E+02  0.16075779682E+03  0.45219634462E+03  0.49869157263E+03  0.12500000000E+03 0.  0.
         25    1    1    2    0    0 -0.10670248213E+03 -0.81971672604E+02  0.39927785676E+03  0.43949127602E+03  0.12500000000E+03 0.  0.
</event>
<event>
 5    0  0.5655767E-005  0.3760545E+03  0.7546771E-02  0.1052402E+00
         21   -1    0    0  502  501  0.00000000000E+00  0.00000000000E+00  0.30547477047E+03  0.30547477047E+03  0.00000000000E+00 0.  1.
         21   -1    0    0  501  502 -0.00000000000E+00 -0.00000000000E+00 -0.46294173554E+03  0.46294173554E+03  0.00000000000E+00 0.  1.
         25    1    1    2    0    0 -0.73865135290E+02 -0.44906012458E+02 -0.33048391448E+03  0.36375434829E+03  0.12500000000E+03 0.  0.
         25    1    1    2    0    0  0.14207884813E+02 -0.95396802246E+02  0.29035083560E+02  0.16053177239E+03  0.12500000000E+03 0.  0.
         25    1    1    2    0    0  0.59657250477E+02  0.14030281470E+03  0.14398186585E+03  0.24413038533E+03  0.12500000000E+03 0.  0.
</event>
<event>
 5    0  0.5655767E-005  0.2978672E+03  0.7546771E-02  0.1086312E+00
         21   -1    0    0  502  501  0.00000000000E+00  0.00000000000E+00  0.74294858451E+03  0.74294858451E+03  0.00000000000E+00 0. -1.
         21   -1    0    0  501  502 -0.00000000000E+00 -0.00000000000E+00 -0.11942259965E+03  0.11942259965E+03  0.00000000000E+00 0. -1.
         25    1    1    2    0    0 -0.62446523675E+02 -0.13639290478E+03  0.13492551146E+03  0.23734465748E+03  0.12500000000E+03 0.  0.
         25    1    1    2    0    0 -0.77136103091E+02  0.13602589503E+03  0.28551750925E+03  0.34870943578E+03  0.12500000000E+03 0.  0.
         25    1    1    2    0    0  0.13958262677E+03  0.36700975318E+00  0.20308296416E+03  0.27631709090E+03  0.12500000000E+03 0.  0.
</event>
<event>
 5    0  0.5655767E-005  0.2033965E+03  0.7546771E-02  0.1146905E+00
         21   -1    0    0  502  501  0.00000000000E+00  0.00000000000E+00  0.49147342995E+03  0.49147342995E+03  0.00000000000E+00 0.  1.
         21   -1    0    0  501  502 -0.00000000000E+00 -0.00000000000E+00 -0.84175719252E+02  0.84175719252E+02  0.00000000000E+00 0.  1.
         25    1    1    2    0    0 -0.53883705791E+02 -0.18276597966E+01  0.18329062209E+03  0.22831392037E+03  0.12500000000E+03 0.  0.
         25    1    1    2    0    0  0.12906592410E+02  0.22879884556E+02  0.77897307183E+02  0.14960969123E+03  0.12500000000E+03 0.  0.
         25    1    1    2    0    0  0.40977113381E+02 -0.21052224759E+02  0.14610978142E+03  0.19772553759E+03  0.12500000000E+03 0.  0.
</event>
<event>
 5    0  0.5655767E-005  0.2882028E+03  0.7546771E-02  0.1091291E+00
         21   -1    0    0  502  501  0.00000000000E+00  0.00000000000E+00  0.15904111142E+04  0.15904111142E+04  0.00000000000E+00 0. -1.
         21   -1    0    0  501  502 -0.00000000000E+00 -0.00000000000E+00 -0.52226035115E+02  0.52226035115E+02  0.00000000000E+00 0. -1.
         25    1    1    2    0    0  0.21605080620E+02 -0.10941332440E+03  0.31218336443E+03  0.35429014676E+03  0.12500000000E+03 0.  0.
         25    1    1    2    0    0  0.83961440558E+02  0.56670783383E+02  0.94750518840E+03  0.96106825108E+03  0.12500000000E+03 0.  0.
         25    1    1    2    0    0 -0.10556652118E+03  0.52742541013E+02  0.27849652621E+03  0.32727875143E+03  0.12500000000E+03 0.  0.
</event>
<event>
 5    0  0.5655767E-005  0.4095403E+03  0.7546771E-02  0.1040525E+00
         21   -1    0    0  502  501  0.00000000000E+00  0.00000000000E+00  0.25424464616E+03  0.25424464616E+03  0.00000000000E+00 0.  1.
         21   -1    0    0  501  502 -0.00000000000E+00 -0.00000000000E+00 -0.65969226006E+03  0.65969226006E+03  0.00000000000E+00 0.  1.
         25    1    1    2    0    0  0.48160783478E+02  0.13005209843E+02 -0.17641531813E+02  0.13573805728E+03  0.12500000000E+03 0.  0.
         25    1    1    2    0    0  0.10584784088E+03 -0.11196129883E+03  0.11455924719E+03  0.22910242027E+03  0.12500000000E+03 0.  0.
         25    1    1    2    0    0 -0.15400862435E+03  0.98956088992E+02 -0.50236532927E+03  0.54909642867E+03  0.12500000000E+03 0.  0.
</event>
<event>
 5    0  0.5655767E-005  0.3049005E+03  0.7546771E-02  0.1082816E+00
         21   -1    0    0  502  501  0.00000000000E+00  0.00000000000E+00  0.16144356052E+03  0.16144356052E+03  0.00000000000E+00 0. -1.
         21   -1    0    0  501  502 -0.00000000000E+00 -0.00000000000E+00 -0.57583163643E+03  0.57583163643E+03  0.00000000000E+00 0. -1.
         25    1    1    2    0    0  0.12992438638E+03  0.27406513690E+02 -0.19548301470E+03  0.26733887148E+03  0.12500000000E+03 0.  0.
         25    1    1    2    0    0 -0.21328808827E+03 -0.63825267099E+02 -0.97275749600E+02  0.27322709378E+03  0.12500000000E+03 0.  0.
         25    1    1    2    0    0  0.83363701890E+02  0.36418753409E+02 -0.12162931161E+03  0.19670923170E+03  0.12500000000E+03 0.  0.
</event>
<event>
 5    0  0.5655767E-005  0.3778997E+03  0.7546771E-02  0.1051713E+00
         21   -1    0    0  502  501  0.00000000000E+00  0.00000000000E+00  0.55628039821E+03  0.55628039821E+03  0.00000000000E+00 0. -1.
         21   -1    0    0  501  502 -0.00000000000E+00 -0.00000000000E+00 -0.25671978094E+03  0.25671978094E+03  0.00000000000E+00 0. -1.
         25    1    1    2    0    0 -0.24832144415E+03 -0.10368850258E+03  0.37838332311E+02  0.29911801113E+03  0.12500000000E+03 0.  0.
         25    1    1    2    0    0  0.25070852194E+03  0.10467849270E+03  0.24722556969E+03  0.38801782448E+03  0.12500000000E+03 0.  0.
         25    1    1    2    0    0 -0.23870777918E+01 -0.98999011134E+00  0.14496715271E+02  0.12586434354E+03  0.12500000000E+03 0.  0.
</event>
<event>
 5    0  0.5655767E-005  0.3463677E+03  0.7546771E-02  0.1064116E+00
         21   -1    0    0  502  501  0.00000000000E+00  0.00000000000E+00  0.58333871771E+03  0.58333871771E+03  0.00000000000E+00 0. -1.
         21   -1    0    0  501  502 -0.00000000000E+00 -0.00000000000E+00 -0.20566193167E+03  0.20566193167E+03  0.00000000000E+00 0. -1.
         25    1    1    2    0    0 -0.14566329283E+03  0.13111112320E+03  0.18103577575E+01  0.23245687535E+03  0.12500000000E+03 0.  0.
         25    1    1    2    0    0 -0.31226534944E+01  0.58584635940E+02  0.14334472283E+03  0.19903421841E+03  0.12500000000E+03 0.  0.
         25    1    1    2    0    0  0.14878594632E+03 -0.18969575914E+03  0.23252170545E+03  0.35750955563E+03  0.12500000000E+03 0.  0.
</event>
<event>
 5    0  0.6285219E-005  0.3205729E+03  0.7546771E-02  0.1075386E+00
         21   -1    0    0  502  501  0.00000000000E+00  0.00000000000E+00  0.10706671483E+04  0.10706671483E+04  0.00000000000E+00 0.  1.
         21   -1    0    0  501  502 -0.00000000000E+00 -0.00000000000E+00 -0.95984076338E+02  0.95984076338E+02  0.00000000000E+00 0.  1.
         25    1    1    2    0    0  0.33235419878E+02 -0.81119915068E+01  0.65472110809E+03  0.66742424807E+03  0.12500000000E+03 0.  0.
         25    1    1    2    0    0 -0.14048243016E+03  0.70960735726E+01  0.26614765352E+03  0.32595282008E+03  0.12500000000E+03 0.  0.
         25    1    1    2    0    0  0.10724701028E+03  0.10159179342E+01  0.53814310338E+02  0.17327415647E+03  0.12500000000E+03 0.  0.
</event>
<event>
 5    0  0.5655767E-005  0.4806128E+03  0.7546771E-02  0.1018967E+00
         21   -1    0    0  502  501  0.00000000000E+00  0.00000000000E+00  0.77561884628E+03  0.77561884628E+03  0.00000000000E+00 0. -1.
         21   -1    0    0  501  502 -0.00000000000E+00 -0.00000000000E+00 -0.29781208834E+03  0.29781208834E+03  0.00000000000E+00 0. -1.
         25    1    1    2    0    0  0.19560320415E+03  0.16617473450E+03  0.19212141892E+03  0.34410797065E+03  0.12500000000E+03 0.  0.
         25    1    1    2    0    0 -0.20401904236E+03  0.16921238284E+03  0.21729414998E+03  0.36482646254E+03  0.12500000000E+03 0.  0.
         25    1    1    2    0    0  0.84158382168E+01 -0.33538711734E+03  0.68391189037E+02  0.36449650142E+03  0.12500000000E+03 0.  0.
</event>
<event>
 5    0  0.5655767E-005  0.6509040E+03  0.7546771E-02  0.9805084E-01
         21   -1    0    0  502  501  0.00000000000E+00  0.00000000000E+00  0.73403878404E+03  0.73403878404E+03  0.00000000000E+00 0.  1.
         21   -1    0    0  501  502 -0.00000000000E+00 -0.00000000000E+00 -0.57718472901E+03  0.57718472901E+03  0.00000000000E+00 0.  1.
         25    1    1    2    0    0 -0.55943080376E+02 -0.37527305937E+03 -0.36290517194E+03  0.53970794060E+03  0.12500000000E+03 0.  0.
         25    1    1    2    0    0  0.82436905648E+02  0.11584694575E+03  0.42819434823E+03  0.46817919444E+03  0.12500000000E+03 0.  0.
         25    1    1    2    0    0 -0.26493825272E+02  0.25942611362E+03  0.91564878737E+02  0.30333637801E+03  0.12500000000E+03 0.  0.
</event>
<event>
 5    0  0.5655767E-005  0.2304174E+03  0.7546771E-02  0.1126346E+00
         21   -1    0    0  502  501  0.00000000000E+00  0.00000000000E+00  0.63764605971E+02  0.63764605971E+02  0.00000000000E+00 0.  1.
         21   -1    0    0  501  502 -0.00000000000E+00 -0.00000000000E+00 -0.83262759673E+03  0.83262759673E+03  0.00000000000E+00 0.  1.
         25    1    1    2    0    0 -0.41746057406E+02 -0.41852123871E+02 -0.38829473350E+03  0.41217973464E+03  0.12500000000E+03 0.  0.
         25    1    1    2    0    0 -0.32448386855E+02  0.65021620071E+02 -0.13447290327E+03  0.19745549018E+03  0.12500000000E+03 0.  0.
         25    1    1    2    0    0  0.74194444262E+02 -0.23169496200E+02 -0.24609535398E+03  0.28675697788E+03  0.12500000000E+03 0.  0.
</event>
<event>
 5    0  0.5655767E-005  0.4465454E+03  0.7546771E-02  0.1028757E+00
         21   -1    0    0  502  501  0.00000000000E+00  0.00000000000E+00  0.18715775346E+03  0.18715775346E+03  0.00000000000E+00 0. -1.
         21   -1    0    0  501  502 -0.00000000000E+00 -0.00000000000E+00 -0.10654265408E+04  0.10654265408E+04  0.00000000000E+00 0. -1.
         25    1    1    2    0    0 -0.12459304207E+03 -0.79159065517E+02 -0.24740826458E+03  0.31404686460E+03  0.12500000000E+03 0.  0.
         25    1    1    2    0    0 -0.69340259382E+02 -0.23192879728E+03 -0.41122244779E+03  0.49328281964E+03  0.12500000000E+03 0.  0.
         25    1    1    2    0    0  0.19393330145E+03  0.31108786280E+03 -0.21963807502E+03  0.44525461007E+03  0.12500000000E+03 0.  0.
</event>
<event>
 5    0  0.5655767E-005  0.3640545E+03  0.7546771E-02  0.1056990E+00
         21   -1    0    0  502  501  0.00000000000E+00  0.00000000000E+00  0.85450276033E+03  0.85450276033E+03  0.00000000000E+00 0. -1.
         21   -1    0    0  501  502 -0.00000000000E+00 -0.00000000000E+00 -0.15510266111E+03  0.15510266111E+03  0.00000000000E+00 0. -1.
         25    1    1    2    0    0  0.98302967528E+01  0.55446382053E+02  0.23008750331E+03  0.26783613497E+03  0.12500000000E+03 0.  0.
         25    1    1    2    0    0  0.12865171543E+03  0.17290687388E+03  0.98261295913E+02  0.26782145768E+03  0.12500000000E+03 0.  0.
         25    1    1    2    0    0 -0.13848201219E+03 -0.22835325593E+03  0.37105130000E+03  0.47394782880E+03  0.12500000000E+03 0.  0.
</event>
<event>
 5    0  0.5655767E-005  0.2493298E+03  0.7546771E-02  0.1113729E+00
         21   -1    0    0  502  501  0.00000000000E+00  0.00000000000E+00  0.68782145321E+03  0.68782145321E+03  0.00000000000E+00 0.  1.
         21   -1    0    0  501  502 -0.00000000000E+00 -0.00000000000E+00 -0.90380061885E+02  0.90380061885E+02  0.00000000000E+00 0.  1.
         25    1    1    2    0    0  0.30646691306E+02  0.94512517632E+02  0.19314221594E+03  0.25060078064E+03  0.12500000000E+03 0.  0.
         25    1    1    2    0    0 -0.42885638498E+02 -0.89619259857E+02  0.36086820858E+03  0.39461583051E+03  0.12500000000E+03 0.  0.
         25    1    1    2    0    0  0.12238947192E+02 -0.48932577758E+01  0.43430966804E+02  0.13298490395E+03  0.12500000000E+03 0.  0.
</event>
<event>
 5    0  0.5655767E-005  0.3737729E+03  0.7546771E-02  0.1053260E+00
         21   -1    0    0  502  501  0.00000000000E+00  0.00000000000E+00  0.10842381194E+04  0.10842381194E+04  0.00000000000E+00 0.  1.
         21   -1    0    0  501  502 -0.00000000000E+00 -0.00000000000E+00 -0.12885195901E+03  0.12885195901E+03  0.00000000000E+00 0.  1.
         25    1    1    2    0    0  0.28303552140E+03 -0.49533587897E+02  0.29794977466E+03  0.43239073871E+03  0.12500000000E+03 0.  0.
         25    1    1    2    0    0 -0.24030492800E+03 -0.19923247972E+02  0.41325171648E+03  0.49451529340E+03  0.12500000000E+03 0.  0.
         25    1    1    2    0    0 -0.42730593393E+02  0.69456835869E+02  0.24418466930E+03  0.28618404634E+03  0.12500000000E+03 0.  0.
</event>
<event>
 5    0  0.5655767E-005  0.3930310E+03  0.7546771E-02  0.1046220E+00
         21   -1    0    0  502  501  0.00000000000E+00  0.00000000000E+00  0.14010652208E+03  0.14010652208E+03  0.00000000000E+00 0. -1.
         21   -1    0    0  501  502 -0.00000000000E+00 -0.00000000000E+00 -0.11025422334E+04  0.11025422334E+04  0.00000000000E+00 0. -1.
         25    1    1    2    0    0  0.21017283516E+02  0.42270105412E+02 -0.24592186669E+03  0.27987685244E+03  0.12500000000E+03 0.  0.
         25    1    1    2    0    0  0.10878195338E+03 -0.26739930588E+03 -0.20471663816E+03  0.37532626354E+03  0.12500000000E+03 0.  0.
         25    1    1    2    0    0 -0.12979923690E+03  0.22512920046E+03 -0.51179720643E+03  0.58744563945E+03  0.12500000000E+03 0.  0.
</event>
<event>
 5    0  0.5655767E-005  0.4362045E+03  0.7546771E-02  0.1031918E+00
         21   -1    0    0  502  501  0.00000000000E+00  0.00000000000E+00  0.24999713452E+03  0.24999713452E+03  0.00000000000E+00 0. -1.
         21   -1    0    0  501  502 -0.00000000000E+00 -0.00000000000E+00 -0.76110631590E+03  0.76110631590E+03  0.00000000000E+00 0. -1.
         25    1    1    2    0    0  0.19584470488E+03  0.13795950723E+02 -0.34361308019E+03  0.41501858460E+03  0.12500000000E+03 0.  0.
         25    1    1    2    0    0 -0.37348183958E+02  0.20869176982E+03  0.11513128641E+02  0.24638322542E+03  0.12500000000E+03 0.  0.
         25    1    1    2    0    0 -0.15849652092E+03 -0.22248772054E+03 -0.17900922982E+03  0.34970164040E+03  0.12500000000E+03 0.  0.
</event>
<event>
 5    0  0.5655767E-005  0.2963210E+03  0.7546771E-02  0.1087094E+00
         21   -1    0    0  502  501  0.00000000000E+00  0.00000000000E+00  0.32705899190E+03  0.32705899190E+03  0.00000000000E+00 0. -1.
         21   -1    0    0  501  502 -0.00000000000E+00 -0.00000000000E+00 -0.26847191308E+03  0.26847191308E+03  0.00000000000E+00 0. -1.
         25    1    1    2    0    0  0.56159648756E+02  0.11169191108E+03  0.78124565770E+02  0.19328072052E+03  0.12500000000E+03 0.  0.
         25    1    1    2    0    0  0.64864779334E+02 -0.66590136283E+02  0.10116397542E+03  0.18574400602E+03  0.12500000000E+03 0.  0.
         25    1    1    2    0    0 -0.12102442809E+03 -0.45101774793E+02 -0.12070146237E+03  0.21650617844E+03  0.12500000000E+03 0.  0.
</event>
<event>
 5    0  0.5655767E-005  0.4301480E+03  0.7546771E-02  0.1033813E+00
         21   -1    0    0  502  501  0.00000000000E+00  0.00000000000E+00  0.37983389638E+03  0.37983389638E+03  0.00000000000E+00 0. -1.
         21   -1    0    0  501  502 -0.00000000000E+00 -0.00000000000E+00 -0.48712677934E+03  0.48712677934E+03  0.00000000000E+00 0. -1.
         25    1    1    2    0    0 -0.32419928943E+02 -0.31881277059E+03 -0.63915623966E+02  0.34986117457E+03  0.12500000000E+03 0.  0.
         25    1    1    2    0    0 -0.13292412828E+03  0.21867817152E+03 -0.15588741098E+02  0.28523144186E+03  0.12500000000E+03 0.  0.
         25    1    1    2    0    0  0.16534405723E+03  0.10013459907E+03 -0.27788517892E+02  0.23186805929E+03  0.12500000000E+03 0.  0.
</event>
<event>
 5    0  0.5655767E-005  0.4001492E+03  0.7546771E-02  0.1043728E+00
         21   -1    0    0  502  501  0.00000000000E+00  0.00000000000E+00  0.14002014445E+04  0.14002014445E+04  0.00000000000E+00 0. -1.
         21   -1    0    0  501  502 -0.00000000000E+00 -0.00000000000E+00 -0.11435453497E+03  0.11435453497E+03  0.00000000000E+00 0. -1.
         25    1    1    2    0    0  0.16505327031E+03 -0.21862358403E+03  0.20599717815E+03  0.36482693287E+03  0.12500000000E+03 0.  0.
         25    1    1    2    0    0 -0.14995206613E+03  0.13027243593E+03  0.54942197977E+03  0.59744961424E+03  0.12500000000E+03 0.  0.
         25    1    1    2    0    0 -0.15101204182E+02  0.88351148100E+02  0.53042775156E+03  0.55227943232E+03  0.12500000000E+03 0.  0.
</event>
<event>
 5    0  0.5655767E-005  0.7392882E+03  0.7546771E-02  0.9652307E-01
         21   -1    0    0  502  501  0.00000000000E+00  0.00000000000E+00  0.82749108577E+03  0.82749108577E+03  0.00000000000E+00 0. -1.
         21   -1    0    0  501  502 -0.00000000000E+00 -0.00000000000E+00 -0.66048683649E+03  0.66048683649E+03  0.00000000000E+00 0. -1.
         25    1    1    2    0    0 -0.42553184076E+02  0.26808669758E+02 -0.48833636981E+02  0.14331504579E+03  0.12500000000E+03 0.  0.
         25    1    1    2    0    0  0.57396316809E+02 -0.36409605750E+03  0.66408862689E+03  0.76973955376E+03  0.12500000000E+03 0.  0.
         25    1    1    2    0    0 -0.14843132733E+02  0.33728738774E+03 -0.44825074062E+03  0.57492332270E+03  0.12500000000E+03 0.  0.
</event>
<event>
 5    0  0.5655767E-005  0.3794808E+03  0.7546771E-02  0.1051126E+00
         21   -1    0    0  502  501  0.00000000000E+00  0.00000000000E+00  0.11235542235E+04  0.11235542235E+04  0.00000000000E+00 0.  1.
         21   -1    0    0  501  502 -0.00000000000E+00 -0.00000000000E+00 -0.12816978428E+03  0.12816978428E+03  0.00000000000E+00 0.  1.
         25    1    1    2    0    0 -0.11656399382E+03  0.20739315916E+03  0.99290065100E+02  0.28650061806E+03  0.12500000000E+03 0.  0.
         25    1    1    2    0    0  0.42184161223E+02 -0.46935156460E+02  0.30196319501E+03  0.33285009164E+03  0.12500000000E+03 0.  0.
         25    1    1    2    0    0  0.74379832594E+02 -0.16045800270E+03  0.59413117911E+03  0.63237329808E+03  0.12500000000E+03 0.  0.
</event>
<event>
 5    0  0.6113256E-005  0.2905938E+03  0.7546771E-02  0.1090040E+00
         21   -1    0    0  502  501  0.00000000000E+00  0.00000000000E+00  0.22350121111E+03  0.22350121111E+03  0.00000000000E+00 0. -1.
         21   -1    0    0  501  502 -0.00000000000E+00 -0.00000000000E+00 -0.37782672900E+03  0.37782672900E+03  0.00000000000E+00 0. -1.
         25    1    1    2    0    0 -0.67888717842E+02 -0.53557737681E+02 -0.11316391297E+03  0.18949506715E+03  0.12500000000E+03 0.  0.
         25    1    1    2    0    0 -0.75605190052E+01  0.10679700439E+03 -0.14953357642E+03  0.22236917968E+03  0.12500000000E+03 0.  0.
         25    1    1    2    0    0  0.75449236847E+02 -0.53239266707E+02  0.10837197151E+03  0.18946369327E+03  0.12500000000E+03 0.  0.
</event>
<event>
 5    0  0.5655767E-005  0.3233551E+03  0.7546771E-02  0.1074115E+00
         21   -1    0    0  502  501  0.00000000000E+00  0.00000000000E+00  0.30489764614E+03  0.30489764614E+03  0.00000000000E+00 0.  1.
         21   -1    0    0  501  502 -0.00000000000E+00 -0.00000000000E+00 -0.34292994217E+03  0.34292994217E+03  0.00000000000E+00 0.  1.
         25    1    1    2    0    0 -0.12387649090E+03  0.87791261994E+02 -0.95058788333E+02  0.21843503363E+03  0.12500000000E+03 0.  0.
         25    1    1    2    0    0  0.40581311517E+02 -0.74746918546E+02  0.17982456980E+03  0.23493790792E+03  0.12500000000E+03 0.  0.
         25    1    1    2    0    0  0.83295179381E+02 -0.13044343449E+02 -0.12279807750E+03  0.19445464674E+03  0.12500000000E+03 0.  0.
</event>
<event>
 5    0  0.5655767E-005  0.3280897E+03  0.7546771E-02  0.1071985E+00
         21   -1    0    0  502  501  0.00000000000E+00  0.00000000000E+00  0.22356261657E+03  0.22356261657E+03  0.00000000000E+00 0.  1.
         21   -1    0    0  501  502 -0.00000000000E+00 -0.00000000000E+00 -0.48148848257E+03  0.48148848257E+03  0.00000000000E+00 0.  1.
         25    1    1    2    0    0 -0.11087861769E+03 -0.12320666827E+03  0.20612302295E+02  0.20862362755E+03  0.12500000000E+03 0.  0.
         25    1    1    2    0    0  0.18553455058E+03  0.18462524115E+02 -0.10867186028E+03  0.24939628601E+03  0.12500000000E+03 0.  0.
         25    1    1    2    0    0 -0.74655932888E+02  0.10474414415E+03 -0.16986630802E+03  0.24703118558E+03  0.12500000000E+03 0.  0.
</event>
<event>
 5    0  0.5655767E-005  0.2927238E+03  0.7546771E-02  0.1088936E+00
         21   -1    0    0  502  501  0.00000000000E+00  0.00000000000E+00  0.44281547173E+03  0.44281547173E+03  0.00000000000E+00 0.  1.
         21   -1    0    0  501  502 -0.00000000000E+00 -0.00000000000E+00 -0.19350547500E+03  0.19350547500E+03  0.00000000000E+00 0.  1.
         25    1    1    2    0    0  0.87714241441E+02  0.82130705559E+01  0.18236137707E+03  0.23799561871E+03  0.12500000000E+03 0.  0.
         25    1    1    2    0    0 -0.13123461292E+03 -0.47149261119E+01 -0.82045197996E+02  0.19900042379E+03  0.12500000000E+03 0.  0.
         25    1    1    2    0    0  0.43520371475E+02 -0.34981444440E+01  0.14899381766E+03  0.19932490423E+03  0.12500000000E+03 0.  0.
</event>
<event>
 5    0  0.5655767E-005  0.2871507E+03  0.7546771E-02  0.1091846E+00
         21   -1    0    0  502  501  0.00000000000E+00  0.00000000000E+00  0.47104356315E+03  0.47104356315E+03  0.00000000000E+00 0.  1.
         21   -1    0    0  501  502 -0.00000000000E+00 -0.00000000000E+00 -0.17504867414E+03  0.17504867414E+03  0.00000000000E+00 0.  1.
         25    1    1    2    0    0 -0.10258525554E+02  0.24068035623E+02 -0.68005347084E+02  0.14468667844E+03  0.12500000000E+03 0.  0.
         25    1    1    2    0    0 -0.10318277565E+03 -0.71610058719E+01  0.24627230193E+03  0.29491187140E+03  0.12500000000E+03 0.  0.
         25    1    1    2    0    0  0.11344130121E+03 -0.16907029751E+02  0.11772793417E+03  0.20649368746E+03  0.12500000000E+03 0.  0.
</event>
<event>
 5    0  0.5655767E-005  0.2433285E+03  0.7546771E-02  0.1117595E+00
         21   -1    0    0  502  501  0.00000000000E+00  0.00000000000E+00  0.22389349207E+03  0.22389349207E+03  0.00000000000E+00 0. -1.
         21   -1    0    0  501  502 -0.00000000000E+00 -0.00000000000E+00 -0.26445064473E+03  0.26445064473E+03  0.00000000000E+00 0. -1.
         25    1    1    2    0    0  0.65162002265E+02  0.19725812125E+02  0.93047055932E+02  0.17005278245E+03  0.12500000000E+03 0.  0.
         25    1    1    2    0    0 -0.81311956821E+02  0.28376141981E+02 -0.90211442702E+02  0.17657843625E+03  0.12500000000E+03 0.  0.
         25    1    1    2    0    0  0.16149954556E+02 -0.48101954106E+02 -0.43392765890E+02  0.14171291809E+03  0.12500000000E+03 0.  0.
</event>
<event>
 5    0  0.5655767E-005  0.2706066E+03  0.7546771E-02  0.1100933E+00
         21   -1    0    0  502  501  0.00000000000E+00  0.00000000000E+00  0.48467239823E+03  0.48467239823E+03  0.00000000000E+00 0. -1.
         21   -1    0    0  501  502 -0.00000000000E+00 -0.00000000000E+00 -0.15108743942E+03  0.15108743942E+03  0.00000000000E+00 0. -1.
         25    1    1    2    0    0 -0.80787795303E+02 -0.78030340223E+02  0.29746393558E+03  0.34165069126E+03  0.12500000000E+03 0.  0.
         25    1    1    2    0    0  0.25625949151E+02  0.30452722071E+02  0.65271612720E+02  0.14652454053E+03  0.12500000000E+03 0.  0.
         25    1    1    2    0    0  0.55161846152E+02  0.47577618152E+02 -0.29150589480E+02  0.14758460586E+03  0.12500000000E+03 0.  0.
</event>
<event>
 5    0  0.5655767E-005  0.2666784E+03  0.7546771E-02  0.1103196E+00
         21   -1    0    0  502  501  0.00000000000E+00  0.00000000000E+00  0.94503939568E+03  0.94503939568E+03  0.00000000000E+00 0. -1.
         21   -1    0    0  501  502 -0.00000000000E+00 -0.00000000000E+00 -0.75253323644E+02  0.75253323644E+02  0.00000000000E+00 0. -1.
         25    1    1    2    0    0  0.91087731188E+02  0.51022796662E+02  0.46383186881E+03  0.49159465322E+03  0.12500000000E+03 0.  0.
         25    1    1    2    0    0 -0.61603440443E+02 -0.11465558535E+03  0.30136828560E+03  0.35126732085E+03  0.12500000000E+03 0.  0.
         25    1    1    2    0    0 -0.29484290744E+02  0.63632788688E+02  0.10458591762E+03  0.17743074525E+03  0.12500000000E+03 0.  0.
</event>
<event>
 5    0  0.5655767E-005  0.3010599E+03  0.7546771E-02  0.1084712E+00
         21   -1    0    0  502  501  0.00000000000E+00  0.00000000000E+00  0.19044222954E+04  0.19044222954E+04  0.00000000000E+00 0.  1.
         21   -1    0    0  501  502 -0.00000000000E+00 -0.00000000000E+00 -0.47592929866E+02  0.47592929866E+02  0.00000000000E+00 0.  1.
         25    1    1    2    0    0 -0.14137637571E+03  0.61341365764E+02  0.61109255216E+03  0.64250225686E+03  0.12500000000E+03 0.  0.
         25    1    1    2    0    0  0.13122970497E+03 -0.14602533179E+03  0.54489445090E+03  0.59251970061E+03  0.12500000000E+03 0.  0.
         25    1    1    2    0    0  0.10146670739E+02  0.84683966028E+02  0.70084236250E+03  0.71699326783E+03  0.12500000000E+03 0.  0.
</event>
<event>
 5    0  0.5655767E-005  0.2669871E+03  0.7546771E-02  0.1103016E+00
         21   -1    0    0  502  501  0.00000000000E+00  0.00000000000E+00  0.19040746062E+03  0.19040746062E+03  0.00000000000E+00 0.  1.
         21   -1    0    0  501  502 -0.00000000000E+00 -0.00000000000E+00 -0.37436615541E+03  0.37436615541E+03  0.00000000000E+00 0.  1.
         25    1    1    2    0    0 -0.32349821813E+02 -0.10806840769E+03 -0.40449737572E+02  0.17316602722E+03  0.12500000000E+03 0.  0.
         25    1    1    2    0    0  0.77942686865E+02 -0.36920063971E+02 -0.68453018414E+01  0.15201977410E+03  0.12500000000E+03 0.  0.
         25    1    1    2    0    0 -0.45592865052E+02  0.14498847166E+03 -0.13666365537E+03  0.23958781471E+03  0.12500000000E+03 0.  0.
</event>
<event>
 5    0  0.5655767E-005  0.3166578E+03  0.7546771E-02  0.1077198E+00
         21   -1    0    0  502  501  0.00000000000E+00  0.00000000000E+00  0.22781059529E+03  0.22781059529E+03  0.00000000000E+00 0.  1.
         21   -1    0    0  501  502 -0.00000000000E+00 -0.00000000000E+00 -0.44015575379E+03  0.44015575379E+03  0.00000000000E+00 0.  1.
         25    1    1    2    0    0 -0.17722653410E+03 -0.45462212901E+02  0.53413295114E+02  0.22793428283E+03  0.12500000000E+03 0.  0.
         25    1    1    2    0    0  0.18032558942E+03  0.39946007257E+02 -0.19504196262E+03  0.29627583242E+03  0.12500000000E+03 0.  0.
         25    1    1    2    0    0 -0.30990553143E+01  0.55162056446E+01 -0.70716490996E+02  0.14375623384E+03  0.12500000000E+03 0.  0.
</event>
<event>
 5    0  0.6530312E-005  0.5608427E+03  0.7546771E-02  0.9990150E-01
         21   -1    0    0  502  501  0.00000000000E+00  0.00000000000E+00  0.11307984667E+04  0.11307984667E+04  0.00000000000E+00 0.  1.
         21   -1    0    0  501  502 -0.00000000000E+00 -0.00000000000E+00 -0.27816141087E+03  0.27816141087E+03  0.00000000000E+00 0.  1.
         25    1    1    2    0    0 -0.19008445607E+03  0.15223712508E+02 -0.49859768416E+02  0.23339849693E+03  0.12500000000E+03 0.  0.
         25    1    1    2    0    0 -0.10751086287E+03  0.25976499622E+03  0.52154913974E+03  0.60553690561E+03  0.12500000000E+03 0.  0.
         25    1    1    2    0    0  0.29759531894E+03 -0.27498870873E+03  0.38094768448E+03  0.57002447500E+03  0.12500000000E+03 0.  0.
</event>
<event>
 5    0  0.5655767E-005  0.2506431E+03  0.7546771E-02  0.1112899E+00
         21   -1    0    0  502  501  0.00000000000E+00  0.00000000000E+00  0.22932268483E+03  0.22932268483E+03  0.00000000000E+00 0.  1.
         21   -1    0    0  501  502 -0.00000000000E+00 -0.00000000000E+00 -0.27394575297E+03  0.27394575297E+03  0.00000000000E+00 0.  1.
         25    1    1    2    0    0  0.30545307091E+02 -0.74803544607E+02  0.89713290888E+01  0.14911093460E+03  0.12500000000E+03 0.  0.
         25    1    1    2    0    0  0.45750766195E+02  0.16986286729E+02 -0.12305682214E+03  0.18207044796E+03  0.12500000000E+03 0.  0.
         25    1    1    2    0    0 -0.76296073286E+02  0.57817257878E+02  0.69462424913E+02  0.17208705524E+03  0.12500000000E+03 0.  0.
</event>
<event>
 5    0  0.5655767E-005  0.4609886E+03  0.7546771E-02  0.1024495E+00
         21   -1    0    0  502  501  0.00000000000E+00  0.00000000000E+00  0.96327014469E+03  0.96327014469E+03  0.00000000000E+00 0.  1.
         21   -1    0    0  501  502 -0.00000000000E+00 -0.00000000000E+00 -0.22061364120E+03  0.22061364120E+03  0.00000000000E+00 0.  1.
         25    1    1    2    0    0  0.81220679596E+02 -0.33082939103E+02  0.32825235311E+03  0.36203022936E+03  0.12500000000E+03 0.  0.
         25    1    1    2    0    0  0.37088405224E+02 -0.53819293445E+02 -0.16156111740E+03  0.21447391637E+03  0.12500000000E+03 0.  0.
         25    1    1    2    0    0 -0.11830908482E+03  0.86902232548E+02  0.57596526779E+03  0.60737964015E+03  0.12500000000E+03 0.  0.
</event>
<event>
 5    0  0.5655767E-005  0.7930520E+03  0.7546771E-02  0.9570129E-01
         21   -1    0    0  502  501  0.00000000000E+00  0.00000000000E+00  0.13371156498E+04  0.13371156498E+04  0.00000000000E+00 0. -1.
         21   -1    0    0  501  502 -0.00000000000E+00 -0.00000000000E+00 -0.47036428042E+03  0.47036428042E+03  0.00000000000E+00 0. -1.
         25    1    1    2    0    0 -0.38013408939E+03  0.37250430384E+03  0.83053127858E+03  0.99431815180E+03  0.12500000000E+03 0.  0.
         25    1    1    2    0    0  0.87825159540E+02 -0.40521080886E+03 -0.13104400806E+03  0.45244512409E+03  0.12500000000E+03 0.  0.
         25    1    1    2    0    0  0.29230892985E+03  0.32706505023E+02  0.16726409883E+03  0.36071665431E+03  0.12500000000E+03 0.  0.
</event>
<event>
 5    0  0.5655767E-005  0.2343648E+03  0.7546771E-02  0.1123605E+00
         21   -1    0    0  502  501  0.00000000000E+00  0.00000000000E+00  0.39657627763E+03  0.39657627763E+03  0.00000000000E+00 0. -1.
         21   -1    0    0  501  502 -0.00000000000E+00 -0.00000000000E+00 -0.13850266360E+03  0.13850266360E+03  0.00000000000E+00 0. -1.
         25    1    1    2    0    0 -0.17078202042E+02  0.11239618198E+03  0.70089374435E+02  0.18292645276E+03  0.12500000000E+03 0.  0.
         25    1    1    2    0    0  0.69924057885E+01 -0.10845985831E+03  0.14310865377E+03  0.21890071125E+03  0.12500000000E+03 0.  0.
         25    1    1    2    0    0  0.10085796254E+02 -0.39363236726E+01  0.44875585818E+02  0.13325177722E+03  0.12500000000E+03 0.  0.
</event>
<event>
 5    0  0.5655767E-005  0.5337460E+03  0.7546771E-02  0.1005328E+00
         21   -1    0    0  502  501  0.00000000000E+00  0.00000000000E+00  0.14030661747E+04  0.14030661747E+04  0.00000000000E+00 0.  1.
         21   -1    0    0  501  502 -0.00000000000E+00 -0.00000000000E+00 -0.20304445268E+03  0.20304445268E+03  0.00000000000E+00 0.  1.
         25    1    1    2    0    0 -0.14430718862E+03 -0.55084894992E+01  0.88637134689E+03  0.90671609269E+03  0.12500000000E+03 0.  0.
         25    1    1    2    0    0  0.30588220986E+03 -0.12090074912E+03  0.72986774733E+02  0.35935078507E+03  0.12500000000E+03 0.  0.
         25    1    1    2    0    0 -0.16157502124E+03  0.12640923862E+03  0.24066360037E+03  0.34004374960E+03  0.12500000000E+03 0.  0.
</event>
<event>
 5    0  0.5655767E-005  0.3136254E+03  0.7546771E-02  0.1078621E+00
         21   -1    0    0  502  501  0.00000000000E+00  0.00000000000E+00  0.60997371940E+02  0.60997371940E+02  0.00000000000E+00 0.  1.
         21   -1    0    0  501  502 -0.00000000000E+00 -0.00000000000E+00 -0.16125433720E+04  0.16125433720E+04  0.00000000000E+00 0.  1.
         25    1    1    2    0    0 -0.15932955858E+02 -0.36272151793E+02 -0.26982002975E+03  0.29999562752E+03  0.12500000000E+03 0.  0.
         25    1    1    2    0    0 -0.12807511915E+03  0.65035259032E+02 -0.10714023445E+04  0.10881915295E+04  0.12500000000E+03 0.  0.
         25    1    1    2    0    0  0.14400807501E+03 -0.28763107239E+02 -0.21032362586E+03  0.28535358698E+03  0.12500000000E+03 0.  0.
</event>
<event>
 5    0  0.5655767E-005  0.2594752E+03  0.7546771E-02  0.1107459E+00
         21   -1    0    0  502  501  0.00000000000E+00  0.00000000000E+00  0.14028039909E+04  0.14028039909E+04  0.00000000000E+00 0.  1.
         21   -1    0    0  501  502 -0.00000000000E+00 -0.00000000000E+00 -0.47994847216E+02  0.47994847216E+02  0.00000000000E+00 0.  1.
         25    1    1    2    0    0  0.75361679762E+01  0.82333902849E+02  0.17718890213E+03  0.23207018857E+03  0.12500000000E+03 0.  0.
         25    1    1    2    0    0  0.78431385321E+02 -0.16738129437E+02  0.54487303892E+03  0.56475063145E+03  0.12500000000E+03 0.  0.
         25    1    1    2    0    0 -0.85967553297E+02 -0.65595773412E+02  0.63274720267E+03  0.65397801813E+03  0.12500000000E+03 0.  0.
</event>
<event>
 5    0  0.5655767E-005  0.3744654E+03  0.7546771E-02  0.1052999E+00
         21   -1    0    0  502  501  0.00000000000E+00  0.00000000000E+00  0.15528856254E+03  0.15528856254E+03  0.00000000000E+00 0.  1.
         21   -1    0    0  501  502 -0.00000000000E+00 -0.00000000000E+00 -0.90299200052E+03  0.90299200052E+03  0.00000000000E+00 0.  1.
         25    1    1    2    0    0  0.19790230126E+03 -0.46889386038E+02 -0.29269509734E+02  0.24051120466E+03  0.12500000000E+03 0.  0.
         25    1    1    2    0    0 -0.16624210414E+03 -0.42724050833E+02 -0.27555083282E+03  0.34787216499E+03  0.12500000000E+03 0.  0.
         25    1    1    2    0    0 -0.31660197126E+02  0.89613436871E+02 -0.44288309543E+03  0.46989719340E+03  0.12500000000E+03 0.  0.
</event>
<event>
 5    0  0.5655767E-005  0.6251764E+03  0.7546771E-02  0.9854507E-01
         21   -1    0    0  502  501  0.00000000000E+00  0.00000000000E+00  0.16422429466E+04  0.16422429466E+04  0.00000000000E+00 0.  1.
         21   -1    0    0  501  502 -0.00000000000E+00 -0.00000000000E+00 -0.23799493015E+03  0.23799493015E+03  0.00000000000E+00 0.  1.
         25    1    1    2    0    0  0.18098935651E+03 -0.49149010980E+03  0.43287725210E+03  0.69088884098E+03  0.12500000000E+03 0.  0.
         25    1    1    2    0    0 -0.17078452929E+03  0.51389259102E+03  0.74322401578E+03  0.92804088712E+03  0.12500000000E+03 0.  0.
         25    1    1    2    0    0 -0.10204827219E+02 -0.22402481215E+02  0.22814674853E+03  0.26130814860E+03  0.12500000000E+03 0.  0.
</event>
<event>
 5    0  0.5655767E-005  0.2956809E+03  0.7546771E-02  0.1087420E+00
         21   -1    0    0  502  501  0.00000000000E+00  0.00000000000E+00  0.39728902978E+03  0.39728902978E+03  0.00000000000E+00 0. -1.
         21   -1    0    0  501  502 -0.00000000000E+00 -0.00000000000E+00 -0.22005935433E+03  0.22005935433E+03  0.00000000000E+00 0. -1.
         25    1    1    2    0    0  0.11253823989E+03  0.44111808945E+02  0.19894954990E+03  0.26422836815E+03  0.12500000000E+03 0.  0.
         25    1    1    2    0    0 -0.34404816751E+02  0.68666895685E+02 -0.68196086224E+02  0.16178547572E+03  0.12500000000E+03 0.  0.
         25    1    1    2    0    0 -0.78133423141E+02 -0.11277870463E+03  0.46476211769E+02  0.19133454024E+03  0.12500000000E+03 0.  0.
</event>
<event>
 5    0  0.5655767E-005  0.3035501E+03  0.7546771E-02  0.1083479E+00
         21   -1    0    0  502  501  0.00000000000E+00  0.00000000000E+00  0.15029621131E+04  0.15029621131E+04  0.00000000000E+00 0.  1.
         21   -1    0    0  501  502 -0.00000000000E+00 -0.00000000000E+00 -0.61307386617E+02  0.61307386617E+02  0.00000000000E+00 0.  1.
         25    1    1    2    0    0  0.14539815239E+02 -0.65747180200E+02  0.10239670260E+04  0.10337637875E+04  0.12500000000E+03 0.  0.
         25    1    1    2    0    0 -0.10410193281E+03  0.53355689706E+02  0.19345672484E+03  0.25833030489E+03  0.12500000000E+03 0.  0.
         25    1    1    2    0    0  0.89562117569E+02  0.12391490494E+02  0.22423097567E+03  0.27217540740E+03  0.12500000000E+03 0.  0.
</event>
<event>
 5    0  0.5655767E-005  0.2938586E+03  0.7546771E-02  0.1088352E+00
         21   -1    0    0  502  501  0.00000000000E+00  0.00000000000E+00  0.10838038377E+03  0.10838038377E+03  0.00000000000E+00 0. -1.
         21   -1    0    0  501  502 -0.00000000000E+00 -0.00000000000E+00 -0.79675720161E+03  0.79675720161E+03  0.00000000000E+00 0. -1.
         25    1    1    2    0    0 -0.85318412254E+02 -0.42694616196E+02 -0.54449078343E+01  0.15734264757E+03  0.12500000000E+03 0.  0.
         25    1    1    2    0    0  0.92320590765E+02  0.46589273334E+02 -0.25782158924E+03  0.30461553431E+03  0.12500000000E+03 0.  0.
         25    1    1    2    0    0 -0.70021785107E+01 -0.38946571379E+01 -0.42511032077E+03  0.44317940350E+03  0.12500000000E+03 0.  0.
</event>
<event>
 5    0  0.5655767E-005  0.2255470E+03  0.7546771E-02  0.1129814E+00
         21   -1    0    0  502  501  0.00000000000E+00  0.00000000000E+00  0.63586919852E+02  0.63586919852E+02  0.00000000000E+00 0. -1.
         21   -1    0    0  501  502 -0.00000000000E+00 -0.00000000000E+00 -0.80002997838E+03  0.80002997838E+03  0.00000000000E+00 0. -1.
         25    1    1    2    0    0  0.81510352068E+02 -0.54046985459E+02 -0.30599028954E+03  0.34470287412E+03  0.12500000000E+03 0.  0.
         25    1    1    2    0    0 -0.70670440655E+01  0.21729215034E+01 -0.26188446454E+03  0.29028113523E+03  0.12500000000E+03 0.  0.
         25    1    1    2    0    0 -0.74443308002E+02  0.51874063955E+02 -0.16856830444E+03  0.22863288889E+03  0.12500000000E+03 0.  0.
</event>
<event>
 5    0  0.5655767E-005  0.3063615E+03  0.7546771E-02  0.1082103E+00
         21   -1    0    0  502  501  0.00000000000E+00  0.00000000000E+00  0.48549214006E+03  0.48549214006E+03  0.00000000000E+00 0. -1.
         21   -1    0    0  501  502 -0.00000000000E+00 -0.00000000000E+00 -0.19332419783E+03  0.19332419783E+03  0.00000000000E+00 0. -1.
         25    1    1    2    0    0 -0.62109454168E+02 -0.10457159644E+03 -0.11277299990E+02  0.17477122353E+03  0.12500000000E+03 0.  0.
         25    1    1    2    0    0  0.21686700020E+02  0.15444646535E+03  0.30364411725E+03  0.36352272770E+03  0.12500000000E+03 0.  0.
         25    1    1    2    0    0  0.40422754148E+02 -0.49874868912E+02 -0.19887503069E+00  0.14052238666E+03  0.12500000000E+03 0.  0.
</event>
<event>
 5    0  0.5655767E-005  0.2508246E+03  0.7546771E-02  0.1112785E+00
         21   -1    0    0  502  501  0.00000000000E+00  0.00000000000E+00  0.35268930423E+04  0.35268930423E+04  0.00000000000E+00 0. -1.
         21   -1    0    0  501  502 -0.00000000000E+00 -0.00000000000E+00 -0.17838075780E+02  0.17838075780E+02  0.00000000000E+00 0. -1.
         25    1    1    2    0    0  0.17510411191E+02  0.77485822257E+02  0.20259938518E+04  0.20314001956E+04  0.12500000000E+03 0.  0.
         25    1    1    2    0    0 -0.37962055815E+02 -0.10031720944E+03  0.65857226656E+03  0.67885719447E+03  0.12500000000E+03 0.  0.
         25    1    1    2    0    0  0.20451644624E+02  0.22831387186E+02  0.82448884812E+03  0.83447372798E+03  0.12500000000E+03 0.  0.
</event>
<event>
 5    0  0.5655767E-005  0.3871369E+03  0.7546771E-02  0.1048327E+00
         21   -1    0    0  502  501  0.00000000000E+00  0.00000000000E+00  0.18245246112E+04  0.18245246112E+04  0.00000000000E+00 0. -1.
         21   -1    0    0  501  502 -0.00000000000E+00 -0.00000000000E+00 -0.82144685997E+02  0.82144685997E+02  0.00000000000E+00 0. -1.
         25    1    1    2    0    0 -0.12824976117E+01 -0.19159602471E+03  0.35546821653E+03  0.42272134374E+03  0.12500000000E+03 0.  0.
         25    1    1    2    0    0  0.67500515888E+02 -0.10509510866E+03  0.29741995994E+03  0.34595510414E+03  0.12500000000E+03 0.  0.
         25    1    1    2    0    0 -0.66218018276E+02  0.29669113337E+03  0.10894917487E+04  0.11379928493E+04  0.12500000000E+03 0.  0.
</event>
<event>
 5    0  0.5655767E-005  0.2266592E+03  0.7546771E-02  0.1129014E+00
         21   -1    0    0  502  501  0.00000000000E+00  0.00000000000E+00  0.21979633038E+02  0.21979633038E+02  0.00000000000E+00 0.  1.
         21   -1    0    0  501  502 -0.00000000000E+00 -0.00000000000E+00 -0.23373626334E+04  0.23373626334E+04  0.00000000000E+00 0.  1.
         25    1    1    2    0    0  0.39468919765E+02  0.63764328412E+02 -0.59956107370E+03  0.61702687648E+03  0.12500000000E+03 0.  0.
         25    1    1    2    0    0 -0.39356423098E+01 -0.10089111288E+03 -0.11122492433E+04  0.11237961938E+04  0.12500000000E+03 0.  0.
         25    1    1    2    0    0 -0.35533277456E+02  0.37126784469E+02 -0.60357268333E+03  0.61851919614E+03  0.12500000000E+03 0.  0.
</event>
<event>
 5    0  0.5655767E-005  0.4304904E+03  0.7546771E-02  0.1033705E+00
         21   -1    0    0  502  501  0.00000000000E+00  0.00000000000E+00  0.21447015597E+03  0.21447015597E+03  0.00000000000E+00 0.  1.
         21   -1    0    0  501  502 -0.00000000000E+00 -0.00000000000E+00 -0.86409229359E+03  0.86409229359E+03  0.00000000000E+00 0.  1.
         25    1    1    2    0    0 -0.32553507615E+03  0.11142142033E+03 -0.19573388579E+03  0.41511994985E+03  0.12500000000E+03 0.  0.
         25    1    1    2    0    0  0.32020356485E+03 -0.97722580999E+02 -0.32013925673E+03  0.47978554530E+03  0.12500000000E+03 0.  0.
         25    1    1    2    0    0  0.53315113005E+01 -0.13698839332E+02 -0.13374899510E+03  0.18365695441E+03  0.12500000000E+03 0.  0.
</event>
<event>
 5    0  0.5655767E-005  0.3542635E+03  0.7546771E-02  0.1060879E+00
         21   -1    0    0  502  501  0.00000000000E+00  0.00000000000E+00  0.43722595560E+03  0.43722595560E+03  0.00000000000E+00 0.  1.
         21   -1    0    0  501  502 -0.00000000000E+00 -0.00000000000E+00 -0.28704300931E+03  0.28704300931E+03  0.00000000000E+00 0.  1.
         25    1    1    2    0    0 -0.10038451285E+03 -0.22088140726E+03 -0.47960811032E+02  0.27711168486E+03  0.12500000000E+03 0.  0.
         25    1    1    2    0    0  0.46708746151E+02 -0.67093947517E+01  0.88328998792E+02  0.16016783376E+03  0.12500000000E+03 0.  0.
         25    1    1    2    0    0  0.53675766698E+02  0.22759080201E+03  0.10981475853E+03  0.28698944629E+03  0.12500000000E+03 0.  0.
</event>
<event>
 5    0  0.6253802E-005  0.2996421E+03  0.7546771E-02  0.1085420E+00
         21   -1    0    0  502  501  0.00000000000E+00  0.00000000000E+00  0.49293521912E+03  0.49293521912E+03  0.00000000000E+00 0.  1.
         21   -1    0    0  501  502 -0.00000000000E+00 -0.00000000000E+00 -0.18214442448E+03  0.18214442448E+03  0.00000000000E+00 0.  1.
         25    1    1    2    0    0  0.11044391867E+03  0.73026863136E+02  0.95974585785E+02  0.20583222058E+03  0.12500000000E+03 0.  0.
         25    1    1    2    0    0 -0.12347337013E+03  0.95826067713E+02  0.63333152469E+02  0.20991521285E+03  0.12500000000E+03 0.  0.
         25    1    1    2    0    0  0.13029451460E+02 -0.16885293085E+03  0.15148305638E+03  0.25933221017E+03  0.12500000000E+03 0.  0.
</event>
<event>
 5    0  0.5655767E-005  0.4821818E+03  0.7546771E-02  0.1018537E+00
         21   -1    0    0  502  501  0.00000000000E+00  0.00000000000E+00  0.85274154510E+03  0.85274154510E+03  0.00000000000E+00 0.  1.
         21   -1    0    0  501  502 -0.00000000000E+00 -0.00000000000E+00 -0.27264920415E+03  0.27264920415E+03  0.00000000000E+00 0.  1.
         25    1    1    2    0    0 -0.27914815832E+02  0.17499236249E+03  0.13806306461E+03  0.25707581310E+03  0.12500000000E+03 0.  0.
         25    1    1    2    0    0  0.95260910445E+02 -0.42731575877E+03  0.23491081971E+03  0.51232947599E+03  0.12500000000E+03 0.  0.
         25    1    1    2    0    0 -0.67346094613E+02  0.25232339628E+03  0.20711845662E+03  0.35598546016E+03  0.12500000000E+03 0.  0.
</event>
<event>
 5    0  0.5655767E-005  0.2728656E+03  0.7546771E-02  0.1099651E+00
         21   -1    0    0  502  501  0.00000000000E+00  0.00000000000E+00  0.29697289969E+03  0.29697289969E+03  0.00000000000E+00 0.  1.
         21   -1    0    0  501  502 -0.00000000000E+00 -0.00000000000E+00 -0.25071527683E+03  0.25071527683E+03  0.00000000000E+00 0.  1.
         25    1    1    2    0    0  0.56357324326E+02  0.12465240655E+03 -0.80946146727E+02  0.20221683692E+03  0.12500000000E+03 0.  0.
         25    1    1    2    0    0 -0.51524799258E+02 -0.25703636220E+01  0.11205875046E+02  0.13569076366E+03  0.12500000000E+03 0.  0.
         25    1    1    2    0    0 -0.48325250678E+01 -0.12208204293E+03  0.11599789454E+03  0.20978057594E+03  0.12500000000E+03 0.  0.
</event>
<event>
 5    0  0.5655767E-005  0.2409229E+03  0.7546771E-02  0.1119180E+00
         21   -1    0    0  502  501  0.00000000000E+00  0.00000000000E+00  0.19933647283E+03  0.19933647283E+03  0.00000000000E+00 0. -1.
         21   -1    0    0  501  502 -0.00000000000E+00 -0.00000000000E+00 -0.29118531092E+03  0.29118531092E+03  0.00000000000E+00 0. -1.
         25    1    1    2    0    0 -0.12787064006E+02  0.59925476416E+02 -0.61934688947E+02  0.15236626078E+03  0.12500000000E+03 0.  0.
         25    1    1    2    0    0 -0.90248698636E+02 -0.30798640105E+02 -0.64558385844E+02  0.16995931578E+03  0.12500000000E+03 0.  0.
         25    1    1    2    0    0  0.10303576264E+03 -0.29126836310E+02  0.34644236706E+02  0.16819620719E+03  0.12500000000E+03 0.  0.
</event>
<event>
 5    0  0.5655767E-005  0.3470659E+03  0.7546771E-02  0.1063826E+00
         21   -1    0    0  502  501  0.00000000000E+00  0.00000000000E+00  0.87383798353E+02  0.87383798353E+02  0.00000000000E+00 0.  1.
         21   -1    0    0  501  502 -0.00000000000E+00 -0.00000000000E+00 -0.13784562252E+04  0.13784562252E+04  0.00000000000E+00 0.  1.
         25    1    1    2    0    0  0.26472376498E+02 -0.37744146091E+02 -0.36863068195E+03  0.39196809431E+03  0.12500000000E+03 0.  0.
         25    1    1    2    0    0 -0.19921128343E+03  0.11983476259E+03 -0.72621242246E+03  0.77269333393E+03  0.12500000000E+03 0.  0.
         25    1    1    2    0    0  0.17273890694E+03 -0.82090616499E+02 -0.19622932243E+03  0.30117859530E+03  0.12500000000E+03 0.  0.
</event>
<event>
 5    0  0.5655767E-005  0.3853872E+03  0.7546771E-02  0.1048960E+00
         21   -1    0    0  502  501  0.00000000000E+00  0.00000000000E+00  0.11518685071E+04  0.11518685071E+04  0.00000000000E+00 0.  1.
         21   -1    0    0  501  502 -0.00000000000E+00 -0.00000000000E+00 -0.12894117888E+03  0.12894117888E+03  0.00000000000E+00 0.  1.
         25    1    1    2    0    0 -0.11958048022E+03  0.23684774986E+02  0.13989640956E+03  0.22373302220E+03  0.12500000000E+03 0.  0.
         25    1    1    2    0    0  0.25798833206E+02  0.20394530061E+03  0.17614314398E+03  0.29817892717E+03  0.12500000000E+03 0.  0.
         25    1    1    2    0    0  0.93781647016E+02 -0.22763007560E+03  0.70688777473E+03  0.75889773665E+03  0.12500000000E+03 0.  0.
</event>
<event>
 5    0  0.5655767E-005  0.2280341E+03  0.7546771E-02  0.1128031E+00
         21   -1    0    0  502  501  0.00000000000E+00  0.00000000000E+00  0.20605684750E+04  0.20605684750E+04  0.00000000000E+00 0.  1.
         21   -1    0    0  501  502 -0.00000000000E+00 -0.00000000000E+00 -0.25235537455E+02  0.25235537455E+02  0.00000000000E+00 0.  1.
         25    1    1    2    0    0  0.93181984627E+02  0.13047076818E+02  0.66126734356E+03  0.67952380983E+03  0.12500000000E+03 0.  0.
         25    1    1    2    0    0 -0.77815999048E+02 -0.67605504439E+02  0.73910341460E+03  0.75665361389E+03  0.12500000000E+03 0.  0.
         25    1    1    2    0    0 -0.15365985579E+02  0.54558427621E+02  0.63496217934E+03  0.64962658869E+03  0.12500000000E+03 0.  0.
</event>
<event>
 5    0  0.5655767E-005  0.6971694E+03  0.7546771E-02  0.9722085E-01
         21   -1    0    0  502  501  0.00000000000E+00  0.00000000000E+00  0.59060200456E+03  0.59060200456E+03  0.00000000000E+00 0.  1.
         21   -1    0    0  501  502 -0.00000000000E+00 -0.00000000000E+00 -0.82296560763E+03  0.82296560763E+03  0.00000000000E+00 0.  1.
         25    1    1    2    0    0  0.16593775852E+03  0.18982979104E+02  0.11335726679E+03  0.23742485787E+03  0.12500000000E+03 0.  0.
         25    1    1    2    0    0  0.62302107222E+02  0.24880226028E+03  0.31014973249E+03  0.42142849198E+03  0.12500000000E+03 0.  0.
         25    1    1    2    0    0 -0.22823986574E+03 -0.26778523939E+03 -0.65587060236E+03  0.75471426234E+03  0.12500000000E+03 0.  0.
</event>
<event>
 5    0  0.8372949E-005  0.7271576E+03  0.7546771E-02  0.9671884E-01
         21   -1    0    0  502  501  0.00000000000E+00  0.00000000000E+00  0.35591662887E+03  0.35591662887E+03  0.00000000000E+00 0.  1.
         21   -1    0    0  501  502 -0.00000000000E+00 -0.00000000000E+00 -0.14856235624E+04  0.14856235624E+04  0.00000000000E+00 0.  1.
         25    1    1    2    0    0  0.33991891878E+03 -0.35699639204E+03 -0.17004016348E+03  0.53621819483E+03  0.12500000000E+03 0.  0.
         25    1    1    2    0    0 -0.83394740871E+02  0.20740810528E+03 -0.94900159273E+03  0.98295565919E+03  0.12500000000E+03 0.  0.
         25    1    1    2    0    0 -0.25652417791E+03  0.14958828676E+03 -0.10665177319E+02  0.32236633725E+03  0.12500000000E+03 0.  0.
</event>
<event>
 5    0  0.5655767E-005  0.2017067E+03  0.7546771E-02  0.1148307E+00
         21   -1    0    0  502  501  0.00000000000E+00  0.00000000000E+00  0.19399839010E+02  0.19399839010E+02  0.00000000000E+00 0. -1.
         21   -1    0    0  501  502 -0.00000000000E+00 -0.00000000000E+00 -0.20972134088E+04  0.20972134088E+04  0.00000000000E+00 0. -1.
         25    1    1    2    0    0 -0.50373316296E+02  0.31079179736E+02 -0.83233423094E+03  0.84374679757E+03  0.12500000000E+03 0.  0.
         25    1    1    2    0    0  0.29360358511E+02 -0.20575493302E+02 -0.50104886784E+03  0.51764886703E+03  0.12500000000E+03 0.  0.
         25    1    1    2    0    0  0.21012957785E+02 -0.10503686434E+02 -0.74443047096E+03  0.75521758317E+03  0.12500000000E+03 0.  0.
</event>
<event>
 5    0  0.5655767E-005  0.3549416E+03  0.7546771E-02  0.1060605E+00
         21   -1    0    0  502  501  0.00000000000E+00  0.00000000000E+00  0.50108889268E+03  0.50108889268E+03  0.00000000000E+00 0. -1.
         21   -1    0    0  501  502 -0.00000000000E+00 -0.00000000000E+00 -0.25141951114E+03  0.25141951114E+03  0.00000000000E+00 0. -1.
         25    1    1    2    0    0  0.84246598939E+02  0.13114079710E+03  0.15087753900E+02  0.20036975424E+03  0.12500000000E+03 0.  0.
         25    1    1    2    0    0 -0.53307012213E+02  0.92582085701E+01 -0.98728382834E+02  0.16822498493E+03  0.12500000000E+03 0.  0.
         25    1    1    2    0    0 -0.30939586726E+02 -0.14039900567E+03  0.33331001048E+03  0.38391366465E+03  0.12500000000E+03 0.  0.
</event>
<event>
 5    0  0.5655767E-005  0.3865313E+03  0.7546771E-02  0.1048546E+00
         21   -1    0    0  502  501  0.00000000000E+00  0.00000000000E+00  0.41588730667E+03  0.41588730667E+03  0.00000000000E+00 0. -1.
         21   -1    0    0  501  502 -0.00000000000E+00 -0.00000000000E+00 -0.35924739497E+03  0.35924739497E+03  0.00000000000E+00 0. -1.
         25    1    1    2    0    0 -0.12396732958E+02  0.10897126163E+03  0.33845549413E+03  0.37710149344E+03  0.12500000000E+03 0.  0.
         25    1    1    2    0    0  0.34897527143E+02 -0.73774949080E+02 -0.14810203893E+03  0.21028503144E+03  0.12500000000E+03 0.  0.
         25    1    1    2    0    0 -0.22500794185E+02 -0.35196312553E+02 -0.13371354351E+03  0.18774817675E+03  0.12500000000E+03 0.  0.
</event>
<event>
 5    0  0.5655767E-005  0.2338182E+03  0.7546771E-02  0.1123981E+00
         21   -1    0    0  502  501  0.00000000000E+00  0.00000000000E+00  0.21718362570E+03  0.21718362570E+03  0.00000000000E+00 0. -1.
         21   -1    0    0  501  502 -0.00000000000E+00 -0.00000000000E+00 -0.25172689466E+03  0.25172689466E+03  0.00000000000E+00 0. -1.
         25    1    1    2    0    0  0.98368600600E+01 -0.62500085416E+02 -0.76971239107E+02  0.15985179430E+03  0.12500000000E+03 0.  0.
         25    1    1    2    0    0  0.76839454384E+02  0.25152823562E+02  0.30620293576E+02  0.15198542253E+03  0.12500000000E+03 0.  0.
         25    1    1    2    0    0 -0.86676314444E+02  0.37347261854E+02  0.11807676575E+02  0.15707330352E+03  0.12500000000E+03 0.  0.
</event>
<event>
 5    0  0.5655767E-005  0.3497368E+03  0.7546771E-02  0.1062723E+00
         21   -1    0    0  502  501  0.00000000000E+00  0.00000000000E+00  0.10208109367E+04  0.10208109367E+04  0.00000000000E+00 0. -1.
         21   -1    0    0  501  502 -0.00000000000E+00 -0.00000000000E+00 -0.11982219096E+03  0.11982219096E+03  0.00000000000E+00 0. -1.
         25    1    1    2    0    0 -0.72584333742E+02  0.60450082032E+02  0.16027838926E+03  0.22413580702E+03  0.12500000000E+03 0.  0.
         25    1    1    2    0    0  0.94179628167E+02 -0.10344074103E+03  0.26060108295E+02  0.18940411429E+03  0.12500000000E+03 0.  0.
         25    1    1    2    0    0 -0.21595294425E+02  0.42990658995E+02  0.71465024820E+03  0.72709320637E+03  0.12500000000E+03 0.  0.
</event>
<event>
 5    0  0.5655767E-005  0.4936229E+03  0.7546771E-02  0.1015457E+00
         21   -1    0    0  502  501  0.00000000000E+00  0.00000000000E+00  0.48388138022E+03  0.48388138022E+03  0.00000000000E+00 0. -1.
         21   -1    0    0  501  502 -0.00000000000E+00 -0.00000000000E+00 -0.50356061061E+03  0.50356061061E+03  0.00000000000E+00 0. -1.
         25    1    1    2    0    0 -0.33869755476E+03  0.23600917388E+02  0.26639533681E+03  0.44929334780E+03  0.12500000000E+03 0.  0.
         25    1    1    2    0    0  0.19208285695E+03 -0.52420421705E+02 -0.65885286014E+02  0.24415076379E+03  0.12500000000E+03 0.  0.
         25    1    1    2    0    0  0.14661469781E+03  0.28819504317E+02 -0.22018928119E+03  0.29399787923E+03  0.12500000000E+03 0.  0.
</event>
<event>
 5    0  0.5655767E-005  0.2910395E+03  0.7546771E-02  0.1089808E+00
         21   -1    0    0  502  501  0.00000000000E+00  0.00000000000E+00  0.18999790239E+04  0.18999790239E+04  0.00000000000E+00 0.  1.
         21   -1    0    0  501  502 -0.00000000000E+00 -0.00000000000E+00 -0.44581547548E+02  0.44581547548E+02  0.00000000000E+00 0.  1.
         25    1    1    2    0    0 -0.30954727178E+02  0.96623328064E+02  0.59838097426E+03  0.61966043364E+03  0.12500000000E+03 0.  0.
         25    1    1    2    0    0  0.30912956958E+02 -0.16644510933E+03  0.10638069581E+04  0.10844214261E+04  0.12500000000E+03 0.  0.
         25    1    1    2    0    0  0.41770220321E-01  0.69821781267E+02  0.19320954398E+03  0.24047871167E+03  0.12500000000E+03 0.  0.
</event>
<event>
 5    0  0.5655767E-005  0.2272645E+03  0.7546771E-02  0.1128580E+00
         21   -1    0    0  502  501  0.00000000000E+00  0.00000000000E+00  0.10665571145E+04  0.10665571145E+04  0.00000000000E+00 0. -1.
         21   -1    0    0  501  502 -0.00000000000E+00 -0.00000000000E+00 -0.48426065582E+02  0.48426065582E+02  0.00000000000E+00 0. -1.
         25    1    1    2    0    0  0.21058965424E+02 -0.54133048930E+02  0.42282097466E+03  0.44472063548E+03  0.12500000000E+03 0.  0.
         25    1    1    2    0    0 -0.55596766330E+02  0.62800046286E+02  0.17767170002E+03  0.23286708490E+03  0.12500000000E+03 0.  0.
         25    1    1    2    0    0  0.34537800906E+02 -0.86669973565E+01  0.41763837428E+03  0.43739545975E+03  0.12500000000E+03 0.  0.
</event>
<event>
 5    0  0.5655767E-005  0.2759849E+03  0.7546771E-02  0.1097902E+00
         21   -1    0    0  502  501  0.00000000000E+00  0.00000000000E+00  0.45580764359E+03  0.45580764359E+03  0.00000000000E+00 0. -1.
         21   -1    0    0  501  502 -0.00000000000E+00 -0.00000000000E+00 -0.16710482986E+03  0.16710482986E+03  0.00000000000E+00 0. -1.
         25    1    1    2    0    0  0.34019149219E+02 -0.52257735385E+02  0.18586545524E+03  0.23250621685E+03  0.12500000000E+03 0.  0.
         25    1    1    2    0    0  0.47105504540E+02  0.12107902156E+03  0.13232322536E+03  0.22363696919E+03  0.12500000000E+03 0.  0.
         25    1    1    2    0    0 -0.81124653759E+02 -0.68821286171E+02 -0.29485866863E+02  0.16676928741E+03  0.12500000000E+03 0.  0.
</event>
<event>
 5    0  0.5655767E-005  0.2929839E+03  0.7546771E-02  0.1088801E+00
         21   -1    0    0  502  501  0.00000000000E+00  0.00000000000E+00  0.10176052903E+03  0.10176052903E+03  0.00000000000E+00 0.  1.
         21   -1    0    0  501  502 -0.00000000000E+00 -0.00000000000E+00 -0.84354464163E+03  0.84354464163E+03  0.00000000000E+00 0.  1.
         25    1    1    2    0    0  0.72932838949E+02 -0.11392981539E+03 -0.37896395616E+03  0.42135244381E+03  0.12500000000E+03 0.  0.
         25    1    1    2    0    0  0.34007408601E+02  0.14904730168E+03 -0.26113728555E+03  0.32739774569E+03  0.12500000000E+03 0.  0.
         25    1    1    2    0    0 -0.10694024755E+03 -0.35117486287E+02 -0.10168287088E+03  0.19655498116E+03  0.12500000000E+03 0.  0.
</event>
<event>
 5    0  0.5655767E-005  0.3239632E+03  0.7546771E-02  0.1073840E+00
         21   -1    0    0  502  501  0.00000000000E+00  0.00000000000E+00  0.40012375811E+03  0.40012375811E+03  0.00000000000E+00 0.  1.
         21   -1    0    0  501  502 -0.00000000000E+00 -0.00000000000E+00 -0.26229916025E+03  0.26229916025E+03  0.00000000000E+00 0.  1.
         25    1    1    2    0    0  0.25252259613E+02  0.36519729405E+02 -0.21956713732E+02  0.13445618070E+03  0.12500000000E+03 0.  0.
         25    1    1    2    0    0 -0.14077468956E+03 -0.83058521168E+02 -0.87982548690E+02  0.22379043776E+03  0.12500000000E+03 0.  0.
         25    1    1    2    0    0  0.11552242995E+03  0.46538791763E+02  0.24776386028E+03  0.30417629990E+03  0.12500000000E+03 0.  0.
</event>
<event>
 5    0  0.5655767E-005  0.2401884E+03  0.7546771E-02  0.1119667E+00
         21   -1    0    0  502  501  0.00000000000E+00  0.00000000000E+00  0.14649251910E+03  0.14649251910E+03  0.00000000000E+00 0. -1.
         21   -1    0    0  501  502 -0.00000000000E+00 -0.00000000000E+00 -0.39381159569E+03  0.39381159569E+03  0.00000000000E+00 0. -1.
         25    1    1    2    0    0 -0.86617799904E+02 -0.43778102039E+02 -0.20234956742E+02  0.15954190344E+03  0.12500000000E+03 0.  0.
         25    1    1    2    0    0  0.11781620622E+03  0.37817001457E+02 -0.11752209534E+03  0.21153540352E+03  0.12500000000E+03 0.  0.
         25    1    1    2    0    0 -0.31198406319E+02  0.59611005820E+01 -0.10956202450E+03  0.16922680784E+03  0.12500000000E+03 0.  0.
</event>
<event>
 5    0  0.5655767E-005  0.2812400E+03  0.7546771E-02  0.1095014E+00
         21   -1    0    0  502  501  0.00000000000E+00  0.00000000000E+00  0.19429464315E+03  0.19429464315E+03  0.00000000000E+00 0.  1.
         21   -1    0    0  501  502 -0.00000000000E+00 -0.00000000000E+00 -0.40709277480E+03  0.40709277480E+03  0.00000000000E+00 0.  1.
         25    1    1    2    0    0 -0.69645676593E+02  0.14459156351E+03 -0.18171508671E+03  0.27276842421E+03  0.12500000000E+03 0.  0.
         25    1    1    2    0    0  0.49070822678E+02  0.30357126870E+00 -0.48565607202E+01  0.13437493805E+03  0.12500000000E+03 0.  0.
         25    1    1    2    0    0  0.20574853915E+02 -0.14489513478E+03 -0.26226484219E+02  0.19424405569E+03  0.12500000000E+03 0.  0.
</event>
<event>
 5    0  0.5655767E-005  0.2546119E+03  0.7546771E-02  0.1110424E+00
         21   -1    0    0  502  501  0.00000000000E+00  0.00000000000E+00  0.38367497905E+02  0.38367497905E+02  0.00000000000E+00 0. -1.
         21   -1    0    0  501  502 -0.00000000000E+00 -0.00000000000E+00 -0.16896390549E+04  0.16896390549E+04  0.00000000000E+00 0. -1.
         25    1    1    2    0    0 -0.35249355217E+02 -0.37952985167E+02 -0.11902787614E+04  0.11979446882E+04  0.12500000000E+03 0.  0.
         25    1    1    2    0    0  0.13800847293E+02  0.45895324259E+02 -0.21732226903E+03  0.25524657254E+03  0.12500000000E+03 0.  0.
         25    1    1    2    0    0  0.21448507924E+02 -0.79423390912E+01 -0.24367052654E+03  0.27481529205E+03  0.12500000000E+03 0.  0.
</event>
<event>
 5    0  0.5655767E-005  0.2885314E+03  0.7546771E-02  0.1091118E+00
         21   -1    0    0  502  501  0.00000000000E+00  0.00000000000E+00  0.63358024247E+03  0.63358024247E+03  0.00000000000E+00 0.  1.
         21   -1    0    0  501  502 -0.00000000000E+00 -0.00000000000E+00 -0.13139676655E+03  0.13139676655E+03  0.00000000000E+00 0.  1.
         25    1    1    2    0    0  0.50548124583E+02  0.12546256430E+03  0.29431208091E+03  0.34718952880E+03  0.12500000000E+03 0.  0.
         25    1    1    2    0    0 -0.87380198569E+02  0.33231816713E+02  0.74727068851E+02  0.17305718004E+03  0.12500000000E+03 0.  0.
         25    1    1    2    0    0  0.36832073986E+02 -0.15869438101E+03  0.13314432616E+03  0.24473030018E+03  0.12500000000E+03 0.  0.
</event>
<event>
 5    0  0.5655767E-005  0.2004352E+03  0.7546771E-02  0.1149372E+00
         21   -1    0    0  502  501  0.00000000000E+00  0.00000000000E+00  0.11839664910E+04  0.11839664910E+04  0.00000000000E+00 0.  1.
         21   -1    0    0  501  502 -0.00000000000E+00 -0.00000000000E+00 -0.33931947369E+02  0.33931947369E+02  0.00000000000E+00 0.  1.
         25    1    1    2    0    0  0.28769245643E+02  0.22517537249E+02  0.49613057811E+03  0.51293787100E+03  0.12500000000E+03 0.  0.
         25    1    1    2    0    0  0.10038871792E+02 -0.38507196997E+02  0.30772406744E+03  0.33451858670E+03  0.12500000000E+03 0.  0.
         25    1    1    2    0    0 -0.38808117434E+02  0.15989659748E+02  0.34617989806E+03  0.37044198063E+03  0.12500000000E+03 0.  0.
</event>
<event>
 5    0  0.5655767E-005  0.3743921E+03  0.7546771E-02  0.1053026E+00
         21   -1    0    0  502  501  0.00000000000E+00  0.00000000000E+00  0.20387765082E+03  0.20387765082E+03  0.00000000000E+00 0.  1.
         21   -1    0    0  501  502 -0.00000000000E+00 -0.00000000000E+00 -0.68751760491E+03  0.68751760491E+03  0.00000000000E+00 0.  1.
         25    1    1    2    0    0 -0.15674482468E+03 -0.25880903564E+03 -0.22261736494E+03  0.39589714341E+03  0.12500000000E+03 0.  0.
         25    1    1    2    0    0  0.27324750198E+01  0.55412065724E+02 -0.75999595534E+02  0.15645734872E+03  0.12500000000E+03 0.  0.
         25    1    1    2    0    0  0.15401234966E+03  0.20339696991E+03 -0.18502299362E+03  0.33904076360E+03  0.12500000000E+03 0.  0.
</event>
<event>
 5    0  0.5783321E-005  0.4693034E+03  0.7546771E-02  0.1022117E+00
         21   -1    0    0  502  501  0.00000000000E+00  0.00000000000E+00  0.41308942976E+03  0.41308942976E+03  0.00000000000E+00 0.  1.
         21   -1    0    0  501  502 -0.00000000000E+00 -0.00000000000E+00 -0.53316710684E+03  0.53316710684E+03  0.00000000000E+00 0.  1.
         25    1    1    2    0    0  0.19943670262E+03  0.17924502422E+03  0.87723143241E+02  0.30858406783E+03  0.12500000000E+03 0.  0.
         25    1    1    2    0    0 -0.19756890258E+03 -0.64779641059E+02  0.11848351706E+03  0.26998743856E+03  0.12500000000E+03 0.  0.
         25    1    1    2    0    0 -0.18678000365E+01 -0.11446538316E+03 -0.32628433739E+03  0.36768503021E+03  0.12500000000E+03 0.  0.
</event>
<event>
 5    0  0.5655767E-005  0.2716259E+03  0.7546771E-02  0.1100353E+00
         21   -1    0    0  502  501  0.00000000000E+00  0.00000000000E+00  0.36599094442E+03  0.36599094442E+03  0.00000000000E+00 0. -1.
         21   -1    0    0  501  502 -0.00000000000E+00 -0.00000000000E+00 -0.20159138578E+03  0.20159138578E+03  0.00000000000E+00 0. -1.
         25    1    1    2    0    0 -0.42021552876E+02  0.32554871192E+02  0.14314223922E+02  0.13658523914E+03  0.12500000000E+03 0.  0.
         25    1    1    2    0    0  0.10517065035E+03  0.66381138523E+02 -0.33833512074E+02  0.17954672870E+03  0.12500000000E+03 0.  0.
         25    1    1    2    0    0 -0.63149097474E+02 -0.98936009715E+02  0.18391884679E+03  0.25145036236E+03  0.12500000000E+03 0.  0.
</event>
<event>
 5    0  0.5655767E-005  0.2408984E+03  0.7546771E-02  0.1119196E+00
         21   -1    0    0  502  501  0.00000000000E+00  0.00000000000E+00  0.69482471065E+02  0.69482471065E+02  0.00000000000E+00 0. -1.
         21   -1    0    0  501  502 -0.00000000000E+00 -0.00000000000E+00 -0.83520431389E+03  0.83520431389E+03  0.00000000000E+00 0. -1.
         25    1    1    2    0    0 -0.60679220009E+02  0.50915613911E+02 -0.12399812908E+03  0.19306709584E+03  0.12500000000E+03 0.  0.
         25    1    1    2    0    0  0.19288465827E+02  0.38332018840E+02 -0.40823632537E+03  0.42909589363E+03  0.12500000000E+03 0.  0.
         25    1    1    2    0    0  0.41390754182E+02 -0.89247632751E+02 -0.23348738838E+03  0.28252379548E+03  0.12500000000E+03 0.  0.
</event>
<event>
 5    0  0.5655767E-005  0.3376263E+03  0.7546771E-02  0.1067811E+00
         21   -1    0    0  502  501  0.00000000000E+00  0.00000000000E+00  0.12596081317E+03  0.12596081317E+03  0.00000000000E+00 0. -1.
         21   -1    0    0  501  502 -0.00000000000E+00 -0.00000000000E+00 -0.90497583971E+03  0.90497583971E+03  0.00000000000E+00 0. -1.
         25    1    1    2    0    0 -0.69927171379E+01  0.29178133591E+02 -0.96790439551E+02  0.16091504206E+03  0.12500000000E+03 0.  0.
         25    1    1    2    0    0 -0.28094612968E+02  0.99937906542E+02 -0.66675166947E+03  0.68626502255E+03  0.12500000000E+03 0.  0.
         25    1    1    2    0    0  0.35087330106E+02 -0.12911604013E+03 -0.15472917524E+02  0.18375658826E+03  0.12500000000E+03 0.  0.
</event>
<event>
 5    0  0.5655767E-005  0.2784000E+03  0.7546771E-02  0.1096566E+00
         21   -1    0    0  502  501  0.00000000000E+00  0.00000000000E+00  0.19678984326E+03  0.19678984326E+03  0.00000000000E+00 0.  1.
         21   -1    0    0  501  502 -0.00000000000E+00 -0.00000000000E+00 -0.39385447325E+03  0.39385447325E+03  0.00000000000E+00 0.  1.
         25    1    1    2    0    0  0.96425515595E+02  0.33527179856E+02 -0.20154235160E+03  0.25819812419E+03  0.12500000000E+03 0.  0.
         25    1    1    2    0    0  0.32119571310E+02  0.33864823504E+02 -0.32572989660E+02  0.13734807166E+03  0.12500000000E+03 0.  0.
         25    1    1    2    0    0 -0.12854508691E+03 -0.67392003360E+02  0.37050711265E+02  0.19509812067E+03  0.12500000000E+03 0.  0.
</event>
<event>
 5    0  0.5655767E-005  0.3733619E+03  0.7546771E-02  0.1053415E+00
         21   -1    0    0  502  501  0.00000000000E+00  0.00000000000E+00  0.23771900105E+04  0.23771900105E+04  0.00000000000E+00 0. -1.
         21   -1    0    0  501  502 -0.00000000000E+00 -0.00000000000E+00 -0.58640302060E+02  0.58640302060E+02  0.00000000000E+00 0. -1.
         25    1    1    2    0    0  0.17763471559E+03 -0.16697026863E+03  0.11910643629E+04  0.12221671242E+04  0.12500000000E+03 0.  0.
         25    1    1    2    0    0 -0.19779354691E+03  0.49495369489E+01  0.47466858927E+03  0.52922779099E+03  0.12500000000E+03 0.  0.
         25    1    1    2    0    0  0.20158831319E+02  0.16202073168E+03  0.65281675621E+03  0.68443539736E+03  0.12500000000E+03 0.  0.
</event>
<event>
 5    0  0.5655767E-005  0.2418761E+03  0.7546771E-02  0.1118549E+00
         21   -1    0    0  502  501  0.00000000000E+00  0.00000000000E+00  0.45771887949E+03  0.45771887949E+03  0.00000000000E+00 0. -1.
         21   -1    0    0  501  502 -0.00000000000E+00 -0.00000000000E+00 -0.12781650987E+03  0.12781650987E+03  0.00000000000E+00 0. -1.
         25    1    1    2    0    0 -0.22205861703E+01 -0.76465233714E+01  0.78530448264E+02  0.14783582660E+03  0.12500000000E+03 0.  0.
         25    1    1    2    0    0  0.10108027354E+03  0.77034362215E+02  0.16788309751E+03  0.24486986154E+03  0.12500000000E+03 0.  0.
         25    1    1    2    0    0 -0.98859687370E+02 -0.69387838843E+02  0.83488823850E+02  0.19282970122E+03  0.12500000000E+03 0.  0.
</event>
<event>
 5    0  0.5655767E-005  0.3710356E+03  0.7546771E-02  0.1054298E+00
         21   -1    0    0  502  501  0.00000000000E+00  0.00000000000E+00  0.11891972955E+04  0.11891972955E+04  0.00000000000E+00 0. -1.
         21   -1    0    0  501  502 -0.00000000000E+00 -0.00000000000E+00 -0.11576501217E+03  0.11576501217E+03  0.00000000000E+00 0. -1.
         25    1    1    2    0    0 -0.91347324134E+01  0.28933534494E+03  0.62203554055E+03  0.69738913017E+03  0.12500000000E+03 0.  0.
         25    1    1    2    0    0  0.40246825962E+02 -0.15097328367E+03  0.14334438576E+03  0.24614091962E+03  0.12500000000E+03 0.  0.
         25    1    1    2    0    0 -0.31112093549E+02 -0.13836206127E+03  0.30805235701E+03  0.36143225786E+03  0.12500000000E+03 0.  0.
</event>
<event>
 5    0  0.5655767E-005  0.2971347E+03  0.7546771E-02  0.1086682E+00
         21   -1    0    0  502  501  0.00000000000E+00  0.00000000000E+00  0.83071087529E+02  0.83071087529E+02  0.00000000000E+00 0. -1.
         21   -1    0    0  501  502 -0.00000000000E+00 -0.00000000000E+00 -0.10628130779E+04  0.10628130779E+04  0.00000000000E+00 0. -1.
         25    1    1    2    0    0 -0.56909161333E+02  0.30142406065E+02 -0.29613268962E+03  0.32782127318E+03  0.12500000000E+03 0.  0.
         25    1    1    2    0    0 -0.11104173070E+03 -0.37763480708E+02 -0.53343318114E+03  0.56029662249E+03  0.12500000000E+03 0.  0.
         25    1    1    2    0    0  0.16795089203E+03  0.76210746433E+01 -0.15017611956E+03  0.25776626971E+03  0.12500000000E+03 0.  0.
</event>
<event>
 5    0  0.5655767E-005  0.3572917E+03  0.7546771E-02  0.1059661E+00
         21   -1    0    0  502  501  0.00000000000E+00  0.00000000000E+00  0.77640849337E+02  0.77640849337E+02  0.00000000000E+00 0.  1.
         21   -1    0    0  501  502 -0.00000000000E+00 -0.00000000000E+00 -0.16442035380E+04  0.16442035380E+04  0.00000000000E+00 0.  1.
         25    1    1    2    0    0 -0.19332429500E+03 -0.15663645375E+03 -0.54895722760E+03  0.61553903159E+03  0.12500000000E+03 0.  0.
         25    1    1    2    0    0  0.16238573724E+03  0.18850549584E+03 -0.83781751506E+03  0.88287407832E+03  0.12500000000E+03 0.  0.
         25    1    1    2    0    0  0.30938557763E+02 -0.31869042091E+02 -0.17978794596E+03  0.22343127738E+03  0.12500000000E+03 0.  0.
</event>
<event>
 5    0  0.6619419E-005  0.2863490E+03  0.7546771E-02  0.1092271E+00
         21   -1    0    0  502  501  0.00000000000E+00  0.00000000000E+00  0.52620526867E+03  0.52620526867E+03  0.00000000000E+00 0. -1.
         21   -1    0    0  501  502 -0.00000000000E+00 -0.00000000000E+00 -0.15582460604E+03  0.15582460604E+03  0.00000000000E+00 0. -1.
         25    1    1    2    0    0 -0.31813635270E+02 -0.11153051923E+03  0.19950414807E+03  0.26244631681E+03  0.12500000000E+03 0.  0.
         25    1    1    2    0    0 -0.20655663520E+02 -0.45334259236E+02 -0.22076020527E+02  0.13636055947E+03  0.12500000000E+03 0.  0.
         25    1    1    2    0    0  0.52469298790E+02  0.15686477847E+03  0.19295253509E+03  0.28322299843E+03  0.12500000000E+03 0.  0.
</event>
<event>
 5    0  0.5655767E-005  0.2629344E+03  0.7546771E-02  0.1105393E+00
         21   -1    0    0  502  501  0.00000000000E+00  0.00000000000E+00  0.26740866797E+03  0.26740866797E+03  0.00000000000E+00 0.  1.
         21   -1    0    0  501  502 -0.00000000000E+00 -0.00000000000E+00 -0.25853495745E+03  0.25853495745E+03  0.00000000000E+00 0.  1.
         25    1    1    2    0    0  0.43905064690E+02 -0.10994646494E+03 -0.33895156684E+02  0.17547011571E+03  0.12500000000E+03 0.  0.
         25    1    1    2    0    0  0.79925782646E+02  0.30002615631E+02 -0.47858961813E+01  0.15144699561E+03  0.12500000000E+03 0.  0.
         25    1    1    2    0    0 -0.12383084734E+03  0.79943849313E+02  0.47554763390E+02  0.19902651410E+03  0.12500000000E+03 0.  0.
</event>
<event>
 5    0  0.5655767E-005  0.4014652E+03  0.7546771E-02  0.1043274E+00
         21   -1    0    0  502  501  0.00000000000E+00  0.00000000000E+00  0.58844386853E+03  0.58844386853E+03  0.00000000000E+00 0. -1.
         21   -1    0    0  501  502 -0.00000000000E+00 -0.00000000000E+00 -0.27389914855E+03  0.27389914855E+03  0.00000000000E+00 0. -1.
         25    1    1    2    0    0 -0.14791846686E+03 -0.64462346246E+02  0.50896784626E+02  0.21035862142E+03  0.12500000000E+03 0.  0.
         25    1    1    2    0    0  0.28796912140E+03  0.15297692598E+03  0.47680043254E+02  0.35245785746E+03  0.12500000000E+03 0.  0.
         25    1    1    2    0    0 -0.14005065454E+03 -0.88514579736E+02  0.21596789210E+03  0.29952653819E+03  0.12500000000E+03 0.  0.
</event>
<event>
 5    0  0.5655767E-005  0.5239851E+03  0.7546771E-02  0.1007701E+00
         21   -1    0    0  502  501  0.00000000000E+00  0.00000000000E+00  0.84445819071E+03  0.84445819071E+03  0.00000000000E+00 0. -1.
         21   -1    0    0  501  502 -0.00000000000E+00 -0.00000000000E+00 -0.32513199457E+03  0.32513199457E+03  0.00000000000E+00 0. -1.
         25    1    1    2    0    0  0.16039317171E+03  0.35499505829E+03  0.45837936134E+03  0.61439734687E+03  0.12500000000E+03 0.  0.
         25    1    1    2    0    0  0.74127407842E+02 -0.13068248608E+03 -0.24806127364E+02  0.19701047870E+03  0.12500000000E+03 0.  0.
         25    1    1    2    0    0 -0.23452057955E+03 -0.22431257221E+03  0.85752962169E+02  0.35818235971E+03  0.12500000000E+03 0.  0.
</event>
<event>
 5    0  0.5655767E-005  0.2959339E+03  0.7546771E-02  0.1087291E+00
         21   -1    0    0  502  501  0.00000000000E+00  0.00000000000E+00  0.54050097712E+02  0.54050097712E+02  0.00000000000E+00 0. -1.
         21   -1    0    0  501  502 -0.00000000000E+00 -0.00000000000E+00 -0.16202910951E+04  0.16202910951E+04  0.00000000000E+00 0. -1.
         25    1    1    2    0    0 -0.20461578042E+02  0.58629052668E+02 -0.52445032423E+03  0.54270543076E+03  0.12500000000E+03 0.  0.
         25    1    1    2    0    0 -0.93570239205E+02  0.11529705164E+03 -0.54993470320E+03  0.58318262797E+03  0.12500000000E+03 0.  0.
         25    1    1    2    0    0  0.11403181725E+03 -0.17392610431E+03 -0.49185596998E+03  0.54845313411E+03  0.12500000000E+03 0.  0.
</event>
<event>
 5    0  0.5655767E-005  0.2088082E+03  0.7546771E-02  0.1142513E+00
         21   -1    0    0  502  501  0.00000000000E+00  0.00000000000E+00  0.90711289691E+02  0.90711289691E+02  0.00000000000E+00 0.  1.
         21   -1    0    0  501  502 -0.00000000000E+00 -0.00000000000E+00 -0.48065547084E+03  0.48065547084E+03  0.00000000000E+00 0.  1.
         25    1    1    2    0    0  0.93605857876E+01 -0.37106026320E+02 -0.74245623177E+02  0.15033925075E+03  0.12500000000E+03 0.  0.
         25    1    1    2    0    0 -0.32677791936E+02  0.13377453941E+02 -0.81097346034E+02  0.15312927184E+03  0.12500000000E+03 0.  0.
         25    1    1    2    0    0  0.23317206148E+02  0.23728572378E+02 -0.23460121194E+03  0.26789823794E+03  0.12500000000E+03 0.  0.
</event>
<event>
 5    0  0.5655767E-005  0.2210992E+03  0.7546771E-02  0.1133066E+00
         21   -1    0    0  502  501  0.00000000000E+00  0.00000000000E+00  0.25317757016E+03  0.25317757016E+03  0.00000000000E+00 0.  1.
         21   -1    0    0  501  502 -0.00000000000E+00 -0.00000000000E+00 -0.19308532170E+03  0.19308532170E+03  0.00000000000E+00 0.  1.
         25    1    1    2    0    0  0.57766226699E+02 -0.25873588347E+01  0.18072969764E+02  0.13890739220E+03  0.12500000000E+03 0.  0.
         25    1    1    2    0    0 -0.54515950331E+02 -0.36687604424E+02 -0.47093811737E+02  0.14886502700E+03  0.12500000000E+03 0.  0.
         25    1    1    2    0    0 -0.32502763683E+01  0.39274963258E+02  0.89113090437E+02  0.15849047266E+03  0.12500000000E+03 0.  0.
</event>
<event>
 5    0  0.5655767E-005  0.4085577E+03  0.7546771E-02  0.1040856E+00
         21   -1    0    0  502  501  0.00000000000E+00  0.00000000000E+00  0.39219509849E+03  0.39219509849E+03  0.00000000000E+00 0.  1.
         21   -1    0    0  501  502 -0.00000000000E+00 -0.00000000000E+00 -0.42560304668E+03  0.42560304668E+03  0.00000000000E+00 0.  1.
         25    1    1    2    0    0 -0.27204259570E+03  0.72263503254E+01 -0.11089420334E+03  0.31934607928E+03  0.12500000000E+03 0.  0.
         25    1    1    2    0    0  0.24670552380E+03  0.12825125129E+03  0.29391872323E+02  0.30626929505E+03  0.12500000000E+03 0.  0.
         25    1    1    2    0    0  0.25337071895E+02 -0.13547760161E+03  0.48094382832E+02  0.19218277085E+03  0.12500000000E+03 0.  0.
</event>
<event>
 5    0  0.5655767E-005  0.2913783E+03  0.7546771E-02  0.1089632E+00
         21   -1    0    0  502  501  0.00000000000E+00  0.00000000000E+00  0.12280454894E+03  0.12280454894E+03  0.00000000000E+00 0.  1.
         21   -1    0    0  501  502 -0.00000000000E+00 -0.00000000000E+00 -0.69135313360E+03  0.69135313360E+03  0.00000000000E+00 0.  1.
         25    1    1    2    0    0 -0.10790328513E+03  0.13341927810E+03 -0.13009473498E+03  0.24898486456E+03  0.12500000000E+03 0.  0.
         25    1    1    2    0    0  0.77397068507E+02  0.26721947437E+02 -0.15726160218E+03  0.21693450673E+03  0.12500000000E+03 0.  0.
         25    1    1    2    0    0  0.30506216625E+02 -0.16014122554E+03 -0.28119224750E+03  0.34823831125E+03  0.12500000000E+03 0.  0.
</event>
<event>
 5    0  0.5655767E-005  0.2936480E+03  0.7546771E-02  0.1088460E+00
         21   -1    0    0  502  501  0.00000000000E+00  0.00000000000E+00  0.10711334162E+04  0.10711334162E+04  0.00000000000E+00 0. -1.
         21   -1    0    0  501  502 -0.00000000000E+00 -0.00000000000E+00 -0.80502694383E+02  0.80502694383E+02  0.00000000000E+00 0. -1.
         25    1    1    2    0    0  0.47813323082E+02 -0.65702508651E+02  0.27423001177E+03  0.31213784273E+03  0.12500000000E+03 0.  0.
         25    1    1    2    0    0  0.10041840488E+03  0.48475637278E+02  0.10462228768E+03  0.19749573800E+03  0.12500000000E+03 0.  0.
         25    1    1    2    0    0 -0.14823172796E+03  0.17226871374E+02  0.61177842232E+03  0.64200252981E+03  0.12500000000E+03 0.  0.
</event>
<event>
 5    0  0.5655767E-005  0.2020279E+03  0.7546771E-02  0.1148039E+00
         21   -1    0    0  502  501  0.00000000000E+00  0.00000000000E+00  0.45080586629E+03  0.45080586629E+03  0.00000000000E+00 0. -1.
         21   -1    0    0  501  502 -0.00000000000E+00 -0.00000000000E+00 -0.90538455011E+02  0.90538455011E+02  0.00000000000E+00 0. -1.
         25    1    1    2    0    0  0.25369100269E+02 -0.63421197033E+02  0.10237916101E+03  0.17542044376E+03  0.12500000000E+03 0.  0.
         25    1    1    2    0    0 -0.15227339763E+02  0.27313264562E+02  0.13608536478E+03  0.18740894537E+03  0.12500000000E+03 0.  0.
         25    1    1    2    0    0 -0.10141760506E+02  0.36107932471E+02  0.12180288550E+03  0.17851493217E+03  0.12500000000E+03 0.  0.
</event>
<event>
 5    0  0.5655767E-005  0.4966741E+03  0.7546771E-02  0.1014651E+00
         21   -1    0    0  502  501  0.00000000000E+00  0.00000000000E+00  0.32479544055E+03  0.32479544055E+03  0.00000000000E+00 0.  1.
         21   -1    0    0  501  502 -0.00000000000E+00 -0.00000000000E+00 -0.75950920994E+03  0.75950920994E+03  0.00000000000E+00 0.  1.
         25    1    1    2    0    0 -0.63629088817E+02  0.21187025485E+02 -0.17647359584E+03  0.22641881772E+03  0.12500000000E+03 0.  0.
         25    1    1    2    0    0  0.38379219713E+03 -0.83906673061E+02  0.17757846040E+02  0.41264648485E+03  0.12500000000E+03 0.  0.
         25    1    1    2    0    0 -0.32016310831E+03  0.62719647575E+02 -0.27599801959E+03  0.44523934792E+03  0.12500000000E+03 0.  0.
</event>
<event>
 5    0  0.5655767E-005  0.3277181E+03  0.7546771E-02  0.1072151E+00
         21   -1    0    0  502  501  0.00000000000E+00  0.00000000000E+00  0.19685791024E+03  0.19685791024E+03  0.00000000000E+00 0. -1.
         21   -1    0    0  501  502 -0.00000000000E+00 -0.00000000000E+00 -0.54556679362E+03  0.54556679362E+03  0.00000000000E+00 0. -1.
         25    1    1    2    0    0 -0.49790694756E+02 -0.52914025285E+02 -0.44513275243E+02  0.15127934105E+03  0.12500000000E+03 0.  0.
         25    1    1    2    0    0  0.22807883266E+02  0.15222740219E+03 -0.36726995941E+03  0.41737944918E+03  0.12500000000E+03 0.  0.
         25    1    1    2    0    0  0.26982811490E+02 -0.99313376903E+02  0.63074351280E+02  0.17376591362E+03  0.12500000000E+03 0.  0.
</event>
<event>
 5    0  0.5655767E-005  0.3332865E+03  0.7546771E-02  0.1069692E+00
         21   -1    0    0  502  501  0.00000000000E+00  0.00000000000E+00  0.26406268405E+03  0.26406268405E+03  0.00000000000E+00 0. -1.
         21   -1    0    0  501  502 -0.00000000000E+00 -0.00000000000E+00 -0.42065724327E+03  0.42065724327E+03  0.00000000000E+00 0. -1.
         25    1    1    2    0    0 -0.10156321003E+03 -0.86417685033E+02 -0.14276419451E+03  0.23192610278E+03  0.12500000000E+03 0.  0.
         25    1    1    2    0    0 -0.23721063347E+02  0.11838970230E+03  0.13443112738E+03  0.21971695079E+03  0.12500000000E+03 0.  0.
         25    1    1    2    0    0  0.12528427337E+03 -0.31972017266E+02 -0.14826149208E+03  0.23307687375E+03  0.12500000000E+03 0.  0.
</event>
<event>
 5    0  0.8069224E-005  0.3007939E+03  0.7546771E-02  0.1084844E+00
         21   -1    0    0  502  501  0.00000000000E+00  0.00000000000E+00  0.71116991463E+03  0.71116991463E+03  0.00000000000E+00 0.  1.
         21   -1    0    0  501  502 -0.00000000000E+00 -0.00000000000E+00 -0.12722272093E+03  0.12722272093E+03  0.00000000000E+00 0.  1.
         25    1    1    2    0    0 -0.70861926680E+02  0.37243779901E+02  0.28122842519E+03  0.31799833164E+03  0.12500000000E+03 0.  0.
         25    1    1    2    0    0 -0.11033803646E+03  0.20129813491E+02  0.39558195310E+02  0.17253852468E+03  0.12500000000E+03 0.  0.
         25    1    1    2    0    0  0.18119996314E+03 -0.57373593392E+02  0.26316057320E+03  0.34785577924E+03  0.12500000000E+03 0.  0.
</event>
<event>
 5    0  0.5655767E-005  0.3038783E+03  0.7546771E-02  0.1083318E+00
         21   -1    0    0  502  501  0.00000000000E+00  0.00000000000E+00  0.19398684791E+03  0.19398684791E+03  0.00000000000E+00 0. -1.
         21   -1    0    0  501  502 -0.00000000000E+00 -0.00000000000E+00 -0.47602211341E+03  0.47602211341E+03  0.00000000000E+00 0. -1.
         25    1    1    2    0    0 -0.84373001788E+02  0.43952552769E+02 -0.85385537326E+02  0.17879127582E+03  0.12500000000E+03 0.  0.
         25    1    1    2    0    0 -0.12787918790E+03  0.88126341893E+01 -0.15308648734E+03  0.23556574842E+03  0.12500000000E+03 0.  0.
         25    1    1    2    0    0  0.21225218969E+03 -0.52765186959E+02 -0.43563240836E+02  0.25565193708E+03  0.12500000000E+03 0.  0.
</event>
<event>
 5    0  0.5655767E-005  0.2345711E+03  0.7546771E-02  0.1123463E+00
         21   -1    0    0  502  501  0.00000000000E+00  0.00000000000E+00  0.34710571443E+03  0.34710571443E+03  0.00000000000E+00 0. -1.
         21   -1    0    0  501  502 -0.00000000000E+00 -0.00000000000E+00 -0.15852114969E+03  0.15852114969E+03  0.00000000000E+00 0. -1.
         25    1    1    2    0    0  0.10043748265E+03  0.11492183698E+02  0.89521761708E+02  0.18400789121E+03  0.12500000000E+03 0.  0.
         25    1    1    2    0    0 -0.62275704744E+02 -0.38207222783E+02 -0.15718140579E+02  0.14563692944E+03  0.12500000000E+03 0.  0.
         25    1    1    2    0    0 -0.38161777910E+02  0.26715039085E+02  0.11478094361E+03  0.17598204347E+03  0.12500000000E+03 0.  0.
</event>
<event>
 5    0  0.5655767E-005  0.2843391E+03  0.7546771E-02  0.1093342E+00
         21   -1    0    0  502  501  0.00000000000E+00  0.00000000000E+00  0.12382747166E+04  0.12382747166E+04  0.00000000000E+00 0. -1.
         21   -1    0    0  501  502 -0.00000000000E+00 -0.00000000000E+00 -0.65291425273E+02  0.65291425273E+02  0.00000000000E+00 0. -1.
         25    1    1    2    0    0  0.17240762108E+03  0.77546379222E+02  0.66496472064E+03  0.70252466749E+03  0.12500000000E+03 0.  0.
         25    1    1    2    0    0 -0.48573769081E+02 -0.17430453749E+02  0.21031740944E+03  0.25004328520E+03  0.12500000000E+03 0.  0.
         25    1    1    2    0    0 -0.12383385200E+03 -0.60115925473E+02  0.29770116122E+03  0.35099818915E+03  0.12500000000E+03 0.  0.
</event>
<event>
 5    0  0.5655767E-005  0.2551455E+03  0.7546771E-02  0.1110095E+00
         21   -1    0    0  502  501  0.00000000000E+00  0.00000000000E+00  0.11520689032E+03  0.11520689032E+03  0.00000000000E+00 0.  1.
         21   -1    0    0  501  502 -0.00000000000E+00 -0.00000000000E+00 -0.56506380391E+03  0.56506380391E+03  0.00000000000E+00 0.  1.
         25    1    1    2    0    0 -0.11598418111E+03  0.63167717145E+02 -0.25771415249E+03  0.31541096232E+03  0.12500000000E+03 0.  0.
         25    1    1    2    0    0  0.34714849542E+02 -0.19304799867E+02 -0.15870561710E+03  0.20588897244E+03  0.12500000000E+03 0.  0.
         25    1    1    2    0    0  0.81269331570E+02 -0.43862917278E+02 -0.33437144002E+02  0.15897075947E+03  0.12500000000E+03 0.  0.
</event>
<event>
 5    0  0.5655767E-005  0.3097817E+03  0.7546771E-02  0.1080451E+00
         21   -1    0    0  502  501  0.00000000000E+00  0.00000000000E+00  0.73626038822E+03  0.73626038822E+03  0.00000000000E+00 0. -1.
         21   -1    0    0  501  502 -0.00000000000E+00 -0.00000000000E+00 -0.13034073834E+03  0.13034073834E+03  0.00000000000E+00 0. -1.
         25    1    1    2    0    0  0.17378685822E+02 -0.16211286028E+02  0.46652924629E+03  0.48356939746E+03  0.12500000000E+03 0.  0.
         25    1    1    2    0    0 -0.12245201806E+03 -0.44707442580E+02  0.90526130633E+02  0.20202285137E+03  0.12500000000E+03 0.  0.
         25    1    1    2    0    0  0.10507333224E+03  0.60918728608E+02  0.48864272952E+02  0.18100887772E+03  0.12500000000E+03 0.  0.
</event>
<event>
 5    0  0.5655767E-005  0.2662693E+03  0.7546771E-02  0.1103434E+00
         21   -1    0    0  502  501  0.00000000000E+00  0.00000000000E+00  0.46997801710E+03  0.46997801710E+03  0.00000000000E+00 0.  1.
         21   -1    0    0  501  502 -0.00000000000E+00 -0.00000000000E+00 -0.15085673579E+03  0.15085673579E+03  0.00000000000E+00 0.  1.
         25    1    1    2    0    0 -0.21661194824E+02  0.69508607515E+01  0.12836365616E+03  0.18060938528E+03  0.12500000000E+03 0.  0.
         25    1    1    2    0    0 -0.14254473068E+03 -0.15329920411E+02  0.90886500654E+02  0.21080645793E+03  0.12500000000E+03 0.  0.
         25    1    1    2    0    0  0.16420592551E+03  0.83790596597E+01  0.99871124491E+02  0.22941890968E+03  0.12500000000E+03 0.  0.
</event>
<event>
 5    0  0.5655767E-005  0.6486108E+03  0.7546771E-02  0.9809389E-01
         21   -1    0    0  502  501  0.00000000000E+00  0.00000000000E+00  0.68504021400E+03  0.68504021400E+03  0.00000000000E+00 0. -1.
         21   -1    0    0  501  502 -0.00000000000E+00 -0.00000000000E+00 -0.61411865371E+03  0.61411865371E+03  0.00000000000E+00 0. -1.
         25    1    1    2    0    0 -0.98774070327E+02 -0.32415924653E+03 -0.36686820589E+03  0.51483280254E+03  0.12500000000E+03 0.  0.
         25    1    1    2    0    0 -0.14435483758E+03  0.32263678087E+03  0.28669816852E+03  0.47196784990E+03  0.12500000000E+03 0.  0.
         25    1    1    2    0    0  0.24312890791E+03  0.15224656589E+01  0.15109159766E+03  0.31235821527E+03  0.12500000000E+03 0.  0.
</event>
<event>
 5    0  0.5655767E-005  0.2874027E+03  0.7546771E-02  0.1091713E+00
         21   -1    0    0  502  501  0.00000000000E+00  0.00000000000E+00  0.16092806132E+04  0.16092806132E+04  0.00000000000E+00 0. -1.
         21   -1    0    0  501  502 -0.00000000000E+00 -0.00000000000E+00 -0.51327471273E+02  0.51327471273E+02  0.00000000000E+00 0. -1.
         25    1    1    2    0    0  0.63577493256E+02 -0.40917785042E+02  0.14546351730E+03  0.20615770092E+03  0.12500000000E+03 0.  0.
         25    1    1    2    0    0 -0.11119280562E+02 -0.26881329239E+02  0.23959940537E+03  0.27180713625E+03  0.12500000000E+03 0.  0.
         25    1    1    2    0    0 -0.52458212695E+02  0.67799114281E+02  0.11728902193E+04  0.11826432473E+04  0.12500000000E+03 0.  0.
</event>
<event>
 5    0  0.5655767E-005  0.3975717E+03  0.7546771E-02  0.1044624E+00
         21   -1    0    0  502  501  0.00000000000E+00  0.00000000000E+00  0.80529099605E+02  0.80529099605E+02  0.00000000000E+00 0. -1.
         21   -1    0    0  501  502 -0.00000000000E+00 -0.00000000000E+00 -0.19628088302E+04  0.19628088302E+04  0.00000000000E+00 0. -1.
         25    1    1    2    0    0 -0.22027277120E+03  0.11329429912E+03 -0.31483157679E+03  0.41964224488E+03  0.12500000000E+03 0.  0.
         25    1    1    2    0    0  0.13176961593E+03 -0.30190017435E+02 -0.36626082524E+03  0.40993494720E+03  0.12500000000E+03 0.  0.
         25    1    1    2    0    0  0.88503155264E+02 -0.83104281683E+02 -0.12011873286E+04  0.12137607378E+04  0.12500000000E+03 0.  0.
</event>
<event>
 5    0  0.5655767E-005  0.2493684E+03  0.7546771E-02  0.1113705E+00
         21   -1    0    0  502  501  0.00000000000E+00  0.00000000000E+00  0.17419306590E+03  0.17419306590E+03  0.00000000000E+00 0.  1.
         21   -1    0    0  501  502 -0.00000000000E+00 -0.00000000000E+00 -0.35698653179E+03  0.35698653179E+03  0.00000000000E+00 0.  1.
         25    1    1    2    0    0 -0.19422569896E+02  0.44679286580E+02 -0.59029037987E+02  0.14657046836E+03  0.12500000000E+03 0.  0.
         25    1    1    2    0    0  0.52122983444E+02 -0.96242508907E+01  0.67118999577E+02  0.15145755746E+03  0.12500000000E+03 0.  0.
         25    1    1    2    0    0 -0.32700413547E+02 -0.35055035689E+02 -0.19088342748E+03  0.23315157186E+03  0.12500000000E+03 0.  0.
</event>
<event>
 5    0  0.5655767E-005  0.3667675E+03  0.7546771E-02  0.1055936E+00
         21   -1    0    0  502  501  0.00000000000E+00  0.00000000000E+00  0.41512498669E+03  0.41512498669E+03  0.00000000000E+00 0. -1.
         21   -1    0    0  501  502 -0.00000000000E+00 -0.00000000000E+00 -0.32404309685E+03  0.32404309685E+03  0.00000000000E+00 0. -1.
         25    1    1    2    0    0 -0.16234752884E+03 -0.75432133722E+02 -0.85973268529E+02  0.23465534262E+03  0.12500000000E+03 0.  0.
         25    1    1    2    0    0 -0.53645415320E+02  0.84856038801E+02 -0.49020211336E+02  0.16764951245E+03  0.12500000000E+03 0.  0.
         25    1    1    2    0    0  0.21599294416E+03 -0.94239050790E+01  0.22607536970E+03  0.33686322847E+03  0.12500000000E+03 0.  0.
</event>
<event>
 5    0  0.5655767E-005  0.3235121E+03  0.7546771E-02  0.1074044E+00
         21   -1    0    0  502  501  0.00000000000E+00  0.00000000000E+00  0.58403830157E+03  0.58403830157E+03  0.00000000000E+00 0.  1.
         21   -1    0    0  501  502 -0.00000000000E+00 -0.00000000000E+00 -0.17920071532E+03  0.17920071532E+03  0.00000000000E+00 0.  1.
         25    1    1    2    0    0  0.18158257483E+03 -0.26301141985E+02  0.13113850927E+03  0.25784935557E+03  0.12500000000E+03 0.  0.
         25    1    1    2    0    0  0.67849744506E+02  0.75968461443E+01  0.65515120315E+02  0.15677541545E+03  0.12500000000E+03 0.  0.
         25    1    1    2    0    0 -0.24943231933E+03  0.18704295840E+02  0.20818395667E+03  0.34861424587E+03  0.12500000000E+03 0.  0.
</event>
<event>
 5    0  0.5655767E-005  0.2098181E+03  0.7546771E-02  0.1141710E+00
         21   -1    0    0  502  501  0.00000000000E+00  0.00000000000E+00  0.10744847314E+03  0.10744847314E+03  0.00000000000E+00 0.  1.
         21   -1    0    0  501  502 -0.00000000000E+00 -0.00000000000E+00 -0.40971872206E+03  0.40971872206E+03  0.00000000000E+00 0.  1.
         25    1    1    2    0    0  0.15730312912E+02  0.37375304427E+02 -0.14271767350E+03  0.19400435680E+03  0.12500000000E+03 0.  0.
         25    1    1    2    0    0  0.21612262480E+02 -0.70677042309E+02 -0.97496205945E+02  0.17490810265E+03  0.12500000000E+03 0.  0.
         25    1    1    2    0    0 -0.37342575392E+02  0.33301737882E+02 -0.62056369471E+02  0.14825473576E+03  0.12500000000E+03 0.  0.
</event>
<event>
 5    0  0.5679956E-005  0.3339882E+03  0.7546771E-02  0.1069386E+00
         21   -1    0    0  502  501  0.00000000000E+00  0.00000000000E+00  0.75569449534E+03  0.75569449534E+03  0.00000000000E+00 0.  1.
         21   -1    0    0  501  502 -0.00000000000E+00 -0.00000000000E+00 -0.14761008855E+03  0.14761008855E+03  0.00000000000E+00 0.  1.
         25    1    1    2    0    0 -0.71888532655E+02 -0.12464227293E+03 -0.19744750539E+02  0.19162075175E+03  0.12500000000E+03 0.  0.
         25    1    1    2    0    0  0.85321057705E+02 -0.83478377673E+01  0.30513334758E+03  0.34070622108E+03  0.12500000000E+03 0.  0.
         25    1    1    2    0    0 -0.13432525050E+02  0.13299011070E+03  0.32269580975E+03  0.37097761105E+03  0.12500000000E+03 0.  0.
</event>
<event>
 5    0  0.5655767E-005  0.2660587E+03  0.7546771E-02  0.1103557E+00
         21   -1    0    0  502  501  0.00000000000E+00  0.00000000000E+00  0.32071619642E+03  0.32071619642E+03  0.00000000000E+00 0.  1.
         21   -1    0    0  501  502 -0.00000000000E+00 -0.00000000000E+00 -0.22071605857E+03  0.22071605857E+03  0.00000000000E+00 0.  1.
         25    1    1    2    0    0 -0.96149271017E+02 -0.66899662515E+02 -0.32349565809E+02  0.17433227346E+03  0.12500000000E+03 0.  0.
         25    1    1    2    0    0  0.35536930842E+02  0.11057505061E+03  0.14081215510E+03  0.22123014780E+03  0.12500000000E+03 0.  0.
         25    1    1    2    0    0  0.60612340175E+02 -0.43675388095E+02 -0.84624514440E+01  0.14586983373E+03  0.12500000000E+03 0.  0.
</event>
<event>
 5    0  0.5655767E-005  0.5528519E+03  0.7546771E-02  0.1000836E+00
         21   -1    0    0  502  501  0.00000000000E+00  0.00000000000E+00  0.57708935047E+03  0.57708935047E+03  0.00000000000E+00 0.  1.
         21   -1    0    0  501  502 -0.00000000000E+00 -0.00000000000E+00 -0.52963248611E+03  0.52963248611E+03  0.00000000000E+00 0. -1.
         25    1    1    2    0    0 -0.13316915346E+03 -0.41712520073E+03 -0.13510044232E+03  0.47497851112E+03  0.12500000000E+03 0.  0.
         25    1    1    2    0    0  0.83563662313E+02  0.31710471361E+03 -0.39910518197E+02  0.35320834435E+03  0.12500000000E+03 0.  0.
         25    1    1    2    0    0  0.49605491147E+02  0.10002048712E+03  0.22246782488E+03  0.27853498111E+03  0.12500000000E+03 0.  0.
</event>
<event>
 5    0  0.5655767E-005  0.4824397E+03  0.7546771E-02  0.1018467E+00
         21   -1    0    0  502  501  0.00000000000E+00  0.00000000000E+00  0.36353588101E+03  0.36353588101E+03  0.00000000000E+00 0.  1.
         21   -1    0    0  501  502 -0.00000000000E+00 -0.00000000000E+00 -0.64023413053E+03  0.64023413053E+03  0.00000000000E+00 0.  1.
         25    1    1    2    0    0 -0.64886103129E+01  0.31534294379E+02 -0.29193494685E+03  0.31919825654E+03  0.12500000000E+03 0.  0.
         25    1    1    2    0    0  0.78580805417E+02 -0.22428359655E+03 -0.22061444362E+03  0.34752526152E+03  0.12500000000E+03 0.  0.
         25    1    1    2    0    0 -0.72092195104E+02  0.19274930218E+03  0.23585114094E+03  0.33704649348E+03  0.12500000000E+03 0.  0.
</event>
<event>
 5    0  0.5655767E-005  0.2837529E+03  0.7546771E-02  0.1093657E+00
         21   -1    0    0  502  501  0.00000000000E+00  0.00000000000E+00  0.47498482995E+02  0.47498482995E+02  0.00000000000E+00 0. -1.
         21   -1    0    0  501  502 -0.00000000000E+00 -0.00000000000E+00 -0.16951218813E+04  0.16951218813E+04  0.00000000000E+00 0. -1.
         25    1    1    2    0    0  0.22470599588E+02 -0.97352485395E+01 -0.41083743265E+03  0.43013032790E+03  0.12500000000E+03 0.  0.
         25    1    1    2    0    0  0.10395637650E+01 -0.42907521461E+02 -0.11314845738E+04  0.11391771051E+04  0.12500000000E+03 0.  0.
         25    1    1    2    0    0 -0.23510163353E+02  0.52642770000E+02 -0.10530139181E+03  0.17331293123E+03  0.12500000000E+03 0.  0.
</event>
<event>
 5    0  0.5655767E-005  0.2593500E+03  0.7546771E-02  0.1107534E+00
         21   -1    0    0  502  501  0.00000000000E+00  0.00000000000E+00  0.14550599103E+03  0.14550599103E+03  0.00000000000E+00 0. -1.
         21   -1    0    0  501  502 -0.00000000000E+00 -0.00000000000E+00 -0.46226560447E+03  0.46226560447E+03  0.00000000000E+00 0. -1.
         25    1    1    2    0    0  0.29203073056E+02 -0.98494605532E+02 -0.58538391457E+02  0.17206321533E+03  0.12500000000E+03 0.  0.
         25    1    1    2    0    0  0.74881253855E+02 -0.23501668251E+02 -0.11114769283E+03  0.18476563590E+03  0.12500000000E+03 0.  0.
         25    1    1    2    0    0 -0.10408432691E+03  0.12199627378E+03 -0.14707352915E+03  0.25094274427E+03  0.12500000000E+03 0.  0.
</event>
<event>
 5    0  0.5655767E-005  0.2206857E+03  0.7546771E-02  0.1133373E+00
         21   -1    0    0  502  501  0.00000000000E+00  0.00000000000E+00  0.31626324814E+03  0.31626324814E+03  0.00000000000E+00 0.  1.
         21   -1    0    0  501  502 -0.00000000000E+00 -0.00000000000E+00 -0.15399250596E+03  0.15399250596E+03  0.00000000000E+00 0.  1.
         25    1    1    2    0    0  0.22751130378E+02 -0.78375028933E+01  0.14406668329E+03  0.19224788587E+03  0.12500000000E+03 0.  0.
         25    1    1    2    0    0 -0.29483267871E+02  0.36891490185E+02 -0.36226837884E+02  0.13844720624E+03  0.12500000000E+03 0.  0.
         25    1    1    2    0    0  0.67321374933E+01 -0.29053987292E+02  0.54430896767E+02  0.13956066199E+03  0.12500000000E+03 0.  0.
</event>
<event>
 5    0  0.5655767E-005  0.3596008E+03  0.7546771E-02  0.1058742E+00
         21   -1    0    0  502  501  0.00000000000E+00  0.00000000000E+00  0.46356250864E+02  0.46356250864E+02  0.00000000000E+00 0. -1.
         21   -1    0    0  501  502 -0.00000000000E+00 -0.00000000000E+00 -0.27895429534E+04  0.27895429534E+04  0.00000000000E+00 0. -1.
         25    1    1    2    0    0 -0.87683367202E+02  0.97461488747E+02 -0.22842634896E+03  0.29153166479E+03  0.12500000000E+03 0.  0.
         25    1    1    2    0    0  0.10438286667E+03  0.55256381566E+02 -0.15483502402E+04  0.15578711490E+04  0.12500000000E+03 0.  0.
         25    1    1    2    0    0 -0.16699499471E+02 -0.15271787031E+03 -0.96641011337E+03  0.98649639048E+03  0.12500000000E+03 0.  0.
</event>
<event>
 5    0  0.5655767E-005  0.2874590E+03  0.7546771E-02  0.1091683E+00
         21   -1    0    0  502  501  0.00000000000E+00  0.00000000000E+00  0.49320811776E+02  0.49320811776E+02  0.00000000000E+00 0.  1.
         21   -1    0    0  501  502 -0.00000000000E+00 -0.00000000000E+00 -0.16754121888E+04  0.16754121888E+04  0.00000000000E+00 0.  1.
         25    1    1    2    0    0 -0.32501240242E+01 -0.29141492145E+02 -0.18739207636E+03  0.22715761082E+03  0.12500000000E+03 0.  0.
         25    1    1    2    0    0  0.29702835552E+02  0.71333873047E+02 -0.18306484643E+03  0.23475203489E+03  0.12500000000E+03 0.  0.
         25    1    1    2    0    0 -0.26452711528E+02 -0.42192380902E+02 -0.12556344543E+04  0.12628233549E+04  0.12500000000E+03 0.  0.
</event>
<event>
 5    0  0.5655767E-005  0.3981265E+03  0.7546771E-02  0.1044430E+00
         21   -1    0    0  502  501  0.00000000000E+00  0.00000000000E+00  0.11602732007E+03  0.11602732007E+03  0.00000000000E+00 0.  1.
         21   -1    0    0  501  502 -0.00000000000E+00 -0.00000000000E+00 -0.13660978812E+04  0.13660978812E+04  0.00000000000E+00 0.  1.
         25    1    1    2    0    0 -0.16774511165E+02  0.96605614870E+02 -0.30584951169E+03  0.34464902851E+03  0.12500000000E+03 0.  0.
         25    1    1    2    0    0  0.37934016326E+01  0.12722943535E+03 -0.84278510268E+03  0.86146006780E+03  0.12500000000E+03 0.  0.
         25    1    1    2    0    0  0.12981109532E+02 -0.22383505022E+03 -0.10143594677E+03  0.27601610498E+03  0.12500000000E+03 0.  0.
</event>
<event>
 5    0  0.5655767E-005  0.2577072E+03  0.7546771E-02  0.1108529E+00
         21   -1    0    0  502  501  0.00000000000E+00  0.00000000000E+00  0.13286660313E+03  0.13286660313E+03  0.00000000000E+00 0.  1.
         21   -1    0    0  501  502 -0.00000000000E+00 -0.00000000000E+00 -0.49984726144E+03  0.49984726144E+03  0.00000000000E+00 0.  1.
         25    1    1    2    0    0 -0.17140419821E+02  0.14016840700E+03 -0.22340565895E+03  0.29236289909E+03  0.12500000000E+03 0.  0.
         25    1    1    2    0    0  0.48236948977E+02 -0.10237459246E+03 -0.11206586076E+03  0.20246263254E+03  0.12500000000E+03 0.  0.
         25    1    1    2    0    0 -0.31096529156E+02 -0.37793814544E+02 -0.31509138588E+02  0.13788833293E+03  0.12500000000E+03 0.  0.
</event>
<event>
 5    0  0.5655767E-005  0.3674758E+03  0.7546771E-02  0.1055662E+00
         21   -1    0    0  502  501  0.00000000000E+00  0.00000000000E+00  0.11720903581E+03  0.11720903581E+03  0.00000000000E+00 0. -1.
         21   -1    0    0  501  502 -0.00000000000E+00 -0.00000000000E+00 -0.11521167618E+04  0.11521167618E+04  0.00000000000E+00 0. -1.
         25    1    1    2    0    0  0.82784169041E+02 -0.11243484587E+03 -0.50334267480E+03  0.53709744133E+03  0.12500000000E+03 0.  0.
         25    1    1    2    0    0 -0.10244453236E+03 -0.14438560493E+03 -0.24625881958E+03  0.32804038066E+03  0.12500000000E+03 0.  0.
         25    1    1    2    0    0  0.19660363320E+02  0.25682045080E+03 -0.28530623155E+03  0.40418797558E+03  0.12500000000E+03 0.  0.
</event>
<event>
 5    0  0.6572843E-005  0.2911238E+03  0.7546771E-02  0.1089764E+00
         21   -1    0    0  502  501  0.00000000000E+00  0.00000000000E+00  0.40389491970E+03  0.40389491970E+03  0.00000000000E+00 0.  1.
         21   -1    0    0  501  502 -0.00000000000E+00 -0.00000000000E+00 -0.20983940117E+03  0.20983940117E+03  0.00000000000E+00 0.  1.
         25    1    1    2    0    0  0.11313384958E+03 -0.11284144829E+03 -0.62302607742E+02  0.21222411575E+03  0.12500000000E+03 0.  0.
         25    1    1    2    0    0 -0.50753742119E+02  0.10155106734E+03  0.14038742624E+03  0.21959551695E+03  0.12500000000E+03 0.  0.
         25    1    1    2    0    0 -0.62380107457E+02  0.11290380956E+02  0.11597070003E+03  0.18191468818E+03  0.12500000000E+03 0.  0.
</event>
<event>
 5    0  0.5655767E-005  0.2704470E+03  0.7546771E-02  0.1101024E+00
         21   -1    0    0  502  501  0.00000000000E+00  0.00000000000E+00  0.85129143384E+03  0.85129143384E+03  0.00000000000E+00 0.  1.
         21   -1    0    0  501  502 -0.00000000000E+00 -0.00000000000E+00 -0.85918366640E+02  0.85918366640E+02  0.00000000000E+00 0.  1.
         25    1    1    2    0    0 -0.26714736169E+02 -0.29944528193E+02  0.48134813301E+03  0.49893023264E+03  0.12500000000E+03 0.  0.
         25    1    1    2    0    0  0.60805104213E+02 -0.78665353138E+02  0.10029074008E+03  0.18859674183E+03  0.12500000000E+03 0.  0.
         25    1    1    2    0    0 -0.34090368044E+02  0.10860988133E+03  0.18373419411E+03  0.24968282600E+03  0.12500000000E+03 0.  0.
</event>
<event>
 5    0  0.5655767E-005  0.3661983E+03  0.7546771E-02  0.1056156E+00
         21   -1    0    0  502  501  0.00000000000E+00  0.00000000000E+00  0.63246569593E+03  0.63246569593E+03  0.00000000000E+00 0. -1.
         21   -1    0    0  501  502 -0.00000000000E+00 -0.00000000000E+00 -0.21202922480E+03  0.21202922480E+03  0.00000000000E+00 0. -1.
         25    1    1    2    0    0 -0.47733491219E+02 -0.24135440608E+03  0.20592981959E+03  0.34432909565E+03  0.12500000000E+03 0.  0.
         25    1    1    2    0    0 -0.16343887822E+02  0.19671165647E+03  0.25645269667E+03  0.34692302329E+03  0.12500000000E+03 0.  0.
         25    1    1    2    0    0  0.64077379040E+02  0.44642749605E+02 -0.41946045125E+02  0.15324280178E+03  0.12500000000E+03 0.  0.
</event>
<event>
 5    0  0.5968983E-005  0.2608363E+03  0.7546771E-02  0.1106642E+00
         21   -1    0    0  502  501  0.00000000000E+00  0.00000000000E+00  0.51330207503E+03  0.51330207503E+03  0.00000000000E+00 0.  1.
         21   -1    0    0  501  502 -0.00000000000E+00 -0.00000000000E+00 -0.13254495482E+03  0.13254495482E+03  0.00000000000E+00 0.  1.
         25    1    1    2    0    0 -0.54638123170E+02  0.14420045891E+02  0.14093664712E+03  0.19667587734E+03  0.12500000000E+03 0.  0.
         25    1    1    2    0    0 -0.33003920205E+02  0.34590998504E+02 -0.28277113639E+02  0.13678593159E+03  0.12500000000E+03 0.  0.
         25    1    1    2    0    0  0.87642043376E+02 -0.49011044395E+02  0.26809758673E+03  0.31238522092E+03  0.12500000000E+03 0.  0.
</event>
<event>
 5    0  0.5655767E-005  0.2527161E+03  0.7546771E-02  0.1111600E+00
         21   -1    0    0  502  501  0.00000000000E+00  0.00000000000E+00  0.19751991095E+03  0.19751991095E+03  0.00000000000E+00 0.  1.
         21   -1    0    0  501  502 -0.00000000000E+00 -0.00000000000E+00 -0.32333659610E+03  0.32333659610E+03  0.00000000000E+00 0.  1.
         25    1    1    2    0    0  0.11279099537E+03 -0.22027443719E+02 -0.10004942795E+03  0.19708349740E+03  0.12500000000E+03 0.  0.
         25    1    1    2    0    0 -0.83631207533E+02  0.92015222141E+02 -0.20258231895E+02  0.17747218356E+03  0.12500000000E+03 0.  0.
         25    1    1    2    0    0 -0.29159787834E+02 -0.69987778423E+02 -0.55090252989E+01  0.14630082609E+03  0.12500000000E+03 0.  0.
</event>
<event>
 5    0  0.5655767E-005  0.2521161E+03  0.7546771E-02  0.1111975E+00
         21   -1    0    0  502  501  0.00000000000E+00  0.00000000000E+00  0.42647868143E+03  0.42647868143E+03  0.00000000000E+00 0.  1.
         21   -1    0    0  501  502 -0.00000000000E+00 -0.00000000000E+00 -0.14904030146E+03  0.14904030146E+03  0.00000000000E+00 0.  1.
         25    1    1    2    0    0  0.63726321488E+02 -0.12827988238E+02  0.15102306211E+02  0.14169926247E+03  0.12500000000E+03 0.  0.
         25    1    1    2    0    0 -0.42262516774E+02  0.22380247762E+02 -0.90153433801E+01  0.13413900339E+03  0.12500000000E+03 0.  0.
         25    1    1    2    0    0 -0.21463804714E+02 -0.95522595238E+01  0.27135141713E+03  0.29968071702E+03  0.12500000000E+03 0.  0.
</event>
<event>
 5    0  0.5655767E-005  0.2360571E+03  0.7546771E-02  0.1122448E+00
         21   -1    0    0  502  501  0.00000000000E+00  0.00000000000E+00  0.13835605868E+03  0.13835605868E+03  0.00000000000E+00 0. -1.
         21   -1    0    0  501  502 -0.00000000000E+00 -0.00000000000E+00 -0.40275030734E+03  0.40275030734E+03  0.00000000000E+00 0. -1.
         25    1    1    2    0    0 -0.10873152695E+03  0.20821227709E+02 -0.98220573041E+02  0.19372235143E+03  0.12500000000E+03 0.  0.
         25    1    1    2    0    0  0.11615080944E+03  0.36405727561E+01 -0.13066531969E+03  0.21494811019E+03  0.12500000000E+03 0.  0.
         25    1    1    2    0    0 -0.74192824885E+01 -0.24461800465E+02 -0.35508355928E+02  0.13243590440E+03  0.12500000000E+03 0.  0.
</event>
<event>
 5    0  0.5655767E-005  0.5013508E+03  0.7546771E-02  0.1013427E+00
         21   -1    0    0  502  501  0.00000000000E+00  0.00000000000E+00  0.23329524692E+04  0.23329524692E+04  0.00000000000E+00 0.  1.
         21   -1    0    0  501  502 -0.00000000000E+00 -0.00000000000E+00 -0.10774012714E+03  0.10774012714E+03  0.00000000000E+00 0.  1.
         25    1    1    2    0    0 -0.31769204280E+03 -0.55845672250E+02  0.87628870608E+03  0.94210077464E+03  0.12500000000E+03 0.  0.
         25    1    1    2    0    0 -0.14299047021E+02  0.81617646081E+02  0.95964223788E+03  0.97128992975E+03  0.12500000000E+03 0.  0.
         25    1    1    2    0    0  0.33199108982E+03 -0.25771973831E+02  0.38928139807E+03  0.52730189193E+03  0.12500000000E+03 0.  0.
</event>
<event>
 5    0  0.5655767E-005  0.2705651E+03  0.7546771E-02  0.1100957E+00
         21   -1    0    0  502  501  0.00000000000E+00  0.00000000000E+00  0.24598322529E+03  0.24598322529E+03  0.00000000000E+00 0. -1.
         21   -1    0    0  501  502 -0.00000000000E+00 -0.00000000000E+00 -0.29760361683E+03  0.29760361683E+03  0.00000000000E+00 0. -1.
         25    1    1    2    0    0 -0.28441873204E+02  0.74732374087E+02 -0.93509267970E+02  0.17539341802E+03  0.12500000000E+03 0.  0.
         25    1    1    2    0    0  0.33257415965E+02  0.86960292104E+02  0.49749281163E+02  0.16360971577E+03  0.12500000000E+03 0.  0.
         25    1    1    2    0    0 -0.48155427614E+01 -0.16169266619E+03 -0.78604047312E+01  0.20458370833E+03  0.12500000000E+03 0.  0.
</event>
<event>
 5    0  0.5655767E-005  0.2645603E+03  0.7546771E-02  0.1104434E+00
         21   -1    0    0  502  501  0.00000000000E+00  0.00000000000E+00  0.56955868888E+02  0.56955868888E+02  0.00000000000E+00 0.  1.
         21   -1    0    0  501  502 -0.00000000000E+00 -0.00000000000E+00 -0.12288836994E+04  0.12288836994E+04  0.00000000000E+00 0.  1.
         25    1    1    2    0    0 -0.90865285428E+02 -0.12418802552E+03 -0.71817355361E+03  0.74503517963E+03  0.12500000000E+03 0.  0.
         25    1    1    2    0    0  0.40863612903E+02  0.60977804921E+02 -0.24048989730E+03  0.28079978322E+03  0.12500000000E+03 0.  0.
         25    1    1    2    0    0  0.50001672525E+02  0.63210220602E+02 -0.21326437960E+03  0.26000460544E+03  0.12500000000E+03 0.  0.
</event>
<event>
 5    0  0.5655767E-005  0.2511953E+03  0.7546771E-02  0.1112552E+00
         21   -1    0    0  502  501  0.00000000000E+00  0.00000000000E+00  0.91592149023E+03  0.91592149023E+03  0.00000000000E+00 0. -1.
         21   -1    0    0  501  502 -0.00000000000E+00 -0.00000000000E+00 -0.68891339541E+02  0.68891339541E+02  0.00000000000E+00 0. -1.
         25    1    1    2    0    0  0.79107791942E+02 -0.22141208984E+02  0.12896622030E+03  0.19749825786E+03  0.12500000000E+03 0.  0.
         25    1    1    2    0    0 -0.15842859266E+02 -0.78612175467E+02  0.29106331123E+03  0.32676248479E+03  0.12500000000E+03 0.  0.
         25    1    1    2    0    0 -0.63264932676E+02  0.10075338445E+03  0.42700061916E+03  0.46055208712E+03  0.12500000000E+03 0.  0.
</event>
<event>
 5    0  0.5655767E-005  0.4239452E+03  0.7546771E-02  0.1035790E+00
         21   -1    0    0  502  501  0.00000000000E+00  0.00000000000E+00  0.45648924575E+03  0.45648924575E+03  0.00000000000E+00 0. -1.
         21   -1    0    0  501  502 -0.00000000000E+00 -0.00000000000E+00 -0.39372136909E+03  0.39372136909E+03  0.00000000000E+00 0. -1.
         25    1    1    2    0    0 -0.14840922792E+03  0.28499718702E+01  0.26687426514E+03  0.32997014208E+03  0.12500000000E+03 0.  0.
         25    1    1    2    0    0  0.17042214009E+03  0.52667729502E+02 -0.28585670560E+03  0.35938371096E+03  0.12500000000E+03 0.  0.
         25    1    1    2    0    0 -0.22012912170E+02 -0.55517701372E+02  0.81750317119E+02  0.16085676180E+03  0.12500000000E+03 0.  0.
</event>
<event>
 5    0  0.5655767E-005  0.2592490E+03  0.7546771E-02  0.1107595E+00
         21   -1    0    0  502  501  0.00000000000E+00  0.00000000000E+00  0.53280647207E+03  0.53280647207E+03  0.00000000000E+00 0.  1.
         21   -1    0    0  501  502 -0.00000000000E+00 -0.00000000000E+00 -0.12614345354E+03  0.12614345354E+03  0.00000000000E+00 0.  1.
         25    1    1    2    0    0  0.11670871261E+02 -0.40534309362E+02  0.28732916131E+03  0.31616812997E+03  0.12500000000E+03 0.  0.
         25    1    1    2    0    0 -0.31361055536E+02  0.84778427264E+02  0.13856634481E+03  0.20735604512E+03  0.12500000000E+03 0.  0.
         25    1    1    2    0    0  0.19690184275E+02 -0.44244117902E+02 -0.19232487588E+02  0.13542575052E+03  0.12500000000E+03 0.  0.
</event>
<event>
 5    0  0.5655767E-005  0.3018964E+03  0.7546771E-02  0.1084296E+00
         21   -1    0    0  502  501  0.00000000000E+00  0.00000000000E+00  0.10040374469E+04  0.10040374469E+04  0.00000000000E+00 0.  1.
         21   -1    0    0  501  502 -0.00000000000E+00 -0.00000000000E+00 -0.90774914899E+02  0.90774914899E+02  0.00000000000E+00 0.  1.
         25    1    1    2    0    0 -0.11743210418E+02 -0.11894047003E+03  0.28532990306E+03  0.33365085341E+03  0.12500000000E+03 0.  0.
         25    1    1    2    0    0  0.58489379050E+01 -0.10592926644E+03  0.32238606622E+03  0.36168079194E+03  0.12500000000E+03 0.  0.
         25    1    1    2    0    0  0.58942725130E+01  0.22486973647E+03  0.30554656274E+03  0.39948071647E+03  0.12500000000E+03 0.  0.
</event>
<event>
 5    0  0.5655767E-005  0.2811617E+03  0.7546771E-02  0.1095056E+00
         21   -1    0    0  502  501  0.00000000000E+00  0.00000000000E+00  0.63072813053E+02  0.63072813053E+02  0.00000000000E+00 0. -1.
         21   -1    0    0  501  502 -0.00000000000E+00 -0.00000000000E+00 -0.12533436016E+04  0.12533436016E+04  0.00000000000E+00 0. -1.
         25    1    1    2    0    0  0.13896317433E+03  0.10355755895E+03 -0.33936760557E+03  0.40103653643E+03  0.12500000000E+03 0.  0.
         25    1    1    2    0    0 -0.14832172992E+03 -0.77114492266E+02 -0.55388333806E+03  0.59191024038E+03  0.12500000000E+03 0.  0.
         25    1    1    2    0    0  0.93585555903E+01 -0.26443066686E+02 -0.29701984495E+03  0.32346963788E+03  0.12500000000E+03 0.  0.
</event>
<event>
 5    0  0.5655767E-005  0.6058648E+03  0.7546771E-02  0.9893313E-01
         21   -1    0    0  502  501  0.00000000000E+00  0.00000000000E+00  0.27340460943E+03  0.27340460943E+03  0.00000000000E+00 0.  1.
         21   -1    0    0  501  502 -0.00000000000E+00 -0.00000000000E+00 -0.13425967317E+04  0.13425967317E+04  0.00000000000E+00 0.  1.
         25    1    1    2    0    0 -0.55868242880E+03  0.58925888291E+02 -0.38918001682E+03  0.69475492230E+03  0.12500000000E+03 0.  0.
         25    1    1    2    0    0  0.32287263668E+03 -0.37645629717E+02 -0.32299295363E+03  0.47498776937E+03  0.12500000000E+03 0.  0.
         25    1    1    2    0    0  0.23580979211E+03 -0.21280258574E+02 -0.35701915184E+03  0.44625864948E+03  0.12500000000E+03 0.  0.
</event>
<event>
 5    0  0.5655767E-005  0.3730662E+03  0.7546771E-02  0.1053527E+00
         21   -1    0    0  502  501  0.00000000000E+00  0.00000000000E+00  0.41652439782E+03  0.41652439782E+03  0.00000000000E+00 0.  1.
         21   -1    0    0  501  502 -0.00000000000E+00 -0.00000000000E+00 -0.33414213672E+03  0.33414213672E+03  0.00000000000E+00 0.  1.
         25    1    1    2    0    0  0.15519953084E+03  0.25671311250E+03  0.75602826369E+02  0.33366046194E+03  0.12500000000E+03 0.  0.
         25    1    1    2    0    0 -0.76436173076E+02 -0.35225479888E+02  0.41472736272E+01  0.15074986855E+03  0.12500000000E+03 0.  0.
         25    1    1    2    0    0 -0.78763357764E+02 -0.22148763262E+03  0.26321611035E+01  0.26625620406E+03  0.12500000000E+03 0.  0.
</event>
<event>
 5    0  0.5655767E-005  0.4511908E+03  0.7546771E-02  0.1027368E+00
         21   -1    0    0  502  501  0.00000000000E+00  0.00000000000E+00  0.84894001938E+03  0.84894001938E+03  0.00000000000E+00 0.  1.
         21   -1    0    0  501  502 -0.00000000000E+00 -0.00000000000E+00 -0.23979682574E+03  0.23979682574E+03  0.00000000000E+00 0. -1.
         25    1    1    2    0    0 -0.89186305796E+02 -0.25884269887E+02  0.39320164360E+02  0.16060905297E+03  0.12500000000E+03 0.  0.
         25    1    1    2    0    0  0.34645319640E+03 -0.13023636550E+03  0.21320756502E+03  0.44505482132E+03  0.12500000000E+03 0.  0.
         25    1    1    2    0    0 -0.25726689061E+03  0.15612063539E+03  0.35661546427E+03  0.48307297084E+03  0.12500000000E+03 0.  0.
</event>
<event>
 5    0  0.5655767E-005  0.4261085E+03  0.7546771E-02  0.1035096E+00
         21   -1    0    0  502  501  0.00000000000E+00  0.00000000000E+00  0.16336251361E+03  0.16336251361E+03  0.00000000000E+00 0.  1.
         21   -1    0    0  501  502 -0.00000000000E+00 -0.00000000000E+00 -0.11114449114E+04  0.11114449114E+04  0.00000000000E+00 0.  1.
         25    1    1    2    0    0  0.19017839835E+03  0.17684295717E+03 -0.35897825655E+03  0.46036034080E+03  0.12500000000E+03 0.  0.
         25    1    1    2    0    0 -0.28762504937E+03 -0.79793529887E+02 -0.52713522987E+03  0.61853999629E+03  0.12500000000E+03 0.  0.
         25    1    1    2    0    0  0.97446651017E+02 -0.97049427286E+02 -0.61968911410E+02  0.19590708796E+03  0.12500000000E+03 0.  0.
</event>
<event>
 5    0  0.5655767E-005  0.4545300E+03  0.7546771E-02  0.1026380E+00
         21   -1    0    0  502  501  0.00000000000E+00  0.00000000000E+00  0.92907564736E+02  0.92907564736E+02  0.00000000000E+00 0.  1.
         21   -1    0    0  501  502 -0.00000000000E+00 -0.00000000000E+00 -0.22236886314E+04  0.22236886314E+04  0.00000000000E+00 0.  1.
         25    1    1    2    0    0  0.10207346849E+03  0.42592439440E+02 -0.11488017390E+04  0.11608632755E+04  0.12500000000E+03 0.  0.
         25    1    1    2    0    0 -0.69188397363E+02  0.10840670085E+02  0.19439744878E+02  0.14459411516E+03  0.12500000000E+03 0.  0.
         25    1    1    2    0    0 -0.32885071131E+02 -0.53433109525E+02 -0.10014190726E+04  0.10111388055E+04  0.12500000000E+03 0.  0.
</event>
<event>
 5    0  0.5655767E-005  0.4311529E+03  0.7546771E-02  0.1033496E+00
         21   -1    0    0  502  501  0.00000000000E+00  0.00000000000E+00  0.73812828050E+03  0.73812828050E+03  0.00000000000E+00 0. -1.
         21   -1    0    0  501  502 -0.00000000000E+00 -0.00000000000E+00 -0.25184350904E+03  0.25184350904E+03  0.00000000000E+00 0. -1.
         25    1    1    2    0    0  0.13559512118E+03 -0.76362126479E+02  0.31351159103E+03  0.37166077135E+03  0.12500000000E+03 0.  0.
         25    1    1    2    0    0  0.34864709585E+02  0.20987916029E+03  0.25526661263E+03  0.35503641140E+03  0.12500000000E+03 0.  0.
         25    1    1    2    0    0 -0.17045983077E+03 -0.13351703381E+03 -0.82493432195E+02  0.26327460679E+03  0.12500000000E+03 0.  0.
</event>
<event>
 5    0  0.5655767E-005  0.4936304E+03  0.7546771E-02  0.1015455E+00
         21   -1    0    0  502  501  0.00000000000E+00  0.00000000000E+00  0.11410847692E+04  0.11410847692E+04  0.00000000000E+00 0. -1.
         21   -1    0    0  501  502 -0.00000000000E+00 -0.00000000000E+00 -0.21354325385E+03  0.21354325385E+03  0.00000000000E+00 0. -1.
         25    1    1    2    0    0 -0.66853723327E+02  0.16682081600E+03  0.23958446795E+03  0.32453708918E+03  0.12500000000E+03 0.  0.
         25    1    1    2    0    0 -0.27415442596E+03 -0.20761031350E+03  0.49863743516E+03  0.61848765816E+03  0.12500000000E+03 0.  0.
         25    1    1    2    0    0  0.34100814929E+03  0.40789497500E+02  0.18931961221E+03  0.41160327569E+03  0.12500000000E+03 0.  0.
</event>
<event>
 5    0  0.5655767E-005  0.2550071E+03  0.7546771E-02  0.1110181E+00
         21   -1    0    0  502  501  0.00000000000E+00  0.00000000000E+00  0.92138739049E+03  0.92138739049E+03  0.00000000000E+00 0.  1.
         21   -1    0    0  501  502 -0.00000000000E+00 -0.00000000000E+00 -0.70576845168E+02  0.70576845168E+02  0.00000000000E+00 0.  1.
         25    1    1    2    0    0  0.18983184976E+02 -0.10328890531E+03  0.23967451110E+03  0.28999625954E+03  0.12500000000E+03 0.  0.
         25    1    1    2    0    0 -0.24230323541E+02 -0.56841987264E+02  0.20646884943E+03  0.24914354473E+03  0.12500000000E+03 0.  0.
         25    1    1    2    0    0  0.52471385649E+01  0.16013089258E+03  0.40466718479E+03  0.45282443139E+03  0.12500000000E+03 0.  0.
</event>
<event>
 5    0  0.5655767E-005  0.2141899E+03  0.7546771E-02  0.1138290E+00
         21   -1    0    0  502  501  0.00000000000E+00  0.00000000000E+00  0.30034726503E+03  0.30034726503E+03  0.00000000000E+00 0. -1.
         21   -1    0    0  501  502 -0.00000000000E+00 -0.00000000000E+00 -0.15274751039E+03  0.15274751039E+03  0.00000000000E+00 0. -1.
         25    1    1    2    0    0  0.43127752351E+02 -0.58109086967E+02  0.74060190203E+02  0.16231629858E+03  0.12500000000E+03 0.  0.
         25    1    1    2    0    0 -0.24649320242E+02 -0.24283966103E+02  0.23246505424E+02  0.13176759849E+03  0.12500000000E+03 0.  0.
         25    1    1    2    0    0 -0.18478432109E+02  0.82393053070E+02  0.50293059020E+02  0.15901087835E+03  0.12500000000E+03 0.  0.
</event>
<event>
 5    0  0.5655767E-005  0.2559198E+03  0.7546771E-02  0.1109620E+00
         21   -1    0    0  502  501  0.00000000000E+00  0.00000000000E+00  0.32887647868E+03  0.32887647868E+03  0.00000000000E+00 0. -1.
         21   -1    0    0  501  502 -0.00000000000E+00 -0.00000000000E+00 -0.19914758055E+03  0.19914758055E+03  0.00000000000E+00 0. -1.
         25    1    1    2    0    0 -0.10410221417E+03 -0.26880792965E+02  0.13934971503E+03  0.21587772258E+03  0.12500000000E+03 0.  0.
         25    1    1    2    0    0  0.13023584808E+03 -0.82015062570E+00 -0.16648856750E+02  0.18128495029E+03  0.12500000000E+03 0.  0.
         25    1    1    2    0    0 -0.26133633908E+02  0.27700943591E+02  0.70280398520E+01  0.13086138636E+03  0.12500000000E+03 0.  0.
</event>
<event>
 5    0  0.5655767E-005  0.2736250E+03  0.7546771E-02  0.1099223E+00
         21   -1    0    0  502  501  0.00000000000E+00  0.00000000000E+00  0.36542922528E+03  0.36542922528E+03  0.00000000000E+00 0. -1.
         21   -1    0    0  501  502 -0.00000000000E+00 -0.00000000000E+00 -0.20488407198E+03  0.20488407198E+03  0.00000000000E+00 0. -1.
         25    1    1    2    0    0  0.12455835848E+03  0.82518430341E+02  0.78384689306E+02  0.20998389350E+03  0.12500000000E+03 0.  0.
         25    1    1    2    0    0 -0.72470624695E+02 -0.12715658933E+03 -0.62216246502E+01  0.19257335814E+03  0.12500000000E+03 0.  0.
         25    1    1    2    0    0 -0.52087733786E+02  0.44638158984E+02  0.88382088642E+02  0.16775604562E+03  0.12500000000E+03 0.  0.
</event>
<event>
 5    0  0.5655767E-005  0.3800261E+03  0.7546771E-02  0.1050924E+00
         21   -1    0    0  502  501  0.00000000000E+00  0.00000000000E+00  0.76202176044E+03  0.76202176044E+03  0.00000000000E+00 0.  1.
         21   -1    0    0  501  502 -0.00000000000E+00 -0.00000000000E+00 -0.18952190170E+03  0.18952190170E+03  0.00000000000E+00 0.  1.
         25    1    1    2    0    0 -0.10063379985E+03 -0.51239068790E+02 -0.72914578924E+02  0.18355963516E+03  0.12500000000E+03 0.  0.
         25    1    1    2    0    0  0.24117776260E+02 -0.11995482751E+03  0.18060784840E+03  0.25142597853E+03  0.12500000000E+03 0.  0.
         25    1    1    2    0    0  0.76516023587E+02  0.17119389630E+03  0.46480658927E+03  0.51655804846E+03  0.12500000000E+03 0.  0.
</event>
<event>
 5    0  0.5655767E-005  0.3010192E+03  0.7546771E-02  0.1084732E+00
         21   -1    0    0  502  501  0.00000000000E+00  0.00000000000E+00  0.15813805680E+03  0.15813805680E+03  0.00000000000E+00 0. -1.
         21   -1    0    0  501  502 -0.00000000000E+00 -0.00000000000E+00 -0.57299655125E+03  0.57299655125E+03  0.00000000000E+00 0. -1.
         25    1    1    2    0    0  0.11948624362E+03 -0.12374197131E+03 -0.18878868173E+03  0.28435049538E+03  0.12500000000E+03 0.  0.
         25    1    1    2    0    0 -0.15075344800E+03 -0.12217947046E+02 -0.93867996447E+02  0.21751340435E+03  0.12500000000E+03 0.  0.
         25    1    1    2    0    0  0.31267204383E+02  0.13595991835E+03 -0.13220181627E+03  0.22927070832E+03  0.12500000000E+03 0.  0.
</event>
<event>
 5    0  0.5655767E-005  0.2744577E+03  0.7546771E-02  0.1098755E+00
         21   -1    0    0  502  501  0.00000000000E+00  0.00000000000E+00  0.29810506938E+03  0.29810506938E+03  0.00000000000E+00 0. -1.
         21   -1    0    0  501  502 -0.00000000000E+00 -0.00000000000E+00 -0.25268623455E+03  0.25268623455E+03  0.00000000000E+00 0. -1.
         25    1    1    2    0    0  0.11943737823E+02 -0.50552279643E+02  0.42787965089E+02  0.14196476960E+03  0.12500000000E+03 0.  0.
         25    1    1    2    0    0  0.75068992073E+02 -0.95103525675E+02  0.69924770232E+02  0.18760199268E+03  0.12500000000E+03 0.  0.
         25    1    1    2    0    0 -0.87012729897E+02  0.14565580532E+03 -0.67293900490E+02  0.22122454165E+03  0.12500000000E+03 0.  0.
</event>
<event>
 5    0  0.5655767E-005  0.2712595E+03  0.7546771E-02  0.1100561E+00
         21   -1    0    0  502  501  0.00000000000E+00  0.00000000000E+00  0.21359523268E+03  0.21359523268E+03  0.00000000000E+00 0.  1.
         21   -1    0    0  501  502 -0.00000000000E+00 -0.00000000000E+00 -0.34449138374E+03  0.34449138374E+03  0.00000000000E+00 0.  1.
         25    1    1    2    0    0  0.49168245722E+02 -0.10705402482E+03  0.29562246588E+02  0.17429000844E+03  0.12500000000E+03 0.  0.
         25    1    1    2    0    0  0.77190084449E+02  0.38854462693E+02 -0.35438983150E+02  0.15604134047E+03  0.12500000000E+03 0.  0.
         25    1    1    2    0    0 -0.12635833017E+03  0.68199562132E+02 -0.12501941449E+03  0.22775526751E+03  0.12500000000E+03 0.  0.
</event>
<event>
 5    0  0.5655767E-005  0.3061824E+03  0.7546771E-02  0.1082190E+00
         21   -1    0    0  502  501  0.00000000000E+00  0.00000000000E+00  0.24865042300E+03  0.24865042300E+03  0.00000000000E+00 0.  1.
         21   -1    0    0  501  502 -0.00000000000E+00 -0.00000000000E+00 -0.37702605626E+03  0.37702605626E+03  0.00000000000E+00 0.  1.
         25    1    1    2    0    0 -0.33932668967E+02  0.18893864274E+03 -0.71788608081E+02  0.24005799506E+03  0.12500000000E+03 0.  0.
         25    1    1    2    0    0 -0.64450408826E+02 -0.79323196187E+02 -0.96849749353E+02  0.18828409014E+03  0.12500000000E+03 0.  0.
         25    1    1    2    0    0  0.98383077792E+02 -0.10961544655E+03  0.40262724173E+02  0.19733439405E+03  0.12500000000E+03 0.  0.
</event>
<event>
 5    0  0.5655767E-005  0.2861716E+03  0.7546771E-02  0.1092365E+00
         21   -1    0    0  502  501  0.00000000000E+00  0.00000000000E+00  0.14681877335E+04  0.14681877335E+04  0.00000000000E+00 0.  1.
         21   -1    0    0  501  502 -0.00000000000E+00 -0.00000000000E+00 -0.55779090324E+02  0.55779090324E+02  0.00000000000E+00 0.  1.
         25    1    1    2    0    0  0.85400606484E+00 -0.74185258967E+02  0.32228129752E+03  0.35354549453E+03  0.12500000000E+03 0.  0.
         25    1    1    2    0    0  0.35648177285E+02  0.18829515002E+03  0.41990545733E+03  0.47819603633E+03  0.12500000000E+03 0.  0.
         25    1    1    2    0    0 -0.36502183350E+02 -0.11410989105E+03  0.67022188837E+03  0.69222529301E+03  0.12500000000E+03 0.  0.
</event>
<event>
 5    0  0.5655767E-005  0.3697748E+03  0.7546771E-02  0.1054779E+00
         21   -1    0    0  502  501  0.00000000000E+00  0.00000000000E+00  0.27665659853E+03  0.27665659853E+03  0.00000000000E+00 0.  1.
         21   -1    0    0  501  502 -0.00000000000E+00 -0.00000000000E+00 -0.49423523399E+03  0.49423523399E+03  0.00000000000E+00 0.  1.
         25    1    1    2    0    0  0.55848164334E+02  0.24478701900E+03 -0.28728845586E+02  0.28193979623E+03  0.12500000000E+03 0.  0.
         25    1    1    2    0    0 -0.37442294313E+02 -0.19972988357E+03 -0.24641022278E+03  0.34298243349E+03  0.12500000000E+03 0.  0.
         25    1    1    2    0    0 -0.18405870021E+02 -0.45057135426E+02  0.57560432900E+02  0.14596960279E+03  0.12500000000E+03 0.  0.
</event>
<event>
 5    0  0.5655767E-005  0.5602741E+03  0.7546771E-02  0.9991435E-01
         21   -1    0    0  502  501  0.00000000000E+00  0.00000000000E+00  0.15045118263E+03  0.15045118263E+03  0.00000000000E+00 0.  1.
         21   -1    0    0  501  502 -0.00000000000E+00 -0.00000000000E+00 -0.20864376545E+04  0.20864376545E+04  0.00000000000E+00 0.  1.
         25    1    1    2    0    0  0.29036665425E+02 -0.20579012760E+03 -0.38700209787E+03  0.45671471217E+03  0.12500000000E+03 0.  0.
         25    1    1    2    0    0 -0.35788457566E+03  0.31391645553E+03 -0.70896930131E+03  0.86306858404E+03  0.12500000000E+03 0.  0.
         25    1    1    2    0    0  0.32884791024E+03 -0.10812632793E+03 -0.84001507271E+03  0.91710554095E+03  0.12500000000E+03 0.  0.
</event>
<event>
 5    0  0.5655767E-005  0.2988205E+03  0.7546771E-02  0.1085832E+00
         21   -1    0    0  502  501  0.00000000000E+00  0.00000000000E+00  0.11872629607E+04  0.11872629607E+04  0.00000000000E+00 0. -1.
         21   -1    0    0  501  502 -0.00000000000E+00 -0.00000000000E+00 -0.75209725165E+02  0.75209725165E+02  0.00000000000E+00 0. -1.
         25    1    1    2    0    0 -0.48803601816E+02 -0.11591398565E+03  0.61577943176E+03  0.64080196020E+03  0.12500000000E+03 0.  0.
         25    1    1    2    0    0  0.85036295636E+02  0.13594194536E+03  0.42688615277E+03  0.47282996047E+03  0.12500000000E+03 0.  0.
         25    1    1    2    0    0 -0.36232693820E+02 -0.20027959714E+02  0.69387650995E+02  0.14884076519E+03  0.12500000000E+03 0.  0.
</event>
<event>
 5    0  0.5655767E-005  0.2788426E+03  0.7546771E-02  0.1096323E+00
         21   -1    0    0  502  501  0.00000000000E+00  0.00000000000E+00  0.15161022167E+03  0.15161022167E+03  0.00000000000E+00 0. -1.
         21   -1    0    0  501  502 -0.00000000000E+00 -0.00000000000E+00 -0.51284911380E+03  0.51284911380E+03  0.00000000000E+00 0. -1.
         25    1    1    2    0    0 -0.16296266637E+02 -0.70336048325E+02 -0.64840787370E+01  0.14449834351E+03  0.12500000000E+03 0.  0.
         25    1    1    2    0    0  0.12373384613E+03 -0.30746674154E+02 -0.22441081754E+03  0.28677628507E+03  0.12500000000E+03 0.  0.
         25    1    1    2    0    0 -0.10743757949E+03  0.10108272248E+03 -0.13034399586E+03  0.23318470689E+03  0.12500000000E+03 0.  0.
</event>
<event>
 5    0  0.5655767E-005  0.2824110E+03  0.7546771E-02  0.1094379E+00
         21   -1    0    0  502  501  0.00000000000E+00  0.00000000000E+00  0.25615881549E+03  0.25615881549E+03  0.00000000000E+00 0.  1.
         21   -1    0    0  501  502 -0.00000000000E+00 -0.00000000000E+00 -0.31135371526E+03  0.31135371526E+03  0.00000000000E+00 0.  1.
         25    1    1    2    0    0  0.47120035700E+02 -0.84388536164E+02 -0.59007610436E+02  0.16866718973E+03  0.12500000000E+03 0.  0.
         25    1    1    2    0    0  0.11506799458E+03  0.26271354289E+02 -0.50477133032E+02  0.17917524492E+03  0.12500000000E+03 0.  0.
         25    1    1    2    0    0 -0.16218803028E+03  0.58117181876E+02  0.54289843689E+02  0.21967009611E+03  0.12500000000E+03 0.  0.
</event>
<event>
 5    0  0.5655767E-005  0.2288038E+03  0.7546771E-02  0.1127485E+00
         21   -1    0    0  502  501  0.00000000000E+00  0.00000000000E+00  0.68166297061E+03  0.68166297061E+03  0.00000000000E+00 0. -1.
         21   -1    0    0  501  502 -0.00000000000E+00 -0.00000000000E+00 -0.76799242169E+02  0.76799242169E+02  0.00000000000E+00 0. -1.
         25    1    1    2    0    0  0.27744433665E+02  0.10246157654E+03  0.20147425207E+03  0.25977875686E+03  0.12500000000E+03 0.  0.
         25    1    1    2    0    0  0.27857107215E+02 -0.44763665371E+02  0.13173490665E+03  0.18910021097E+03  0.12500000000E+03 0.  0.
         25    1    1    2    0    0 -0.55601540879E+02 -0.57697911174E+02  0.27165456972E+03  0.30958324495E+03  0.12500000000E+03 0.  0.
</event>
<event>
 5    0  0.5655767E-005  0.2324864E+03  0.7546771E-02  0.1124902E+00
         21   -1    0    0  502  501  0.00000000000E+00  0.00000000000E+00  0.59974023882E+03  0.59974023882E+03  0.00000000000E+00 0.  1.
         21   -1    0    0  501  502 -0.00000000000E+00 -0.00000000000E+00 -0.90122205225E+02  0.90122205225E+02  0.00000000000E+00 0.  1.
         25    1    1    2    0    0 -0.17101660229E+02 -0.90985153185E+02  0.25831675672E+03  0.30153492615E+03  0.12500000000E+03 0.  0.
         25    1    1    2    0    0  0.55386991915E+02  0.47791034329E+02  0.18656644603E+03  0.23618581799E+03  0.12500000000E+03 0.  0.
         25    1    1    2    0    0 -0.38285331686E+02  0.43194118856E+02  0.64734830840E+02  0.15214169990E+03  0.12500000000E+03 0.  0.
</event>
<event>
 5    0  0.5655767E-005  0.2341011E+03  0.7546771E-02  0.1123786E+00
         21   -1    0    0  502  501  0.00000000000E+00  0.00000000000E+00  0.23219507856E+02  0.23219507856E+02  0.00000000000E+00 0.  1.
         21   -1    0    0  501  502 -0.00000000000E+00 -0.00000000000E+00 -0.23602285894E+04  0.23602285894E+04  0.00000000000E+00 0.  1.
         25    1    1    2    0    0 -0.95963143800E+02  0.58655064317E+01 -0.74288019086E+03  0.75943354357E+03  0.12500000000E+03 0.  0.
         25    1    1    2    0    0  0.36871052794E+02 -0.75795975293E+02 -0.64991955529E+03  0.66717683769E+03  0.12500000000E+03 0.  0.
         25    1    1    2    0    0  0.59092091006E+02  0.69930468861E+02 -0.94420933545E+03  0.95683771604E+03  0.12500000000E+03 0.  0.
</event>
<event>
 5    0  0.5655767E-005  0.3038254E+03  0.7546771E-02  0.1083344E+00
         21   -1    0    0  502  501  0.00000000000E+00  0.00000000000E+00  0.12331205900E+03  0.12331205900E+03  0.00000000000E+00 0. -1.
         21   -1    0    0  501  502 -0.00000000000E+00 -0.00000000000E+00 -0.74858749576E+03  0.74858749576E+03  0.00000000000E+00 0. -1.
         25    1    1    2    0    0 -0.94464764387E+02 -0.75422369006E+02 -0.64014473631E+01  0.17400604583E+03  0.12500000000E+03 0.  0.
         25    1    1    2    0    0  0.11280979486E+03 -0.11642808716E+02 -0.30779555326E+03  0.35103376962E+03  0.12500000000E+03 0.  0.
         25    1    1    2    0    0 -0.18345030474E+02  0.87065177722E+02 -0.31107843614E+03  0.34685973930E+03  0.12500000000E+03 0.  0.
</event>
<event>
 5    0  0.5655767E-005  0.7244199E+03  0.7546771E-02  0.9676359E-01
         21   -1    0    0  502  501  0.00000000000E+00  0.00000000000E+00  0.39754761722E+03  0.39754761722E+03  0.00000000000E+00 0.  1.
         21   -1    0    0  501  502 -0.00000000000E+00 -0.00000000000E+00 -0.13200535098E+04  0.13200535098E+04  0.00000000000E+00 0.  1.
         25    1    1    2    0    0  0.19598215589E+03 -0.51400305613E+02  0.29837624467E+03  0.38171243133E+03  0.12500000000E+03 0.  0.
         25    1    1    2    0    0 -0.14655659056E+03  0.12250254154E+03 -0.11419816220E+04  0.11645740560E+04  0.12500000000E+03 0.  0.
         25    1    1    2    0    0 -0.49425565340E+02 -0.71102235929E+02 -0.78900515242E+02  0.17131463968E+03  0.12500000000E+03 0.  0.
</event>
<event>
 5    0  0.5655767E-005  0.3003044E+03  0.7546771E-02  0.1085089E+00
         21   -1    0    0  502  501  0.00000000000E+00  0.00000000000E+00  0.24099679145E+03  0.24099679145E+03  0.00000000000E+00 0.  1.
         21   -1    0    0  501  502 -0.00000000000E+00 -0.00000000000E+00 -0.37420707231E+03  0.37420707231E+03  0.00000000000E+00 0.  1.
         25    1    1    2    0    0 -0.11486897065E+03  0.64836538371E+02  0.21682940969E+02  0.18301313356E+03  0.12500000000E+03 0.  0.
         25    1    1    2    0    0  0.14946506901E+03  0.19341907724E+02 -0.19086685787E+03  0.27343934187E+03  0.12500000000E+03 0.  0.
         25    1    1    2    0    0 -0.34596098359E+02 -0.84178446095E+02  0.35973636029E+02  0.15875138833E+03  0.12500000000E+03 0.  0.
</event>
<event>
 5    0  0.5655767E-005  0.2911233E+03  0.7546771E-02  0.1089764E+00
         21   -1    0    0  502  501  0.00000000000E+00  0.00000000000E+00  0.17626121732E+03  0.17626121732E+03  0.00000000000E+00 0. -1.
         21   -1    0    0  501  502 -0.00000000000E+00 -0.00000000000E+00 -0.48083625397E+03  0.48083625397E+03  0.00000000000E+00 0. -1.
         25    1    1    2    0    0  0.74455180264E+02 -0.59579533801E+02 -0.21384714654E+03  0.26542211061E+03  0.12500000000E+03 0.  0.
         25    1    1    2    0    0 -0.54103489565E+02 -0.41200461714E+02  0.74295917135E+02  0.16052896602E+03  0.12500000000E+03 0.  0.
         25    1    1    2    0    0 -0.20351690699E+02  0.10077999551E+03 -0.16502380724E+03  0.23114639466E+03  0.12500000000E+03 0.  0.
</event>
<event>
 5    0  0.5655767E-005  0.3148357E+03  0.7546771E-02  0.1078051E+00
         21   -1    0    0  502  501  0.00000000000E+00  0.00000000000E+00  0.56448079430E+03  0.56448079430E+03  0.00000000000E+00 0.  1.
         21   -1    0    0  501  502 -0.00000000000E+00 -0.00000000000E+00 -0.17559768080E+03  0.17559768080E+03  0.00000000000E+00 0.  1.
         25    1    1    2    0    0  0.89467232708E+02  0.50482622743E+02 -0.29123436219E+02  0.16439603239E+03  0.12500000000E+03 0.  0.
         25    1    1    2    0    0  0.98272918013E+02  0.17604546640E+01  0.21736792167E+03  0.26932225862E+03  0.12500000000E+03 0.  0.
         25    1    1    2    0    0 -0.18774015072E+03 -0.52243077407E+02  0.20063862805E+03  0.30636018409E+03  0.12500000000E+03 0.  0.
</event>
<event>
 5    0  0.5655767E-005  0.2238132E+03  0.7546771E-02  0.1131072E+00
         21   -1    0    0  502  501  0.00000000000E+00  0.00000000000E+00  0.20088638105E+04  0.20088638105E+04  0.00000000000E+00 0. -1.
         21   -1    0    0  501  502 -0.00000000000E+00 -0.00000000000E+00 -0.24935663846E+02  0.24935663846E+02  0.00000000000E+00 0. -1.
         25    1    1    2    0    0 -0.33529296550E+02  0.38682980247E+02  0.70756990561E+03  0.72034766469E+03  0.12500000000E+03 0.  0.
         25    1    1    2    0    0 -0.67241432271E+01 -0.25042829667E+02  0.98910879476E+03  0.99731317312E+03  0.12500000000E+03 0.  0.
         25    1    1    2    0    0  0.40253439777E+02 -0.13640150580E+02  0.28724944628E+03  0.31613863653E+03  0.12500000000E+03 0.  0.
</event>
<event>
 5    0  0.5655767E-005  0.4103614E+03  0.7546771E-02  0.1040250E+00
         21   -1    0    0  502  501  0.00000000000E+00  0.00000000000E+00  0.44608396737E+03  0.44608396737E+03  0.00000000000E+00 0. -1.
         21   -1    0    0  501  502 -0.00000000000E+00 -0.00000000000E+00 -0.37749946588E+03  0.37749946588E+03  0.00000000000E+00 0. -1.
         25    1    1    2    0    0 -0.20064156423E+03  0.97046776800E+02 -0.33030599181E+02  0.25766477188E+03  0.12500000000E+03 0.  0.
         25    1    1    2    0    0  0.81549096738E+02 -0.27216062541E+03  0.45889228313E+02  0.31377138569E+03  0.12500000000E+03 0.  0.
         25    1    1    2    0    0  0.11909246749E+03  0.17511384861E+03  0.55725872361E+02  0.25214727569E+03  0.12500000000E+03 0.  0.
</event>
<event>
 5    0  0.5655767E-005  0.3096557E+03  0.7546771E-02  0.1080511E+00
         21   -1    0    0  502  501  0.00000000000E+00  0.00000000000E+00  0.10694825879E+04  0.10694825879E+04  0.00000000000E+00 0. -1.
         21   -1    0    0  501  502 -0.00000000000E+00 -0.00000000000E+00 -0.89657036662E+02  0.89657036662E+02  0.00000000000E+00 0. -1.
         25    1    1    2    0    0  0.10252362561E+02  0.34704739638E+01  0.16851198806E+02  0.12659430488E+03  0.12500000000E+03 0.  0.
         25    1    1    2    0    0 -0.68436453548E+01  0.21601155283E+02  0.85802951720E+03  0.86738290148E+03  0.12500000000E+03 0.  0.
         25    1    1    2    0    0 -0.34087172058E+01 -0.25071629246E+02  0.10494483525E+03  0.16516241822E+03  0.12500000000E+03 0.  0.
</event>
<event>
 5    0  0.5655767E-005  0.3435503E+03  0.7546771E-02  0.1065294E+00
         21   -1    0    0  502  501  0.00000000000E+00  0.00000000000E+00  0.14568785412E+04  0.14568785412E+04  0.00000000000E+00 0.  1.
         21   -1    0    0  501  502 -0.00000000000E+00 -0.00000000000E+00 -0.81013469475E+02  0.81013469475E+02  0.00000000000E+00 0.  1.
         25    1    1    2    0    0  0.40356044088E+02  0.38573087960E+02  0.45613851840E+03  0.47623926904E+03  0.12500000000E+03 0.  0.
         25    1    1    2    0    0 -0.15506944438E+02  0.16372233703E+03  0.72329980039E+03  0.75221876486E+03  0.12500000000E+03 0.  0.
         25    1    1    2    0    0 -0.24849099651E+02 -0.20229542499E+03  0.19642675299E+03  0.30943397683E+03  0.12500000000E+03 0.  0.
</event>
<event>
 5    0  0.5655767E-005  0.3511335E+03  0.7546771E-02  0.1062151E+00
         21   -1    0    0  502  501  0.00000000000E+00  0.00000000000E+00  0.42706764255E+03  0.42706764255E+03  0.00000000000E+00 0.  1.
         21   -1    0    0  501  502 -0.00000000000E+00 -0.00000000000E+00 -0.28870077668E+03  0.28870077668E+03  0.00000000000E+00 0.  1.
         25    1    1    2    0    0 -0.16436589176E+02  0.53902816726E+02 -0.77155717107E+02  0.15733302195E+03  0.12500000000E+03 0.  0.
         25    1    1    2    0    0 -0.78437603183E+02 -0.76733202195E+02 -0.10787623604E+03  0.19824914682E+03  0.12500000000E+03 0.  0.
         25    1    1    2    0    0  0.94874192358E+02  0.22830385469E+02  0.32339881902E+03  0.36018625046E+03  0.12500000000E+03 0.  0.
</event>
<event>
 5    0  0.5655767E-005  0.2957626E+03  0.7546771E-02  0.1087378E+00
         21   -1    0    0  502  501  0.00000000000E+00  0.00000000000E+00  0.25846703284E+03  0.25846703284E+03  0.00000000000E+00 0.  1.
         21   -1    0    0  501  502 -0.00000000000E+00 -0.00000000000E+00 -0.33843965955E+03  0.33843965955E+03  0.00000000000E+00 0.  1.
         25    1    1    2    0    0 -0.33332772217E+00 -0.13236473451E+03 -0.81954147378E+02  0.19965474280E+03  0.12500000000E+03 0.  0.
         25    1    1    2    0    0 -0.59472547648E+02  0.73248055535E+00  0.11080772426E+03  0.17731574157E+03  0.12500000000E+03 0.  0.
         25    1    1    2    0    0  0.59805875370E+02  0.13163225396E+03 -0.10882620359E+03  0.21993620802E+03  0.12500000000E+03 0.  0.
</event>
<event>
 5    0  0.5655767E-005  0.2684000E+03  0.7546771E-02  0.1102199E+00
         21   -1    0    0  502  501  0.00000000000E+00  0.00000000000E+00  0.38361671007E+03  0.38361671007E+03  0.00000000000E+00 0. -1.
         21   -1    0    0  501  502 -0.00000000000E+00 -0.00000000000E+00 -0.18778780794E+03  0.18778780794E+03  0.00000000000E+00 0. -1.
         25    1    1    2    0    0  0.78766459582E+02 -0.10457863859E+02  0.46117488448E+01  0.14818836088E+03  0.12500000000E+03 0.  0.
         25    1    1    2    0    0 -0.14457086609E+02 -0.10428973129E+03  0.17743535049E+03  0.24123361915E+03  0.12500000000E+03 0.  0.
         25    1    1    2    0    0 -0.64309372972E+02  0.11474759515E+03  0.13781802797E+02  0.18198253799E+03  0.12500000000E+03 0.  0.
</event>
<event>
 5    0  0.5655767E-005  0.6340114E+03  0.7546771E-02  0.9837252E-01
         21   -1    0    0  502  501  0.00000000000E+00  0.00000000000E+00  0.23205503416E+03  0.23205503416E+03  0.00000000000E+00 0. -1.
         21   -1    0    0  501  502 -0.00000000000E+00 -0.00000000000E+00 -0.17322201715E+04  0.17322201715E+04  0.00000000000E+00 0. -1.
         25    1    1    2    0    0  0.86609865521E+02 -0.28747987638E+03 -0.74712274083E+03  0.81483945535E+03  0.12500000000E+03 0.  0.
         25    1    1    2    0    0  0.34314308555E+02  0.44277783559E+03 -0.12276938417E+03  0.47741701389E+03  0.12500000000E+03 0.  0.
         25    1    1    2    0    0 -0.12092417408E+03 -0.15529795921E+03 -0.63027301230E+03  0.67201873638E+03  0.12500000000E+03 0.  0.
</event>
<event>
 5    0  0.5655767E-005  0.2406051E+03  0.7546771E-02  0.1119390E+00
         21   -1    0    0  502  501  0.00000000000E+00  0.00000000000E+00  0.52134984605E+03  0.52134984605E+03  0.00000000000E+00 0.  1.
         21   -1    0    0  501  502 -0.00000000000E+00 -0.00000000000E+00 -0.11104026010E+03  0.11104026010E+03  0.00000000000E+00 0.  1.
         25    1    1    2    0    0 -0.26584901191E+02  0.25797477608E+01  0.15774203798E+03  0.20302946244E+03  0.12500000000E+03 0.  0.
         25    1    1    2    0    0 -0.57213277100E+02 -0.88692365919E+02  0.71114623118E+02  0.17838717574E+03  0.12500000000E+03 0.  0.
         25    1    1    2    0    0  0.83798178291E+02  0.86112618158E+02  0.18145292484E+03  0.25097346797E+03  0.12500000000E+03 0.  0.
</event>
<event>
 5    0  0.5655767E-005  0.3411573E+03  0.7546771E-02  0.1066304E+00
         21   -1    0    0  502  501  0.00000000000E+00  0.00000000000E+00  0.15624349696E+03  0.15624349696E+03  0.00000000000E+00 0.  1.
         21   -1    0    0  501  502 -0.00000000000E+00 -0.00000000000E+00 -0.74491622805E+03  0.74491622805E+03  0.00000000000E+00 0.  1.
         25    1    1    2    0    0  0.31603053644E+02  0.21048162697E+02  0.30675171266E+02  0.13419293679E+03  0.12500000000E+03 0.  0.
         25    1    1    2    0    0  0.12506345973E+03  0.95902878390E+01 -0.50287341221E+03  0.53314117388E+03  0.12500000000E+03 0.  0.
         25    1    1    2    0    0 -0.15666651337E+03 -0.30638450536E+02 -0.11647449015E+03  0.23382561433E+03  0.12500000000E+03 0.  0.
</event>
<event>
 5    0  0.5655767E-005  0.2756234E+03  0.7546771E-02  0.1098104E+00
         21   -1    0    0  502  501  0.00000000000E+00  0.00000000000E+00  0.34095717473E+02  0.34095717473E+02  0.00000000000E+00 0. -1.
         21   -1    0    0  501  502 -0.00000000000E+00 -0.00000000000E+00 -0.22280876077E+04  0.22280876077E+04  0.00000000000E+00 0. -1.
         25    1    1    2    0    0  0.24103151856E+02 -0.41955611154E+02 -0.34892321920E+03  0.37378288904E+03  0.12500000000E+03 0.  0.
         25    1    1    2    0    0 -0.10281585109E+03  0.14758687337E+03 -0.92489860124E+03  0.95048167105E+03  0.12500000000E+03 0.  0.
         25    1    1    2    0    0  0.78712699237E+02 -0.10563126221E+03 -0.92017006982E+03  0.93791876512E+03  0.12500000000E+03 0.  0.
</event>
<event>
 5    0  0.5655767E-005  0.3931343E+03  0.7546771E-02  0.1046183E+00
         21   -1    0    0  502  501  0.00000000000E+00  0.00000000000E+00  0.13790607472E+03  0.13790607472E+03  0.00000000000E+00 0.  1.
         21   -1    0    0  501  502 -0.00000000000E+00 -0.00000000000E+00 -0.11207235570E+04  0.11207235570E+04  0.00000000000E+00 0.  1.
         25    1    1    2    0    0 -0.24567186787E+03  0.22324080383E+02 -0.28479022971E+03  0.39696789060E+03  0.12500000000E+03 0.  0.
         25    1    1    2    0    0  0.74506360225E+02  0.15842436087E+03 -0.39695174669E+03  0.45149215390E+03  0.12500000000E+03 0.  0.
         25    1    1    2    0    0  0.17116550765E+03 -0.18074844126E+03 -0.30107550583E+03  0.41016958717E+03  0.12500000000E+03 0.  0.
</event>
<event>
 5    0  0.5655767E-005  0.3145167E+03  0.7546771E-02  0.1078201E+00
         21   -1    0    0  502  501  0.00000000000E+00  0.00000000000E+00  0.39122900485E+03  0.39122900485E+03  0.00000000000E+00 0. -1.
         21   -1    0    0  501  502 -0.00000000000E+00 -0.00000000000E+00 -0.25284610036E+03  0.25284610036E+03  0.00000000000E+00 0. -1.
         25    1    1    2    0    0 -0.14938427351E+03  0.18643406407E+03  0.77703422436E+02  0.28059961382E+03  0.12500000000E+03 0.  0.
         25    1    1    2    0    0  0.97530674483E+02 -0.50447046921E+02  0.23017007110E+02  0.16796404265E+03  0.12500000000E+03 0.  0.
         25    1    1    2    0    0  0.51853599023E+02 -0.13598701715E+03  0.37662474941E+02  0.19551144873E+03  0.12500000000E+03 0.  0.
</event>
<event>
 5    0  0.5655767E-005  0.3216231E+03  0.7546771E-02  0.1074905E+00
         21   -1    0    0  502  501  0.00000000000E+00  0.00000000000E+00  0.21223293066E+04  0.21223293066E+04  0.00000000000E+00 0. -1.
         21   -1    0    0  501  502 -0.00000000000E+00 -0.00000000000E+00 -0.48739576535E+02  0.48739576535E+02  0.00000000000E+00 0. -1.
         25    1    1    2    0    0  0.15379281709E+03 -0.18927227017E+02  0.10578732724E+04  0.10764438354E+04  0.12500000000E+03 0.  0.
         25    1    1    2    0    0  0.45939176626E+02  0.79142781128E+02  0.51802767670E+03  0.54069553501E+03  0.12500000000E+03 0.  0.
         25    1    1    2    0    0 -0.19973199371E+03 -0.60215554111E+02  0.49768878099E+03  0.55392951266E+03  0.12500000000E+03 0.  0.
</event>
<event>
 5    0  0.5655767E-005  0.2317545E+03  0.7546771E-02  0.1125411E+00
         21   -1    0    0  502  501  0.00000000000E+00  0.00000000000E+00  0.34598871516E+03  0.34598871516E+03  0.00000000000E+00 0.  1.
         21   -1    0    0  501  502 -0.00000000000E+00 -0.00000000000E+00 -0.15523668069E+03  0.15523668069E+03  0.00000000000E+00 0.  1.
         25    1    1    2    0    0 -0.98843684754E+02  0.27710191191E+02  0.25900421876E+02  0.16381013572E+03  0.12500000000E+03 0.  0.
         25    1    1    2    0    0  0.19659833552E+02 -0.41346855248E+01  0.18471648334E+02  0.12794454452E+03  0.12500000000E+03 0.  0.
         25    1    1    2    0    0  0.79183851202E+02 -0.23575505666E+02  0.14637996427E+03  0.20947071561E+03  0.12500000000E+03 0.  0.
</event>
<event>
 5    0  0.5655767E-005  0.3160515E+03  0.7546771E-02  0.1077481E+00
         21   -1    0    0  502  501  0.00000000000E+00  0.00000000000E+00  0.47451099699E+02  0.47451099699E+02  0.00000000000E+00 0. -1.
         21   -1    0    0  501  502 -0.00000000000E+00 -0.00000000000E+00 -0.21050836264E+04  0.21050836264E+04  0.00000000000E+00 0. -1.
         25    1    1    2    0    0 -0.13105386147E+03 -0.95779937789E+02 -0.29581135227E+03  0.35983088697E+03  0.12500000000E+03 0.  0.
         25    1    1    2    0    0  0.11408970823E+03  0.10470039781E+03 -0.90672060549E+03  0.92830269376E+03  0.12500000000E+03 0.  0.
         25    1    1    2    0    0  0.16964153235E+02 -0.89204600259E+01 -0.85510056896E+03  0.86440114538E+03  0.12500000000E+03 0.  0.
</event>
<event>
 5    0  0.5655767E-005  0.2906253E+03  0.7546771E-02  0.1090023E+00
         21   -1    0    0  502  501  0.00000000000E+00  0.00000000000E+00  0.24418367516E+03  0.24418367516E+03  0.00000000000E+00 0. -1.
         21   -1    0    0  501  502 -0.00000000000E+00 -0.00000000000E+00 -0.34589964055E+03  0.34589964055E+03  0.00000000000E+00 0. -1.
         25    1    1    2    0    0  0.21166769308E+02 -0.10995034473E+03 -0.14883702946E+03  0.22430909872E+03  0.12500000000E+03 0.  0.
         25    1    1    2    0    0 -0.11529299155E+03 -0.22638181336E+01  0.17675500205E+02  0.17098251981E+03  0.12500000000E+03 0.  0.
         25    1    1    2    0    0  0.94126222239E+02  0.11221416287E+03  0.29445563855E+02  0.19479169718E+03  0.12500000000E+03 0.  0.
</event>
<event>
 5    0  0.5655767E-005  0.3917428E+03  0.7546771E-02  0.1046677E+00
         21   -1    0    0  502  501  0.00000000000E+00  0.00000000000E+00  0.58224624715E+02  0.58224624715E+02  0.00000000000E+00 0. -1.
         21   -1    0    0  501  502 -0.00000000000E+00 -0.00000000000E+00 -0.26356964213E+04  0.26356964213E+04  0.00000000000E+00 0.  1.
         25    1    1    2    0    0  0.50793164994E+01 -0.47919905561E+02 -0.29254208200E+03  0.32175765189E+03  0.12500000000E+03 0.  0.
         25    1    1    2    0    0 -0.17917786786E+02 -0.25009957011E+03 -0.68889979532E+03  0.74369265832E+03  0.12500000000E+03 0.  0.
         25    1    1    2    0    0  0.12838470286E+02  0.29801947567E+03 -0.15960299193E+04  0.16284707358E+04  0.12500000000E+03 0.  0.
</event>
<event>
 5    0  0.5655767E-005  0.3410455E+03  0.7546771E-02  0.1066352E+00
         21   -1    0    0  502  501  0.00000000000E+00  0.00000000000E+00  0.55281828008E+03  0.55281828008E+03  0.00000000000E+00 0. -1.
         21   -1    0    0  501  502 -0.00000000000E+00 -0.00000000000E+00 -0.21039832142E+03  0.21039832142E+03  0.00000000000E+00 0. -1.
         25    1    1    2    0    0 -0.39039459746E+02 -0.31022252611E+02 -0.12654960209E+03  0.18473294607E+03  0.12500000000E+03 0.  0.
         25    1    1    2    0    0  0.44370237795E+02 -0.71374359650E+02  0.11555511154E+03  0.18984467604E+03  0.12500000000E+03 0.  0.
         25    1    1    2    0    0 -0.53307780486E+01  0.10239661226E+03  0.35341444920E+03  0.38863897939E+03  0.12500000000E+03 0.  0.
</event>
<event>
 5    0  0.5655767E-005  0.2884110E+03  0.7546771E-02  0.1091182E+00
         21   -1    0    0  502  501  0.00000000000E+00  0.00000000000E+00  0.64384168261E+03  0.64384168261E+03  0.00000000000E+00 0.  1.
         21   -1    0    0  501  502 -0.00000000000E+00 -0.00000000000E+00 -0.12919461671E+03  0.12919461671E+03  0.00000000000E+00 0.  1.
         25    1    1    2    0    0  0.14047417411E+03  0.90902026987E+02  0.18892539635E+03  0.28162737347E+03  0.12500000000E+03 0.  0.
         25    1    1    2    0    0 -0.12113723711E+03 -0.12124823203E+03  0.28465237660E+03  0.35500329504E+03  0.12500000000E+03 0.  0.
         25    1    1    2    0    0 -0.19336936998E+02  0.30346205040E+02  0.41069292943E+02  0.13640563081E+03  0.12500000000E+03 0.  0.
</event>
<event>
 5    0  0.5655767E-005  0.2769996E+03  0.7546771E-02  0.1097339E+00
         21   -1    0    0  502  501  0.00000000000E+00  0.00000000000E+00  0.58740347105E+02  0.58740347105E+02  0.00000000000E+00 0.  1.
         21   -1    0    0  501  502 -0.00000000000E+00 -0.00000000000E+00 -0.13062366481E+04  0.13062366481E+04  0.00000000000E+00 0.  1.
         25    1    1    2    0    0  0.12710672505E+03  0.16266784998E+02 -0.33518221269E+03  0.37999058351E+03  0.12500000000E+03 0.  0.
         25    1    1    2    0    0 -0.15072881278E+03 -0.92891792428E+02 -0.45132329589E+03  0.50066533484E+03  0.12500000000E+03 0.  0.
         25    1    1    2    0    0  0.23622087731E+02  0.76625007430E+02 -0.46099079236E+03  0.48432107680E+03  0.12500000000E+03 0.  0.
</event>
<event>
 5    0  0.5957858E-005  0.3499832E+03  0.7546771E-02  0.1062622E+00
         21   -1    0    0  502  501  0.00000000000E+00  0.00000000000E+00  0.21197249402E+03  0.21197249402E+03  0.00000000000E+00 0. -1.
         21   -1    0    0  501  502 -0.00000000000E+00 -0.00000000000E+00 -0.57784984789E+03  0.57784984789E+03  0.00000000000E+00 0. -1.
         25    1    1    2    0    0 -0.81313189997E+01  0.10867254294E+03 -0.12615450124E+02  0.16631292649E+03  0.12500000000E+03 0.  0.
         25    1    1    2    0    0 -0.12063847087E+03 -0.92052060405E+02  0.31046690953E+02  0.19903798506E+03  0.12500000000E+03 0.  0.
         25    1    1    2    0    0  0.12876978987E+03 -0.16620482532E+02 -0.38430859470E+03  0.42447143035E+03  0.12500000000E+03 0.  0.
</event>
<event>
 5    0  0.5655767E-005  0.3017193E+03  0.7546771E-02  0.1084384E+00
         21   -1    0    0  502  501  0.00000000000E+00  0.00000000000E+00  0.53201845868E+03  0.53201845868E+03  0.00000000000E+00 0. -1.
         21   -1    0    0  501  502 -0.00000000000E+00 -0.00000000000E+00 -0.17111163232E+03  0.17111163232E+03  0.00000000000E+00 0. -1.
         25    1    1    2    0    0 -0.22122996493E+02 -0.31464072610E+02  0.30513384944E+03  0.33198054297E+03  0.12500000000E+03 0.  0.
         25    1    1    2    0    0 -0.98852170266E+02  0.19771449434E+02  0.10267586913E+03  0.19060429135E+03  0.12500000000E+03 0.  0.
         25    1    1    2    0    0  0.12097516676E+03  0.11692623176E+02 -0.46902892207E+02  0.18054525667E+03  0.12500000000E+03 0.  0.
</event>
<event>
 5    0  0.5655767E-005  0.3387303E+03  0.7546771E-02  0.1067338E+00
         21   -1    0    0  502  501  0.00000000000E+00  0.00000000000E+00  0.20339909412E+04  0.20339909412E+04  0.00000000000E+00 0.  1.
         21   -1    0    0  501  502 -0.00000000000E+00 -0.00000000000E+00 -0.56410389701E+02  0.56410389701E+02  0.00000000000E+00 0.  1.
         25    1    1    2    0    0 -0.48793964153E+02 -0.20881026206E+03  0.68974660585E+03  0.73304703584E+03  0.12500000000E+03 0.  0.
         25    1    1    2    0    0 -0.94426574875E+02  0.14330923483E+03  0.47976216630E+03  0.52464335604E+03  0.12500000000E+03 0.  0.
         25    1    1    2    0    0  0.14322053903E+03  0.65501027236E+02  0.80807177937E+03  0.83271093903E+03  0.12500000000E+03 0.  0.
</event>
<event>
 5    0  0.5655767E-005  0.3148764E+03  0.7546771E-02  0.1078032E+00
         21   -1    0    0  502  501  0.00000000000E+00  0.00000000000E+00  0.89540823691E+03  0.89540823691E+03  0.00000000000E+00 0. -1.
         21   -1    0    0  501  502 -0.00000000000E+00 -0.00000000000E+00 -0.11072843807E+03  0.11072843807E+03  0.00000000000E+00 0. -1.
         25    1    1    2    0    0  0.48134233047E+02 -0.46119969997E+02  0.35295189713E+02  0.14599556993E+03  0.12500000000E+03 0.  0.
         25    1    1    2    0    0  0.52202904450E+01 -0.14040660889E+03  0.28315444849E+03  0.33991573802E+03  0.12500000000E+03 0.  0.
         25    1    1    2    0    0 -0.53354523492E+02  0.18652657889E+03  0.46623016063E+03  0.52022536702E+03  0.12500000000E+03 0.  0.
</event>
<event>
 5    0  0.5655767E-005  0.2675473E+03  0.7546771E-02  0.1102692E+00
         21   -1    0    0  502  501  0.00000000000E+00  0.00000000000E+00  0.59717961227E+02  0.59717961227E+02  0.00000000000E+00 0. -1.
         21   -1    0    0  501  502 -0.00000000000E+00 -0.00000000000E+00 -0.11986603840E+04  0.11986603840E+04  0.00000000000E+00 0. -1.
         25    1    1    2    0    0 -0.74770438548E+02  0.19765566872E+02 -0.44315827811E+03  0.46689994171E+03  0.12500000000E+03 0.  0.
         25    1    1    2    0    0  0.17390539999E+03 -0.31646329439E+02 -0.37472170867E+03  0.43276545294E+03  0.12500000000E+03 0.  0.
         25    1    1    2    0    0 -0.99134961444E+02  0.11880762567E+02 -0.32106243598E+03  0.35871295056E+03  0.12500000000E+03 0.  0.
</event>
<event>
 5    0  0.5655767E-005  0.2245604E+03  0.7546771E-02  0.1130528E+00
         21   -1    0    0  502  501  0.00000000000E+00  0.00000000000E+00  0.74633835925E+02  0.74633835925E+02  0.00000000000E+00 0.  1.
         21   -1    0    0  501  502 -0.00000000000E+00 -0.00000000000E+00 -0.67566353345E+03  0.67566353345E+03  0.00000000000E+00 0.  1.
         25    1    1    2    0    0  0.10094016087E+03 -0.55305666370E+01 -0.14226069663E+03  0.21466860285E+03  0.12500000000E+03 0.  0.
         25    1    1    2    0    0 -0.80622221955E+02 -0.86515466724E+01 -0.25122026798E+03  0.29208117875E+03  0.12500000000E+03 0.  0.
         25    1    1    2    0    0 -0.20317938913E+02  0.14182113309E+02 -0.20754873291E+03  0.24354758777E+03  0.12500000000E+03 0.  0.
</event>
<event>
 5    0  0.5655767E-005  0.2860181E+03  0.7546771E-02  0.1092447E+00
         21   -1    0    0  502  501  0.00000000000E+00  0.00000000000E+00  0.17726995311E+03  0.17726995311E+03  0.00000000000E+00 0.  1.
         21   -1    0    0  501  502 -0.00000000000E+00 -0.00000000000E+00 -0.46147880152E+03  0.46147880152E+03  0.00000000000E+00 0.  1.
         25    1    1    2    0    0 -0.10032397548E+03  0.48673028256E+02 -0.80801091441E+02  0.18597790222E+03  0.12500000000E+03 0.  0.
         25    1    1    2    0    0  0.52082639070E+02 -0.64905154460E+02  0.56067746564E+02  0.16029308336E+03  0.12500000000E+03 0.  0.
         25    1    1    2    0    0  0.48241336410E+02  0.16232126204E+02 -0.25947550353E+03  0.29247776906E+03  0.12500000000E+03 0.  0.
</event>
<event>
 5    0  0.5655767E-005  0.3489918E+03  0.7546771E-02  0.1063030E+00
         21   -1    0    0  502  501  0.00000000000E+00  0.00000000000E+00  0.37338484472E+03  0.37338484472E+03  0.00000000000E+00 0. -1.
         21   -1    0    0  501  502 -0.00000000000E+00 -0.00000000000E+00 -0.32619225147E+03  0.32619225147E+03  0.00000000000E+00 0. -1.
         25    1    1    2    0    0  0.75875665553E+01 -0.95305373274E+02  0.17331587466E+03  0.23410270770E+03  0.12500000000E+03 0.  0.
         25    1    1    2    0    0  0.13062227741E+03  0.10692005524E+03 -0.17396156569E+03  0.27273009351E+03  0.12500000000E+03 0.  0.
         25    1    1    2    0    0 -0.13820984396E+03 -0.11614681967E+02  0.47838284284E+02  0.19274429498E+03  0.12500000000E+03 0.  0.
</event>
<event>
 5    0  0.5655767E-005  0.4611396E+03  0.7546771E-02  0.1024451E+00
         21   -1    0    0  502  501  0.00000000000E+00  0.00000000000E+00  0.33281423416E+03  0.33281423416E+03  0.00000000000E+00 0. -1.
         21   -1    0    0  501  502 -0.00000000000E+00 -0.00000000000E+00 -0.63894413566E+03  0.63894413566E+03  0.00000000000E+00 0. -1.
         25    1    1    2    0    0  0.29490631220E+03  0.71207049397E+00 -0.30658592128E+03  0.44338489729E+03  0.12500000000E+03 0.  0.
         25    1    1    2    0    0 -0.30433656644E+03 -0.10088499884E+03  0.73785372536E+02  0.35194858980E+03  0.12500000000E+03 0.  0.
         25    1    1    2    0    0  0.94302542397E+01  0.10017292835E+03 -0.73329352766E+02  0.17642488273E+03  0.12500000000E+03 0.  0.
</event>
<event>
 5    0  0.5655767E-005  0.2771122E+03  0.7546771E-02  0.1097277E+00
         21   -1    0    0  502  501  0.00000000000E+00  0.00000000000E+00  0.63088719619E+03  0.63088719619E+03  0.00000000000E+00 0. -1.
         21   -1    0    0  501  502 -0.00000000000E+00 -0.00000000000E+00 -0.12171931117E+03  0.12171931117E+03  0.00000000000E+00 0. -1.
         25    1    1    2    0    0 -0.64774599508E+02  0.13858947000E+03  0.22238689985E+03  0.29746213736E+03  0.12500000000E+03 0.  0.
         25    1    1    2    0    0 -0.55151569561E+02 -0.40034348757E+02  0.63606778509E+02  0.15593353385E+03  0.12500000000E+03 0.  0.
         25    1    1    2    0    0  0.11992616907E+03 -0.98555121246E+02  0.22317420667E+03  0.29921083616E+03  0.12500000000E+03 0.  0.
</event>
<event>
 5    0  0.5655767E-005  0.4951712E+03  0.7546771E-02  0.1015047E+00
         21   -1    0    0  502  501  0.00000000000E+00  0.00000000000E+00  0.92427055649E+03  0.92427055649E+03  0.00000000000E+00 0. -1.
         21   -1    0    0  501  502 -0.00000000000E+00 -0.00000000000E+00 -0.26528434698E+03  0.26528434698E+03  0.00000000000E+00 0. -1.
         25    1    1    2    0    0  0.20588232460E+03  0.25472308781E+02  0.98105306781E+02  0.26131594157E+03  0.12500000000E+03 0.  0.
         25    1    1    2    0    0  0.24173032463E+03  0.17974308456E+02  0.21516616805E+03  0.34738754365E+03  0.12500000000E+03 0.  0.
         25    1    1    2    0    0 -0.44761264924E+03 -0.43446617237E+02  0.34571473468E+03  0.58085141825E+03  0.12500000000E+03 0.  0.
</event>
<event>
 5    0  0.5655767E-005  0.4078713E+03  0.7546771E-02  0.1041088E+00
         21   -1    0    0  502  501  0.00000000000E+00  0.00000000000E+00  0.36951154638E+03  0.36951154638E+03  0.00000000000E+00 0.  1.
         21   -1    0    0  501  502 -0.00000000000E+00 -0.00000000000E+00 -0.45021333969E+03  0.45021333969E+03  0.00000000000E+00 0.  1.
         25    1    1    2    0    0  0.38405486111E+02 -0.19847173443E+03  0.21696601118E+03  0.32181556944E+03  0.12500000000E+03 0.  0.
         25    1    1    2    0    0  0.88947970941E+02  0.40095201244E+02 -0.14334290144E+03  0.21375582820E+03  0.12500000000E+03 0.  0.
         25    1    1    2    0    0 -0.12735345705E+03  0.15837653318E+03 -0.15432490305E+03  0.28415348843E+03  0.12500000000E+03 0.  0.
</event>
<event>
 5    0  0.5655767E-005  0.3457168E+03  0.7546771E-02  0.1064387E+00
         21   -1    0    0  502  501  0.00000000000E+00  0.00000000000E+00  0.12415817211E+03  0.12415817211E+03  0.00000000000E+00 0. -1.
         21   -1    0    0  501  502 -0.00000000000E+00 -0.00000000000E+00 -0.96264399108E+03  0.96264399108E+03  0.00000000000E+00 0. -1.
         25    1    1    2    0    0 -0.11759761883E+03  0.22961472852E+03 -0.25445768064E+03  0.38330905904E+03  0.12500000000E+03 0.  0.
         25    1    1    2    0    0  0.13914809805E+03 -0.12875698842E+03 -0.29683640308E+03  0.37373440497E+03  0.12500000000E+03 0.  0.
         25    1    1    2    0    0 -0.21550479221E+02 -0.10085774010E+03 -0.28719173524E+03  0.32975869918E+03  0.12500000000E+03 0.  0.
</event>
<event>
 5    0  0.5655767E-005  0.2275644E+03  0.7546771E-02  0.1128366E+00
         21   -1    0    0  502  501  0.00000000000E+00  0.00000000000E+00  0.12218252711E+03  0.12218252711E+03  0.00000000000E+00 0.  1.
         21   -1    0    0  501  502 -0.00000000000E+00 -0.00000000000E+00 -0.42383782316E+03  0.42383782316E+03  0.00000000000E+00 0.  1.
         25    1    1    2    0    0 -0.81729652935E+02 -0.46225523639E+02 -0.72859482138E+02  0.17248199715E+03  0.12500000000E+03 0.  0.
         25    1    1    2    0    0  0.54951037246E+02  0.83536267003E+00 -0.18708304936E+03  0.23161472683E+03  0.12500000000E+03 0.  0.
         25    1    1    2    0    0  0.26778615689E+02  0.45390160969E+02 -0.41712764551E+02  0.14192362628E+03  0.12500000000E+03 0.  0.
</event>
<event>
 5    0  0.5655767E-005  0.4323428E+03  0.7546771E-02  0.1033122E+00
         21   -1    0    0  502  501  0.00000000000E+00  0.00000000000E+00  0.26073217207E+03  0.26073217207E+03  0.00000000000E+00 0.  1.
         21   -1    0    0  501  502 -0.00000000000E+00 -0.00000000000E+00 -0.71690537894E+03  0.71690537894E+03  0.00000000000E+00 0.  1.
         25    1    1    2    0    0 -0.16871429350E+03 -0.13497522068E+02  0.53156978786E+02  0.21701926257E+03  0.12500000000E+03 0.  0.
         25    1    1    2    0    0  0.13558486908E+03  0.46305931527E+02 -0.57948722933E+03  0.60988355034E+03  0.12500000000E+03 0.  0.
         25    1    1    2    0    0  0.33129424424E+02 -0.32808409459E+02  0.70157043668E+02  0.15073473810E+03  0.12500000000E+03 0.  0.
</event>
<event>
 5    0  0.5655767E-005  0.2804779E+03  0.7546771E-02  0.1095428E+00
         21   -1    0    0  502  501  0.00000000000E+00  0.00000000000E+00  0.46727179317E+02  0.46727179317E+02  0.00000000000E+00 0. -1.
         21   -1    0    0  501  502 -0.00000000000E+00 -0.00000000000E+00 -0.16835561686E+04  0.16835561686E+04  0.00000000000E+00 0. -1.
         25    1    1    2    0    0 -0.25565505917E+02 -0.83435316475E+02 -0.20192145307E+03  0.25300656185E+03  0.12500000000E+03 0.  0.
         25    1    1    2    0    0  0.87066624569E+02 -0.40952048829E+02 -0.51558720489E+03  0.53917792357E+03  0.12500000000E+03 0.  0.
         25    1    1    2    0    0 -0.61501118652E+02  0.12438736530E+03 -0.91932033134E+03  0.93809886252E+03  0.12500000000E+03 0.  0.
</event>
<event>
 5    0  0.5655767E-005  0.2645337E+03  0.7546771E-02  0.1104450E+00
         21   -1    0    0  502  501  0.00000000000E+00  0.00000000000E+00  0.63702673436E+03  0.63702673436E+03  0.00000000000E+00 0.  1.
         21   -1    0    0  501  502 -0.00000000000E+00 -0.00000000000E+00 -0.10985104640E+03  0.10985104640E+03  0.00000000000E+00 0.  1.
         25    1    1    2    0    0 -0.13780598981E+02  0.62225157851E+02  0.70142007998E+02  0.15686547250E+03  0.12500000000E+03 0.  0.
         25    1    1    2    0    0 -0.90119542828E+02  0.61818057293E+02  0.23997845401E+03  0.29181785860E+03  0.12500000000E+03 0.  0.
         25    1    1    2    0    0  0.10390014181E+03 -0.12404321514E+03  0.21705522596E+03  0.29819444966E+03  0.12500000000E+03 0.  0.
</event>
<event>
 5    0  0.5655767E-005  0.2822259E+03  0.7546771E-02  0.1094479E+00
         21   -1    0    0  502  501  0.00000000000E+00  0.00000000000E+00  0.22740770960E+04  0.22740770960E+04  0.00000000000E+00 0.  1.
         21   -1    0    0  501  502 -0.00000000000E+00 -0.00000000000E+00 -0.35025828259E+02  0.35025828259E+02  0.00000000000E+00 0.  1.
         25    1    1    2    0    0 -0.38840178298E+02 -0.15143272784E+03  0.87379524852E+03  0.89642822738E+03  0.12500000000E+03 0.  0.
         25    1    1    2    0    0  0.25215331978E+02  0.47299194698E+02  0.10388506066E+04  0.10477159012E+04  0.12500000000E+03 0.  0.
         25    1    1    2    0    0  0.13624846320E+02  0.10413353314E+03  0.32640541268E+03  0.36495879574E+03  0.12500000000E+03 0.  0.
</event>
<event>
 5    0  0.5655767E-005  0.2610200E+03  0.7546771E-02  0.1106532E+00
         21   -1    0    0  502  501  0.00000000000E+00  0.00000000000E+00  0.77540507657E+03  0.77540507657E+03  0.00000000000E+00 0. -1.
         21   -1    0    0  501  502 -0.00000000000E+00 -0.00000000000E+00 -0.87865581999E+02  0.87865581999E+02  0.00000000000E+00 0. -1.
         25    1    1    2    0    0  0.52956907442E+02 -0.15601526762E+03  0.34015541544E+03  0.39809032195E+03  0.12500000000E+03 0.  0.
         25    1    1    2    0    0 -0.23191593826E+01  0.81595761965E+02  0.12530567920E+03  0.19490962036E+03  0.12500000000E+03 0.  0.
         25    1    1    2    0    0 -0.50637748060E+02  0.74419505650E+02  0.22207839993E+03  0.27027071625E+03  0.12500000000E+03 0.  0.
</event>
<event>
 5    0  0.5655767E-005  0.3052821E+03  0.7546771E-02  0.1082630E+00
         21   -1    0    0  502  501  0.00000000000E+00  0.00000000000E+00  0.77067953873E+03  0.77067953873E+03  0.00000000000E+00 0. -1.
         21   -1    0    0  501  502 -0.00000000000E+00 -0.00000000000E+00 -0.12092851297E+03  0.12092851297E+03  0.00000000000E+00 0. -1.
         25    1    1    2    0    0  0.12359951946E+02  0.20570955559E+03  0.26066029728E+03  0.35501828157E+03  0.12500000000E+03 0.  0.
         25    1    1    2    0    0 -0.18179714021E+02 -0.20801712516E+03  0.27518448407E+03  0.36735966931E+03  0.12500000000E+03 0.  0.
         25    1    1    2    0    0  0.58197620750E+01  0.23075695690E+01  0.11390624442E+03  0.16923010082E+03  0.12500000000E+03 0.  0.
</event>
<event>
 5    0  0.5655767E-005  0.2797611E+03  0.7546771E-02  0.1095819E+00
         21   -1    0    0  502  501  0.00000000000E+00  0.00000000000E+00  0.25157992578E+03  0.25157992578E+03  0.00000000000E+00 0.  1.
         21   -1    0    0  501  502 -0.00000000000E+00 -0.00000000000E+00 -0.31109905253E+03  0.31109905253E+03  0.00000000000E+00 0.  1.
         25    1    1    2    0    0  0.39600673850E+02  0.36382974297E+02 -0.17199562799E+03  0.21931582304E+03  0.12500000000E+03 0.  0.
         25    1    1    2    0    0  0.86133227552E+01 -0.88111319457E+02  0.12705180936E+03  0.19900993997E+03  0.12500000000E+03 0.  0.
         25    1    1    2    0    0 -0.48213996605E+02  0.51728345160E+02 -0.14575308118E+02  0.14435321530E+03  0.12500000000E+03 0.  0.
</event>
<event>
 5    0  0.5655767E-005  0.3023269E+03  0.7546771E-02  0.1084083E+00
         21   -1    0    0  502  501  0.00000000000E+00  0.00000000000E+00  0.33288713319E+03  0.33288713319E+03  0.00000000000E+00 0. -1.
         21   -1    0    0  501  502 -0.00000000000E+00 -0.00000000000E+00 -0.27457225015E+03  0.27457225015E+03  0.00000000000E+00 0. -1.
         25    1    1    2    0    0  0.20178936045E+03  0.33107236034E+02 -0.20081894526E+02  0.24050637737E+03  0.12500000000E+03 0.  0.
         25    1    1    2    0    0 -0.17156229213E+03 -0.40345465958E+01  0.97681917630E+02  0.23370206392E+03  0.12500000000E+03 0.  0.
         25    1    1    2    0    0 -0.30227068318E+02 -0.29072689438E+02 -0.19285140062E+02  0.13325094205E+03  0.12500000000E+03 0.  0.
</event>
<event>
 5    0  0.5655767E-005  0.2321951E+03  0.7546771E-02  0.1125104E+00
         21   -1    0    0  502  501  0.00000000000E+00  0.00000000000E+00  0.33583385622E+04  0.33583385622E+04  0.00000000000E+00 0. -1.
         21   -1    0    0  501  502 -0.00000000000E+00 -0.00000000000E+00 -0.16053935717E+02  0.16053935717E+02  0.00000000000E+00 0. -1.
         25    1    1    2    0    0 -0.23331588579E+01  0.90290875740E+01  0.58191774535E+03  0.59526484055E+03  0.12500000000E+03 0.  0.
         25    1    1    2    0    0  0.88535082366E+02 -0.29086161568E+02  0.99650262372E+03  0.10086262661E+04  0.12500000000E+03 0.  0.
         25    1    1    2    0    0 -0.86201923508E+02  0.20057073994E+02  0.17638642574E+04  0.17705013913E+04  0.12500000000E+03 0.  0.
</event>
<event>
 5    0  0.5655767E-005  0.3648535E+03  0.7546771E-02  0.1056678E+00
         21   -1    0    0  502  501  0.00000000000E+00  0.00000000000E+00  0.34653850937E+03  0.34653850937E+03  0.00000000000E+00 0.  1.
         21   -1    0    0  501  502 -0.00000000000E+00 -0.00000000000E+00 -0.38413644298E+03  0.38413644298E+03  0.00000000000E+00 0.  1.
         25    1    1    2    0    0 -0.11769858037E+03 -0.11259364529E+03  0.26812835933E+02  0.20706089189E+03  0.12500000000E+03 0.  0.
         25    1    1    2    0    0  0.25726142891E+03  0.38678529054E+02 -0.12316927966E+03  0.31380749332E+03  0.12500000000E+03 0.  0.
         25    1    1    2    0    0 -0.13956284854E+03  0.73915116234E+02  0.58758510118E+02  0.20980656713E+03  0.12500000000E+03 0.  0.
</event>
<event>
 5    0  0.5655767E-005  0.2215868E+03  0.7546771E-02  0.1132706E+00
         21   -1    0    0  502  501  0.00000000000E+00  0.00000000000E+00  0.17921744166E+03  0.17921744166E+03  0.00000000000E+00 0.  1.
         21   -1    0    0  501  502 -0.00000000000E+00 -0.00000000000E+00 -0.27397274478E+03  0.27397274478E+03  0.00000000000E+00 0.  1.
         25    1    1    2    0    0  0.29007679388E+02  0.54532991753E+02 -0.31757504122E+02  0.14299941161E+03  0.12500000000E+03 0.  0.
         25    1    1    2    0    0 -0.62270567443E+01  0.53298598686E+02 -0.15535067387E+02  0.13691550378E+03  0.12500000000E+03 0.  0.
         25    1    1    2    0    0 -0.22780622644E+02 -0.10783159044E+03 -0.47462731609E+02  0.17327527105E+03  0.12500000000E+03 0.  0.
</event>
<event>
 5    0  0.5655767E-005  0.3796875E+03  0.7546771E-02  0.1051049E+00
         21   -1    0    0  502  501  0.00000000000E+00  0.00000000000E+00  0.13227040464E+03  0.13227040464E+03  0.00000000000E+00 0.  1.
         21   -1    0    0  501  502 -0.00000000000E+00 -0.00000000000E+00 -0.10899082124E+04  0.10899082124E+04  0.00000000000E+00 0.  1.
         25    1    1    2    0    0  0.86670712776E+02 -0.40144014904E+02 -0.68168575364E+02  0.17145060237E+03  0.12500000000E+03 0.  0.
         25    1    1    2    0    0  0.18150203346E+03 -0.82006266957E+02 -0.44051301250E+03  0.49934430021E+03  0.12500000000E+03 0.  0.
         25    1    1    2    0    0 -0.26817274624E+03  0.12215028186E+03 -0.44895621990E+03  0.55138371446E+03  0.12500000000E+03 0.  0.
</event>
<event>
 5    0  0.5655767E-005  0.2631306E+03  0.7546771E-02  0.1105277E+00
         21   -1    0    0  502  501  0.00000000000E+00  0.00000000000E+00  0.88491929665E+03  0.88491929665E+03  0.00000000000E+00 0.  1.
         21   -1    0    0  501  502 -0.00000000000E+00 -0.00000000000E+00 -0.78241859233E+02  0.78241859233E+02  0.00000000000E+00 0.  1.
         25    1    1    2    0    0 -0.10207467715E+03  0.93611224167E+02  0.16984218994E+03  0.25229679048E+03  0.12500000000E+03 0.  0.
         25    1    1    2    0    0  0.11240307254E+03 -0.41973960248E+02  0.28185801521E+03  0.33085526261E+03  0.12500000000E+03 0.  0.
         25    1    1    2    0    0 -0.10328395392E+02 -0.51637263919E+02  0.35497723227E+03  0.38000910279E+03  0.12500000000E+03 0.  0.
</event>
<event>
 5    0  0.5655767E-005  0.2524276E+03  0.7546771E-02  0.1111780E+00
         21   -1    0    0  502  501  0.00000000000E+00  0.00000000000E+00  0.90374823946E+03  0.90374823946E+03  0.00000000000E+00 0. -1.
         21   -1    0    0  501  502 -0.00000000000E+00 -0.00000000000E+00 -0.70506013060E+02  0.70506013060E+02  0.00000000000E+00 0. -1.
         25    1    1    2    0    0 -0.81791601541E+02 -0.17563019403E+02  0.34821837566E+03  0.37931433255E+03  0.12500000000E+03 0.  0.
         25    1    1    2    0    0  0.12252279048E+03  0.41792836234E+02  0.15014861935E+03  0.23436741079E+03  0.12500000000E+03 0.  0.
         25    1    1    2    0    0 -0.40731188937E+02 -0.24229816831E+02  0.33487523139E+03  0.36057250918E+03  0.12500000000E+03 0.  0.
</event>
<event>
 5    0  0.5655767E-005  0.2538964E+03  0.7546771E-02  0.1110867E+00
         21   -1    0    0  502  501  0.00000000000E+00  0.00000000000E+00  0.50473265604E+02  0.50473265604E+02  0.00000000000E+00 0.  1.
         21   -1    0    0  501  502 -0.00000000000E+00 -0.00000000000E+00 -0.12771790836E+04  0.12771790836E+04  0.00000000000E+00 0.  1.
         25    1    1    2    0    0  0.14067207047E+03 -0.12367545863E+00 -0.33825704721E+03  0.38708071083E+03  0.12500000000E+03 0.  0.
         25    1    1    2    0    0 -0.82426315630E+02  0.23699195221E+02 -0.30516556356E+03  0.34074443583E+03  0.12500000000E+03 0.  0.
         25    1    1    2    0    0 -0.58245754844E+02 -0.23575519763E+02 -0.58328320719E+03  0.59982720252E+03  0.12500000000E+03 0.  0.
</event>
<event>
 5    0  0.5655767E-005  0.1999447E+03  0.7546771E-02  0.1149786E+00
         21   -1    0    0  502  501  0.00000000000E+00  0.00000000000E+00  0.87600579089E+02  0.87600579089E+02  0.00000000000E+00 0. -1.
         21   -1    0    0  501  502 -0.00000000000E+00 -0.00000000000E+00 -0.45636530704E+03  0.45636530704E+03  0.00000000000E+00 0. -1.
         25    1    1    2    0    0  0.47861069273E+02  0.36427605503E+02 -0.11540666760E+03  0.18044764149E+03  0.12500000000E+03 0.  0.
         25    1    1    2    0    0 -0.43171241039E+02 -0.27302075039E+02 -0.12375317428E+03  0.18316388153E+03  0.12500000000E+03 0.  0.
         25    1    1    2    0    0 -0.46898282339E+01 -0.91255304642E+01 -0.12960488607E+03  0.18035436310E+03  0.12500000000E+03 0.  0.
</event>
<event>
 5    0  0.6217452E-005  0.2469786E+03  0.7546771E-02  0.1115229E+00
         21   -1    0    0  502  501  0.00000000000E+00  0.00000000000E+00  0.10495629430E+03  0.10495629430E+03  0.00000000000E+00 0. -1.
         21   -1    0    0  501  502 -0.00000000000E+00 -0.00000000000E+00 -0.58117928639E+03  0.58117928639E+03  0.00000000000E+00 0. -1.
         25    1    1    2    0    0  0.93366640563E+02  0.46274154663E+01 -0.46719979748E+02  0.16293096407E+03  0.12500000000E+03 0.  0.
         25    1    1    2    0    0 -0.11657203338E+03 -0.27216252785E+01 -0.26371218244E+03  0.31426988621E+03  0.12500000000E+03 0.  0.
         25    1    1    2    0    0  0.23205392816E+02 -0.19057901878E+01 -0.16579082991E+03  0.20893473041E+03  0.12500000000E+03 0.  0.
</event>
<event>
 5    0  0.5655767E-005  0.3446083E+03  0.7546771E-02  0.1064850E+00
         21   -1    0    0  502  501  0.00000000000E+00  0.00000000000E+00  0.13084560413E+04  0.13084560413E+04  0.00000000000E+00 0. -1.
         21   -1    0    0  501  502 -0.00000000000E+00 -0.00000000000E+00 -0.90759559285E+02  0.90759559285E+02  0.00000000000E+00 0. -1.
         25    1    1    2    0    0  0.11537815427E+02  0.91861886106E+02  0.84900858236E+03  0.86314095038E+03  0.12500000000E+03 0.  0.
         25    1    1    2    0    0  0.19964464938E+02  0.97577878119E+02  0.14323734800E+03  0.21462050233E+03  0.12500000000E+03 0.  0.
         25    1    1    2    0    0 -0.31502280364E+02 -0.18943976422E+03  0.22545055162E+03  0.32145414784E+03  0.12500000000E+03 0.  0.
</event>
<event>
 5    0  0.5655767E-005  0.2505843E+03  0.7546771E-02  0.1112936E+00
         21   -1    0    0  502  501  0.00000000000E+00  0.00000000000E+00  0.55245544345E+03  0.55245544345E+03  0.00000000000E+00 0.  1.
         21   -1    0    0  501  502 -0.00000000000E+00 -0.00000000000E+00 -0.11366071610E+03  0.11366071610E+03  0.00000000000E+00 0.  1.
         25    1    1    2    0    0 -0.48189465036E+02 -0.64740923731E+02  0.33235519890E+03  0.36414089304E+03  0.12500000000E+03 0.  0.
         25    1    1    2    0    0  0.74807215306E+02  0.19426641628E+02  0.57629443019E+02  0.15785964199E+03  0.12500000000E+03 0.  0.
         25    1    1    2    0    0 -0.26617750270E+02  0.45314282103E+02  0.48810085427E+02  0.14411562452E+03  0.12500000000E+03 0.  0.
</event>
<event>
 5    0  0.5655767E-005  0.2499913E+03  0.7546771E-02  0.1113310E+00
         21   -1    0    0  502  501  0.00000000000E+00  0.00000000000E+00  0.17646678032E+04  0.17646678032E+04  0.00000000000E+00 0.  1.
         21   -1    0    0  501  502 -0.00000000000E+00 -0.00000000000E+00 -0.35414959996E+02  0.35414959996E+02  0.00000000000E+00 0.  1.
         25    1    1    2    0    0  0.15666693748E+01 -0.46490956187E+01  0.75236164827E+03  0.76269070949E+03  0.12500000000E+03 0.  0.
         25    1    1    2    0    0 -0.21355501696E+01 -0.11851147334E+03  0.43841914112E+03  0.47104763367E+03  0.12500000000E+03 0.  0.
         25    1    1    2    0    0  0.56888079477E+00  0.12316056896E+03  0.53847205376E+03  0.56634441999E+03  0.12500000000E+03 0.  0.
</event>
<event>
 5    0  0.5655767E-005  0.3259765E+03  0.7546771E-02  0.1072931E+00
         21   -1    0    0  502  501  0.00000000000E+00  0.00000000000E+00  0.10942950042E+04  0.10942950042E+04  0.00000000000E+00 0.  1.
         21   -1    0    0  501  502 -0.00000000000E+00 -0.00000000000E+00 -0.97104256343E+02  0.97104256343E+02  0.00000000000E+00 0.  1.
         25    1    1    2    0    0 -0.13038948429E+03  0.53121398159E+02  0.82614820547E+03  0.84733060723E+03  0.12500000000E+03 0.  0.
         25    1    1    2    0    0  0.29362984767E+02 -0.19377833208E+02  0.10525414903E+03  0.16715597860E+03  0.12500000000E+03 0.  0.
         25    1    1    2    0    0  0.10102649952E+03 -0.33743564951E+02  0.65788393397E+02  0.17691267475E+03  0.12500000000E+03 0.  0.
</event>
<event>
 5    0  0.5655767E-005  0.4275918E+03  0.7546771E-02  0.1034623E+00
         21   -1    0    0  502  501  0.00000000000E+00  0.00000000000E+00  0.90889731293E+03  0.90889731293E+03  0.00000000000E+00 0. -1.
         21   -1    0    0  501  502 -0.00000000000E+00 -0.00000000000E+00 -0.20116108816E+03  0.20116108816E+03  0.00000000000E+00 0. -1.
         25    1    1    2    0    0  0.82424377319E+02  0.94627172512E+02  0.12495844662E+03  0.21676644836E+03  0.12500000000E+03 0.  0.
         25    1    1    2    0    0  0.12240276126E+02 -0.29550203261E+03  0.81976897580E+02  0.33138570786E+03  0.12500000000E+03 0.  0.
         25    1    1    2    0    0 -0.94664653444E+02  0.20087486010E+03  0.50080088058E+03  0.56190624486E+03  0.12500000000E+03 0.  0.
</event>
<event>
 5    0  0.5655767E-005  0.2856893E+03  0.7546771E-02  0.1092622E+00
         21   -1    0    0  502  501  0.00000000000E+00  0.00000000000E+00  0.20678113140E+04  0.20678113140E+04  0.00000000000E+00 0. -1.
         21   -1    0    0  501  502 -0.00000000000E+00 -0.00000000000E+00 -0.39470902479E+02  0.39470902479E+02  0.00000000000E+00 0. -1.
         25    1    1    2    0    0  0.11129780057E+02 -0.29180724467E+02  0.10309857383E+04  0.10390052835E+04  0.12500000000E+03 0.  0.
         25    1    1    2    0    0 -0.28528565599E+02  0.74534431905E+02  0.15204601567E+03  0.21239644883E+03  0.12500000000E+03 0.  0.
         25    1    1    2    0    0  0.17398785542E+02 -0.45353707438E+02  0.84530865765E+03  0.85588048418E+03  0.12500000000E+03 0.  0.
</event>
<event>
 5    0  0.5655767E-005  0.2183632E+03  0.7546771E-02  0.1135109E+00
         21   -1    0    0  502  501  0.00000000000E+00  0.00000000000E+00  0.20647867019E+02  0.20647867019E+02  0.00000000000E+00 0. -1.
         21   -1    0    0  501  502 -0.00000000000E+00 -0.00000000000E+00 -0.23093176404E+04  0.23093176404E+04  0.00000000000E+00 0. -1.
         25    1    1    2    0    0  0.48707126107E+02  0.17974055411E+02 -0.12130736265E+04  0.12206015214E+04  0.12500000000E+03 0.  0.
         25    1    1    2    0    0 -0.19967611890E+02 -0.22640562144E+02 -0.71818811374E+03  0.72960980482E+03  0.12500000000E+03 0.  0.
         25    1    1    2    0    0 -0.28739514217E+02  0.46665067330E+01 -0.35740803319E+03  0.37975418122E+03  0.12500000000E+03 0.  0.
</event>
<event>
 5    0  0.5655767E-005  0.2828515E+03  0.7546771E-02  0.1094142E+00
         21   -1    0    0  502  501  0.00000000000E+00  0.00000000000E+00  0.18642717683E+03  0.18642717683E+03  0.00000000000E+00 0. -1.
         21   -1    0    0  501  502 -0.00000000000E+00 -0.00000000000E+00 -0.42914871509E+03  0.42914871509E+03  0.00000000000E+00 0. -1.
         25    1    1    2    0    0  0.33887215290E+01 -0.98820610513E+02 -0.25235897511E+03  0.29847453629E+03  0.12500000000E+03 0.  0.
         25    1    1    2    0    0  0.69857722193E+02  0.94399568966E+02 -0.36132885616E+01  0.17155009713E+03  0.12500000000E+03 0.  0.
         25    1    1    2    0    0 -0.73246443722E+02  0.44210415466E+01  0.13250725405E+02  0.14555125850E+03  0.12500000000E+03 0.  0.
</event>
<event>
 5    0  0.5655767E-005  0.3557150E+03  0.7546771E-02  0.1060294E+00
         21   -1    0    0  502  501  0.00000000000E+00  0.00000000000E+00  0.43190187168E+03  0.43190187168E+03  0.00000000000E+00 0. -1.
         21   -1    0    0  501  502 -0.00000000000E+00 -0.00000000000E+00 -0.29296731659E+03  0.29296731659E+03  0.00000000000E+00 0. -1.
         25    1    1    2    0    0 -0.28517023466E+02  0.31204671111E+02  0.18791019280E+03  0.22961313701E+03  0.12500000000E+03 0.  0.
         25    1    1    2    0    0 -0.13896545022E+03  0.13072555280E+03 -0.13282705425E+02  0.22847756295E+03  0.12500000000E+03 0.  0.
         25    1    1    2    0    0  0.16748247368E+03 -0.16193022391E+03 -0.35692932294E+02  0.26677848831E+03  0.12500000000E+03 0.  0.
</event>
<event>
 5    0  0.5655767E-005  0.3707329E+03  0.7546771E-02  0.1054413E+00
         21   -1    0    0  502  501  0.00000000000E+00  0.00000000000E+00  0.17106820923E+04  0.17106820923E+04  0.00000000000E+00 0. -1.
         21   -1    0    0  501  502 -0.00000000000E+00 -0.00000000000E+00 -0.80343906341E+02  0.80343906341E+02  0.00000000000E+00 0. -1.
         25    1    1    2    0    0  0.43777629283E+02  0.16934506220E+03  0.66525842054E+03  0.69913374759E+03  0.12500000000E+03 0.  0.
         25    1    1    2    0    0  0.16110572101E+03 -0.15433444795E+03  0.36731421416E+03  0.44757000245E+03  0.12500000000E+03 0.  0.
         25    1    1    2    0    0 -0.20488335030E+03 -0.15010614252E+02  0.59776555121E+03  0.64432224856E+03  0.12500000000E+03 0.  0.
</event>
<event>
 5    0  0.5655767E-005  0.2404379E+03  0.7546771E-02  0.1119501E+00
         21   -1    0    0  502  501  0.00000000000E+00  0.00000000000E+00  0.10679441217E+04  0.10679441217E+04  0.00000000000E+00 0. -1.
         21   -1    0    0  501  502 -0.00000000000E+00 -0.00000000000E+00 -0.54132419221E+02  0.54132419221E+02  0.00000000000E+00 0. -1.
         25    1    1    2    0    0 -0.84362619281E+02 -0.71482353539E+02  0.23759252018E+03  0.29034803951E+03  0.12500000000E+03 0.  0.
         25    1    1    2    0    0  0.60468480108E+02  0.76696723230E+02  0.30742357897E+03  0.34593797326E+03  0.12500000000E+03 0.  0.
         25    1    1    2    0    0  0.23894139173E+02 -0.52143696904E+01  0.46879560333E+03  0.48579052815E+03  0.12500000000E+03 0.  0.
</event>
<event>
 5    0  0.5655767E-005  0.2244881E+03  0.7546771E-02  0.1130581E+00
         21   -1    0    0  502  501  0.00000000000E+00  0.00000000000E+00  0.65395325487E+02  0.65395325487E+02  0.00000000000E+00 0. -1.
         21   -1    0    0  501  502 -0.00000000000E+00 -0.00000000000E+00 -0.77061918578E+03  0.77061918578E+03  0.00000000000E+00 0. -1.
         25    1    1    2    0    0 -0.76117145056E+02  0.20853788180E+02 -0.12652972070E+03  0.19458538093E+03  0.12500000000E+03 0.  0.
         25    1    1    2    0    0 -0.46948492257E-01 -0.51609058881E+01 -0.32302456376E+03  0.34640511825E+03  0.12500000000E+03 0.  0.
         25    1    1    2    0    0  0.76164093548E+02 -0.15692882292E+02 -0.25566957583E+03  0.29502401208E+03  0.12500000000E+03 0.  0.
</event>
<event>
 5    0  0.5655767E-005  0.2502127E+03  0.7546771E-02  0.1113170E+00
         21   -1    0    0  502  501  0.00000000000E+00  0.00000000000E+00  0.19568592584E+03  0.19568592584E+03  0.00000000000E+00 0. -1.
         21   -1    0    0  501  502 -0.00000000000E+00 -0.00000000000E+00 -0.31993309590E+03  0.31993309590E+03  0.00000000000E+00 0. -1.
         25    1    1    2    0    0 -0.55652011193E+02  0.14957886494E+02  0.45903442687E+02  0.14509655671E+03  0.12500000000E+03 0.  0.
         25    1    1    2    0    0  0.92307553503E+02  0.47632510868E+01 -0.16974520444E+00  0.15546189825E+03  0.12500000000E+03 0.  0.
         25    1    1    2    0    0 -0.36655542310E+02 -0.19721137581E+02 -0.16998086755E+03  0.21506056677E+03  0.12500000000E+03 0.  0.
</event>
<event>
 5    0  0.5655767E-005  0.2380698E+03  0.7546771E-02  0.1121085E+00
         21   -1    0    0  502  501  0.00000000000E+00  0.00000000000E+00  0.33666590870E+02  0.33666590870E+02  0.00000000000E+00 0.  1.
         21   -1    0    0  501  502 -0.00000000000E+00 -0.00000000000E+00 -0.16834855005E+04  0.16834855005E+04  0.00000000000E+00 0.  1.
         25    1    1    2    0    0 -0.39231074057E+02 -0.15705235141E+02 -0.22516859307E+03  0.26098204323E+03  0.12500000000E+03 0.  0.
         25    1    1    2    0    0  0.68424093729E+02  0.51365259991E+02 -0.99120252852E+03  0.10027101770E+04  0.12500000000E+03 0.  0.
         25    1    1    2    0    0 -0.29193019672E+02 -0.35660024850E+02 -0.43344778807E+03  0.45345987116E+03  0.12500000000E+03 0.  0.
</event>
<event>
 5    0  0.5655767E-005  0.3603175E+03  0.7546771E-02  0.1058458E+00
         21   -1    0    0  502  501  0.00000000000E+00  0.00000000000E+00  0.10021486356E+04  0.10021486356E+04  0.00000000000E+00 0. -1.
         21   -1    0    0  501  502 -0.00000000000E+00 -0.00000000000E+00 -0.12955035134E+03  0.12955035134E+03  0.00000000000E+00 0.  1.
         25    1    1    2    0    0 -0.10414694156E+03  0.16662687266E+03  0.23537385609E+03  0.33111471163E+03  0.12500000000E+03 0.  0.
         25    1    1    2    0    0 -0.10312092337E+03  0.29631709287E+02  0.29399609326E+03  0.33700247163E+03  0.12500000000E+03 0.  0.
         25    1    1    2    0    0  0.20726786493E+03 -0.19625858195E+03  0.34322833490E+03  0.46358180368E+03  0.12500000000E+03 0.  0.
</event>
<event>
 5    0  0.5655767E-005  0.3335781E+03  0.7546771E-02  0.1069565E+00
         21   -1    0    0  502  501  0.00000000000E+00  0.00000000000E+00  0.14855546915E+04  0.14855546915E+04  0.00000000000E+00 0. -1.
         21   -1    0    0  501  502 -0.00000000000E+00 -0.00000000000E+00 -0.74904237334E+02  0.74904237334E+02  0.00000000000E+00 0. -1.
         25    1    1    2    0    0  0.15847822581E+03  0.92205393985E+02  0.60204004624E+03  0.64163416369E+03  0.12500000000E+03 0.  0.
         25    1    1    2    0    0  0.47608292451E+01  0.34229752255E+02  0.54997500883E+03  0.56505915776E+03  0.12500000000E+03 0.  0.
         25    1    1    2    0    0 -0.16323905506E+03 -0.12643514624E+03  0.25863539910E+03  0.35376560739E+03  0.12500000000E+03 0.  0.
</event>
<event>
 5    0  0.5655767E-005  0.2992524E+03  0.7546771E-02  0.1085615E+00
         21   -1    0    0  502  501  0.00000000000E+00  0.00000000000E+00  0.33619349513E+02  0.33619349513E+02  0.00000000000E+00 0.  1.
         21   -1    0    0  501  502 -0.00000000000E+00 -0.00000000000E+00 -0.26637040519E+04  0.26637040519E+04  0.00000000000E+00 0.  1.
         25    1    1    2    0    0 -0.11370574265E+03 -0.36044081009E+02 -0.28196014120E+03  0.33068821103E+03  0.12500000000E+03 0.  0.
         25    1    1    2    0    0  0.68036904992E+02 -0.24735264598E+02 -0.13763003884E+04  0.13838600410E+04  0.12500000000E+03 0.  0.
         25    1    1    2    0    0  0.45668837657E+02  0.60779345607E+02 -0.97182417269E+03  0.98277514937E+03  0.12500000000E+03 0.  0.
</event>
<event>
 5    0  0.5655767E-005  0.5562306E+03  0.7546771E-02  0.1000062E+00
         21   -1    0    0  502  501  0.00000000000E+00  0.00000000000E+00  0.17270149293E+04  0.17270149293E+04  0.00000000000E+00 0.  1.
         21   -1    0    0  501  502 -0.00000000000E+00 -0.00000000000E+00 -0.17914870587E+03  0.17914870587E+03  0.00000000000E+00 0.  1.
         25    1    1    2    0    0 -0.82971922203E+02  0.16342435304E+02 -0.41039619258E+02  0.15639905823E+03  0.12500000000E+03 0.  0.
         25    1    1    2    0    0  0.15423745703E+03 -0.30749644005E+03  0.54495627055E+03  0.65646446256E+03  0.12500000000E+03 0.  0.
         25    1    1    2    0    0 -0.71265534825E+02  0.29115400475E+03  0.10439495721E+04  0.10933001143E+04  0.12500000000E+03 0.  0.
</event>
<event>
 5    0  0.5655767E-005  0.2354688E+03  0.7546771E-02  0.1122849E+00
         21   -1    0    0  502  501  0.00000000000E+00  0.00000000000E+00  0.32033795398E+03  0.32033795398E+03  0.00000000000E+00 0. -1.
         21   -1    0    0  501  502 -0.00000000000E+00 -0.00000000000E+00 -0.17308463805E+03  0.17308463805E+03  0.00000000000E+00 0. -1.
         25    1    1    2    0    0 -0.29729930275E+02  0.98809120634E+02  0.33609638248E+02  0.16553464549E+03  0.12500000000E+03 0.  0.
         25    1    1    2    0    0  0.86849243967E+02 -0.35737887982E+02  0.57287417260E+02  0.16651377118E+03  0.12500000000E+03 0.  0.
         25    1    1    2    0    0 -0.57119313692E+02 -0.63071232652E+02  0.56356260426E+02  0.16137417536E+03  0.12500000000E+03 0.  0.
</event>
<event>
 5    0  0.5655767E-005  0.2219732E+03  0.7546771E-02  0.1132420E+00
         21   -1    0    0  502  501  0.00000000000E+00  0.00000000000E+00  0.39165946197E+03  0.39165946197E+03  0.00000000000E+00 0. -1.
         21   -1    0    0  501  502 -0.00000000000E+00 -0.00000000000E+00 -0.12580338780E+03  0.12580338780E+03  0.00000000000E+00 0. -1.
         25    1    1    2    0    0  0.43362616467E+02 -0.40800032345E+02  0.12046492181E+03  0.18352590153E+03  0.12500000000E+03 0.  0.
         25    1    1    2    0    0 -0.58775858258E+02  0.90300548823E+02  0.72789971654E+02  0.18036676691E+03  0.12500000000E+03 0.  0.
         25    1    1    2    0    0  0.15413241791E+02 -0.49500516478E+02  0.72601180700E+02  0.15357018133E+03  0.12500000000E+03 0.  0.
</event>
<event>
 5    0  0.5655767E-005  0.3011961E+03  0.7546771E-02  0.1084644E+00
         21   -1    0    0  502  501  0.00000000000E+00  0.00000000000E+00  0.70355203852E+03  0.70355203852E+03  0.00000000000E+00 0. -1.
         21   -1    0    0  501  502 -0.00000000000E+00 -0.00000000000E+00 -0.12894440235E+03  0.12894440235E+03  0.00000000000E+00 0. -1.
         25    1    1    2    0    0  0.13280109530E+03 -0.36337365481E+02  0.10289219808E+03  0.21252844390E+03  0.12500000000E+03 0.  0.
         25    1    1    2    0    0  0.46691255691E+01 -0.10879167618E+03  0.17620460191E+03  0.24193075719E+03  0.12500000000E+03 0.  0.
         25    1    1    2    0    0 -0.13747022087E+03  0.14512904166E+03  0.29551083618E+03  0.37803723978E+03  0.12500000000E+03 0.  0.
</event>
<event>
 5    0  0.5655767E-005  0.2684475E+03  0.7546771E-02  0.1102171E+00
         21   -1    0    0  502  501  0.00000000000E+00  0.00000000000E+00  0.32416949448E+04  0.32416949448E+04  0.00000000000E+00 0. -1.
         21   -1    0    0  501  502 -0.00000000000E+00 -0.00000000000E+00 -0.22230361869E+02  0.22230361869E+02  0.00000000000E+00 0. -1.
         25    1    1    2    0    0  0.38948423386E+02 -0.53552285358E+02  0.21548726649E+04  0.21595105994E+04  0.12500000000E+03 0.  0.
         25    1    1    2    0    0 -0.31167460000E+02  0.96823389311E+02  0.56213934885E+03  0.58478357262E+03  0.12500000000E+03 0.  0.
         25    1    1    2    0    0 -0.77809633862E+01 -0.43271103953E+02  0.50245256920E+03  0.51963113467E+03  0.12500000000E+03 0.  0.
</event>
<event>
 5    0  0.5655767E-005  0.4663635E+03  0.7546771E-02  0.1022952E+00
         21   -1    0    0  502  501  0.00000000000E+00  0.00000000000E+00  0.28440976677E+03  0.28440976677E+03  0.00000000000E+00 0. -1.
         21   -1    0    0  501  502 -0.00000000000E+00 -0.00000000000E+00 -0.76472365761E+03  0.76472365761E+03  0.00000000000E+00 0. -1.
         25    1    1    2    0    0  0.82426713832E+02 -0.11969903570E+03 -0.21468488747E+03  0.28781352158E+03  0.12500000000E+03 0.  0.
         25    1    1    2    0    0 -0.30976961995E+03  0.23534780976E+03 -0.24518308691E+03  0.47653494637E+03  0.12500000000E+03 0.  0.
         25    1    1    2    0    0  0.22734290612E+03 -0.11564877407E+03 -0.20445916458E+02  0.28478495643E+03  0.12500000000E+03 0.  0.
</event>
<event>
 5    0  0.6122791E-005  0.3548722E+03  0.7546771E-02  0.1060633E+00
         21   -1    0    0  502  501  0.00000000000E+00  0.00000000000E+00  0.38950578137E+03  0.38950578137E+03  0.00000000000E+00 0. -1.
         21   -1    0    0  501  502 -0.00000000000E+00 -0.00000000000E+00 -0.32331817006E+03  0.32331817006E+03  0.00000000000E+00 0.  1.
         25    1    1    2    0    0  0.57886919256E+02  0.59444141446E+02 -0.17172578627E+03  0.22803343405E+03  0.12500000000E+03 0.  0.
         25    1    1    2    0    0  0.10295881175E+03  0.56314010517E+02  0.16857546029E+03  0.24044639841E+03  0.12500000000E+03 0.  0.
         25    1    1    2    0    0 -0.16084573101E+03 -0.11575815196E+03  0.69337937284E+02  0.24434411897E+03  0.12500000000E+03 0.  0.
</event>
<event>
 5    0  0.5655767E-005  0.2343354E+03  0.7546771E-02  0.1123625E+00
         21   -1    0    0  502  501  0.00000000000E+00  0.00000000000E+00  0.18631143016E+03  0.18631143016E+03  0.00000000000E+00 0.  1.
         21   -1    0    0  501  502 -0.00000000000E+00 -0.00000000000E+00 -0.29473799845E+03  0.29473799845E+03  0.00000000000E+00 0.  1.
         25    1    1    2    0    0 -0.11903822181E+03 -0.15504069742E+02 -0.11433437166E+02  0.17368419017E+03  0.12500000000E+03 0.  0.
         25    1    1    2    0    0  0.99501554180E+02  0.24204767980E+02 -0.31486164591E+02  0.16462930674E+03  0.12500000000E+03 0.  0.
         25    1    1    2    0    0  0.19536667631E+02 -0.87006982376E+01 -0.65506966539E+02  0.14273593170E+03  0.12500000000E+03 0.  0.
</event>
<event>
 5    0  0.5655767E-005  0.2609204E+03  0.7546771E-02  0.1106592E+00
         21   -1    0    0  502  501  0.00000000000E+00  0.00000000000E+00  0.45568243714E+03  0.45568243714E+03  0.00000000000E+00 0. -1.
         21   -1    0    0  501  502 -0.00000000000E+00 -0.00000000000E+00 -0.14940105665E+03  0.14940105665E+03  0.00000000000E+00 0. -1.
         25    1    1    2    0    0  0.50919295711E+02 -0.10417469851E+03  0.12308015705E+03  0.21028282751E+03  0.12500000000E+03 0.  0.
         25    1    1    2    0    0 -0.73374467341E+01  0.28167871897E+02 -0.30749882343E+02  0.13197659791E+03  0.12500000000E+03 0.  0.
         25    1    1    2    0    0 -0.43581848977E+02  0.76006826610E+02  0.21395110578E+03  0.26282406837E+03  0.12500000000E+03 0.  0.
</event>
<event>
 5    0  0.5655767E-005  0.2622770E+03  0.7546771E-02  0.1105783E+00
         21   -1    0    0  502  501  0.00000000000E+00  0.00000000000E+00  0.69783297504E+02  0.69783297504E+02  0.00000000000E+00 0. -1.
         21   -1    0    0  501  502 -0.00000000000E+00 -0.00000000000E+00 -0.98575468943E+03  0.98575468943E+03  0.00000000000E+00 0. -1.
         25    1    1    2    0    0 -0.66211387358E+02 -0.69358720571E+02 -0.24767992742E+03  0.29353862843E+03  0.12500000000E+03 0.  0.
         25    1    1    2    0    0 -0.85670755401E+02  0.86965818300E+01 -0.20539003332E+03  0.25539219772E+03  0.12500000000E+03 0.  0.
         25    1    1    2    0    0  0.15188214276E+03  0.60662138741E+02 -0.46290143119E+03  0.50660716079E+03  0.12500000000E+03 0.  0.
</event>
<event>
 5    0  0.5655767E-005  0.3499927E+03  0.7546771E-02  0.1062618E+00
         21   -1    0    0  502  501  0.00000000000E+00  0.00000000000E+00  0.65650022346E+03  0.65650022346E+03  0.00000000000E+00 0. -1.
         21   -1    0    0  501  502 -0.00000000000E+00 -0.00000000000E+00 -0.18658772055E+03  0.18658772055E+03  0.00000000000E+00 0. -1.
         25    1    1    2    0    0 -0.26186968454E+03 -0.94846786354E+02  0.14587683701E+03  0.33834404995E+03  0.12500000000E+03 0.  0.
         25    1    1    2    0    0  0.19810409430E+03  0.50642215333E+02  0.19248580666E+03  0.30738518493E+03  0.12500000000E+03 0.  0.
         25    1    1    2    0    0  0.63765590240E+02  0.44204571021E+02  0.13154985924E+03  0.19735870912E+03  0.12500000000E+03 0.  0.
</event>
<event>
 5    0  0.5655767E-005  0.3109572E+03  0.7546771E-02  0.1079888E+00
         21   -1    0    0  502  501  0.00000000000E+00  0.00000000000E+00  0.94982878681E+03  0.94982878681E+03  0.00000000000E+00 0.  1.
         21   -1    0    0  501  502 -0.00000000000E+00 -0.00000000000E+00 -0.10180190265E+03  0.10180190265E+03  0.00000000000E+00 0.  1.
         25    1    1    2    0    0  0.12925691319E+03 -0.77137277497E+02  0.29849859498E+03  0.35690884045E+03  0.12500000000E+03 0.  0.
         25    1    1    2    0    0 -0.13810349212E+03  0.18176217765E+03  0.30857269766E+03  0.40367335000E+03  0.12500000000E+03 0.  0.
         25    1    1    2    0    0  0.88465789336E+01 -0.10462490015E+03  0.24095559152E+03  0.29104849901E+03  0.12500000000E+03 0.  0.
</event>
<event>
 5    0  0.5832000E-005  0.3482879E+03  0.7546771E-02  0.1063320E+00
         21   -1    0    0  502  501  0.00000000000E+00  0.00000000000E+00  0.57231126100E+03  0.57231126100E+03  0.00000000000E+00 0.  1.
         21   -1    0    0  501  502 -0.00000000000E+00 -0.00000000000E+00 -0.21195541969E+03  0.21195541969E+03  0.00000000000E+00 0.  1.
         25    1    1    2    0    0  0.25519650709E+03 -0.15050614367E+02  0.16780003322E+03  0.33035379424E+03  0.12500000000E+03 0.  0.
         25    1    1    2    0    0 -0.17219524565E+03 -0.74980913826E+01  0.21257431239E+03  0.30086585431E+03  0.12500000000E+03 0.  0.
         25    1    1    2    0    0 -0.83001261432E+02  0.22548705750E+02 -0.20018504300E+02  0.15304703213E+03  0.12500000000E+03 0.  0.
</event>
<event>
 5    0  0.5655767E-005  0.2670491E+03  0.7546771E-02  0.1102980E+00
         21   -1    0    0  502  501  0.00000000000E+00  0.00000000000E+00  0.18705858115E+04  0.18705858115E+04  0.00000000000E+00 0.  1.
         21   -1    0    0  501  502 -0.00000000000E+00 -0.00000000000E+00 -0.38124537230E+02  0.38124537230E+02  0.00000000000E+00 0.  1.
         25    1    1    2    0    0 -0.59073263562E+02 -0.34707812355E+02  0.29318081020E+03  0.32599734688E+03  0.12500000000E+03 0.  0.
         25    1    1    2    0    0  0.12652028570E+03 -0.66340309964E+02  0.68409237300E+03  0.70994069768E+03  0.12500000000E+03 0.  0.
         25    1    1    2    0    0 -0.67447022136E+02  0.10104812232E+03  0.85518809109E+03  0.87277230419E+03  0.12500000000E+03 0.  0.
</event>
<event>
 5    0  0.5655767E-005  0.3260603E+03  0.7546771E-02  0.1072893E+00
         21   -1    0    0  502  501  0.00000000000E+00  0.00000000000E+00  0.18140263449E+03  0.18140263449E+03  0.00000000000E+00 0. -1.
         21   -1    0    0  501  502 -0.00000000000E+00 -0.00000000000E+00 -0.58607379097E+03  0.58607379097E+03  0.00000000000E+00 0. -1.
         25    1    1    2    0    0 -0.68378112091E+02  0.82105597858E+02 -0.39190771275E+02  0.16904973223E+03  0.12500000000E+03 0.  0.
         25    1    1    2    0    0 -0.19445508331E+02 -0.10355397839E+03  0.36807204104E+02  0.16757483256E+03  0.12500000000E+03 0.  0.
         25    1    1    2    0    0  0.87823620422E+02  0.21448380532E+02 -0.40228758931E+03  0.43085186067E+03  0.12500000000E+03 0.  0.
</event>
<event>
 5    0  0.5655767E-005  0.4943889E+03  0.7546771E-02  0.1015254E+00
         21   -1    0    0  502  501  0.00000000000E+00  0.00000000000E+00  0.37922937774E+03  0.37922937774E+03  0.00000000000E+00 0. -1.
         21   -1    0    0  501  502 -0.00000000000E+00 -0.00000000000E+00 -0.64451853976E+03  0.64451853976E+03  0.00000000000E+00 0. -1.
         25    1    1    2    0    0  0.87439757656E+02 -0.11463898861E+03  0.31094156286E+03  0.36482525192E+03  0.12500000000E+03 0.  0.
         25    1    1    2    0    0 -0.47529931195E+02 -0.31796942349E+01 -0.32976772786E+03  0.35586649063E+03  0.12500000000E+03 0.  0.
         25    1    1    2    0    0 -0.39909826461E+02  0.11781868284E+03 -0.24646299703E+03  0.30305617495E+03  0.12500000000E+03 0.  0.
</event>
<event>
 5    0  0.5655767E-005  0.3156806E+03  0.7546771E-02  0.1077655E+00
         21   -1    0    0  502  501  0.00000000000E+00  0.00000000000E+00  0.31185175280E+03  0.31185175280E+03  0.00000000000E+00 0.  1.
         21   -1    0    0  501  502 -0.00000000000E+00 -0.00000000000E+00 -0.31955642231E+03  0.31955642231E+03  0.00000000000E+00 0.  1.
         25    1    1    2    0    0  0.15478491655E+03 -0.14417589360E+02  0.72220510056E+02  0.21214862561E+03  0.12500000000E+03 0.  0.
         25    1    1    2    0    0 -0.21462843074E+02  0.16107537440E+02 -0.17224079617E+03  0.21450407516E+03  0.12500000000E+03 0.  0.
         25    1    1    2    0    0 -0.13332207348E+03 -0.16899480800E+01  0.92315616607E+02  0.20475547433E+03  0.12500000000E+03 0.  0.
</event>
<event>
 5    0  0.5655767E-005  0.2636165E+03  0.7546771E-02  0.1104990E+00
         21   -1    0    0  502  501  0.00000000000E+00  0.00000000000E+00  0.22180155384E+04  0.22180155384E+04  0.00000000000E+00 0. -1.
         21   -1    0    0  501  502 -0.00000000000E+00 -0.00000000000E+00 -0.31331455852E+02  0.31331455852E+02  0.00000000000E+00 0. -1.
         25    1    1    2    0    0  0.41681671682E+02 -0.62630962127E+02  0.25711966714E+03  0.29562733703E+03  0.12500000000E+03 0.  0.
         25    1    1    2    0    0  0.11529641794E+02  0.91541308411E+02  0.12851096835E+04  0.12944669337E+04  0.12500000000E+03 0.  0.
         25    1    1    2    0    0 -0.53211313476E+02 -0.28910346285E+02  0.64445473191E+03  0.65925272353E+03  0.12500000000E+03 0.  0.
</event>
<event>
 5    0  0.5655767E-005  0.2620022E+03  0.7546771E-02  0.1105946E+00
         21   -1    0    0  502  501  0.00000000000E+00  0.00000000000E+00  0.18239759153E+03  0.18239759153E+03  0.00000000000E+00 0. -1.
         21   -1    0    0  501  502 -0.00000000000E+00 -0.00000000000E+00 -0.37634913547E+03  0.37634913547E+03  0.00000000000E+00 0. -1.
         25    1    1    2    0    0  0.19137880956E+02  0.10706297496E+03 -0.10367769398E+03  0.19545537425E+03  0.12500000000E+03 0.  0.
         25    1    1    2    0    0  0.84871367997E+02  0.97336642141E+01 -0.46090918746E+02  0.15826328101E+03  0.12500000000E+03 0.  0.
         25    1    1    2    0    0 -0.10400924895E+03 -0.11679663917E+03 -0.44182931215E+02  0.20502807174E+03  0.12500000000E+03 0.  0.
</event>
<event>
 5    0  0.5655767E-005  0.4065107E+03  0.7546771E-02  0.1041548E+00
         21   -1    0    0  502  501  0.00000000000E+00  0.00000000000E+00  0.57125167063E+03  0.57125167063E+03  0.00000000000E+00 0.  1.
         21   -1    0    0  501  502 -0.00000000000E+00 -0.00000000000E+00 -0.28927872092E+03  0.28927872092E+03  0.00000000000E+00 0.  1.
         25    1    1    2    0    0  0.18255901850E+03  0.17671435647E+03  0.30471015735E+03  0.41596759371E+03  0.12500000000E+03 0.  0.
         25    1    1    2    0    0 -0.99310103450E+02 -0.11223657651E+03 -0.14275254319E+03  0.24179088970E+03  0.12500000000E+03 0.  0.
         25    1    1    2    0    0 -0.83248915054E+02 -0.64477779966E+02  0.12001533555E+03  0.20277190815E+03  0.12500000000E+03 0.  0.
</event>
<event>
 5    0  0.5655767E-005  0.5838464E+03  0.7546771E-02  0.9939498E-01
         21   -1    0    0  502  501  0.00000000000E+00  0.00000000000E+00  0.19277372747E+03  0.19277372747E+03  0.00000000000E+00 0. -1.
         21   -1    0    0  501  502 -0.00000000000E+00 -0.00000000000E+00 -0.17682732469E+04  0.17682732469E+04  0.00000000000E+00 0. -1.
         25    1    1    2    0    0 -0.20825365101E+03  0.26443078874E+03 -0.26690594062E+03  0.44738909948E+03  0.12500000000E+03 0.  0.
         25    1    1    2    0    0 -0.20549785247E+03  0.11392545236E+02 -0.51979231021E+03  0.57285967148E+03  0.12500000000E+03 0.  0.
         25    1    1    2    0    0  0.41375150348E+03 -0.27582333397E+03 -0.78880126859E+03  0.94079820340E+03  0.12500000000E+03 0.  0.
</event>
<event>
 5    0  0.5655767E-005  0.3946397E+03  0.7546771E-02  0.1045652E+00
         21   -1    0    0  502  501  0.00000000000E+00  0.00000000000E+00  0.10347322918E+04  0.10347322918E+04  0.00000000000E+00 0. -1.
         21   -1    0    0  501  502 -0.00000000000E+00 -0.00000000000E+00 -0.15051281809E+03  0.15051281809E+03  0.00000000000E+00 0. -1.
         25    1    1    2    0    0 -0.16877958737E+03  0.77678115536E+02  0.56778017742E+02  0.23101770938E+03  0.12500000000E+03 0.  0.
         25    1    1    2    0    0  0.10324416446E+02  0.10609423670E+03  0.14460664245E+03  0.21885762878E+03  0.12500000000E+03 0.  0.
         25    1    1    2    0    0  0.15845517092E+03 -0.18377235223E+03  0.68283481355E+03  0.73536977177E+03  0.12500000000E+03 0.  0.
</event>
<event>
 5    0  0.5655767E-005  0.5405790E+03  0.7546771E-02  0.1003698E+00
         21   -1    0    0  502  501  0.00000000000E+00  0.00000000000E+00  0.18098330748E+03  0.18098330748E+03  0.00000000000E+00 0.  1.
         21   -1    0    0  501  502 -0.00000000000E+00 -0.00000000000E+00 -0.16146551374E+04  0.16146551374E+04  0.00000000000E+00 0.  1.
         25    1    1    2    0    0 -0.17858927392E+03 -0.81057773072E+02 -0.82820384957E+03  0.86023898294E+03  0.12500000000E+03 0.  0.
         25    1    1    2    0    0  0.24372220768E+03  0.31043216364E+03 -0.49262755253E+03  0.64348702259E+03  0.12500000000E+03 0.  0.
         25    1    1    2    0    0 -0.65132933756E+02 -0.22937439057E+03 -0.11284042786E+03  0.29191243939E+03  0.12500000000E+03 0.  0.
</event>
<event>
 5    0  0.5655767E-005  0.2170310E+03  0.7546771E-02  0.1136116E+00
         21   -1    0    0  502  501  0.00000000000E+00  0.00000000000E+00  0.95745451027E+02  0.95745451027E+02  0.00000000000E+00 0.  1.
         21   -1    0    0  501  502 -0.00000000000E+00 -0.00000000000E+00 -0.49195518305E+03  0.49195518305E+03  0.00000000000E+00 0. -1.
         25    1    1    2    0    0 -0.28778029386E+02 -0.66108088667E+01 -0.93902636205E+02  0.15910557142E+03  0.12500000000E+03 0.  0.
         25    1    1    2    0    0  0.11334070458E+02 -0.79319679862E+02 -0.17733262890E+03  0.23128323337E+03  0.12500000000E+03 0.  0.
         25    1    1    2    0    0  0.17443958928E+02  0.85930488729E+02 -0.12497446692E+03  0.19731182929E+03  0.12500000000E+03 0.  0.
</event>
<event>
 5    0  0.5655767E-005  0.3362486E+03  0.7546771E-02  0.1068405E+00
         21   -1    0    0  502  501  0.00000000000E+00  0.00000000000E+00  0.12250357114E+04  0.12250357114E+04  0.00000000000E+00 0. -1.
         21   -1    0    0  501  502 -0.00000000000E+00 -0.00000000000E+00 -0.92293723055E+02  0.92293723055E+02  0.00000000000E+00 0. -1.
         25    1    1    2    0    0 -0.62108313874E+02 -0.97887219644E+02  0.88678757979E+02  0.19216730351E+03  0.12500000000E+03 0.  0.
         25    1    1    2    0    0 -0.43250246035E+02  0.18225417467E+03  0.44894770471E+03  0.50226109697E+03  0.12500000000E+03 0.  0.
         25    1    1    2    0    0  0.10535855991E+03 -0.84366955024E+02  0.59511552562E+03  0.62290103394E+03  0.12500000000E+03 0.  0.
</event>
<event>
 5    0  0.5655767E-005  0.2241265E+03  0.7546771E-02  0.1130843E+00
         21   -1    0    0  502  501  0.00000000000E+00  0.00000000000E+00  0.14269146539E+03  0.14269146539E+03  0.00000000000E+00 0.  1.
         21   -1    0    0  501  502 -0.00000000000E+00 -0.00000000000E+00 -0.35203698969E+03  0.35203698969E+03  0.00000000000E+00 0.  1.
         25    1    1    2    0    0  0.83598545617E+02  0.38893804570E+02 -0.50828438589E+02  0.16343186664E+03  0.12500000000E+03 0.  0.
         25    1    1    2    0    0 -0.96734892279E+02 -0.25045001549E+02 -0.11688054292E+03  0.19816900060E+03  0.12500000000E+03 0.  0.
         25    1    1    2    0    0  0.13136346662E+02 -0.13848803022E+02 -0.41636542796E+02  0.13312758784E+03  0.12500000000E+03 0.  0.
</event>
<event>
 5    0  0.5655767E-005  0.3065211E+03  0.7546771E-02  0.1082025E+00
         21   -1    0    0  502  501  0.00000000000E+00  0.00000000000E+00  0.97351869311E+03  0.97351869311E+03  0.00000000000E+00 0. -1.
         21   -1    0    0  501  502 -0.00000000000E+00 -0.00000000000E+00 -0.96510904621E+02  0.96510904621E+02  0.00000000000E+00 0. -1.
         25    1    1    2    0    0  0.20140742447E+02 -0.86226904341E+01  0.10244914636E+03  0.16309760233E+03  0.12500000000E+03 0.  0.
         25    1    1    2    0    0  0.13308511687E+03 -0.10224589354E+03  0.20084565804E+03  0.29005145997E+03  0.12500000000E+03 0.  0.
         25    1    1    2    0    0 -0.15322585932E+03  0.11086858397E+03  0.57371298410E+03  0.61688053543E+03  0.12500000000E+03 0.  0.
</event>
<event>
 5    0  0.5655767E-005  0.3248767E+03  0.7546771E-02  0.1073427E+00
         21   -1    0    0  502  501  0.00000000000E+00  0.00000000000E+00  0.40621288405E+03  0.40621288405E+03  0.00000000000E+00 0. -1.
         21   -1    0    0  501  502 -0.00000000000E+00 -0.00000000000E+00 -0.25982642878E+03  0.25982642878E+03  0.00000000000E+00 0. -1.
         25    1    1    2    0    0  0.16715616708E+03  0.30010375484E+02  0.31952526006E+01  0.21089574787E+03  0.12500000000E+03 0.  0.
         25    1    1    2    0    0 -0.52631766788E+02  0.13749679092E+03  0.75764755667E+02  0.20746269204E+03  0.12500000000E+03 0.  0.
         25    1    1    2    0    0 -0.11452440029E+03 -0.16750716640E+03  0.67426447001E+02  0.24768087292E+03  0.12500000000E+03 0.  0.
</event>
<event>
 5    0  0.5655767E-005  0.5615643E+03  0.7546771E-02  0.9988521E-01
         21   -1    0    0  502  501  0.00000000000E+00  0.00000000000E+00  0.21650318559E+03  0.21650318559E+03  0.00000000000E+00 0. -1.
         21   -1    0    0  501  502 -0.00000000000E+00 -0.00000000000E+00 -0.14565813616E+04  0.14565813616E+04  0.00000000000E+00 0. -1.
         25    1    1    2    0    0  0.35208033327E+02 -0.38485349107E+03 -0.45406487198E+03  0.60922222807E+03  0.12500000000E+03 0.  0.
         25    1    1    2    0    0  0.12571270541E+03  0.43316139014E+03 -0.68933126799E+03  0.83320769994E+03  0.12500000000E+03 0.  0.
         25    1    1    2    0    0 -0.16092073873E+03 -0.48307899068E+02 -0.96682036055E+02  0.23065461921E+03  0.12500000000E+03 0.  0.
</event>
<event>
 5    0  0.6208465E-005  0.3307533E+03  0.7546771E-02  0.1070804E+00
         21   -1    0    0  502  501  0.00000000000E+00  0.00000000000E+00  0.17524479358E+03  0.17524479358E+03  0.00000000000E+00 0. -1.
         21   -1    0    0  501  502 -0.00000000000E+00 -0.00000000000E+00 -0.62425671895E+03  0.62425671895E+03  0.00000000000E+00 0. -1.
         25    1    1    2    0    0  0.16392028167E+03 -0.10563765309E+02 -0.12988590794E+03  0.24387866033E+03  0.12500000000E+03 0.  0.
         25    1    1    2    0    0 -0.31003327902E+02 -0.11822238747E+03 -0.27820149558E+03  0.32857086204E+03  0.12500000000E+03 0.  0.
         25    1    1    2    0    0 -0.13291695377E+03  0.12878615278E+03 -0.40924521838E+02  0.22705199016E+03  0.12500000000E+03 0.  0.
</event>
<event>
 5    0  0.5655767E-005  0.2828443E+03  0.7546771E-02  0.1094146E+00
         21   -1    0    0  502  501  0.00000000000E+00  0.00000000000E+00  0.90442405771E+03  0.90442405771E+03  0.00000000000E+00 0. -1.
         21   -1    0    0  501  502 -0.00000000000E+00 -0.00000000000E+00 -0.88455050549E+02  0.88455050549E+02  0.00000000000E+00 0. -1.
         25    1    1    2    0    0  0.36214916030E+02 -0.43708491074E+01  0.17901622111E+03  0.22136492922E+03  0.12500000000E+03 0.  0.
         25    1    1    2    0    0  0.13085432450E+03  0.93654868266E+02  0.24567551197E+03  0.31917948834E+03  0.12500000000E+03 0.  0.
         25    1    1    2    0    0 -0.16706924053E+03 -0.89284019159E+02  0.39127727408E+03  0.45233469071E+03  0.12500000000E+03 0.  0.
</event>
<event>
 5    0  0.5655767E-005  0.2665100E+03  0.7546771E-02  0.1103294E+00
         21   -1    0    0  502  501  0.00000000000E+00  0.00000000000E+00  0.30242122897E+04  0.30242122897E+04  0.00000000000E+00 0. -1.
         21   -1    0    0  501  502 -0.00000000000E+00 -0.00000000000E+00 -0.23486301468E+02  0.23486301468E+02  0.00000000000E+00 0. -1.
         25    1    1    2    0    0 -0.13333296130E+03  0.90380538075E+02  0.12634276397E+04  0.12797736991E+04  0.12500000000E+03 0.  0.
         25    1    1    2    0    0  0.13379054223E+03 -0.29981211864E+02  0.11147819387E+04  0.11301161680E+04  0.12500000000E+03 0.  0.
         25    1    1    2    0    0 -0.45758093521E+00 -0.60399326212E+02  0.62251640985E+03  0.63780872408E+03  0.12500000000E+03 0.  0.
</event>
<event>
 5    0  0.5655767E-005  0.2452032E+03  0.7546771E-02  0.1116374E+00
         21   -1    0    0  502  501  0.00000000000E+00  0.00000000000E+00  0.24492319950E+03  0.24492319950E+03  0.00000000000E+00 0. -1.
         21   -1    0    0  501  502 -0.00000000000E+00 -0.00000000000E+00 -0.24548357366E+03  0.24548357366E+03  0.00000000000E+00 0. -1.
         25    1    1    2    0    0 -0.51218449867E+02  0.29274822489E+02 -0.65948608388E+02  0.15314882888E+03  0.12500000000E+03 0.  0.
         25    1    1    2    0    0  0.20485283549E+02 -0.94196327701E+02 -0.34866659424E+02  0.16165790712E+03  0.12500000000E+03 0.  0.
         25    1    1    2    0    0  0.30733166318E+02  0.64921505212E+02  0.10025489365E+03  0.17560003716E+03  0.12500000000E+03 0.  0.
</event>
<event>
 5    0  0.5655767E-005  0.2971876E+03  0.7546771E-02  0.1086655E+00
         21   -1    0    0  502  501  0.00000000000E+00  0.00000000000E+00  0.97555853080E+02  0.97555853080E+02  0.00000000000E+00 0. -1.
         21   -1    0    0  501  502 -0.00000000000E+00 -0.00000000000E+00 -0.90533206248E+03  0.90533206248E+03  0.00000000000E+00 0. -1.
         25    1    1    2    0    0 -0.15241224603E+03 -0.56294006667E+01 -0.39430935119E+03  0.44086964891E+03  0.12500000000E+03 0.  0.
         25    1    1    2    0    0  0.18538781478E+03 -0.65155879541E+02 -0.26552131108E+03  0.35318620747E+03  0.12500000000E+03 0.  0.
         25    1    1    2    0    0 -0.32975568747E+02  0.70785280208E+02 -0.14794554713E+03  0.20883205918E+03  0.12500000000E+03 0.  0.
</event>
<event>
 5    0  0.5655767E-005  0.3949572E+03  0.7546771E-02  0.1045540E+00
         21   -1    0    0  502  501  0.00000000000E+00  0.00000000000E+00  0.19216670947E+03  0.19216670947E+03  0.00000000000E+00 0.  1.
         21   -1    0    0  501  502 -0.00000000000E+00 -0.00000000000E+00 -0.81174923011E+03  0.81174923011E+03  0.00000000000E+00 0.  1.
         25    1    1    2    0    0 -0.14229920360E+02 -0.14955732862E+03  0.42575696036E+02  0.20001893678E+03  0.12500000000E+03 0.  0.
         25    1    1    2    0    0 -0.58453732053E+02 -0.54093070887E+02 -0.45776507040E+03  0.48116188418E+03  0.12500000000E+03 0.  0.
         25    1    1    2    0    0  0.72683652413E+02  0.20365039951E+03 -0.20439314628E+03  0.32273511862E+03  0.12500000000E+03 0.  0.
</event>
<event>
 5    0  0.5655767E-005  0.4097331E+03  0.7546771E-02  0.1040461E+00
         21   -1    0    0  502  501  0.00000000000E+00  0.00000000000E+00  0.19939430276E+03  0.19939430276E+03  0.00000000000E+00 0. -1.
         21   -1    0    0  501  502 -0.00000000000E+00 -0.00000000000E+00 -0.84195593940E+03  0.84195593940E+03  0.00000000000E+00 0. -1.
         25    1    1    2    0    0  0.10041431915E+03  0.19541907632E+03 -0.64567700201E+03  0.69339414607E+03  0.12500000000E+03 0.  0.
         25    1    1    2    0    0 -0.19691972551E+02 -0.58568543634E+02 -0.31243723737E+02  0.14289583045E+03  0.12500000000E+03 0.  0.
         25    1    1    2    0    0 -0.80722346600E+02 -0.13685053269E+03  0.34359089105E+02  0.20506026563E+03  0.12500000000E+03 0.  0.
</event>
<event>
 5    0  0.5655767E-005  0.3309291E+03  0.7546771E-02  0.1070727E+00
         21   -1    0    0  502  501  0.00000000000E+00  0.00000000000E+00  0.18968730945E+03  0.18968730945E+03  0.00000000000E+00 0.  1.
         21   -1    0    0  501  502 -0.00000000000E+00 -0.00000000000E+00 -0.57733990061E+03  0.57733990061E+03  0.00000000000E+00 0.  1.
         25    1    1    2    0    0  0.41002755158E+02  0.16423827471E+03 -0.88744583714E+02  0.22837696458E+03  0.12500000000E+03 0.  0.
         25    1    1    2    0    0 -0.17653199400E+03 -0.33206933786E+02 -0.17850389558E+03  0.28240907580E+03  0.12500000000E+03 0.  0.
         25    1    1    2    0    0  0.13552923884E+03 -0.13103134093E+03 -0.12040411187E+03  0.25624116968E+03  0.12500000000E+03 0.  0.
</event>
<event>
 5    0  0.5655767E-005  0.2236192E+03  0.7546771E-02  0.1131213E+00
         21   -1    0    0  502  501  0.00000000000E+00  0.00000000000E+00  0.12242541494E+04  0.12242541494E+04  0.00000000000E+00 0. -1.
         21   -1    0    0  501  502 -0.00000000000E+00 -0.00000000000E+00 -0.40845721420E+02  0.40845721420E+02  0.00000000000E+00 0. -1.
         25    1    1    2    0    0  0.39264310047E+02 -0.23169171093E+02  0.33345996024E+03  0.35902512672E+03  0.12500000000E+03 0.  0.
         25    1    1    2    0    0  0.53914896899E+02  0.38776220372E+02  0.54684471895E+03  0.56486684981E+03  0.12500000000E+03 0.  0.
         25    1    1    2    0    0 -0.93179206946E+02 -0.15607049279E+02  0.30310374880E+03  0.34120789429E+03  0.12500000000E+03 0.  0.
</event>
<event>
 5    0  0.5655767E-005  0.3140144E+03  0.7546771E-02  0.1078438E+00
         21   -1    0    0  502  501  0.00000000000E+00  0.00000000000E+00  0.53459467686E+03  0.53459467686E+03  0.00000000000E+00 0.  1.
         21   -1    0    0  501  502 -0.00000000000E+00 -0.00000000000E+00 -0.18444820859E+03  0.18444820859E+03  0.00000000000E+00 0.  1.
         25    1    1    2    0    0 -0.14337870799E+03  0.12979356164E+03  0.21570463685E+02  0.23128793192E+03  0.12500000000E+03 0.  0.
         25    1    1    2    0    0  0.68952264875E+02  0.24797847970E+02  0.10150779587E+03  0.17691291846E+03  0.12500000000E+03 0.  0.
         25    1    1    2    0    0  0.74426443111E+02 -0.15459140961E+03  0.22706820872E+03  0.31084203508E+03  0.12500000000E+03 0.  0.
</event>
<event>
 5    0  0.5655767E-005  0.3562870E+03  0.7546771E-02  0.1060064E+00
         21   -1    0    0  502  501  0.00000000000E+00  0.00000000000E+00  0.39782540523E+03  0.39782540523E+03  0.00000000000E+00 0. -1.
         21   -1    0    0  501  502 -0.00000000000E+00 -0.00000000000E+00 -0.31908575828E+03  0.31908575828E+03  0.00000000000E+00 0. -1.
         25    1    1    2    0    0 -0.13029544182E+03  0.12325782509E+03  0.24364647110E+03  0.32734996027E+03  0.12500000000E+03 0.  0.
         25    1    1    2    0    0  0.64195068913E+02 -0.54252027507E+02 -0.17620741887E+03  0.23181532267E+03  0.12500000000E+03 0.  0.
         25    1    1    2    0    0  0.66100372910E+02 -0.69005797580E+02  0.11300594713E+02  0.15774588058E+03  0.12500000000E+03 0.  0.
</event>
<event>
 5    0  0.5655767E-005  0.3240190E+03  0.7546771E-02  0.1073814E+00
         21   -1    0    0  502  501  0.00000000000E+00  0.00000000000E+00  0.46969523158E+03  0.46969523158E+03  0.00000000000E+00 0.  1.
         21   -1    0    0  501  502 -0.00000000000E+00 -0.00000000000E+00 -0.22352428646E+03  0.22352428646E+03  0.00000000000E+00 0.  1.
         25    1    1    2    0    0 -0.10710629018E+03  0.68614492458E+02  0.34461020883E+03  0.38802178032E+03  0.12500000000E+03 0.  0.
         25    1    1    2    0    0  0.53925141521E+02 -0.42113018590E+02 -0.85518806630E+02  0.16619233890E+03  0.12500000000E+03 0.  0.
         25    1    1    2    0    0  0.53181148659E+02 -0.26501473869E+02 -0.12920457077E+02  0.13900539882E+03  0.12500000000E+03 0.  0.
</event>
<event>
 5    0  0.5655767E-005  0.2894940E+03  0.7546771E-02  0.1090614E+00
         21   -1    0    0  502  501  0.00000000000E+00  0.00000000000E+00  0.58874023441E+02  0.58874023441E+02  0.00000000000E+00 0. -1.
         21   -1    0    0  501  502 -0.00000000000E+00 -0.00000000000E+00 -0.14234933665E+04  0.14234933665E+04  0.00000000000E+00 0. -1.
         25    1    1    2    0    0  0.45331655804E+02  0.71791728599E+02 -0.16184613688E+03  0.22142308673E+03  0.12500000000E+03 0.  0.
         25    1    1    2    0    0  0.95911301030E+02 -0.62962374075E+02 -0.77494261692E+03  0.79329962671E+03  0.12500000000E+03 0.  0.
         25    1    1    2    0    0 -0.14124295683E+03 -0.88293545241E+01 -0.42783058923E+03  0.46764467648E+03  0.12500000000E+03 0.  0.
</event>
<event>
 5    0  0.5655767E-005  0.2107078E+03  0.7546771E-02  0.1141007E+00
         21   -1    0    0  502  501  0.00000000000E+00  0.00000000000E+00  0.18342476848E+03  0.18342476848E+03  0.00000000000E+00 0. -1.
         21   -1    0    0  501  502 -0.00000000000E+00 -0.00000000000E+00 -0.24204892476E+03  0.24204892476E+03  0.00000000000E+00 0. -1.
         25    1    1    2    0    0 -0.30661947202E+01  0.65642711165E+02 -0.78823298691E+02  0.16172964940E+03  0.12500000000E+03 0.  0.
         25    1    1    2    0    0 -0.21593192067E+02 -0.32420405945E+02  0.17076568184E+02  0.13203771373E+03  0.12500000000E+03 0.  0.
         25    1    1    2    0    0  0.24659386787E+02 -0.33222305220E+02  0.31225742322E+01  0.13170633011E+03  0.12500000000E+03 0.  0.
</event>
<event>
 5    0  0.5655767E-005  0.2057862E+03  0.7546771E-02  0.1144947E+00
         21   -1    0    0  502  501  0.00000000000E+00  0.00000000000E+00  0.18621301162E+03  0.18621301162E+03  0.00000000000E+00 0. -1.
         21   -1    0    0  501  502 -0.00000000000E+00 -0.00000000000E+00 -0.22741668032E+03  0.22741668032E+03  0.00000000000E+00 0. -1.
         25    1    1    2    0    0  0.20882161628E+02  0.58568026656E+02 -0.61391512817E+02  0.15251293803E+03  0.12500000000E+03 0.  0.
         25    1    1    2    0    0 -0.19574209251E+02 -0.14907725401E+02  0.16168337232E+01  0.12740880698E+03  0.12500000000E+03 0.  0.
         25    1    1    2    0    0 -0.13079523767E+01 -0.43660301255E+02  0.18571010394E+02  0.13370794693E+03  0.12500000000E+03 0.  0.
</event>
<event>
 5    0  0.7637293E-005  0.2897686E+03  0.7546771E-02  0.1090470E+00
         21   -1    0    0  502  501  0.00000000000E+00  0.00000000000E+00  0.46105009740E+03  0.46105009740E+03  0.00000000000E+00 0.  1.
         21   -1    0    0  501  502 -0.00000000000E+00 -0.00000000000E+00 -0.18211868413E+03  0.18211868413E+03  0.00000000000E+00 0.  1.
         25    1    1    2    0    0  0.14764941393E+02 -0.49479387379E+02 -0.37721579963E+02  0.14040701857E+03  0.12500000000E+03 0.  0.
         25    1    1    2    0    0  0.77328110559E+02  0.10218513514E+03  0.28379485280E+03  0.33553830929E+03  0.12500000000E+03 0.  0.
         25    1    1    2    0    0 -0.92093051952E+02 -0.52705747761E+02  0.32858140429E+02  0.16722345367E+03  0.12500000000E+03 0.  0.
</event>
<event>
 5    0  0.5655767E-005  0.2995329E+03  0.7546771E-02  0.1085474E+00
         21   -1    0    0  502  501  0.00000000000E+00  0.00000000000E+00  0.60508300132E+03  0.60508300132E+03  0.00000000000E+00 0.  1.
         21   -1    0    0  501  502 -0.00000000000E+00 -0.00000000000E+00 -0.14827709523E+03  0.14827709523E+03  0.00000000000E+00 0.  1.
         25    1    1    2    0    0  0.28647451130E+02 -0.10432577310E+03  0.34922314488E+03  0.38637591580E+03  0.12500000000E+03 0.  0.
         25    1    1    2    0    0 -0.24654138097E+02  0.15764053091E+03  0.11078921249E+03  0.23099266896E+03  0.12500000000E+03 0.  0.
         25    1    1    2    0    0 -0.39933130328E+01 -0.53314757813E+02 -0.32064512805E+01  0.13599151179E+03  0.12500000000E+03 0.  0.
</event>
<event>
 5    0  0.5655767E-005  0.3521971E+03  0.7546771E-02  0.1061717E+00
         21   -1    0    0  502  501  0.00000000000E+00  0.00000000000E+00  0.99837371714E+02  0.99837371714E+02  0.00000000000E+00 0. -1.
         21   -1    0    0  501  502 -0.00000000000E+00 -0.00000000000E+00 -0.12424487561E+04  0.12424487561E+04  0.00000000000E+00 0. -1.
         25    1    1    2    0    0 -0.11263305480E+03 -0.11162669302E+03 -0.65865364241E+03  0.68890953273E+03  0.12500000000E+03 0.  0.
         25    1    1    2    0    0  0.56803883257E+02 -0.34901198147E+02 -0.41944727825E+03  0.44272541605E+03  0.12500000000E+03 0.  0.
         25    1    1    2    0    0  0.55829171543E+02  0.14652789117E+03 -0.64510463683E+02  0.21065117899E+03  0.12500000000E+03 0.  0.
</event>
<event>
 5    0  0.5655767E-005  0.3545085E+03  0.7546771E-02  0.1060780E+00
         21   -1    0    0  502  501  0.00000000000E+00  0.00000000000E+00  0.98952970437E+03  0.98952970437E+03  0.00000000000E+00 0.  1.
         21   -1    0    0  501  502 -0.00000000000E+00 -0.00000000000E+00 -0.12700605781E+03  0.12700605781E+03  0.00000000000E+00 0.  1.
         25    1    1    2    0    0 -0.11611341477E+03 -0.13120573651E+03  0.51650966922E+03  0.55955742223E+03  0.12500000000E+03 0.  0.
         25    1    1    2    0    0 -0.90551756139E+02  0.60759355321E+02  0.60839568072E+02  0.17668551962E+03  0.12500000000E+03 0.  0.
         25    1    1    2    0    0  0.20666517091E+03  0.70446381188E+02  0.28517440927E+03  0.38029282033E+03  0.12500000000E+03 0.  0.
</event>
<event>
 5    0  0.5655767E-005  0.3726599E+03  0.7546771E-02  0.1053681E+00
         21   -1    0    0  502  501  0.00000000000E+00  0.00000000000E+00  0.36427022888E+03  0.36427022888E+03  0.00000000000E+00 0. -1.
         21   -1    0    0  501  502 -0.00000000000E+00 -0.00000000000E+00 -0.38124276699E+03  0.38124276699E+03  0.00000000000E+00 0. -1.
         25    1    1    2    0    0 -0.90404658556E+01 -0.11254525293E+03 -0.74466737401E+02  0.18416964723E+03  0.12500000000E+03 0.  0.
         25    1    1    2    0    0 -0.13698439956E+03  0.24915995191E+03 -0.24774898414E+02  0.31158338041E+03  0.12500000000E+03 0.  0.
         25    1    1    2    0    0  0.14602486541E+03 -0.13661469897E+03  0.82269097703E+02  0.24975996823E+03  0.12500000000E+03 0.  0.
</event>
<event>
 5    0  0.5655767E-005  0.3139256E+03  0.7546771E-02  0.1078479E+00
         21   -1    0    0  502  501  0.00000000000E+00  0.00000000000E+00  0.70584467926E+02  0.70584467926E+02  0.00000000000E+00 0. -1.
         21   -1    0    0  501  502 -0.00000000000E+00 -0.00000000000E+00 -0.13961890459E+04  0.13961890459E+04  0.00000000000E+00 0. -1.
         25    1    1    2    0    0  0.56849581538E+02  0.25531796639E+02 -0.75121702238E+02  0.15859387664E+03  0.12500000000E+03 0.  0.
         25    1    1    2    0    0  0.12011866682E+02  0.87562399172E+02 -0.26522548710E+03  0.30623686535E+03  0.12500000000E+03 0.  0.
         25    1    1    2    0    0 -0.68861448220E+02 -0.11309419581E+03 -0.98525738862E+03  0.10019427718E+04  0.12500000000E+03 0.  0.
</event>
<event>
 5    0  0.5655767E-005  0.3424236E+03  0.7546771E-02  0.1065768E+00
         21   -1    0    0  502  501  0.00000000000E+00  0.00000000000E+00  0.34737956360E+03  0.34737956360E+03  0.00000000000E+00 0. -1.
         21   -1    0    0  501  502 -0.00000000000E+00 -0.00000000000E+00 -0.33753842307E+03  0.33753842307E+03  0.00000000000E+00 0. -1.
         25    1    1    2    0    0  0.76111956737E+02  0.20202950617E+03 -0.47330017130E+02  0.25391747053E+03  0.12500000000E+03 0.  0.
         25    1    1    2    0    0  0.87332445236E+02 -0.15226007273E+03  0.29962373678E+02  0.21756109389E+03  0.12500000000E+03 0.  0.
         25    1    1    2    0    0 -0.16344440197E+03 -0.49769433440E+02  0.27208783981E+02  0.21343942224E+03  0.12500000000E+03 0.  0.
</event>
<event>
 5    0  0.5655767E-005  0.2902163E+03  0.7546771E-02  0.1090236E+00
         21   -1    0    0  502  501  0.00000000000E+00  0.00000000000E+00  0.17962837598E+03  0.17962837598E+03  0.00000000000E+00 0. -1.
         21   -1    0    0  501  502 -0.00000000000E+00 -0.00000000000E+00 -0.46888744729E+03  0.46888744729E+03  0.00000000000E+00 0. -1.
         25    1    1    2    0    0  0.62651580919E+02 -0.32743562321E+02  0.40059504026E+02  0.14908764311E+03  0.12500000000E+03 0.  0.
         25    1    1    2    0    0 -0.99226354474E+02  0.47476312674E+02 -0.32857286465E+03  0.36835444489E+03  0.12500000000E+03 0.  0.
         25    1    1    2    0    0  0.36574773555E+02 -0.14732750353E+02 -0.74571068157E+00  0.13107373527E+03  0.12500000000E+03 0.  0.
</event>
<event>
 5    0  0.5655767E-005  0.2788526E+03  0.7546771E-02  0.1096317E+00
         21   -1    0    0  502  501  0.00000000000E+00  0.00000000000E+00  0.48449754414E+03  0.48449754414E+03  0.00000000000E+00 0.  1.
         21   -1    0    0  501  502 -0.00000000000E+00 -0.00000000000E+00 -0.16049359244E+03  0.16049359244E+03  0.00000000000E+00 0.  1.
         25    1    1    2    0    0 -0.31047215032E+02  0.64782334656E+02  0.28813497822E+03  0.32219162950E+03  0.12500000000E+03 0.  0.
         25    1    1    2    0    0  0.31699516907E+02 -0.37964062071E+01  0.10605488477E+03  0.16700871431E+03  0.12500000000E+03 0.  0.
         25    1    1    2    0    0 -0.65230187472E+00 -0.60985928449E+02 -0.70185911289E+02  0.15579079276E+03  0.12500000000E+03 0.  0.
</event>
<event>
 5    0  0.5655767E-005  0.2316210E+03  0.7546771E-02  0.1125504E+00
         21   -1    0    0  502  501  0.00000000000E+00  0.00000000000E+00  0.82862782497E+03  0.82862782497E+03  0.00000000000E+00 0. -1.
         21   -1    0    0  501  502 -0.00000000000E+00 -0.00000000000E+00 -0.64743541195E+02  0.64743541195E+02  0.00000000000E+00 0. -1.
         25    1    1    2    0    0  0.11423115540E+02  0.29650030246E+01  0.32888293288E+03  0.35203446188E+03  0.12500000000E+03 0.  0.
         25    1    1    2    0    0 -0.33282581782E+02  0.51536576432E+01  0.38241948476E+03  0.40373748001E+03  0.12500000000E+03 0.  0.
         25    1    1    2    0    0  0.21859466243E+02 -0.81186606679E+01  0.52581866133E+02  0.13759942428E+03  0.12500000000E+03 0.  0.
</event>
<event>
 5    0  0.5655767E-005  0.3047283E+03  0.7546771E-02  0.1082901E+00
         21   -1    0    0  502  501  0.00000000000E+00  0.00000000000E+00  0.74957111293E+02  0.74957111293E+02  0.00000000000E+00 0.  1.
         21   -1    0    0  501  502 -0.00000000000E+00 -0.00000000000E+00 -0.12388331714E+04  0.12388331714E+04  0.00000000000E+00 0.  1.
         25    1    1    2    0    0 -0.74675086763E+02 -0.68487985409E+02 -0.54082695862E+03  0.56425683151E+03  0.12500000000E+03 0.  0.
         25    1    1    2    0    0 -0.58144801547E+02  0.32038095964E+02 -0.51572443773E+03  0.53479337432E+03  0.12500000000E+03 0.  0.
         25    1    1    2    0    0  0.13281988831E+03  0.36449889444E+02 -0.10732466379E+03  0.21474007690E+03  0.12500000000E+03 0.  0.
</event>
<event>
 5    0  0.5655767E-005  0.2548144E+03  0.7546771E-02  0.1110299E+00
         21   -1    0    0  502  501  0.00000000000E+00  0.00000000000E+00  0.88172023404E+02  0.88172023404E+02  0.00000000000E+00 0.  1.
         21   -1    0    0  501  502 -0.00000000000E+00 -0.00000000000E+00 -0.73640586452E+03  0.73640586452E+03  0.00000000000E+00 0. -1.
         25    1    1    2    0    0  0.23557395731E+02  0.59934675577E+02 -0.39210183906E+03  0.41655247980E+03  0.12500000000E+03 0.  0.
         25    1    1    2    0    0 -0.48373465242E+02  0.44705335793E+02 -0.17298030707E+03  0.22335117152E+03  0.12500000000E+03 0.  0.
         25    1    1    2    0    0  0.24816069511E+02 -0.10464001137E+03 -0.83151694989E+02  0.18467423660E+03  0.12500000000E+03 0.  0.
</event>
<event>
 5    0  0.5655767E-005  0.2410516E+03  0.7546771E-02  0.1119094E+00
         21   -1    0    0  502  501  0.00000000000E+00  0.00000000000E+00  0.79938780666E+03  0.79938780666E+03  0.00000000000E+00 0. -1.
         21   -1    0    0  501  502 -0.00000000000E+00 -0.00000000000E+00 -0.72687994560E+02  0.72687994560E+02  0.00000000000E+00 0. -1.
         25    1    1    2    0    0 -0.35011095387E+01 -0.13075100893E+00  0.10371677896E+03  0.16246367318E+03  0.12500000000E+03 0.  0.
         25    1    1    2    0    0 -0.38358687101E+02 -0.10774721434E+03  0.31161580537E+03  0.35469742208E+03  0.12500000000E+03 0.  0.
         25    1    1    2    0    0  0.41859796640E+02  0.10787796535E+03  0.31136722777E+03  0.35491470597E+03  0.12500000000E+03 0.  0.
</event>
<event>
 5    0  0.5655767E-005  0.1900719E+03  0.7546771E-02  0.1158397E+00
         21   -1    0    0  502  501  0.00000000000E+00  0.00000000000E+00  0.70893172092E+03  0.70893172092E+03  0.00000000000E+00 0.  1.
         21   -1    0    0  501  502 -0.00000000000E+00 -0.00000000000E+00 -0.50960222092E+02  0.50960222092E+02  0.00000000000E+00 0.  1.
         25    1    1    2    0    0  0.71639213070E+01  0.23261303817E+02  0.23065114187E+03  0.26347174283E+03  0.12500000000E+03 0.  0.
         25    1    1    2    0    0 -0.13852662030E+02 -0.19072162597E+02  0.22505100302E+03  0.25851227745E+03  0.12500000000E+03 0.  0.
         25    1    1    2    0    0  0.66887407232E+01 -0.41891412199E+01  0.20226935394E+03  0.23790792273E+03  0.12500000000E+03 0.  0.
</event>
<event>
 5    0  0.5655767E-005  0.4050543E+03  0.7546771E-02  0.1042043E+00
         21   -1    0    0  502  501  0.00000000000E+00  0.00000000000E+00  0.10727292089E+04  0.10727292089E+04  0.00000000000E+00 0. -1.
         21   -1    0    0  501  502 -0.00000000000E+00 -0.00000000000E+00 -0.15294538484E+03  0.15294538484E+03  0.00000000000E+00 0. -1.
         25    1    1    2    0    0 -0.17722907513E+02 -0.14099769010E+03 -0.10151244338E+02  0.18953231341E+03  0.12500000000E+03 0.  0.
         25    1    1    2    0    0  0.15226165940E+02 -0.29106735660E+02  0.62826728443E+02  0.14370537915E+03  0.12500000000E+03 0.  0.
         25    1    1    2    0    0  0.24967415726E+01  0.17010442576E+03  0.86710833997E+03  0.89243690120E+03  0.12500000000E+03 0.  0.
</event>
<event>
 5    0  0.5655767E-005  0.2209076E+03  0.7546771E-02  0.1133208E+00
         21   -1    0    0  502  501  0.00000000000E+00  0.00000000000E+00  0.53963297972E+03  0.53963297972E+03  0.00000000000E+00 0. -1.
         21   -1    0    0  501  502 -0.00000000000E+00 -0.00000000000E+00 -0.90432110076E+02  0.90432110076E+02  0.00000000000E+00 0. -1.
         25    1    1    2    0    0 -0.10034070829E+03 -0.21392762420E+02  0.15817704183E+03  0.22620982424E+03  0.12500000000E+03 0.  0.
         25    1    1    2    0    0  0.77162744441E+02  0.24304590487E+02  0.12295767652E+03  0.19310202605E+03  0.12500000000E+03 0.  0.
         25    1    1    2    0    0  0.23177963846E+02 -0.29118280675E+01  0.16806615130E+03  0.21075323951E+03  0.12500000000E+03 0.  0.
</event>
<event>
 5    0  0.5655767E-005  0.2759386E+03  0.7546771E-02  0.1097928E+00
         21   -1    0    0  502  501  0.00000000000E+00  0.00000000000E+00  0.24449312765E+03  0.24449312765E+03  0.00000000000E+00 0.  1.
         21   -1    0    0  501  502 -0.00000000000E+00 -0.00000000000E+00 -0.31142853244E+03  0.31142853244E+03  0.00000000000E+00 0.  1.
         25    1    1    2    0    0  0.52720896737E+02  0.13439549245E+02  0.11591716408E+03  0.17894664950E+03  0.12500000000E+03 0.  0.
         25    1    1    2    0    0 -0.49467170148E+02 -0.10739877376E+03 -0.11169664030E+03  0.20514052983E+03  0.12500000000E+03 0.  0.
         25    1    1    2    0    0 -0.32537265888E+01  0.93959224514E+02 -0.71155928571E+02  0.17183448076E+03  0.12500000000E+03 0.  0.
</event>
<event>
 5    0  0.5655767E-005  0.2453744E+03  0.7546771E-02  0.1116263E+00
         21   -1    0    0  502  501  0.00000000000E+00  0.00000000000E+00  0.76255920810E+03  0.76255920810E+03  0.00000000000E+00 0. -1.
         21   -1    0    0  501  502 -0.00000000000E+00 -0.00000000000E+00 -0.78955982089E+02  0.78955982089E+02  0.00000000000E+00 0. -1.
         25    1    1    2    0    0 -0.80962034532E+01 -0.45768901657E+02  0.39883077131E+03  0.42053694845E+03  0.12500000000E+03 0.  0.
         25    1    1    2    0    0 -0.67320366319E+02  0.69388936979E+02  0.11274731215E+03  0.19412318948E+03  0.12500000000E+03 0.  0.
         25    1    1    2    0    0  0.75416569772E+02 -0.23620035322E+02  0.17202514254E+03  0.22685505225E+03  0.12500000000E+03 0.  0.
</event>
<event>
 5    0  0.5655767E-005  0.3487363E+03  0.7546771E-02  0.1063135E+00
         21   -1    0    0  502  501  0.00000000000E+00  0.00000000000E+00  0.23363422734E+03  0.23363422734E+03  0.00000000000E+00 0.  1.
         21   -1    0    0  501  502 -0.00000000000E+00 -0.00000000000E+00 -0.52054434191E+03  0.52054434191E+03  0.00000000000E+00 0.  1.
         25    1    1    2    0    0  0.13643260768E+03 -0.13718185889E+03 -0.87354569543E+02  0.24635044077E+03  0.12500000000E+03 0.  0.
         25    1    1    2    0    0 -0.17844965931E+03  0.18672283113E+03 -0.31689349467E+02  0.28868479600E+03  0.12500000000E+03 0.  0.
         25    1    1    2    0    0  0.42017051637E+02 -0.49540972236E+02 -0.16786619556E+03  0.21914333248E+03  0.12500000000E+03 0.  0.
</event>
<event>
 5    0  0.5655767E-005  0.2976883E+03  0.7546771E-02  0.1086402E+00
         21   -1    0    0  502  501  0.00000000000E+00  0.00000000000E+00  0.11202261394E+04  0.11202261394E+04  0.00000000000E+00 0. -1.
         21   -1    0    0  501  502 -0.00000000000E+00 -0.00000000000E+00 -0.79107508113E+02  0.79107508113E+02  0.00000000000E+00 0. -1.
         25    1    1    2    0    0  0.31811926369E+02 -0.65508048050E+02  0.79447630716E+03  0.80754003347E+03  0.12500000000E+03 0.  0.
         25    1    1    2    0    0  0.34592451744E+02 -0.30584894558E+02  0.11249703919E+03  0.17439225132E+03  0.12500000000E+03 0.  0.
         25    1    1    2    0    0 -0.66404378113E+02  0.96092942608E+02  0.13414528498E+03  0.21740136277E+03  0.12500000000E+03 0.  0.
</event>
<event>
 5    0  0.5655767E-005  0.4285645E+03  0.7546771E-02  0.1034314E+00
         21   -1    0    0  502  501  0.00000000000E+00  0.00000000000E+00  0.18842245494E+03  0.18842245494E+03  0.00000000000E+00 0. -1.
         21   -1    0    0  501  502 -0.00000000000E+00 -0.00000000000E+00 -0.97476438392E+03  0.97476438392E+03  0.00000000000E+00 0.  1.
         25    1    1    2    0    0 -0.43934430527E+01  0.48418646970E+02 -0.10986808528E+03  0.17337722999E+03  0.12500000000E+03 0.  0.
         25    1    1    2    0    0  0.11991080129E+02 -0.30532761826E+03 -0.61418848894E+03  0.69729566213E+03  0.12500000000E+03 0.  0.
         25    1    1    2    0    0 -0.75976370764E+01  0.25690897129E+03 -0.62285354769E+02  0.29251394674E+03  0.12500000000E+03 0.  0.
</event>
<event>
 5    0  0.5655767E-005  0.2538508E+03  0.7546771E-02  0.1110895E+00
         21   -1    0    0  502  501  0.00000000000E+00  0.00000000000E+00  0.66628225982E+03  0.66628225982E+03  0.00000000000E+00 0. -1.
         21   -1    0    0  501  502 -0.00000000000E+00 -0.00000000000E+00 -0.96716096529E+02  0.96716096529E+02  0.00000000000E+00 0. -1.
         25    1    1    2    0    0 -0.55534991049E+02  0.85369178173E+02  0.10132718329E+03  0.19043169349E+03  0.12500000000E+03 0.  0.
         25    1    1    2    0    0  0.26690319011E+02 -0.99239998154E+02  0.38857437573E+03  0.42092279082E+03  0.12500000000E+03 0.  0.
         25    1    1    2    0    0  0.28844672038E+02  0.13870819981E+02  0.79664604282E+02  0.15164387204E+03  0.12500000000E+03 0.  0.
</event>
<event>
 5    0  0.5655767E-005  0.3590705E+03  0.7546771E-02  0.1058953E+00
         21   -1    0    0  502  501  0.00000000000E+00  0.00000000000E+00  0.37692236903E+03  0.37692236903E+03  0.00000000000E+00 0. -1.
         21   -1    0    0  501  502 -0.00000000000E+00 -0.00000000000E+00 -0.34206416657E+03  0.34206416657E+03  0.00000000000E+00 0. -1.
         25    1    1    2    0    0 -0.23480894939E+03 -0.15911473752E+03 -0.61830756428E+02  0.31607085416E+03  0.12500000000E+03 0.  0.
         25    1    1    2    0    0  0.13961423118E+03  0.35649487951E+02  0.36459581397E+02  0.19420947612E+03  0.12500000000E+03 0.  0.
         25    1    1    2    0    0  0.95194718215E+02  0.12346524957E+03  0.60229377494E+02  0.20870620532E+03  0.12500000000E+03 0.  0.
</event>
<event>
 5    0  0.5655767E-005  0.3012253E+03  0.7546771E-02  0.1084630E+00
         21   -1    0    0  502  501  0.00000000000E+00  0.00000000000E+00  0.59402051852E+03  0.59402051852E+03  0.00000000000E+00 0.  1.
         21   -1    0    0  501  502 -0.00000000000E+00 -0.00000000000E+00 -0.15275003390E+03  0.15275003390E+03  0.00000000000E+00 0.  1.
         25    1    1    2    0    0 -0.12002895189E+02 -0.82429645787E+02  0.94359349754E+02  0.17739053775E+03  0.12500000000E+03 0.  0.
         25    1    1    2    0    0 -0.17020356477E+03  0.70282706944E+02  0.12179789399E+03  0.25370975412E+03  0.12500000000E+03 0.  0.
         25    1    1    2    0    0  0.18220645996E+03  0.12146938842E+02  0.22511324088E+03  0.31567026054E+03  0.12500000000E+03 0.  0.
</event>
<event>
 5    0  0.5655767E-005  0.3286135E+03  0.7546771E-02  0.1071752E+00
         21   -1    0    0  502  501  0.00000000000E+00  0.00000000000E+00  0.50631380613E+02  0.50631380613E+02  0.00000000000E+00 0.  1.
         21   -1    0    0  501  502 -0.00000000000E+00 -0.00000000000E+00 -0.21328044885E+04  0.21328044885E+04  0.00000000000E+00 0.  1.
         25    1    1    2    0    0 -0.73107007169E+02 -0.15928770018E+03 -0.75383429169E+03  0.78396960736E+03  0.12500000000E+03 0.  0.
         25    1    1    2    0    0  0.15346987263E+03 -0.16544327565E+02 -0.45842413493E+03  0.49960424744E+03  0.12500000000E+03 0.  0.
         25    1    1    2    0    0 -0.80362865457E+02  0.17583202775E+03 -0.86991468129E+03  0.89986201434E+03  0.12500000000E+03 0.  0.
</event>
<event>
 5    0  0.5655767E-005  0.3324814E+03  0.7546771E-02  0.1070044E+00
         21   -1    0    0  502  501  0.00000000000E+00  0.00000000000E+00  0.10641560781E+03  0.10641560781E+03  0.00000000000E+00 0. -1.
         21   -1    0    0  501  502 -0.00000000000E+00 -0.00000000000E+00 -0.10387937784E+04  0.10387937784E+04  0.00000000000E+00 0. -1.
         25    1    1    2    0    0 -0.13006360654E+03 -0.47586419007E+02 -0.11864815374E+03  0.22109589188E+03  0.12500000000E+03 0.  0.
         25    1    1    2    0    0  0.11803340457E+03 -0.13331159598E+03 -0.41897091310E+03  0.47208631863E+03  0.12500000000E+03 0.  0.
         25    1    1    2    0    0  0.12030201970E+02  0.18089801498E+03 -0.39475910375E+03  0.45202717570E+03  0.12500000000E+03 0.  0.
</event>
<event>
 5    0  0.7630121E-005  0.2867422E+03  0.7546771E-02  0.1092062E+00
         21   -1    0    0  502  501  0.00000000000E+00  0.00000000000E+00  0.17103843663E+03  0.17103843663E+03  0.00000000000E+00 0.  1.
         21   -1    0    0  501  502 -0.00000000000E+00 -0.00000000000E+00 -0.48071692462E+03  0.48071692462E+03  0.00000000000E+00 0.  1.
         25    1    1    2    0    0 -0.13226870172E+02 -0.73987570978E+02  0.18046050656E+02  0.14696860446E+03  0.12500000000E+03 0.  0.
         25    1    1    2    0    0 -0.73221285580E+02  0.10819819856E+03 -0.29437908183E+03  0.34547395076E+03  0.12500000000E+03 0.  0.
         25    1    1    2    0    0  0.86448155752E+02 -0.34210627577E+02 -0.33345456818E+02  0.15931280602E+03  0.12500000000E+03 0.  0.
</event>
<event>
 5    0  0.5655767E-005  0.4491614E+03  0.7546771E-02  0.1027972E+00
         21   -1    0    0  502  501  0.00000000000E+00  0.00000000000E+00  0.19663101259E+03  0.19663101259E+03  0.00000000000E+00 0. -1.
         21   -1    0    0  501  502 -0.00000000000E+00 -0.00000000000E+00 -0.10260127653E+04  0.10260127653E+04  0.00000000000E+00 0. -1.
         25    1    1    2    0    0  0.12220011260E+02  0.12742871114E+03 -0.80738076874E+03  0.82696802285E+03  0.12500000000E+03 0.  0.
         25    1    1    2    0    0  0.53051345015E+02 -0.78682189287E+02 -0.13618814352E+03  0.20779206567E+03  0.12500000000E+03 0.  0.
         25    1    1    2    0    0 -0.65271356274E+02 -0.48746521856E+02  0.11418715952E+03  0.18788368940E+03  0.12500000000E+03 0.  0.
</event>
<event>
 5    0  0.5655767E-005  0.5381213E+03  0.7546771E-02  0.1004281E+00
         21   -1    0    0  502  501  0.00000000000E+00  0.00000000000E+00  0.28272405974E+03  0.28272405974E+03  0.00000000000E+00 0.  1.
         21   -1    0    0  501  502 -0.00000000000E+00 -0.00000000000E+00 -0.10242301583E+04  0.10242301583E+04  0.00000000000E+00 0.  1.
         25    1    1    2    0    0  0.97601023598E+02 -0.14553689802E+03 -0.46010726003E+03  0.50796716353E+03  0.12500000000E+03 0.  0.
         25    1    1    2    0    0 -0.15705565464E+03 -0.12136832683E+03 -0.40969694904E+03  0.47209462978E+03  0.12500000000E+03 0.  0.
         25    1    1    2    0    0  0.59454631039E+02  0.26690522485E+03  0.12829811050E+03  0.32689242475E+03  0.12500000000E+03 0.  0.
</event>
<event>
 5    0  0.5655767E-005  0.2498420E+03  0.7546771E-02  0.1113405E+00
         21   -1    0    0  502  501  0.00000000000E+00  0.00000000000E+00  0.28253950026E+03  0.28253950026E+03  0.00000000000E+00 0. -1.
         21   -1    0    0  501  502 -0.00000000000E+00 -0.00000000000E+00 -0.22092846550E+03  0.22092846550E+03  0.00000000000E+00 0. -1.
         25    1    1    2    0    0  0.94044009418E+00  0.11719201182E+03 -0.69567061849E+02  0.18493087399E+03  0.12500000000E+03 0.  0.
         25    1    1    2    0    0 -0.14271209915E+02 -0.86990736498E+02  0.33713151748E+02  0.15662896370E+03  0.12500000000E+03 0.  0.
         25    1    1    2    0    0  0.13330769821E+02 -0.30201275320E+02  0.97464944860E+02  0.16190812806E+03  0.12500000000E+03 0.  0.
</event>
<event>
 5    0  0.5655767E-005  0.2211883E+03  0.7546771E-02  0.1133000E+00
         21   -1    0    0  502  501  0.00000000000E+00  0.00000000000E+00  0.21946080490E+03  0.21946080490E+03  0.00000000000E+00 0. -1.
         21   -1    0    0  501  502 -0.00000000000E+00 -0.00000000000E+00 -0.22292946205E+03  0.22292946205E+03  0.00000000000E+00 0. -1.
         25    1    1    2    0    0  0.40491785894E+02 -0.25176610792E+02 -0.26280003761E+02  0.13634179496E+03  0.12500000000E+03 0.  0.
         25    1    1    2    0    0 -0.55611970315E+01  0.95244462469E+02  0.20099771316E+02  0.15852897322E+03  0.12500000000E+03 0.  0.
         25    1    1    2    0    0 -0.34930588862E+02 -0.70067851676E+02  0.27115752987E+01  0.14751949877E+03  0.12500000000E+03 0.  0.
</event>
<event>
 5    0  0.5655767E-005  0.6792028E+03  0.7546771E-02  0.9753474E-01
         21   -1    0    0  502  501  0.00000000000E+00  0.00000000000E+00  0.17012908312E+03  0.17012908312E+03  0.00000000000E+00 0.  1.
         21   -1    0    0  501  502 -0.00000000000E+00 -0.00000000000E+00 -0.27115674867E+04  0.27115674867E+04  0.00000000000E+00 0.  1.
         25    1    1    2    0    0  0.27736163123E+03  0.35771566043E+03 -0.13530230615E+04  0.14321963458E+04  0.12500000000E+03 0.  0.
         25    1    1    2    0    0 -0.46032126860E+03 -0.16636807697E+03 -0.54790299387E+03  0.74524942003E+03  0.12500000000E+03 0.  0.
         25    1    1    2    0    0  0.18295963737E+03 -0.19134758347E+03 -0.64051234820E+03  0.70425080391E+03  0.12500000000E+03 0.  0.
</event>
<event>
 5    0  0.5655767E-005  0.2680310E+03  0.7546771E-02  0.1102412E+00
         21   -1    0    0  502  501  0.00000000000E+00  0.00000000000E+00  0.27281361671E+03  0.27281361671E+03  0.00000000000E+00 0.  1.
         21   -1    0    0  501  502 -0.00000000000E+00 -0.00000000000E+00 -0.26333222708E+03  0.26333222708E+03  0.00000000000E+00 0.  1.
         25    1    1    2    0    0  0.99671337352E+01 -0.68777998302E+02 -0.76236889330E+02  0.16207041710E+03  0.12500000000E+03 0.  0.
         25    1    1    2    0    0 -0.50466948926E+02  0.15594167298E+03  0.56234196938E+02  0.21366329402E+03  0.12500000000E+03 0.  0.
         25    1    1    2    0    0  0.40499815190E+02 -0.87163674676E+02  0.29484082027E+02  0.16041213267E+03  0.12500000000E+03 0.  0.
</event>
<event>
 5    0  0.5655767E-005  0.2609632E+03  0.7546771E-02  0.1106566E+00
         21   -1    0    0  502  501  0.00000000000E+00  0.00000000000E+00  0.90214018052E+02  0.90214018052E+02  0.00000000000E+00 0. -1.
         21   -1    0    0  501  502 -0.00000000000E+00 -0.00000000000E+00 -0.75489169500E+03  0.75489169500E+03  0.00000000000E+00 0. -1.
         25    1    1    2    0    0 -0.73391109649E+02  0.39272025814E+02 -0.21888118422E+03  0.26544777225E+03  0.12500000000E+03 0.  0.
         25    1    1    2    0    0 -0.73890134799E+02 -0.66118437328E+02 -0.11882063539E+03  0.19893401713E+03  0.12500000000E+03 0.  0.
         25    1    1    2    0    0  0.14728124445E+03  0.26846411514E+02 -0.32697585733E+03  0.38072392367E+03  0.12500000000E+03 0.  0.
</event>
<event>
 5    0  0.5655767E-005  0.2969293E+03  0.7546771E-02  0.1086786E+00
         21   -1    0    0  502  501  0.00000000000E+00  0.00000000000E+00  0.14515943284E+04  0.14515943284E+04  0.00000000000E+00 0. -1.
         21   -1    0    0  501  502 -0.00000000000E+00 -0.00000000000E+00 -0.60738040841E+02  0.60738040841E+02  0.00000000000E+00 0. -1.
         25    1    1    2    0    0 -0.51028862583E+02 -0.10114185775E+02  0.11042887565E+04  0.11125578184E+04  0.12500000000E+03 0.  0.
         25    1    1    2    0    0  0.49083483279E+02 -0.36761183979E+02  0.10492353549E+03  0.17434024572E+03  0.12500000000E+03 0.  0.
         25    1    1    2    0    0  0.19453793043E+01  0.46875369754E+02  0.18164399552E+03  0.22543430506E+03  0.12500000000E+03 0.  0.
</event>
<event>
 5    0  0.5655767E-005  0.2822501E+03  0.7546771E-02  0.1094466E+00
         21   -1    0    0  502  501  0.00000000000E+00  0.00000000000E+00  0.12460909504E+03  0.12460909504E+03  0.00000000000E+00 0. -1.
         21   -1    0    0  501  502 -0.00000000000E+00 -0.00000000000E+00 -0.63932023627E+03  0.63932023627E+03  0.00000000000E+00 0. -1.
         25    1    1    2    0    0  0.33753159594E+02 -0.12567804222E+03 -0.98363168435E+02  0.20551048388E+03  0.12500000000E+03 0.  0.
         25    1    1    2    0    0 -0.11250265380E+03  0.64013786874E+02 -0.33160720377E+03  0.37728364610E+03  0.12500000000E+03 0.  0.
         25    1    1    2    0    0  0.78749494202E+02  0.61664255346E+02 -0.84740769026E+02  0.18113520133E+03  0.12500000000E+03 0.  0.
</event>
<event>
 5    0  0.5655767E-005  0.5410539E+03  0.7546771E-02  0.1003586E+00
         21   -1    0    0  502  501  0.00000000000E+00  0.00000000000E+00  0.45213771760E+03  0.45213771760E+03  0.00000000000E+00 0.  1.
         21   -1    0    0  501  502 -0.00000000000E+00 -0.00000000000E+00 -0.64745599252E+03  0.64745599252E+03  0.00000000000E+00 0.  1.
         25    1    1    2    0    0 -0.16614633527E+03 -0.46923698983E+02 -0.54727355338E+03  0.58731574172E+03  0.12500000000E+03 0.  0.
         25    1    1    2    0    0  0.32337496248E+02  0.82766388747E+02  0.57717409475E+02  0.16386667790E+03  0.12500000000E+03 0.  0.
         25    1    1    2    0    0  0.13380883902E+03 -0.35842689763E+02  0.29423786898E+03  0.34841129051E+03  0.12500000000E+03 0.  0.
</event>
<event>
 5    0  0.5655767E-005  0.2412896E+03  0.7546771E-02  0.1118937E+00
         21   -1    0    0  502  501  0.00000000000E+00  0.00000000000E+00  0.35565214475E+03  0.35565214475E+03  0.00000000000E+00 0. -1.
         21   -1    0    0  501  502 -0.00000000000E+00 -0.00000000000E+00 -0.16370113655E+03  0.16370113655E+03  0.00000000000E+00 0. -1.
         25    1    1    2    0    0  0.44620255254E+02  0.11825612814E+02  0.44838521939E+02  0.14059269308E+03  0.12500000000E+03 0.  0.
         25    1    1    2    0    0  0.35175359656E+02  0.91256504155E+02  0.24810500981E+02  0.16064126629E+03  0.12500000000E+03 0.  0.
         25    1    1    2    0    0 -0.79795614910E+02 -0.10308211697E+03  0.12230198528E+03  0.21811932193E+03  0.12500000000E+03 0.  0.
</event>
<event>
 5    0  0.5655767E-005  0.3054728E+03  0.7546771E-02  0.1082536E+00
         21   -1    0    0  502  501  0.00000000000E+00  0.00000000000E+00  0.22313385064E+03  0.22313385064E+03  0.00000000000E+00 0. -1.
         21   -1    0    0  501  502 -0.00000000000E+00 -0.00000000000E+00 -0.41819573226E+03  0.41819573226E+03  0.00000000000E+00 0. -1.
         25    1    1    2    0    0  0.15083599683E+01  0.73336512506E+02 -0.76101475661E+02  0.16369775140E+03  0.12500000000E+03 0.  0.
         25    1    1    2    0    0 -0.46552170998E+02 -0.14628650581E+03 -0.21961919513E+03  0.29567623726E+03  0.12500000000E+03 0.  0.
         25    1    1    2    0    0  0.45043811030E+02  0.72949993308E+02  0.10065878918E+03  0.18195559424E+03  0.12500000000E+03 0.  0.
</event>
<event>
 5    0  0.5655767E-005  0.2386079E+03  0.7546771E-02  0.1120724E+00
         21   -1    0    0  502  501  0.00000000000E+00  0.00000000000E+00  0.30011673600E+03  0.30011673600E+03  0.00000000000E+00 0.  1.
         21   -1    0    0  501  502 -0.00000000000E+00 -0.00000000000E+00 -0.18970528872E+03  0.18970528872E+03  0.00000000000E+00 0.  1.
         25    1    1    2    0    0  0.35079137009E+02 -0.17667704258E+02  0.11462637198E+02  0.13152598861E+03  0.12500000000E+03 0.  0.
         25    1    1    2    0    0 -0.42285117321E+02  0.10331100930E+03  0.11863186738E+03  0.20532831209E+03  0.12500000000E+03 0.  0.
         25    1    1    2    0    0  0.72059803119E+01 -0.85643305041E+02 -0.19683057292E+02  0.15296772403E+03  0.12500000000E+03 0.  0.
</event>
<event>
 5    0  0.5655767E-005  0.2301500E+03  0.7546771E-02  0.1126534E+00
         21   -1    0    0  502  501  0.00000000000E+00  0.00000000000E+00  0.42702357461E+03  0.42702357461E+03  0.00000000000E+00 0. -1.
         21   -1    0    0  501  502 -0.00000000000E+00 -0.00000000000E+00 -0.12404239058E+03  0.12404239058E+03  0.00000000000E+00 0. -1.
         25    1    1    2    0    0 -0.89238988565E+02 -0.75651150647E+01  0.15709528318E+03  0.21982892449E+03  0.12500000000E+03 0.  0.
         25    1    1    2    0    0  0.23462179916E+02  0.48346758547E+02  0.12108861312E+03  0.18214097610E+03  0.12500000000E+03 0.  0.
         25    1    1    2    0    0  0.65776808650E+02 -0.40781643482E+02  0.24797287729E+02  0.14909606460E+03  0.12500000000E+03 0.  0.
</event>
<event>
 5    0  0.5655767E-005  0.3070717E+03  0.7546771E-02  0.1081758E+00
         21   -1    0    0  502  501  0.00000000000E+00  0.00000000000E+00  0.14538528570E+03  0.14538528570E+03  0.00000000000E+00 0. -1.
         21   -1    0    0  501  502 -0.00000000000E+00 -0.00000000000E+00 -0.64857355106E+03  0.64857355106E+03  0.00000000000E+00 0. -1.
         25    1    1    2    0    0 -0.36755566956E+02 -0.48125680814E+02 -0.74484179574E+02  0.15760693469E+03  0.12500000000E+03 0.  0.
         25    1    1    2    0    0 -0.17251239204E+00  0.13264606553E+03 -0.20266862733E+01  0.18227483622E+03  0.12500000000E+03 0.  0.
         25    1    1    2    0    0  0.36928079348E+02 -0.84520384713E+02 -0.42667739951E+03  0.45407706585E+03  0.12500000000E+03 0.  0.
</event>
<event>
 5    0  0.5655767E-005  0.2321865E+03  0.7546771E-02  0.1125110E+00
         21   -1    0    0  502  501  0.00000000000E+00  0.00000000000E+00  0.22713541583E+03  0.22713541583E+03  0.00000000000E+00 0.  1.
         21   -1    0    0  501  502 -0.00000000000E+00 -0.00000000000E+00 -0.23734989684E+03  0.23734989684E+03  0.00000000000E+00 0.  1.
         25    1    1    2    0    0 -0.93354318391E+02  0.46539854380E+02  0.14636079496E+02  0.16346315068E+03  0.12500000000E+03 0.  0.
         25    1    1    2    0    0  0.45569075159E+02 -0.49503897403E+02  0.46445931090E+02  0.14936331874E+03  0.12500000000E+03 0.  0.
         25    1    1    2    0    0  0.47785243232E+02  0.29640430230E+01 -0.71296491591E+02  0.15165884325E+03  0.12500000000E+03 0.  0.
</event>
<event>
 5    0  0.6783589E-005  0.2924346E+03  0.7546771E-02  0.1089085E+00
         21   -1    0    0  502  501  0.00000000000E+00  0.00000000000E+00  0.46064947234E+03  0.46064947234E+03  0.00000000000E+00 0. -1.
         21   -1    0    0  501  502 -0.00000000000E+00 -0.00000000000E+00 -0.18564661544E+03  0.18564661544E+03  0.00000000000E+00 0. -1.
         25    1    1    2    0    0  0.97993506371E+02 -0.50977406476E+02 -0.15858261704E+01  0.16682007705E+03  0.12500000000E+03 0.  0.
         25    1    1    2    0    0 -0.12888264717E+01 -0.10939953977E+03  0.12789761488E+03  0.20964904070E+03  0.12500000000E+03 0.  0.
         25    1    1    2    0    0 -0.96704679899E+02  0.16037694624E+03  0.14869106819E+03  0.26982697004E+03  0.12500000000E+03 0.  0.
</event>
<event>
 5    0  0.5655767E-005  0.3000015E+03  0.7546771E-02  0.1085240E+00
         21   -1    0    0  502  501  0.00000000000E+00  0.00000000000E+00  0.24121363524E+03  0.24121363524E+03  0.00000000000E+00 0. -1.
         21   -1    0    0  501  502 -0.00000000000E+00 -0.00000000000E+00 -0.37311687622E+03  0.37311687622E+03  0.00000000000E+00 0. -1.
         25    1    1    2    0    0 -0.88052798794E+02  0.24490328316E+02  0.43519153262E+01  0.15490968570E+03  0.12500000000E+03 0.  0.
         25    1    1    2    0    0 -0.69499222747E+02  0.90201425928E+02 -0.15199871228E+03  0.22736544974E+03  0.12500000000E+03 0.  0.
         25    1    1    2    0    0  0.15755202154E+03 -0.11469175424E+03  0.15743555972E+02  0.23205537602E+03  0.12500000000E+03 0.  0.
</event>
<event>
 5    0  0.8417500E-005  0.3342817E+03  0.7546771E-02  0.1069258E+00
         21   -1    0    0  502  501  0.00000000000E+00  0.00000000000E+00  0.16570984059E+03  0.16570984059E+03  0.00000000000E+00 0.  1.
         21   -1    0    0  501  502 -0.00000000000E+00 -0.00000000000E+00 -0.67433702110E+03  0.67433702110E+03  0.00000000000E+00 0.  1.
         25    1    1    2    0    0  0.17499898353E+03 -0.72427046700E+02 -0.13078353815E+03  0.26191535881E+03  0.12500000000E+03 0.  0.
         25    1    1    2    0    0 -0.10051301122E+03  0.85189253555E+01  0.80155224493E+01  0.16082501706E+03  0.12500000000E+03 0.  0.
         25    1    1    2    0    0 -0.74485972305E+02  0.63908121344E+02 -0.38585916481E+03  0.41730648583E+03  0.12500000000E+03 0.  0.
</event>
<event>
 5    0  0.5795357E-005  0.2898048E+03  0.7546771E-02  0.1090451E+00
         21   -1    0    0  502  501  0.00000000000E+00  0.00000000000E+00  0.20629933548E+03  0.20629933548E+03  0.00000000000E+00 0.  1.
         21   -1    0    0  501  502 -0.00000000000E+00 -0.00000000000E+00 -0.40711155673E+03  0.40711155673E+03  0.00000000000E+00 0.  1.
         25    1    1    2    0    0 -0.53585853364E+02 -0.43605594326E+02 -0.67196541247E+02  0.15783936991E+03  0.12500000000E+03 0.  0.
         25    1    1    2    0    0  0.47950532217E+02 -0.49936213214E+02  0.10008894730E+03  0.17445823655E+03  0.12500000000E+03 0.  0.
         25    1    1    2    0    0  0.56353211473E+01  0.93541807541E+02 -0.23370462730E+03  0.28111328575E+03  0.12500000000E+03 0.  0.
</event>
<event>
 5    0  0.5655767E-005  0.2188207E+03  0.7546771E-02  0.1134765E+00
         21   -1    0    0  502  501  0.00000000000E+00  0.00000000000E+00  0.16660640392E+03  0.16660640392E+03  0.00000000000E+00 0. -1.
         21   -1    0    0  501  502 -0.00000000000E+00 -0.00000000000E+00 -0.28739903271E+03  0.28739903271E+03  0.00000000000E+00 0. -1.
         25    1    1    2    0    0  0.36641187348E+02 -0.93980370977E+02 -0.56864561767E+02  0.17039209232E+03  0.12500000000E+03 0.  0.
         25    1    1    2    0    0 -0.42567986522E+01  0.46260389560E+02 -0.38408542758E+01  0.13340875585E+03  0.12500000000E+03 0.  0.
         25    1    1    2    0    0 -0.32384388695E+02  0.47719981417E+02 -0.60087212751E+02  0.15020458846E+03  0.12500000000E+03 0.  0.
</event>
<event>
 5    0  0.5655767E-005  0.2133916E+03  0.7546771E-02  0.1138908E+00
         21   -1    0    0  502  501  0.00000000000E+00  0.00000000000E+00  0.18774604729E+04  0.18774604729E+04  0.00000000000E+00 0. -1.
         21   -1    0    0  501  502 -0.00000000000E+00 -0.00000000000E+00 -0.24254031028E+02  0.24254031028E+02  0.00000000000E+00 0. -1.
         25    1    1    2    0    0 -0.10853058422E+02  0.61014826128E+02  0.63879205219E+03  0.65385081160E+03  0.12500000000E+03 0.  0.
         25    1    1    2    0    0  0.11340291335E+01 -0.72972685675E+02  0.43791946936E+03  0.46122094545E+03  0.12500000000E+03 0.  0.
         25    1    1    2    0    0  0.97190292888E+01  0.11957859547E+02  0.77649492031E+03  0.78664274687E+03  0.12500000000E+03 0.  0.
</event>
<event>
 5    0  0.5655767E-005  0.4749363E+03  0.7546771E-02  0.1020536E+00
         21   -1    0    0  502  501  0.00000000000E+00  0.00000000000E+00  0.22718792416E+03  0.22718792416E+03  0.00000000000E+00 0. -1.
         21   -1    0    0  501  502 -0.00000000000E+00 -0.00000000000E+00 -0.99285409493E+03  0.99285409493E+03  0.00000000000E+00 0. -1.
         25    1    1    2    0    0 -0.99494897084E+01  0.66455596457E+02 -0.17422786453E+03  0.22471245498E+03  0.12500000000E+03 0.  0.
         25    1    1    2    0    0 -0.27204738121E+02 -0.19048136523E+03 -0.73190851603E+03  0.76703215325E+03  0.12500000000E+03 0.  0.
         25    1    1    2    0    0  0.37154227829E+02  0.12402576877E+03  0.14047020979E+03  0.22829741085E+03  0.12500000000E+03 0.  0.
</event>
<event>
 5    0  0.5655767E-005  0.2802609E+03  0.7546771E-02  0.1095547E+00
         21   -1    0    0  502  501  0.00000000000E+00  0.00000000000E+00  0.44253402476E+02  0.44253402476E+02  0.00000000000E+00 0.  1.
         21   -1    0    0  501  502 -0.00000000000E+00 -0.00000000000E+00 -0.17749178189E+04  0.17749178189E+04  0.00000000000E+00 0.  1.
         25    1    1    2    0    0 -0.44380269739E+02  0.12379075831E+03 -0.70869524681E+03  0.73155157921E+03  0.12500000000E+03 0.  0.
         25    1    1    2    0    0 -0.69661001142E+02  0.24328819172E+02 -0.45874584470E+03  0.48116244300E+03  0.12500000000E+03 0.  0.
         25    1    1    2    0    0  0.11404127088E+03 -0.14811957749E+03 -0.56322332489E+03  0.60645719915E+03  0.12500000000E+03 0.  0.
</event>
<event>
 5    0  0.5655767E-005  0.3926079E+03  0.7546771E-02  0.1046370E+00
         21   -1    0    0  502  501  0.00000000000E+00  0.00000000000E+00  0.37103420101E+03  0.37103420101E+03  0.00000000000E+00 0. -1.
         21   -1    0    0  501  502 -0.00000000000E+00 -0.00000000000E+00 -0.41543609207E+03  0.41543609207E+03  0.00000000000E+00 0. -1.
         25    1    1    2    0    0  0.53322378320E+02  0.15448205807E+03  0.34816901435E+02  0.20867486413E+03  0.12500000000E+03 0.  0.
         25    1    1    2    0    0 -0.76050999573E+02 -0.42948876263E+02  0.19992842591E+03  0.25144529424E+03  0.12500000000E+03 0.  0.
         25    1    1    2    0    0  0.22728621253E+02 -0.11153318181E+03 -0.27914721841E+03  0.32635013470E+03  0.12500000000E+03 0.  0.
</event>
<event>
 5    0  0.5655767E-005  0.2351911E+03  0.7546771E-02  0.1123038E+00
         21   -1    0    0  502  501  0.00000000000E+00  0.00000000000E+00  0.11823984316E+04  0.11823984316E+04  0.00000000000E+00 0.  1.
         21   -1    0    0  501  502 -0.00000000000E+00 -0.00000000000E+00 -0.46781892309E+02  0.46781892309E+02  0.00000000000E+00 0.  1.
         25    1    1    2    0    0  0.59256868321E+02  0.26756339638E+02  0.26477528134E+03  0.29993037152E+03  0.12500000000E+03 0.  0.
         25    1    1    2    0    0 -0.37024374904E+02  0.32630126943E+02  0.67601152464E+03  0.68924024183E+03  0.12500000000E+03 0.  0.
         25    1    1    2    0    0 -0.22232493417E+02 -0.59386466581E+02  0.19482973332E+03  0.24000971056E+03  0.12500000000E+03 0.  0.
</event>
<event>
 5    0  0.5655767E-005  0.3505119E+03  0.7546771E-02  0.1062405E+00
         21   -1    0    0  502  501  0.00000000000E+00  0.00000000000E+00  0.10488254194E+04  0.10488254194E+04  0.00000000000E+00 0.  1.
         21   -1    0    0  501  502 -0.00000000000E+00 -0.00000000000E+00 -0.11713918784E+03  0.11713918784E+03  0.00000000000E+00 0.  1.
         25    1    1    2    0    0 -0.16614082669E+03 -0.71174705597E+01  0.24805102494E+03  0.32374024102E+03  0.12500000000E+03 0.  0.
         25    1    1    2    0    0 -0.50616840128E+02 -0.13999960750E+03  0.20544280977E+03  0.28283158008E+03  0.12500000000E+03 0.  0.
         25    1    1    2    0    0  0.21675766682E+03  0.14711707806E+03  0.47819239688E+03  0.55939278617E+03  0.12500000000E+03 0.  0.
</event>
<event>
 5    0  0.5655767E-005  0.4158056E+03  0.7546771E-02  0.1038440E+00
         21   -1    0    0  502  501  0.00000000000E+00  0.00000000000E+00  0.77306473940E+03  0.77306473940E+03  0.00000000000E+00 0. -1.
         21   -1    0    0  501  502 -0.00000000000E+00 -0.00000000000E+00 -0.22364793520E+03  0.22364793520E+03  0.00000000000E+00 0. -1.
         25    1    1    2    0    0  0.10413815533E+03  0.15514783783E+03  0.13644704476E+03  0.26297985284E+03  0.12500000000E+03 0.  0.
         25    1    1    2    0    0 -0.30415001521E+03 -0.36288009283E+02  0.29954395824E+03  0.44629097491E+03  0.12500000000E+03 0.  0.
         25    1    1    2    0    0  0.20001185988E+03 -0.11885982854E+03  0.11342580120E+03  0.28744184684E+03  0.12500000000E+03 0.  0.
</event>
<event>
 5    0  0.5655767E-005  0.4517486E+03  0.7546771E-02  0.1027202E+00
         21   -1    0    0  502  501  0.00000000000E+00  0.00000000000E+00  0.84159612710E+02  0.84159612710E+02  0.00000000000E+00 0.  1.
         21   -1    0    0  501  502 -0.00000000000E+00 -0.00000000000E+00 -0.24248783344E+04  0.24248783344E+04  0.00000000000E+00 0.  1.
         25    1    1    2    0    0 -0.18792747715E+03  0.15500347302E+03 -0.15522043006E+04  0.15761681395E+04  0.12500000000E+03 0.  0.
         25    1    1    2    0    0  0.19868740829E+03 -0.10338072365E+03 -0.74879578602E+03  0.79150766856E+03  0.12500000000E+03 0.  0.
         25    1    1    2    0    0 -0.10759931140E+02 -0.51622749373E+02 -0.39718635066E+02  0.14136213900E+03  0.12500000000E+03 0.  0.
</event>
<event>
 5    0  0.5655767E-005  0.2958081E+03  0.7546771E-02  0.1087355E+00
         21   -1    0    0  502  501  0.00000000000E+00  0.00000000000E+00  0.26853121245E+03  0.26853121245E+03  0.00000000000E+00 0.  1.
         21   -1    0    0  501  502 -0.00000000000E+00 -0.00000000000E+00 -0.32585561522E+03  0.32585561522E+03  0.00000000000E+00 0.  1.
         25    1    1    2    0    0  0.29843645675E+02 -0.11172699370E+03 -0.17297181708E+03  0.24272991948E+03  0.12500000000E+03 0.  0.
         25    1    1    2    0    0  0.21683915876E+02 -0.78331410937E+01  0.11464041060E+03  0.17116943083E+03  0.12500000000E+03 0.  0.
         25    1    1    2    0    0 -0.51527561551E+02  0.11956013479E+03  0.10070037018E+01  0.18048747737E+03  0.12500000000E+03 0.  0.
</event>
<event>
 5    0  0.5655767E-005  0.3779837E+03  0.7546771E-02  0.1051682E+00
         21   -1    0    0  502  501  0.00000000000E+00  0.00000000000E+00  0.56417190958E+02  0.56417190958E+02  0.00000000000E+00 0. -1.
         21   -1    0    0  501  502 -0.00000000000E+00 -0.00000000000E+00 -0.25324132376E+04  0.25324132376E+04  0.00000000000E+00 0. -1.
         25    1    1    2    0    0  0.24084751762E+03 -0.88956646776E+02 -0.46613140319E+03  0.54664823862E+03  0.12500000000E+03 0.  0.
         25    1    1    2    0    0 -0.92377545431E+02  0.37293065610E+02 -0.97364114298E+03  0.98667444425E+03  0.12500000000E+03 0.  0.
         25    1    1    2    0    0 -0.14846997219E+03  0.51663581165E+02 -0.10362235005E+04  0.10555077457E+04  0.12500000000E+03 0.  0.
</event>
<event>
 5    0  0.5655767E-005  0.3657193E+03  0.7546771E-02  0.1056342E+00
         21   -1    0    0  502  501  0.00000000000E+00  0.00000000000E+00  0.26569522767E+03  0.26569522767E+03  0.00000000000E+00 0.  1.
         21   -1    0    0  501  502 -0.00000000000E+00 -0.00000000000E+00 -0.50339871631E+03  0.50339871631E+03  0.00000000000E+00 0.  1.
         25    1    1    2    0    0  0.61997212381E+02 -0.95967624644E+01 -0.40332030855E+03  0.42688174414E+03  0.12500000000E+03 0.  0.
         25    1    1    2    0    0  0.44677336583E+02 -0.37410997394E+01  0.92611099599E+02  0.16190082149E+03  0.12500000000E+03 0.  0.
         25    1    1    2    0    0 -0.10667454896E+03  0.13337862204E+02  0.73005720313E+02  0.18031137835E+03  0.12500000000E+03 0.  0.
</event>
<event>
 5    0  0.5655767E-005  0.3235887E+03  0.7546771E-02  0.1074009E+00
         21   -1    0    0  502  501  0.00000000000E+00  0.00000000000E+00  0.23083077589E+03  0.23083077589E+03  0.00000000000E+00 0.  1.
         21   -1    0    0  501  502 -0.00000000000E+00 -0.00000000000E+00 -0.45362075398E+03  0.45362075398E+03  0.00000000000E+00 0.  1.
         25    1    1    2    0    0 -0.13744276188E+03  0.10740038280E+03 -0.58159870623E-01  0.21459347241E+03  0.12500000000E+03 0.  0.
         25    1    1    2    0    0 -0.34228382529E+02 -0.44604290210E+01  0.20118971595E+02  0.13122976269E+03  0.12500000000E+03 0.  0.
         25    1    1    2    0    0  0.17167114441E+03 -0.10293995378E+03 -0.24285078981E+03  0.33862829477E+03  0.12500000000E+03 0.  0.
</event>
<event>
 5    0  0.5655767E-005  0.4151239E+03  0.7546771E-02  0.1038665E+00
         21   -1    0    0  502  501  0.00000000000E+00  0.00000000000E+00  0.95065068391E+03  0.95065068391E+03  0.00000000000E+00 0.  1.
         21   -1    0    0  501  502 -0.00000000000E+00 -0.00000000000E+00 -0.18127354134E+03  0.18127354134E+03  0.00000000000E+00 0.  1.
         25    1    1    2    0    0 -0.16292039428E+03  0.10907115430E+03  0.22043522078E+03  0.32040015314E+03  0.12500000000E+03 0.  0.
         25    1    1    2    0    0  0.26374856590E+03 -0.24962047323E+03  0.36338500319E+03  0.52872237253E+03  0.12500000000E+03 0.  0.
         25    1    1    2    0    0 -0.10082817162E+03  0.14054931893E+03  0.18555691860E+03  0.28280169958E+03  0.12500000000E+03 0.  0.
</event>
<event>
 5    0  0.5655767E-005  0.3491752E+03  0.7546771E-02  0.1062954E+00
         21   -1    0    0  502  501  0.00000000000E+00  0.00000000000E+00  0.66181926883E+03  0.66181926883E+03  0.00000000000E+00 0. -1.
         21   -1    0    0  501  502 -0.00000000000E+00 -0.00000000000E+00 -0.18422452124E+03  0.18422452124E+03  0.00000000000E+00 0. -1.
         25    1    1    2    0    0 -0.88748655771E+02  0.69704058406E+02  0.16521394783E+03  0.23591445105E+03  0.12500000000E+03 0.  0.
         25    1    1    2    0    0  0.16082204723E+03  0.14734569594E+03  0.88426671314E+02  0.26649345430E+03  0.12500000000E+03 0.  0.
         25    1    1    2    0    0 -0.72073391456E+02 -0.21704975435E+03  0.22395412845E+03  0.34363588472E+03  0.12500000000E+03 0.  0.
</event>
<event>
 5    0  0.5655767E-005  0.2785153E+03  0.7546771E-02  0.1096503E+00
         21   -1    0    0  502  501  0.00000000000E+00  0.00000000000E+00  0.42085989873E+03  0.42085989873E+03  0.00000000000E+00 0.  1.
         21   -1    0    0  501  502 -0.00000000000E+00 -0.00000000000E+00 -0.18431492415E+03  0.18431492415E+03  0.00000000000E+00 0.  1.
         25    1    1    2    0    0  0.12083106738E+03  0.15502198041E+03  0.11278332943E+03  0.25879922846E+03  0.12500000000E+03 0.  0.
         25    1    1    2    0    0 -0.85501619085E+02 -0.83007012593E+02  0.45979791963E+02  0.17871718517E+03  0.12500000000E+03 0.  0.
         25    1    1    2    0    0 -0.35329448298E+02 -0.72014967820E+02  0.77781853191E+02  0.16765840925E+03  0.12500000000E+03 0.  0.
</event>
<event>
 5    0  0.5655767E-005  0.2443130E+03  0.7546771E-02  0.1116953E+00
         21   -1    0    0  502  501  0.00000000000E+00  0.00000000000E+00  0.89428471362E+02  0.89428471362E+02  0.00000000000E+00 0.  1.
         21   -1    0    0  501  502 -0.00000000000E+00 -0.00000000000E+00 -0.66744778064E+03  0.66744778064E+03  0.00000000000E+00 0.  1.
         25    1    1    2    0    0  0.38485715842E+02  0.29108049486E+02 -0.75773961764E+02  0.15393219985E+03  0.12500000000E+03 0.  0.
         25    1    1    2    0    0 -0.81662160614E+01 -0.10538984717E+00 -0.55254309712E+02  0.13691142003E+03  0.12500000000E+03 0.  0.
         25    1    1    2    0    0 -0.30319499781E+02 -0.29002659639E+02 -0.44699103780E+03  0.46603263213E+03  0.12500000000E+03 0.  0.
</event>
<event>
 5    0  0.5655767E-005  0.2628259E+03  0.7546771E-02  0.1105457E+00
         21   -1    0    0  502  501  0.00000000000E+00  0.00000000000E+00  0.10727246808E+04  0.10727246808E+04  0.00000000000E+00 0.  1.
         21   -1    0    0  501  502 -0.00000000000E+00 -0.00000000000E+00 -0.64394381132E+02  0.64394381132E+02  0.00000000000E+00 0.  1.
         25    1    1    2    0    0 -0.57602353861E+02 -0.61999518870E+02  0.36410703930E+03  0.39415848028E+03  0.12500000000E+03 0.  0.
         25    1    1    2    0    0 -0.78586759549E+02  0.80618422313E+02  0.19932957634E+03  0.26083038320E+03  0.12500000000E+03 0.  0.
         25    1    1    2    0    0  0.13618911341E+03 -0.18618903442E+02  0.44489368402E+03  0.48213019845E+03  0.12500000000E+03 0.  0.
</event>
<event>
 5    0  0.5655767E-005  0.2896812E+03  0.7546771E-02  0.1090516E+00
         21   -1    0    0  502  501  0.00000000000E+00  0.00000000000E+00  0.32844565384E+03  0.32844565384E+03  0.00000000000E+00 0.  1.
         21   -1    0    0  501  502 -0.00000000000E+00 -0.00000000000E+00 -0.25549185910E+03  0.25549185910E+03  0.00000000000E+00 0.  1.
         25    1    1    2    0    0 -0.86642565033E+02 -0.14234619585E+03  0.67486446395E+02  0.21897213064E+03  0.12500000000E+03 0.  0.
         25    1    1    2    0    0  0.41723725089E+02  0.18326185064E+03 -0.27256802404E+01  0.22573923998E+03  0.12500000000E+03 0.  0.
         25    1    1    2    0    0  0.44918839944E+02 -0.40915654789E+02  0.81930285846E+01  0.13922614232E+03  0.12500000000E+03 0.  0.
</event>
<event>
 5    0  0.5655767E-005  0.2759668E+03  0.7546771E-02  0.1097912E+00
         21   -1    0    0  502  501  0.00000000000E+00  0.00000000000E+00  0.18382740510E+03  0.18382740510E+03  0.00000000000E+00 0.  1.
         21   -1    0    0  501  502 -0.00000000000E+00 -0.00000000000E+00 -0.41428911079E+03  0.41428911079E+03  0.00000000000E+00 0.  1.
         25    1    1    2    0    0  0.11849213589E+03  0.11116673705E+03 -0.10257737274E+03  0.22922815510E+03  0.12500000000E+03 0.  0.
         25    1    1    2    0    0 -0.59939778125E+02 -0.32288001931E+02 -0.15182588118E+03  0.20811388773E+03  0.12500000000E+03 0.  0.
         25    1    1    2    0    0 -0.58552357766E+02 -0.78878735115E+02  0.23941548227E+02  0.16077447305E+03  0.12500000000E+03 0.  0.
</event>
<event>
 5    0  0.5655767E-005  0.5152437E+03  0.7546771E-02  0.1009875E+00
         21   -1    0    0  502  501  0.00000000000E+00  0.00000000000E+00  0.38824977791E+03  0.38824977791E+03  0.00000000000E+00 0.  1.
         21   -1    0    0  501  502 -0.00000000000E+00 -0.00000000000E+00 -0.68377656356E+03  0.68377656356E+03  0.00000000000E+00 0.  1.
         25    1    1    2    0    0  0.38012560318E+03 -0.47252454012E+02 -0.12998355125E+03  0.42337807242E+03  0.12500000000E+03 0.  0.
         25    1    1    2    0    0 -0.82388582644E+02  0.26141159233E+02  0.13776565135E+03  0.20512341029E+03  0.12500000000E+03 0.  0.
         25    1    1    2    0    0 -0.29773702054E+03  0.21111294779E+02 -0.30330888575E+03  0.44352485876E+03  0.12500000000E+03 0.  0.
</event>
<event>
 5    0  0.5655767E-005  0.2509050E+03  0.7546771E-02  0.1112734E+00
         21   -1    0    0  502  501  0.00000000000E+00  0.00000000000E+00  0.10399843288E+04  0.10399843288E+04  0.00000000000E+00 0. -1.
         21   -1    0    0  501  502 -0.00000000000E+00 -0.00000000000E+00 -0.60532965556E+02  0.60532965556E+02  0.00000000000E+00 0. -1.
         25    1    1    2    0    0 -0.72520683640E+02  0.19017925779E+02  0.52734290603E+03  0.54711650642E+03  0.12500000000E+03 0.  0.
         25    1    1    2    0    0 -0.39763803540E+02  0.16697928055E+02  0.11583303650E+03  0.17579042414E+03  0.12500000000E+03 0.  0.
         25    1    1    2    0    0  0.11228448718E+03 -0.35715853834E+02  0.33627542076E+03  0.37761036385E+03  0.12500000000E+03 0.  0.
</event>
<event>
 5    0  0.5655767E-005  0.3606608E+03  0.7546771E-02  0.1058323E+00
         21   -1    0    0  502  501  0.00000000000E+00  0.00000000000E+00  0.97194134103E+02  0.97194134103E+02  0.00000000000E+00 0.  1.
         21   -1    0    0  501  502 -0.00000000000E+00 -0.00000000000E+00 -0.13383132743E+04  0.13383132743E+04  0.00000000000E+00 0.  1.
         25    1    1    2    0    0  0.27708934203E+02 -0.95024841053E+01 -0.39052641765E+03  0.41108875577E+03  0.12500000000E+03 0.  0.
         25    1    1    2    0    0  0.11651903293E+03 -0.21602159930E+03 -0.41399615303E+03  0.49725228116E+03  0.12500000000E+03 0.  0.
         25    1    1    2    0    0 -0.14422796713E+03  0.22552408341E+03 -0.43659656955E+03  0.52716637150E+03  0.12500000000E+03 0.  0.
</event>
<event>
 5    0  0.5655767E-005  0.2686125E+03  0.7546771E-02  0.1102076E+00
         21   -1    0    0  502  501  0.00000000000E+00  0.00000000000E+00  0.47179688930E+03  0.47179688930E+03  0.00000000000E+00 0.  1.
         21   -1    0    0  501  502 -0.00000000000E+00 -0.00000000000E+00 -0.15293159849E+03  0.15293159849E+03  0.00000000000E+00 0.  1.
         25    1    1    2    0    0 -0.13810729964E+03  0.74795412475E+01  0.23696831992E+03  0.30151045487E+03  0.12500000000E+03 0.  0.
         25    1    1    2    0    0  0.11864885738E+03 -0.57177900685E+01  0.93522090696E+02  0.19616734165E+03  0.12500000000E+03 0.  0.
         25    1    1    2    0    0  0.19458442256E+02 -0.17617511791E+01 -0.11625119804E+02  0.12705069127E+03  0.12500000000E+03 0.  0.
</event>
<event>
 5    0  0.5655767E-005  0.3061339E+03  0.7546771E-02  0.1082214E+00
         21   -1    0    0  502  501  0.00000000000E+00  0.00000000000E+00  0.17436820769E+03  0.17436820769E+03  0.00000000000E+00 0.  1.
         21   -1    0    0  501  502 -0.00000000000E+00 -0.00000000000E+00 -0.53747163518E+03  0.53747163518E+03  0.00000000000E+00 0.  1.
         25    1    1    2    0    0 -0.17555024603E+02 -0.16460676906E+03 -0.62133791543E+02  0.21653908507E+03  0.12500000000E+03 0.  0.
         25    1    1    2    0    0  0.13587520462E+03  0.78397276785E+02 -0.14412144038E+03  0.24699027069E+03  0.12500000000E+03 0.  0.
         25    1    1    2    0    0 -0.11832018002E+03  0.86209492278E+02 -0.15684819556E+03  0.24831048711E+03  0.12500000000E+03 0.  0.
</event>
<event>
 5    0  0.5655767E-005  0.3166833E+03  0.7546771E-02  0.1077186E+00
         21   -1    0    0  502  501  0.00000000000E+00  0.00000000000E+00  0.35005406061E+03  0.35005406061E+03  0.00000000000E+00 0.  1.
         21   -1    0    0  501  502 -0.00000000000E+00 -0.00000000000E+00 -0.28649373275E+03  0.28649373275E+03  0.00000000000E+00 0.  1.
         25    1    1    2    0    0  0.68382936806E+02  0.16473898310E+03  0.92915590270E+01  0.21800571476E+03  0.12500000000E+03 0.  0.
         25    1    1    2    0    0  0.31886193536E+01 -0.99097539446E+02  0.16175897345E+03  0.22720355435E+03  0.12500000000E+03 0.  0.
         25    1    1    2    0    0 -0.71571556160E+02 -0.65641443649E+02 -0.10749020462E+03  0.19133852426E+03  0.12500000000E+03 0.  0.
</event>
<event>
 5    0  0.5655767E-005  0.3170970E+03  0.7546771E-02  0.1076993E+00
         21   -1    0    0  502  501  0.00000000000E+00  0.00000000000E+00  0.15384907696E+04  0.15384907696E+04  0.00000000000E+00 0.  1.
         21   -1    0    0  501  502 -0.00000000000E+00 -0.00000000000E+00 -0.65356590330E+02  0.65356590330E+02  0.00000000000E+00 0.  1.
         25    1    1    2    0    0 -0.20746176020E+03 -0.13264612494E+03  0.62122549214E+03  0.67983931079E+03  0.12500000000E+03 0.  0.
         25    1    1    2    0    0  0.86208200984E+02  0.70519526319E+02  0.48614906052E+03  0.51416997827E+03  0.12500000000E+03 0.  0.
         25    1    1    2    0    0  0.12125355922E+03  0.62126598618E+02  0.36575962660E+03  0.40983807087E+03  0.12500000000E+03 0.  0.
</event>
<event>
 5    0  0.5655767E-005  0.2796424E+03  0.7546771E-02  0.1095884E+00
         21   -1    0    0  502  501  0.00000000000E+00  0.00000000000E+00  0.94371484837E+03  0.94371484837E+03  0.00000000000E+00 0.  1.
         21   -1    0    0  501  502 -0.00000000000E+00 -0.00000000000E+00 -0.82863861057E+02  0.82863861057E+02  0.00000000000E+00 0.  1.
         25    1    1    2    0    0 -0.10639270600E+03 -0.88428749109E+02  0.22515684975E+03  0.29233483977E+03  0.12500000000E+03 0.  0.
         25    1    1    2    0    0 -0.17110166421E+02 -0.26324267483E+02  0.39194902945E+03  0.41259516059E+03  0.12500000000E+03 0.  0.
         25    1    1    2    0    0  0.12350287242E+03  0.11475301659E+03  0.24374510812E+03  0.32164870906E+03  0.12500000000E+03 0.  0.
</event>
<event>
 5    0  0.5655767E-005  0.3047710E+03  0.7546771E-02  0.1082880E+00
         21   -1    0    0  502  501  0.00000000000E+00  0.00000000000E+00  0.49920976227E+02  0.49920976227E+02  0.00000000000E+00 0.  1.
         21   -1    0    0  501  502 -0.00000000000E+00 -0.00000000000E+00 -0.18606485221E+04  0.18606485221E+04  0.00000000000E+00 0.  1.
         25    1    1    2    0    0  0.11617714947E+03  0.97054097379E+02 -0.53477917253E+03  0.56967568954E+03  0.12500000000E+03 0.  0.
         25    1    1    2    0    0  0.10515964818E+02  0.27241024633E+02 -0.88024226540E+03  0.88955275546E+03  0.12500000000E+03 0.  0.
         25    1    1    2    0    0 -0.12669311429E+03 -0.12429512201E+03 -0.39570610796E+03  0.45134105336E+03  0.12500000000E+03 0.  0.
</event>
<event>
 5    0  0.5655767E-005  0.2672745E+03  0.7546771E-02  0.1102850E+00
         21   -1    0    0  502  501  0.00000000000E+00  0.00000000000E+00  0.36187671453E+03  0.36187671453E+03  0.00000000000E+00 0.  1.
         21   -1    0    0  501  502 -0.00000000000E+00 -0.00000000000E+00 -0.19740326661E+03  0.19740326661E+03  0.00000000000E+00 0.  1.
         25    1    1    2    0    0 -0.86185822037E+02  0.88128074909E+02  0.18734366118E+03  0.25674345345E+03  0.12500000000E+03 0.  0.
         25    1    1    2    0    0  0.54147433623E+02 -0.13670893835E+02 -0.59248381947E+02  0.14917844573E+03  0.12500000000E+03 0.  0.
         25    1    1    2    0    0  0.32038388413E+02 -0.74457181074E+02  0.36378168684E+02  0.15335808196E+03  0.12500000000E+03 0.  0.
</event>
<event>
 5    0  0.5655767E-005  0.3121767E+03  0.7546771E-02  0.1079307E+00
         21   -1    0    0  502  501  0.00000000000E+00  0.00000000000E+00  0.11011890472E+03  0.11011890472E+03  0.00000000000E+00 0. -1.
         21   -1    0    0  501  502 -0.00000000000E+00 -0.00000000000E+00 -0.88499146710E+03  0.88499146710E+03  0.00000000000E+00 0. -1.
         25    1    1    2    0    0 -0.16058989322E+03  0.35524328561E+02 -0.15759278676E+03  0.25982990237E+03  0.12500000000E+03 0.  0.
         25    1    1    2    0    0  0.57660305760E+02 -0.48732306512E+02 -0.65437518069E+02  0.16002067782E+03  0.12500000000E+03 0.  0.
         25    1    1    2    0    0  0.10292958746E+03  0.13207977951E+02 -0.55184225755E+03  0.57525979164E+03  0.12500000000E+03 0.  0.
</event>
<event>
 5    0  0.5655767E-005  0.3629148E+03  0.7546771E-02  0.1057436E+00
         21   -1    0    0  502  501  0.00000000000E+00  0.00000000000E+00  0.12859771586E+03  0.12859771586E+03  0.00000000000E+00 0. -1.
         21   -1    0    0  501  502 -0.00000000000E+00 -0.00000000000E+00 -0.10241794929E+04  0.10241794929E+04  0.00000000000E+00 0. -1.
         25    1    1    2    0    0 -0.96745714876E+02 -0.16226918725E+03 -0.11704833311E+03  0.25498300877E+03  0.12500000000E+03 0.  0.
         25    1    1    2    0    0 -0.81009284817E+02  0.15350401262E+03 -0.26817406102E+03  0.34302815208E+03  0.12500000000E+03 0.  0.
         25    1    1    2    0    0  0.17775499969E+03  0.87651746325E+01 -0.51035938295E+03  0.55476604796E+03  0.12500000000E+03 0.  0.
</event>
<event>
 5    0  0.5655767E-005  0.2925947E+03  0.7546771E-02  0.1089002E+00
         21   -1    0    0  502  501  0.00000000000E+00  0.00000000000E+00  0.16328674194E+04  0.16328674194E+04  0.00000000000E+00 0. -1.
         21   -1    0    0  501  502 -0.00000000000E+00 -0.00000000000E+00 -0.52430245569E+02  0.52430245569E+02  0.00000000000E+00 0. -1.
         25    1    1    2    0    0 -0.16516795669E+03 -0.54895981559E+02  0.32709613523E+03  0.39103823904E+03  0.12500000000E+03 0.  0.
         25    1    1    2    0    0  0.64603917367E+02 -0.12260233659E+02  0.70458706959E+03  0.71860414562E+03  0.12500000000E+03 0.  0.
         25    1    1    2    0    0  0.10056403932E+03  0.67156215218E+02  0.54875396903E+03  0.57565528033E+03  0.12500000000E+03 0.  0.
</event>
<event>
 5    0  0.5655767E-005  0.2842718E+03  0.7546771E-02  0.1093378E+00
         21   -1    0    0  502  501  0.00000000000E+00  0.00000000000E+00  0.25129740929E+03  0.25129740929E+03  0.00000000000E+00 0. -1.
         21   -1    0    0  501  502 -0.00000000000E+00 -0.00000000000E+00 -0.32157301331E+03  0.32157301331E+03  0.00000000000E+00 0. -1.
         25    1    1    2    0    0  0.89495453199E+02  0.11971920436E+03 -0.15958262474E+03  0.25186055300E+03  0.12500000000E+03 0.  0.
         25    1    1    2    0    0 -0.33577419490E+02 -0.10279351533E+03  0.19661288459E+02  0.16644974063E+03  0.12500000000E+03 0.  0.
         25    1    1    2    0    0 -0.55918033708E+02 -0.16925689033E+02  0.69645732266E+02  0.15456012897E+03  0.12500000000E+03 0.  0.
</event>
<event>
 5    0  0.5655767E-005  0.2583895E+03  0.7546771E-02  0.1108115E+00
         21   -1    0    0  502  501  0.00000000000E+00  0.00000000000E+00  0.30236953371E+03  0.30236953371E+03  0.00000000000E+00 0.  1.
         21   -1    0    0  501  502 -0.00000000000E+00 -0.00000000000E+00 -0.22080637821E+03  0.22080637821E+03  0.00000000000E+00 0.  1.
         25    1    1    2    0    0 -0.50187212781E+02 -0.52993008228E+02  0.18149133876E+03  0.23214461288E+03  0.12500000000E+03 0.  0.
         25    1    1    2    0    0  0.22584924672E+02 -0.13170364807E+02 -0.62351959319E+02  0.14211370153E+03  0.12500000000E+03 0.  0.
         25    1    1    2    0    0  0.27602288109E+02  0.66163373035E+02 -0.37576223939E+02  0.14891759750E+03  0.12500000000E+03 0.  0.
</event>
<event>
 5    0  0.5655767E-005  0.2565928E+03  0.7546771E-02  0.1109208E+00
         21   -1    0    0  502  501  0.00000000000E+00  0.00000000000E+00  0.47867980360E+03  0.47867980360E+03  0.00000000000E+00 0. -1.
         21   -1    0    0  501  502 -0.00000000000E+00 -0.00000000000E+00 -0.13754473557E+03  0.13754473557E+03  0.00000000000E+00 0. -1.
         25    1    1    2    0    0  0.11016242737E+03 -0.10142034596E+03  0.12807486441E+03  0.23334527609E+03  0.12500000000E+03 0.  0.
         25    1    1    2    0    0 -0.39593938120E+02  0.19639445331E+01  0.14486645558E+03  0.19540426548E+03  0.12500000000E+03 0.  0.
         25    1    1    2    0    0 -0.70568489252E+02  0.99456401423E+02  0.68193748042E+02  0.18747499762E+03  0.12500000000E+03 0.  0.
</event>
<event>
 5    0  0.5655767E-005  0.2970655E+03  0.7546771E-02  0.1086717E+00
         21   -1    0    0  502  501  0.00000000000E+00  0.00000000000E+00  0.41407669906E+03  0.41407669906E+03  0.00000000000E+00 0. -1.
         21   -1    0    0  501  502 -0.00000000000E+00 -0.00000000000E+00 -0.21311966980E+03  0.21311966980E+03  0.00000000000E+00 0. -1.
         25    1    1    2    0    0  0.68557352802E+01  0.45123831535E+02  0.88497970481E+02  0.15981255288E+03  0.12500000000E+03 0.  0.
         25    1    1    2    0    0  0.72539927096E+02 -0.19452773202E+03  0.45056190872E+02  0.24649166291E+03  0.12500000000E+03 0.  0.
         25    1    1    2    0    0 -0.79395662376E+02  0.14940390049E+03  0.67402867900E+02  0.22089215307E+03  0.12500000000E+03 0.  0.
</event>
<event>
 5    0  0.5655767E-005  0.2794270E+03  0.7546771E-02  0.1096002E+00
         21   -1    0    0  502  501  0.00000000000E+00  0.00000000000E+00  0.84611709721E+02  0.84611709721E+02  0.00000000000E+00 0.  1.
         21   -1    0    0  501  502 -0.00000000000E+00 -0.00000000000E+00 -0.92279722343E+03  0.92279722343E+03  0.00000000000E+00 0.  1.
         25    1    1    2    0    0 -0.13902716499E+03  0.57110804183E+02 -0.37752477248E+03  0.42513544947E+03  0.12500000000E+03 0.  0.
         25    1    1    2    0    0  0.13741310261E+03 -0.62854907127E+02 -0.39488162349E+03  0.44089635595E+03  0.12500000000E+03 0.  0.
         25    1    1    2    0    0  0.16140623869E+01  0.57441029438E+01 -0.65779117742E+02  0.14137712774E+03  0.12500000000E+03 0.  0.
</event>
<event>
 5    0  0.5655767E-005  0.3423934E+03  0.7546771E-02  0.1065781E+00
         21   -1    0    0  502  501  0.00000000000E+00  0.00000000000E+00  0.85702968838E+03  0.85702968838E+03  0.00000000000E+00 0. -1.
         21   -1    0    0  501  502 -0.00000000000E+00 -0.00000000000E+00 -0.13679014044E+03  0.13679014044E+03  0.00000000000E+00 0. -1.
         25    1    1    2    0    0 -0.38446838946E+02 -0.16819551161E+03  0.13119932670E+03  0.25021221568E+03  0.12500000000E+03 0.  0.
         25    1    1    2    0    0  0.72720608813E+02  0.19725374912E+03  0.55497013922E+03  0.60647686182E+03  0.12500000000E+03 0.  0.
         25    1    1    2    0    0 -0.34273769867E+02 -0.29058237509E+02  0.34070082029E+02  0.13713075132E+03  0.12500000000E+03 0.  0.
</event>
<event>
 5    0  0.5655767E-005  0.2753866E+03  0.7546771E-02  0.1098236E+00
         21   -1    0    0  502  501  0.00000000000E+00  0.00000000000E+00  0.38626318640E+03  0.38626318640E+03  0.00000000000E+00 0.  1.
         21   -1    0    0  501  502 -0.00000000000E+00 -0.00000000000E+00 -0.19633711745E+03  0.19633711745E+03  0.00000000000E+00 0.  1.
         25    1    1    2    0    0 -0.21365905855E+02 -0.17998987955E+03  0.10878767153E+03  0.24558627028E+03  0.12500000000E+03 0.  0.
         25    1    1    2    0    0 -0.39323885991E+02  0.72069509252E+02  0.53955200888E+02  0.15898599270E+03  0.12500000000E+03 0.  0.
         25    1    1    2    0    0  0.60689791846E+02  0.10792037030E+03  0.27183196531E+02  0.17802804086E+03  0.12500000000E+03 0.  0.
</event>
<event>
 5    0  0.5655767E-005  0.2399960E+03  0.7546771E-02  0.1119795E+00
         21   -1    0    0  502  501  0.00000000000E+00  0.00000000000E+00  0.72878183986E+03  0.72878183986E+03  0.00000000000E+00 0. -1.
         21   -1    0    0  501  502 -0.00000000000E+00 -0.00000000000E+00 -0.79033387410E+02  0.79033387410E+02  0.00000000000E+00 0. -1.
         25    1    1    2    0    0 -0.91503783262E+01 -0.56399992707E+02  0.40680774446E+03  0.42939751927E+03  0.12500000000E+03 0.  0.
         25    1    1    2    0    0  0.26334646685E+01 -0.86799228349E+00  0.36417561321E+02  0.13022644631E+03  0.12500000000E+03 0.  0.
         25    1    1    2    0    0  0.65169136577E+01  0.57267984991E+02  0.20652314666E+03  0.24819126168E+03  0.12500000000E+03 0.  0.
</event>
<event>
 5    0  0.5655767E-005  0.2847992E+03  0.7546771E-02  0.1093096E+00
         21   -1    0    0  502  501  0.00000000000E+00  0.00000000000E+00  0.28367200185E+03  0.28367200185E+03  0.00000000000E+00 0.  1.
         21   -1    0    0  501  502 -0.00000000000E+00 -0.00000000000E+00 -0.28593082358E+03  0.28593082358E+03  0.00000000000E+00 0.  1.
         25    1    1    2    0    0 -0.40344386732E+02  0.70447189518E+02 -0.67179386456E+02  0.16348867244E+03  0.12500000000E+03 0.  0.
         25    1    1    2    0    0 -0.12796921345E+03 -0.67497063268E+02  0.32928563439E+02  0.19401356507E+03  0.12500000000E+03 0.  0.
         25    1    1    2    0    0  0.16831360018E+03 -0.29501262498E+01  0.31992001293E+02  0.21210058792E+03  0.12500000000E+03 0.  0.
</event>
<event>
 5    0  0.5655767E-005  0.2831083E+03  0.7546771E-02  0.1094003E+00
         21   -1    0    0  502  501  0.00000000000E+00  0.00000000000E+00  0.14728918750E+03  0.14728918750E+03  0.00000000000E+00 0.  1.
         21   -1    0    0  501  502 -0.00000000000E+00 -0.00000000000E+00 -0.54416963439E+03  0.54416963439E+03  0.00000000000E+00 0.  1.
         25    1    1    2    0    0 -0.39181179579E+01 -0.11180420634E+03 -0.87663860763E+02  0.18927621268E+03  0.12500000000E+03 0.  0.
         25    1    1    2    0    0  0.91169849546E+02  0.32348572131E+02 -0.11599255931E+02  0.15848632220E+03  0.12500000000E+03 0.  0.
         25    1    1    2    0    0 -0.87251731588E+02  0.79455634210E+02 -0.29761733019E+03  0.34369628701E+03  0.12500000000E+03 0.  0.
</event>
<event>
 5    0  0.5655767E-005  0.2711626E+03  0.7546771E-02  0.1100616E+00
         21   -1    0    0  502  501  0.00000000000E+00  0.00000000000E+00  0.92019278762E+02  0.92019278762E+02  0.00000000000E+00 0. -1.
         21   -1    0    0  501  502 -0.00000000000E+00 -0.00000000000E+00 -0.79906233480E+03  0.79906233480E+03  0.00000000000E+00 0. -1.
         25    1    1    2    0    0  0.31602442778E+02  0.65875936269E+02 -0.29491844903E+03  0.32854260751E+03  0.12500000000E+03 0.  0.
         25    1    1    2    0    0 -0.11801243263E+03  0.24466585818E+01 -0.77200609899E+02  0.18846181195E+03  0.12500000000E+03 0.  0.
         25    1    1    2    0    0  0.86409989853E+02 -0.68322594851E+02 -0.33492399711E+03  0.37407719411E+03  0.12500000000E+03 0.  0.
</event>
<event>
 5    0  0.5744862E-005  0.3415995E+03  0.7546771E-02  0.1066117E+00
         21   -1    0    0  502  501  0.00000000000E+00  0.00000000000E+00  0.56824882315E+03  0.56824882315E+03  0.00000000000E+00 0. -1.
         21   -1    0    0  501  502 -0.00000000000E+00 -0.00000000000E+00 -0.20535059708E+03  0.20535059708E+03  0.00000000000E+00 0. -1.
         25    1    1    2    0    0 -0.11761848053E+03  0.67023985643E+02  0.87866259081E+02  0.20413672158E+03  0.12500000000E+03 0.  0.
         25    1    1    2    0    0  0.10403660653E+03  0.96178724504E+02 -0.39919850723E+02  0.19311280907E+03  0.12500000000E+03 0.  0.
         25    1    1    2    0    0  0.13581873995E+02 -0.16320271015E+03  0.31495181772E+03  0.37634988957E+03  0.12500000000E+03 0.  0.
</event>
<event>
 5    0  0.5655767E-005  0.2742825E+03  0.7546771E-02  0.1098853E+00
         21   -1    0    0  502  501  0.00000000000E+00  0.00000000000E+00  0.27859594311E+03  0.27859594311E+03  0.00000000000E+00 0. -1.
         21   -1    0    0  501  502 -0.00000000000E+00 -0.00000000000E+00 -0.27003593225E+03  0.27003593225E+03  0.00000000000E+00 0. -1.
         25    1    1    2    0    0  0.12553886364E+03  0.71316729059E+02 -0.70289129724E+02  0.20349851077E+03  0.12500000000E+03 0.  0.
         25    1    1    2    0    0 -0.13459725434E+03 -0.31394119990E+02  0.10066629767E+03  0.21180348234E+03  0.12500000000E+03 0.  0.
         25    1    1    2    0    0  0.90583906927E+01 -0.39922609069E+02 -0.21817157095E+02  0.13332988225E+03  0.12500000000E+03 0.  0.
</event>
<event>
 5    0  0.5655767E-005  0.4329801E+03  0.7546771E-02  0.1032923E+00
         21   -1    0    0  502  501  0.00000000000E+00  0.00000000000E+00  0.12245156044E+03  0.12245156044E+03  0.00000000000E+00 0.  1.
         21   -1    0    0  501  502 -0.00000000000E+00 -0.00000000000E+00 -0.15309875072E+04  0.15309875072E+04  0.00000000000E+00 0.  1.
         25    1    1    2    0    0 -0.20734143568E+02 -0.12790821318E+03 -0.20878222744E+03  0.27569083083E+03  0.12500000000E+03 0.  0.
         25    1    1    2    0    0 -0.15558759232E+03 -0.12777303309E+03 -0.89218531834E+03  0.92312138375E+03  0.12500000000E+03 0.  0.
         25    1    1    2    0    0  0.17632173589E+03  0.25568124627E+03 -0.30756840096E+03  0.45462685304E+03  0.12500000000E+03 0.  0.
</event>
<event>
 5    0  0.5655767E-005  0.3658669E+03  0.7546771E-02  0.1056285E+00
         21   -1    0    0  502  501  0.00000000000E+00  0.00000000000E+00  0.14346289777E+04  0.14346289777E+04  0.00000000000E+00 0. -1.
         21   -1    0    0  501  502 -0.00000000000E+00 -0.00000000000E+00 -0.93305366985E+02  0.93305366985E+02  0.00000000000E+00 0. -1.
         25    1    1    2    0    0 -0.54853847270E+02  0.21881415659E+03  0.46081551228E+03  0.52807624075E+03  0.12500000000E+03 0.  0.
         25    1    1    2    0    0 -0.52570233041E+01 -0.21824650295E+03  0.80188954019E+03  0.84042311189E+03  0.12500000000E+03 0.  0.
         25    1    1    2    0    0  0.60110870575E+02 -0.56765364295E+00  0.78618558278E+02  0.15943499207E+03  0.12500000000E+03 0.  0.
</event>
<event>
 5    0  0.5655767E-005  0.4089082E+03  0.7546771E-02  0.1040738E+00
         21   -1    0    0  502  501  0.00000000000E+00  0.00000000000E+00  0.55714882238E+02  0.55714882238E+02  0.00000000000E+00 0.  1.
         21   -1    0    0  501  502 -0.00000000000E+00 -0.00000000000E+00 -0.30010996627E+04  0.30010996627E+04  0.00000000000E+00 0.  1.
         25    1    1    2    0    0 -0.42873397701E+02 -0.23964807609E+03 -0.12161357247E+04  0.12465474036E+04  0.12500000000E+03 0.  0.
         25    1    1    2    0    0  0.13782052513E+03  0.30328548478E+03 -0.99411721090E+03  0.10558743351E+04  0.12500000000E+03 0.  0.
         25    1    1    2    0    0 -0.94947127430E+02 -0.63637408683E+02 -0.73513184483E+03  0.75439280622E+03  0.12500000000E+03 0.  0.
</event>
<event>
 5    0  0.5723913E-005  0.3457027E+03  0.7546771E-02  0.1064393E+00
         21   -1    0    0  502  501  0.00000000000E+00  0.00000000000E+00  0.11074078280E+03  0.11074078280E+03  0.00000000000E+00 0. -1.
         21   -1    0    0  501  502 -0.00000000000E+00 -0.00000000000E+00 -0.10791903865E+04  0.10791903865E+04  0.00000000000E+00 0. -1.
         25    1    1    2    0    0  0.18911101103E+03  0.88874857089E+02 -0.37858143216E+03  0.45012288932E+03  0.12500000000E+03 0.  0.
         25    1    1    2    0    0 -0.51970508376E+02 -0.74614099878E+02 -0.40527666163E+02  0.15979890289E+03  0.12500000000E+03 0.  0.
         25    1    1    2    0    0 -0.13714050265E+03 -0.14260757211E+02 -0.54934050542E+03  0.58000937713E+03  0.12500000000E+03 0.  0.
</event>
<event>
 5    0  0.5655767E-005  0.2875497E+03  0.7546771E-02  0.1091635E+00
         21   -1    0    0  502  501  0.00000000000E+00  0.00000000000E+00  0.47704500530E+03  0.47704500530E+03  0.00000000000E+00 0.  1.
         21   -1    0    0  501  502 -0.00000000000E+00 -0.00000000000E+00 -0.17332714426E+03  0.17332714426E+03  0.00000000000E+00 0.  1.
         25    1    1    2    0    0  0.74235422388E+02 -0.92865072692E+02  0.18131375234E+03  0.25026884834E+03  0.12500000000E+03 0.  0.
         25    1    1    2    0    0 -0.26972555407E+02 -0.88190260120E+02  0.60570146769E+02  0.16672967164E+03  0.12500000000E+03 0.  0.
         25    1    1    2    0    0 -0.47262866981E+02  0.18105533281E+03  0.61833961926E+02  0.23337362958E+03  0.12500000000E+03 0.  0.
</event>
<event>
 5    0  0.5655767E-005  0.3468934E+03  0.7546771E-02  0.1063897E+00
         21   -1    0    0  502  501  0.00000000000E+00  0.00000000000E+00  0.17047710980E+03  0.17047710980E+03  0.00000000000E+00 0. -1.
         21   -1    0    0  501  502 -0.00000000000E+00 -0.00000000000E+00 -0.70587202505E+03  0.70587202505E+03  0.00000000000E+00 0. -1.
         25    1    1    2    0    0  0.13965349367E+03  0.21986161623E+03 -0.13272068381E+03  0.31793396877E+03  0.12500000000E+03 0.  0.
         25    1    1    2    0    0 -0.61488456299E+02 -0.80564735529E+02 -0.27538118036E+03  0.31895344702E+03  0.12500000000E+03 0.  0.
         25    1    1    2    0    0 -0.78165037371E+02 -0.13929688070E+03 -0.12729305108E+03  0.23946171905E+03  0.12500000000E+03 0.  0.
</event>
<event>
 5    0  0.5655767E-005  0.3159698E+03  0.7546771E-02  0.1077519E+00
         21   -1    0    0  502  501  0.00000000000E+00  0.00000000000E+00  0.14967848737E+03  0.14967848737E+03  0.00000000000E+00 0.  1.
         21   -1    0    0  501  502 -0.00000000000E+00 -0.00000000000E+00 -0.66700906186E+03  0.66700906186E+03  0.00000000000E+00 0.  1.
         25    1    1    2    0    0  0.38301703261E+02 -0.72232462634E+02 -0.36162101298E+03  0.39125350626E+03  0.12500000000E+03 0.  0.
         25    1    1    2    0    0 -0.16222953862E+03  0.68565427839E+02 -0.11519393252E+03  0.24477394303E+03  0.12500000000E+03 0.  0.
         25    1    1    2    0    0  0.12392783536E+03  0.36670347949E+01 -0.40515628991E+02  0.18066009995E+03  0.12500000000E+03 0.  0.
</event>
<event>
 5    0  0.7159686E-005  0.3664147E+03  0.7546771E-02  0.1056072E+00
         21   -1    0    0  502  501  0.00000000000E+00  0.00000000000E+00  0.49421723605E+03  0.49421723605E+03  0.00000000000E+00 0.  1.
         21   -1    0    0  501  502 -0.00000000000E+00 -0.00000000000E+00 -0.27166135628E+03  0.27166135628E+03  0.00000000000E+00 0.  1.
         25    1    1    2    0    0  0.70792250581E+02 -0.49473440400E+02 -0.97096137369E+02  0.18031035450E+03  0.12500000000E+03 0.  0.
         25    1    1    2    0    0 -0.19053972903E+03 -0.57813119408E+02  0.38232852089E+02  0.23819004197E+03  0.12500000000E+03 0.  0.
         25    1    1    2    0    0  0.11974747844E+03  0.10728655981E+03  0.28141916504E+03  0.34737819587E+03  0.12500000000E+03 0.  0.
</event>
<event>
 5    0  0.6719147E-005  0.2830423E+03  0.7546771E-02  0.1094039E+00
         21   -1    0    0  502  501  0.00000000000E+00  0.00000000000E+00  0.12453194840E+03  0.12453194840E+03  0.00000000000E+00 0. -1.
         21   -1    0    0  501  502 -0.00000000000E+00 -0.00000000000E+00 -0.64331222473E+03  0.64331222473E+03  0.00000000000E+00 0. -1.
         25    1    1    2    0    0 -0.55261253462E+02 -0.62928375991E+02 -0.19174715729E+03  0.24373296652E+03  0.12500000000E+03 0.  0.
         25    1    1    2    0    0  0.18309867597E+03  0.63317031375E+02 -0.17593871394E+03  0.29002345192E+03  0.12500000000E+03 0.  0.
         25    1    1    2    0    0 -0.12783742250E+03 -0.38865538387E+00 -0.15109440509E+03  0.23408775469E+03  0.12500000000E+03 0.  0.
</event>
<event>
 5    0  0.5655767E-005  0.4514816E+03  0.7546771E-02  0.1027281E+00
         21   -1    0    0  502  501  0.00000000000E+00  0.00000000000E+00  0.29475936165E+04  0.29475936165E+04  0.00000000000E+00 0.  1.
         21   -1    0    0  501  502 -0.00000000000E+00 -0.00000000000E+00 -0.69153249815E+02  0.69153249815E+02  0.00000000000E+00 0.  1.
         25    1    1    2    0    0 -0.32680574322E+02 -0.20605420828E+03  0.54324511076E+03  0.59520299650E+03  0.12500000000E+03 0.  0.
         25    1    1    2    0    0  0.25048089237E+03  0.12096119022E+01  0.68801373964E+03  0.74278533005E+03  0.12500000000E+03 0.  0.
         25    1    1    2    0    0 -0.21780031805E+03  0.20484459638E+03  0.16471815163E+04  0.16787585397E+04  0.12500000000E+03 0.  0.
</event>
<event>
 5    0  0.5655767E-005  0.3313639E+03  0.7546771E-02  0.1070535E+00
         21   -1    0    0  502  501  0.00000000000E+00  0.00000000000E+00  0.84966369859E+03  0.84966369859E+03  0.00000000000E+00 0.  1.
         21   -1    0    0  501  502 -0.00000000000E+00 -0.00000000000E+00 -0.12923002061E+03  0.12923002061E+03  0.00000000000E+00 0.  1.
         25    1    1    2    0    0  0.86874217035E+02 -0.21358274474E+03  0.21944539659E+03  0.34197368396E+03  0.12500000000E+03 0.  0.
         25    1    1    2    0    0 -0.25930709865E+02  0.21682433845E+03  0.35653457301E+03  0.43637953344E+03  0.12500000000E+03 0.  0.
         25    1    1    2    0    0 -0.60943507170E+02 -0.32415937088E+01  0.14445370839E+03  0.20054050180E+03  0.12500000000E+03 0.  0.
</event>
<event>
 5    0  0.5655767E-005  0.5251490E+03  0.7546771E-02  0.1007415E+00
         21   -1    0    0  502  501  0.00000000000E+00  0.00000000000E+00  0.72540315230E+03  0.72540315230E+03  0.00000000000E+00 0.  1.
         21   -1    0    0  501  502 -0.00000000000E+00 -0.00000000000E+00 -0.38017686455E+03  0.38017686455E+03  0.00000000000E+00 0.  1.
         25    1    1    2    0    0 -0.25641969722E+03 -0.26979059381E+03 -0.30042388326E+02  0.39378365981E+03  0.12500000000E+03 0.  0.
         25    1    1    2    0    0  0.64430263239E+00 -0.83941264462E+02  0.10151114270E+03  0.18159312514E+03  0.12500000000E+03 0.  0.
         25    1    1    2    0    0  0.25577539459E+03  0.35373185828E+03  0.27375753338E+03  0.53020323190E+03  0.12500000000E+03 0.  0.
</event>
<event>
 5    0  0.5655767E-005  0.2763623E+03  0.7546771E-02  0.1097693E+00
         21   -1    0    0  502  501  0.00000000000E+00  0.00000000000E+00  0.80397354250E+03  0.80397354250E+03  0.00000000000E+00 0.  1.
         21   -1    0    0  501  502 -0.00000000000E+00 -0.00000000000E+00 -0.94998300294E+02  0.94998300294E+02  0.00000000000E+00 0.  1.
         25    1    1    2    0    0 -0.30770214750E+02 -0.32416578674E+02  0.33763706891E+03  0.36279667996E+03  0.12500000000E+03 0.  0.
         25    1    1    2    0    0 -0.96120755609E+02 -0.59741466112E+02  0.91358939280E+02  0.19178033846E+03  0.12500000000E+03 0.  0.
         25    1    1    2    0    0  0.12689097036E+03  0.92158044786E+02  0.27997923401E+03  0.34439482438E+03  0.12500000000E+03 0.  0.
</event>
<event>
 5    0  0.5655767E-005  0.2478849E+03  0.7546771E-02  0.1114649E+00
         21   -1    0    0  502  501  0.00000000000E+00  0.00000000000E+00  0.19936432277E+03  0.19936432277E+03  0.00000000000E+00 0. -1.
         21   -1    0    0  501  502 -0.00000000000E+00 -0.00000000000E+00 -0.30821423389E+03  0.30821423389E+03  0.00000000000E+00 0. -1.
         25    1    1    2    0    0 -0.52915463753E+02  0.87494055021E+02 -0.59165340452E+01  0.16160216998E+03  0.12500000000E+03 0.  0.
         25    1    1    2    0    0  0.10446942796E+03 -0.10271420309E+03 -0.43181218810E+02  0.19736688312E+03  0.12500000000E+03 0.  0.
         25    1    1    2    0    0 -0.51553964206E+02  0.15220148065E+02 -0.59752158260E+02  0.14860950356E+03  0.12500000000E+03 0.  0.
</event>
<event>
 5    0  0.5655767E-005  0.3228889E+03  0.7546771E-02  0.1074327E+00
         21   -1    0    0  502  501  0.00000000000E+00  0.00000000000E+00  0.59738453573E+03  0.59738453573E+03  0.00000000000E+00 0.  1.
         21   -1    0    0  501  502 -0.00000000000E+00 -0.00000000000E+00 -0.17452279348E+03  0.17452279348E+03  0.00000000000E+00 0.  1.
         25    1    1    2    0    0 -0.39629128975E+02 -0.41392691378E+02  0.57199903086E+02  0.14893170138E+03  0.12500000000E+03 0.  0.
         25    1    1    2    0    0  0.57872681682E+02 -0.13473277733E+03  0.35745008553E+03  0.40607601779E+03  0.12500000000E+03 0.  0.
         25    1    1    2    0    0 -0.18243552707E+02  0.17612546871E+03  0.82117536277E+01  0.21689961005E+03  0.12500000000E+03 0.  0.
</event>
<event>
 5    0  0.5655767E-005  0.3709109E+03  0.7546771E-02  0.1054345E+00
         21   -1    0    0  502  501  0.00000000000E+00  0.00000000000E+00  0.12721714771E+04  0.12721714771E+04  0.00000000000E+00 0. -1.
         21   -1    0    0  501  502 -0.00000000000E+00 -0.00000000000E+00 -0.10814177496E+03  0.10814177496E+03  0.00000000000E+00 0. -1.
         25    1    1    2    0    0 -0.17333255856E+03 -0.59297160259E+02  0.33327173285E+03  0.40031909396E+03  0.12500000000E+03 0.  0.
         25    1    1    2    0    0  0.27039921653E+03 -0.80045524034E+02  0.47192700408E+03  0.56379350776E+03  0.12500000000E+03 0.  0.
         25    1    1    2    0    0 -0.97066657969E+02  0.13934268429E+03  0.35883096523E+03  0.41620065037E+03  0.12500000000E+03 0.  0.
</event>
<event>
 5    0  0.5655767E-005  0.2604478E+03  0.7546771E-02  0.1106874E+00
         21   -1    0    0  502  501  0.00000000000E+00  0.00000000000E+00  0.22115102261E+03  0.22115102261E+03  0.00000000000E+00 0. -1.
         21   -1    0    0  501  502 -0.00000000000E+00 -0.00000000000E+00 -0.30672724536E+03  0.30672724536E+03  0.00000000000E+00 0. -1.
         25    1    1    2    0    0 -0.12328248529E+03 -0.92964887307E+02 -0.98097038317E+01  0.19890266902E+03  0.12500000000E+03 0.  0.
         25    1    1    2    0    0  0.38183762357E+02  0.51185759075E+01  0.15489028825E+02  0.13171601854E+03  0.12500000000E+03 0.  0.
         25    1    1    2    0    0  0.85098722936E+02  0.87846311399E+02 -0.91255547735E+02  0.19725958041E+03  0.12500000000E+03 0.  0.
</event>
<event>
 5    0  0.5655767E-005  0.3901035E+03  0.7546771E-02  0.1047261E+00
         21   -1    0    0  502  501  0.00000000000E+00  0.00000000000E+00  0.18852411063E+04  0.18852411063E+04  0.00000000000E+00 0.  1.
         21   -1    0    0  501  502 -0.00000000000E+00 -0.00000000000E+00 -0.80722162955E+02  0.80722162955E+02  0.00000000000E+00 0.  1.
         25    1    1    2    0    0 -0.13363826161E+03 -0.28258645178E+03  0.65974618045E+03  0.74067827720E+03  0.12500000000E+03 0.  0.
         25    1    1    2    0    0  0.15359026246E+03  0.14144079602E+03  0.72309134579E+03  0.76294269894E+03  0.12500000000E+03 0.  0.
         25    1    1    2    0    0 -0.19952000848E+02  0.14114565576E+03  0.42168141710E+03  0.46234229312E+03  0.12500000000E+03 0.  0.
</event>
<event>
 5    0  0.5655767E-005  0.3419620E+03  0.7546771E-02  0.1065963E+00
         21   -1    0    0  502  501  0.00000000000E+00  0.00000000000E+00  0.25217463295E+03  0.25217463295E+03  0.00000000000E+00 0. -1.
         21   -1    0    0  501  502 -0.00000000000E+00 -0.00000000000E+00 -0.46371838645E+03  0.46371838645E+03  0.00000000000E+00 0. -1.
         25    1    1    2    0    0 -0.16595741307E+02 -0.42953086847E+02 -0.15964351117E+03  0.20792170872E+03  0.12500000000E+03 0.  0.
         25    1    1    2    0    0  0.16288055974E+03  0.17168420651E+03  0.11672734581E+02  0.26789325531E+03  0.12500000000E+03 0.  0.
         25    1    1    2    0    0 -0.14628481843E+03 -0.12873111967E+03 -0.63572976914E+02  0.24007805537E+03  0.12500000000E+03 0.  0.
</event>
<event>
 5    0  0.5655767E-005  0.5720551E+03  0.7546771E-02  0.9965141E-01
         21   -1    0    0  502  501  0.00000000000E+00  0.00000000000E+00  0.21014897381E+03  0.21014897381E+03  0.00000000000E+00 0. -1.
         21   -1    0    0  501  502 -0.00000000000E+00 -0.00000000000E+00 -0.15572144513E+04  0.15572144513E+04  0.00000000000E+00 0. -1.
         25    1    1    2    0    0  0.42162259450E+03  0.14786194212E+02 -0.10974878919E+04  0.11824081007E+04  0.12500000000E+03 0.  0.
         25    1    1    2    0    0 -0.21283822770E+03 -0.67316251062E+02 -0.38817885565E+02  0.25877290637E+03  0.12500000000E+03 0.  0.
         25    1    1    2    0    0 -0.20878436680E+03  0.52530056850E+02 -0.21075970004E+03  0.32618241806E+03  0.12500000000E+03 0.  0.
</event>
<event>
 5    0  0.5655767E-005  0.2230203E+03  0.7546771E-02  0.1131651E+00
         21   -1    0    0  502  501  0.00000000000E+00  0.00000000000E+00  0.74706988889E+02  0.74706988889E+02  0.00000000000E+00 0. -1.
         21   -1    0    0  501  502 -0.00000000000E+00 -0.00000000000E+00 -0.66577507326E+03  0.66577507326E+03  0.00000000000E+00 0. -1.
         25    1    1    2    0    0  0.18055236667E+02  0.98305110286E+02 -0.17546980699E+03  0.23749639881E+03  0.12500000000E+03 0.  0.
         25    1    1    2    0    0 -0.48687266717E+02 -0.67330100098E+02 -0.24024007773E+03  0.28327387325E+03  0.12500000000E+03 0.  0.
         25    1    1    2    0    0  0.30632030050E+02 -0.30975010189E+02 -0.17535819965E+03  0.21971179009E+03  0.12500000000E+03 0.  0.
</event>
<event>
 5    0  0.7053222E-005  0.3126133E+03  0.7546771E-02  0.1079100E+00
         21   -1    0    0  502  501  0.00000000000E+00  0.00000000000E+00  0.25408739773E+03  0.25408739773E+03  0.00000000000E+00 0. -1.
         21   -1    0    0  501  502 -0.00000000000E+00 -0.00000000000E+00 -0.38461995436E+03  0.38461995436E+03  0.00000000000E+00 0. -1.
         25    1    1    2    0    0  0.12097168313E+03 -0.41147979220E+02 -0.83556191719E+02  0.19731685556E+03  0.12500000000E+03 0.  0.
         25    1    1    2    0    0 -0.80232082601E+02  0.52486138131E+02  0.14120282983E+03  0.21155429782E+03  0.12500000000E+03 0.  0.
         25    1    1    2    0    0 -0.40739600528E+02 -0.11338158911E+02 -0.18817919475E+03  0.22983619870E+03  0.12500000000E+03 0.  0.
</event>
<event>
 5    0  0.5655767E-005  0.3583372E+03  0.7546771E-02  0.1059244E+00
         21   -1    0    0  502  501  0.00000000000E+00  0.00000000000E+00  0.53319747581E+03  0.53319747581E+03  0.00000000000E+00 0. -1.
         21   -1    0    0  501  502 -0.00000000000E+00 -0.00000000000E+00 -0.24082180558E+03  0.24082180558E+03  0.00000000000E+00 0. -1.
         25    1    1    2    0    0 -0.14042583083E+02  0.12542888896E+03 -0.80855307534E+02  0.19517218316E+03  0.12500000000E+03 0.  0.
         25    1    1    2    0    0 -0.15599010896E+03 -0.53437983470E+02  0.11160903745E+03  0.23509595788E+03  0.12500000000E+03 0.  0.
         25    1    1    2    0    0  0.17003269205E+03 -0.71990905486E+02  0.26162194032E+03  0.34375114035E+03  0.12500000000E+03 0.  0.
</event>
<event>
 5    0  0.5655767E-005  0.3935400E+03  0.7546771E-02  0.1046040E+00
         21   -1    0    0  502  501  0.00000000000E+00  0.00000000000E+00  0.44017448506E+03  0.44017448506E+03  0.00000000000E+00 0.  1.
         21   -1    0    0  501  502 -0.00000000000E+00 -0.00000000000E+00 -0.35184629456E+03  0.35184629456E+03  0.00000000000E+00 0.  1.
         25    1    1    2    0    0 -0.26241831890E+03 -0.18028227422E+03  0.12894311750E+03  0.36553577122E+03  0.12500000000E+03 0.  0.
         25    1    1    2    0    0  0.66389052131E+02  0.21971073166E+02 -0.16526615015E+02  0.14418170239E+03  0.12500000000E+03 0.  0.
         25    1    1    2    0    0  0.19602926677E+03  0.15831120105E+03 -0.24088311984E+02  0.28230330601E+03  0.12500000000E+03 0.  0.
</event>
<event>
 5    0  0.5655767E-005  0.4128917E+03  0.7546771E-02  0.1039405E+00
         21   -1    0    0  502  501  0.00000000000E+00  0.00000000000E+00  0.27957913036E+03  0.27957913036E+03  0.00000000000E+00 0.  1.
         21   -1    0    0  501  502 -0.00000000000E+00 -0.00000000000E+00 -0.60977207119E+03  0.60977207119E+03  0.00000000000E+00 0.  1.
         25    1    1    2    0    0  0.31751023315E+01 -0.30899520815E+02  0.19456316422E+02  0.13026284931E+03  0.12500000000E+03 0.  0.
         25    1    1    2    0    0 -0.20343593273E+03 -0.10211388901E+03  0.61319999884E+02  0.26683059689E+03  0.12500000000E+03 0.  0.
         25    1    1    2    0    0  0.20026083039E+03  0.13301340982E+03 -0.41096925714E+03  0.49225775535E+03  0.12500000000E+03 0.  0.
</event>
<event>
 5    0  0.5655767E-005  0.2564006E+03  0.7546771E-02  0.1109325E+00
         21   -1    0    0  502  501  0.00000000000E+00  0.00000000000E+00  0.26744980256E+03  0.26744980256E+03  0.00000000000E+00 0. -1.
         21   -1    0    0  501  502 -0.00000000000E+00 -0.00000000000E+00 -0.24580785147E+03  0.24580785147E+03  0.00000000000E+00 0. -1.
         25    1    1    2    0    0  0.24806858655E+02  0.65156651308E+02  0.99433007329E+02  0.17427763021E+03  0.12500000000E+03 0.  0.
         25    1    1    2    0    0 -0.61573419817E+01 -0.90937445896E+02  0.44771940162E+02  0.16104986356E+03  0.12500000000E+03 0.  0.
         25    1    1    2    0    0 -0.18649516673E+02  0.25780794588E+02 -0.12256299641E+03  0.17793016026E+03  0.12500000000E+03 0.  0.
</event>
<event>
 5    0  0.5655767E-005  0.2579589E+03  0.7546771E-02  0.1108376E+00
         21   -1    0    0  502  501  0.00000000000E+00  0.00000000000E+00  0.92823917350E+02  0.92823917350E+02  0.00000000000E+00 0.  1.
         21   -1    0    0  501  502 -0.00000000000E+00 -0.00000000000E+00 -0.71687100316E+03  0.71687100316E+03  0.00000000000E+00 0.  1.
         25    1    1    2    0    0  0.11351429381E+03  0.11101500756E+02 -0.22327557676E+03  0.28015303210E+03  0.12500000000E+03 0.  0.
         25    1    1    2    0    0  0.18405522241E+02 -0.60942383291E+02 -0.91828303582E+02  0.16766089189E+03  0.12500000000E+03 0.  0.
         25    1    1    2    0    0 -0.13191981605E+03  0.49840882535E+02 -0.30894320547E+03  0.36188099653E+03  0.12500000000E+03 0.  0.
</event>
<event>
 5    0  0.5655767E-005  0.2136331E+03  0.7546771E-02  0.1138721E+00
         21   -1    0    0  502  501  0.00000000000E+00  0.00000000000E+00  0.84232372037E+03  0.84232372037E+03  0.00000000000E+00 0.  1.
         21   -1    0    0  501  502 -0.00000000000E+00 -0.00000000000E+00 -0.54182382272E+02  0.54182382272E+02  0.00000000000E+00 0.  1.
         25    1    1    2    0    0 -0.49821325179E+01  0.40964756173E+01  0.12233471263E+03  0.17502109779E+03  0.12500000000E+03 0.  0.
         25    1    1    2    0    0  0.18852215115E+02 -0.24976623005E+02  0.47378174906E+03  0.49099224378E+03  0.12500000000E+03 0.  0.
         25    1    1    2    0    0 -0.13870082597E+02  0.20880147388E+02  0.19202487640E+03  0.23049276107E+03  0.12500000000E+03 0.  0.
</event>
<event>
 5    0  0.5655767E-005  0.2930975E+03  0.7546771E-02  0.1088743E+00
         21   -1    0    0  502  501  0.00000000000E+00  0.00000000000E+00  0.10012624556E+03  0.10012624556E+03  0.00000000000E+00 0.  1.
         21   -1    0    0  501  502 -0.00000000000E+00 -0.00000000000E+00 -0.85797822578E+03  0.85797822578E+03  0.00000000000E+00 0.  1.
         25    1    1    2    0    0  0.10793513329E+03 -0.21966023289E+02 -0.58206852181E+02  0.17648098146E+03  0.12500000000E+03 0.  0.
         25    1    1    2    0    0 -0.13497194669E+02  0.10587407420E+03 -0.41107857604E+03  0.44272123230E+03  0.12500000000E+03 0.  0.
         25    1    1    2    0    0 -0.94437938621E+02 -0.83908050916E+02 -0.28856655200E+03  0.33890225758E+03  0.12500000000E+03 0.  0.
</event>
<event>
 5    0  0.5655767E-005  0.3624920E+03  0.7546771E-02  0.1057601E+00
         21   -1    0    0  502  501  0.00000000000E+00  0.00000000000E+00  0.59574934924E+02  0.59574934924E+02  0.00000000000E+00 0. -1.
         21   -1    0    0  501  502 -0.00000000000E+00 -0.00000000000E+00 -0.22056333864E+04  0.22056333864E+04  0.00000000000E+00 0. -1.
         25    1    1    2    0    0 -0.93699755682E+02  0.17048612032E+03 -0.14829381557E+04  0.15008583327E+04  0.12500000000E+03 0.  0.
         25    1    1    2    0    0  0.10386482639E+03  0.39069033905E+01 -0.24077746345E+03  0.29052014209E+03  0.12500000000E+03 0.  0.
         25    1    1    2    0    0 -0.10165070710E+02 -0.17439302371E+03 -0.42234283239E+03  0.47382984652E+03  0.12500000000E+03 0.  0.
</event>
<event>
 5    0  0.5655767E-005  0.4125665E+03  0.7546771E-02  0.1039513E+00
         21   -1    0    0  502  501  0.00000000000E+00  0.00000000000E+00  0.17263786709E+04  0.17263786709E+04  0.00000000000E+00 0.  1.
         21   -1    0    0  501  502 -0.00000000000E+00 -0.00000000000E+00 -0.98594315734E+02  0.98594315734E+02  0.00000000000E+00 0.  1.
         25    1    1    2    0    0 -0.79528701375E+02 -0.56881466569E+02 -0.75322587108E+01  0.15887747009E+03  0.12500000000E+03 0.  0.
         25    1    1    2    0    0 -0.48636772272E+02  0.16191566280E+02  0.71078586926E+03  0.72351175137E+03  0.12500000000E+03 0.  0.
         25    1    1    2    0    0  0.12816547365E+03  0.40689900289E+02  0.92453074461E+03  0.94258376517E+03  0.12500000000E+03 0.  0.
</event>
<event>
 5    0  0.5655767E-005  0.3477099E+03  0.7546771E-02  0.1063559E+00
         21   -1    0    0  502  501  0.00000000000E+00  0.00000000000E+00  0.56467212924E+03  0.56467212924E+03  0.00000000000E+00 0. -1.
         21   -1    0    0  501  502 -0.00000000000E+00 -0.00000000000E+00 -0.21411040715E+03  0.21411040715E+03  0.00000000000E+00 0. -1.
         25    1    1    2    0    0  0.14809820067E+03  0.94889024797E+02 -0.17795262921E+02  0.21651483887E+03  0.12500000000E+03 0.  0.
         25    1    1    2    0    0  0.29268539901E+02 -0.42219016258E+02  0.43284670032E+01  0.13521400959E+03  0.12500000000E+03 0.  0.
         25    1    1    2    0    0 -0.17736674057E+03 -0.52670008539E+02  0.36402851800E+03  0.42705368794E+03  0.12500000000E+03 0.  0.
</event>
<event>
 5    0  0.5655767E-005  0.2538657E+03  0.7546771E-02  0.1110886E+00
         21   -1    0    0  502  501  0.00000000000E+00  0.00000000000E+00  0.67029850338E+02  0.67029850338E+02  0.00000000000E+00 0.  1.
         21   -1    0    0  501  502 -0.00000000000E+00 -0.00000000000E+00 -0.96147935475E+03  0.96147935475E+03  0.00000000000E+00 0.  1.
         25    1    1    2    0    0 -0.24848275099E+02 -0.13998040226E+02 -0.51933152009E+03  0.53492392885E+03  0.12500000000E+03 0.  0.
         25    1    1    2    0    0  0.57288293692E+02  0.35719195264E+02 -0.63583298599E+02  0.15564589736E+03  0.12500000000E+03 0.  0.
         25    1    1    2    0    0 -0.32440018593E+02 -0.21721155038E+02 -0.31153468573E+03  0.33793937887E+03  0.12500000000E+03 0.  0.
</event>
<event>
 5    0  0.5655767E-005  0.5003377E+03  0.7546771E-02  0.1013691E+00
         21   -1    0    0  502  501  0.00000000000E+00  0.00000000000E+00  0.24442768798E+03  0.24442768798E+03  0.00000000000E+00 0.  1.
         21   -1    0    0  501  502 -0.00000000000E+00 -0.00000000000E+00 -0.10241794530E+04  0.10241794530E+04  0.00000000000E+00 0.  1.
         25    1    1    2    0    0 -0.57339835601E+02  0.49532008328E+02 -0.27444520528E+03  0.31094444407E+03  0.12500000000E+03 0.  0.
         25    1    1    2    0    0 -0.12235042078E+03  0.30862971957E+03 -0.87423874353E+02  0.36536264597E+03  0.12500000000E+03 0.  0.
         25    1    1    2    0    0  0.17969025638E+03 -0.35816172790E+03 -0.41788268535E+03  0.59230005089E+03  0.12500000000E+03 0.  0.
</event>
<event>
 5    0  0.5655767E-005  0.2590617E+03  0.7546771E-02  0.1107708E+00
         21   -1    0    0  502  501  0.00000000000E+00  0.00000000000E+00  0.21001431564E+03  0.21001431564E+03  0.00000000000E+00 0. -1.
         21   -1    0    0  501  502 -0.00000000000E+00 -0.00000000000E+00 -0.31956365730E+03  0.31956365730E+03  0.00000000000E+00 0. -1.
         25    1    1    2    0    0 -0.15225749390E+03 -0.70773711132E+01 -0.98382882181E+02  0.22031029285E+03  0.12500000000E+03 0.  0.
         25    1    1    2    0    0  0.49180331528E+02  0.41731636435E+02  0.15279481959E+02  0.14148744488E+03  0.12500000000E+03 0.  0.
         25    1    1    2    0    0  0.10307716237E+03 -0.34654265322E+02 -0.26445941433E+02  0.16778023521E+03  0.12500000000E+03 0.  0.
</event>
<event>
 5    0  0.5655767E-005  0.3245796E+03  0.7546771E-02  0.1073561E+00
         21   -1    0    0  502  501  0.00000000000E+00  0.00000000000E+00  0.74078994318E+03  0.74078994318E+03  0.00000000000E+00 0. -1.
         21   -1    0    0  501  502 -0.00000000000E+00 -0.00000000000E+00 -0.14221560004E+03  0.14221560004E+03  0.00000000000E+00 0.  1.
         25    1    1    2    0    0 -0.18620494999E+03 -0.10889264856E+03  0.35838331885E+03  0.43657014962E+03  0.12500000000E+03 0.  0.
         25    1    1    2    0    0  0.15702133148E+03  0.10846594986E+03  0.21918394951E+03  0.31636555524E+03  0.12500000000E+03 0.  0.
         25    1    1    2    0    0  0.29183618506E+02  0.42669870233E+00  0.21007074789E+02  0.13006983836E+03  0.12500000000E+03 0.  0.
</event>
<event>
 5    0  0.5655767E-005  0.2692465E+03  0.7546771E-02  0.1101712E+00
         21   -1    0    0  502  501  0.00000000000E+00  0.00000000000E+00  0.94854899691E+03  0.94854899691E+03  0.00000000000E+00 0. -1.
         21   -1    0    0  501  502 -0.00000000000E+00 -0.00000000000E+00 -0.76425876988E+02  0.76425876988E+02  0.00000000000E+00 0. -1.
         25    1    1    2    0    0  0.12961217428E+03 -0.11956130775E+03  0.32370513774E+03  0.38923545346E+03  0.12500000000E+03 0.  0.
         25    1    1    2    0    0 -0.74049335444E+02  0.58359463189E+02  0.18331739750E+03  0.24107965333E+03  0.12500000000E+03 0.  0.
         25    1    1    2    0    0 -0.55562838836E+02  0.61201844558E+02  0.36510058469E+03  0.39465976712E+03  0.12500000000E+03 0.  0.
</event>
<event>
 5    0  0.5655767E-005  0.2529960E+03  0.7546771E-02  0.1111426E+00
         21   -1    0    0  502  501  0.00000000000E+00  0.00000000000E+00  0.11316768198E+03  0.11316768198E+03  0.00000000000E+00 0.  1.
         21   -1    0    0  501  502 -0.00000000000E+00 -0.00000000000E+00 -0.56559393781E+03  0.56559393781E+03  0.00000000000E+00 0.  1.
         25    1    1    2    0    0 -0.86451052174E+02  0.98319794383E+02 -0.30939148094E+03  0.35845314180E+03  0.12500000000E+03 0.  0.
         25    1    1    2    0    0  0.18040195214E+02 -0.54116782942E+02 -0.67868111052E+02  0.15324867157E+03  0.12500000000E+03 0.  0.
         25    1    1    2    0    0  0.68410856960E+02 -0.44203011441E+02 -0.75166663831E+02  0.16705980642E+03  0.12500000000E+03 0.  0.
</event>
<event>
 5    0  0.5655767E-005  0.4559587E+03  0.7546771E-02  0.1025960E+00
         21   -1    0    0  502  501  0.00000000000E+00  0.00000000000E+00  0.19875349775E+04  0.19875349775E+04  0.00000000000E+00 0. -1.
         21   -1    0    0  501  502 -0.00000000000E+00 -0.00000000000E+00 -0.10460110831E+03  0.10460110831E+03  0.00000000000E+00 0. -1.
         25    1    1    2    0    0  0.44572344522E+00 -0.31474218164E+02  0.76732122581E+02  0.15001214522E+03  0.12500000000E+03 0.  0.
         25    1    1    2    0    0  0.96056973790E+02 -0.25277687688E+03  0.39960106666E+03  0.49842662867E+03  0.12500000000E+03 0.  0.
         25    1    1    2    0    0 -0.96502697235E+02  0.28425109504E+03  0.14066006799E+04  0.14436973119E+04  0.12500000000E+03 0.  0.
</event>
<event>
 5    0  0.5655767E-005  0.2805448E+03  0.7546771E-02  0.1095392E+00
         21   -1    0    0  502  501  0.00000000000E+00  0.00000000000E+00  0.45834086180E+03  0.45834086180E+03  0.00000000000E+00 0. -1.
         21   -1    0    0  501  502 -0.00000000000E+00 -0.00000000000E+00 -0.17171799177E+03  0.17171799177E+03  0.00000000000E+00 0. -1.
         25    1    1    2    0    0 -0.16279477632E+02 -0.88893155512E+02  0.67270133686E+02  0.16827740601E+03  0.12500000000E+03 0.  0.
         25    1    1    2    0    0 -0.10643725829E+03  0.14843333320E+03  0.11737324618E+03  0.25052509511E+03  0.12500000000E+03 0.  0.
         25    1    1    2    0    0  0.12271673592E+03 -0.59540177693E+02  0.10197949016E+03  0.21125635245E+03  0.12500000000E+03 0.  0.
</event>
<event>
 5    0  0.5655767E-005  0.3192035E+03  0.7546771E-02  0.1076016E+00
         21   -1    0    0  502  501  0.00000000000E+00  0.00000000000E+00  0.31247745726E+03  0.31247745726E+03  0.00000000000E+00 0.  1.
         21   -1    0    0  501  502 -0.00000000000E+00 -0.00000000000E+00 -0.32607439754E+03  0.32607439754E+03  0.00000000000E+00 0.  1.
         25    1    1    2    0    0 -0.52284077364E+02 -0.22082447973E+03 -0.81910362214E+02  0.27171930927E+03  0.12500000000E+03 0.  0.
         25    1    1    2    0    0  0.54543507543E+02  0.10521635579E+03  0.91393184446E+02  0.19499535867E+03  0.12500000000E+03 0.  0.
         25    1    1    2    0    0 -0.22594301796E+01  0.11560812395E+03 -0.23079762509E+02  0.17183718685E+03  0.12500000000E+03 0.  0.
</event>
<event>
 5    0  0.6467980E-005  0.3431872E+03  0.7546771E-02  0.1065447E+00
         21   -1    0    0  502  501  0.00000000000E+00  0.00000000000E+00  0.20316802863E+03  0.20316802863E+03  0.00000000000E+00 0. -1.
         21   -1    0    0  501  502 -0.00000000000E+00 -0.00000000000E+00 -0.57970452959E+03  0.57970452959E+03  0.00000000000E+00 0. -1.
         25    1    1    2    0    0  0.11278402363E+03  0.71482039493E+02 -0.11712516989E+03  0.21719397638E+03  0.12500000000E+03 0.  0.
         25    1    1    2    0    0 -0.85614941534E+02 -0.17157386624E+03 -0.31903893105E+03  0.39265550972E+03  0.12500000000E+03 0.  0.
         25    1    1    2    0    0 -0.27169082096E+02  0.10009182675E+03  0.59627599979E+02  0.17302307211E+03  0.12500000000E+03 0.  0.
</event>
<event>
 5    0  0.5655767E-005  0.2867494E+03  0.7546771E-02  0.1092059E+00
         21   -1    0    0  502  501  0.00000000000E+00  0.00000000000E+00  0.91800143656E+02  0.91800143656E+02  0.00000000000E+00 0. -1.
         21   -1    0    0  501  502 -0.00000000000E+00 -0.00000000000E+00 -0.89569811658E+03  0.89569811658E+03  0.00000000000E+00 0. -1.
         25    1    1    2    0    0  0.10114397873E+03 -0.95996819287E+02 -0.49384435423E+03  0.52815976745E+03  0.12500000000E+03 0.  0.
         25    1    1    2    0    0 -0.44620616553E+02  0.13702309016E+03 -0.13773324713E+03  0.23529082860E+03  0.12500000000E+03 0.  0.
         25    1    1    2    0    0 -0.56523362176E+02 -0.41026270870E+02 -0.17232037156E+03  0.22404766419E+03  0.12500000000E+03 0.  0.
</event>
<event>
 5    0  0.6949048E-005  0.2816543E+03  0.7546771E-02  0.1094789E+00
         21   -1    0    0  502  501  0.00000000000E+00  0.00000000000E+00  0.15282938511E+03  0.15282938511E+03  0.00000000000E+00 0.  1.
         21   -1    0    0  501  502 -0.00000000000E+00 -0.00000000000E+00 -0.51907005948E+03  0.51907005948E+03  0.00000000000E+00 0.  1.
         25    1    1    2    0    0 -0.80382339716E+02  0.71268689173E+02 -0.93180153649E+02  0.18933591215E+03  0.12500000000E+03 0.  0.
         25    1    1    2    0    0 -0.21113776924E+02  0.81748894744E+02 -0.30935554063E+02  0.15398273239E+03  0.12500000000E+03 0.  0.
         25    1    1    2    0    0  0.10149611664E+03 -0.15301758392E+03 -0.24212496666E+03  0.32858080005E+03  0.12500000000E+03 0.  0.
</event>
<event>
 5    0  0.5655767E-005  0.3033650E+03  0.7546771E-02  0.1083570E+00
         21   -1    0    0  502  501  0.00000000000E+00  0.00000000000E+00  0.44244439969E+03  0.44244439969E+03  0.00000000000E+00 0.  1.
         21   -1    0    0  501  502 -0.00000000000E+00 -0.00000000000E+00 -0.20800429733E+03  0.20800429733E+03  0.00000000000E+00 0.  1.
         25    1    1    2    0    0 -0.15100813415E+03  0.26378520712E+02  0.36888876638E+02  0.20120902603E+03  0.12500000000E+03 0.  0.
         25    1    1    2    0    0 -0.10666606034E+02 -0.84799955736E+02 -0.10531689129E+02  0.15179171734E+03  0.12500000000E+03 0.  0.
         25    1    1    2    0    0  0.16167474018E+03  0.58421435024E+02  0.20808291485E+03  0.29744795366E+03  0.12500000000E+03 0.  0.
</event>
<event>
 5    0  0.5655767E-005  0.6353793E+03  0.7546771E-02  0.9834607E-01
         21   -1    0    0  502  501  0.00000000000E+00  0.00000000000E+00  0.73328446747E+03  0.73328446747E+03  0.00000000000E+00 0. -1.
         21   -1    0    0  501  502 -0.00000000000E+00 -0.00000000000E+00 -0.55054609090E+03  0.55054609090E+03  0.00000000000E+00 0. -1.
         25    1    1    2    0    0 -0.16999650030E+03  0.89707942437E+02 -0.24476392999E+03  0.33538143430E+03  0.12500000000E+03 0.  0.
         25    1    1    2    0    0 -0.16985439882E+03  0.17326490970E+03 -0.67473638488E+02  0.28115642909E+03  0.12500000000E+03 0.  0.
         25    1    1    2    0    0  0.33985089912E+03 -0.26297285213E+03  0.49497594504E+03  0.66729269497E+03  0.12500000000E+03 0.  0.
</event>
<event>
 5    0  0.5655767E-005  0.2666679E+03  0.7546771E-02  0.1103202E+00
         21   -1    0    0  502  501  0.00000000000E+00  0.00000000000E+00  0.22890132892E+03  0.22890132892E+03  0.00000000000E+00 0.  1.
         21   -1    0    0  501  502 -0.00000000000E+00 -0.00000000000E+00 -0.31066560301E+03  0.31066560301E+03  0.00000000000E+00 0.  1.
         25    1    1    2    0    0 -0.14565667511E+03 -0.76621500239E+02 -0.41129050833E+02  0.21072095322E+03  0.12500000000E+03 0.  0.
         25    1    1    2    0    0  0.12533654743E+03  0.34587616463E+02  0.21526960472E+02  0.18164240518E+03  0.12500000000E+03 0.  0.
         25    1    1    2    0    0  0.20320127679E+02  0.42033883776E+02 -0.62162183723E+02  0.14720357353E+03  0.12500000000E+03 0.  0.
</event>
<event>
 5    0  0.5655767E-005  0.3029997E+03  0.7546771E-02  0.1083751E+00
         21   -1    0    0  502  501  0.00000000000E+00  0.00000000000E+00  0.30376168611E+03  0.30376168611E+03  0.00000000000E+00 0.  1.
         21   -1    0    0  501  502 -0.00000000000E+00 -0.00000000000E+00 -0.30223966054E+03  0.30223966054E+03  0.00000000000E+00 0.  1.
         25    1    1    2    0    0  0.12318544045E+03  0.48531765687E+02 -0.91685520248E+02  0.20386569020E+03  0.12500000000E+03 0.  0.
         25    1    1    2    0    0 -0.67013565166E+02 -0.13578362493E+03  0.13009977966E+03  0.23553972782E+03  0.12500000000E+03 0.  0.
         25    1    1    2    0    0 -0.56171875282E+02  0.87251859245E+02 -0.36892233838E+02  0.16659592862E+03  0.12500000000E+03 0.  0.
</event>
<event>
 5    0  0.5655767E-005  0.3747005E+03  0.7546771E-02  0.1052910E+00
         21   -1    0    0  502  501  0.00000000000E+00  0.00000000000E+00  0.16711229569E+04  0.16711229569E+04  0.00000000000E+00 0. -1.
         21   -1    0    0  501  502 -0.00000000000E+00 -0.00000000000E+00 -0.84015641113E+02  0.84015641113E+02  0.00000000000E+00 0. -1.
         25    1    1    2    0    0  0.11967736360E+03 -0.87925494415E+02  0.10335507836E+04  0.10516205524E+04  0.12500000000E+03 0.  0.
         25    1    1    2    0    0 -0.15211338268E+03  0.14650180766E+03  0.18114977419E+03  0.30502705049E+03  0.12500000000E+03 0.  0.
         25    1    1    2    0    0  0.32436019084E+02 -0.58576313240E+02  0.37240675797E+03  0.39849099512E+03  0.12500000000E+03 0.  0.
</event>
<event>
 5    0  0.5655767E-005  0.3440097E+03  0.7546771E-02  0.1065101E+00
         21   -1    0    0  502  501  0.00000000000E+00  0.00000000000E+00  0.19604051456E+03  0.19604051456E+03  0.00000000000E+00 0.  1.
         21   -1    0    0  501  502 -0.00000000000E+00 -0.00000000000E+00 -0.60366440288E+03  0.60366440288E+03  0.00000000000E+00 0.  1.
         25    1    1    2    0    0 -0.14563721469E+02 -0.81365389842E+02 -0.72154029100E+02  0.16632387851E+03  0.12500000000E+03 0.  0.
         25    1    1    2    0    0  0.81342794584E+02 -0.16188567958E+03 -0.37195841330E+02  0.22323116739E+03  0.12500000000E+03 0.  0.
         25    1    1    2    0    0 -0.66779073115E+02  0.24325106942E+03 -0.29827401789E+03  0.41014987154E+03  0.12500000000E+03 0.  0.
</event>
<event>
 5    0  0.5655767E-005  0.2829337E+03  0.7546771E-02  0.1094097E+00
         21   -1    0    0  502  501  0.00000000000E+00  0.00000000000E+00  0.11208764450E+04  0.11208764450E+04  0.00000000000E+00 0. -1.
         21   -1    0    0  501  502 -0.00000000000E+00 -0.00000000000E+00 -0.71418663370E+02  0.71418663370E+02  0.00000000000E+00 0. -1.
         25    1    1    2    0    0  0.11757778592E+03 -0.91292849552E+02  0.16124447565E+03  0.25255435266E+03  0.12500000000E+03 0.  0.
         25    1    1    2    0    0 -0.45623288618E+02  0.81740471483E+02  0.36675203370E+03  0.39861641131E+03  0.12500000000E+03 0.  0.
         25    1    1    2    0    0 -0.71954497304E+02  0.95523780689E+01  0.52146127227E+03  0.54112434438E+03  0.12500000000E+03 0.  0.
</event>
<event>
 5    0  0.5655767E-005  0.4297770E+03  0.7546771E-02  0.1033930E+00
         21   -1    0    0  502  501  0.00000000000E+00  0.00000000000E+00  0.13794479470E+04  0.13794479470E+04  0.00000000000E+00 0. -1.
         21   -1    0    0  501  502 -0.00000000000E+00 -0.00000000000E+00 -0.13390015032E+03  0.13390015032E+03  0.00000000000E+00 0. -1.
         25    1    1    2    0    0  0.89224054941E+02  0.19315324569E+03  0.46452911483E+03  0.52600513955E+03  0.12500000000E+03 0.  0.
         25    1    1    2    0    0  0.12064612070E+03 -0.17807039720E+03  0.67727897531E+03  0.72152364008E+03  0.12500000000E+03 0.  0.
         25    1    1    2    0    0 -0.20987017564E+03 -0.15082848493E+02  0.10373970652E+03  0.26581931768E+03  0.12500000000E+03 0.  0.
</event>
<event>
 5    0  0.5655767E-005  0.2670399E+03  0.7546771E-02  0.1102986E+00
         21   -1    0    0  502  501  0.00000000000E+00  0.00000000000E+00  0.14846853548E+03  0.14846853548E+03  0.00000000000E+00 0. -1.
         21   -1    0    0  501  502 -0.00000000000E+00 -0.00000000000E+00 -0.48030580724E+03  0.48030580724E+03  0.00000000000E+00 0. -1.
         25    1    1    2    0    0 -0.34600432353E+02  0.66822738084E+02 -0.81651053033E+01  0.14613054844E+03  0.12500000000E+03 0.  0.
         25    1    1    2    0    0 -0.74469269273E+02 -0.10057216352E+03 -0.22672019581E+03  0.28755430675E+03  0.12500000000E+03 0.  0.
         25    1    1    2    0    0  0.10906970163E+03  0.33749425436E+02 -0.96951970654E+02  0.19508948753E+03  0.12500000000E+03 0.  0.
</event>
<event>
 5    0  0.5655767E-005  0.3586574E+03  0.7546771E-02  0.1059117E+00
         21   -1    0    0  502  501  0.00000000000E+00  0.00000000000E+00  0.39865180724E+03  0.39865180724E+03  0.00000000000E+00 0.  1.
         21   -1    0    0  501  502 -0.00000000000E+00 -0.00000000000E+00 -0.32267542378E+03  0.32267542378E+03  0.00000000000E+00 0.  1.
         25    1    1    2    0    0 -0.11518809103E+03 -0.11396022240E+03  0.10215922926E+03  0.22872852189E+03  0.12500000000E+03 0.  0.
         25    1    1    2    0    0  0.17229266800E+03  0.17737967959E+03 -0.13300066639E+03  0.30734750925E+03  0.12500000000E+03 0.  0.
         25    1    1    2    0    0 -0.57104576969E+02 -0.63419457193E+02  0.10681782060E+03  0.18525119988E+03  0.12500000000E+03 0.  0.
</event>
<event>
 5    0  0.5655767E-005  0.3009010E+03  0.7546771E-02  0.1084791E+00
         21   -1    0    0  502  501  0.00000000000E+00  0.00000000000E+00  0.38042374934E+03  0.38042374934E+03  0.00000000000E+00 0. -1.
         21   -1    0    0  501  502 -0.00000000000E+00 -0.00000000000E+00 -0.23800152001E+03  0.23800152001E+03  0.00000000000E+00 0. -1.
         25    1    1    2    0    0  0.26530056302E+01  0.12064337276E+03 -0.78905906010E+02  0.19082191654E+03  0.12500000000E+03 0.  0.
         25    1    1    2    0    0  0.73440505465E+02 -0.14176294123E+03  0.66204869510E+02  0.21330336166E+03  0.12500000000E+03 0.  0.
         25    1    1    2    0    0 -0.76093511095E+02  0.21119568475E+02  0.15512326583E+03  0.21429999115E+03  0.12500000000E+03 0.  0.
</event>
<event>
 5    0  0.5655767E-005  0.3963905E+03  0.7546771E-02  0.1045037E+00
         21   -1    0    0  502  501  0.00000000000E+00  0.00000000000E+00  0.50080384246E+03  0.50080384246E+03  0.00000000000E+00 0. -1.
         21   -1    0    0  501  502 -0.00000000000E+00 -0.00000000000E+00 -0.31374647336E+03  0.31374647336E+03  0.00000000000E+00 0. -1.
         25    1    1    2    0    0  0.18448586629E+03 -0.11767026466E+03 -0.75816363738E+01  0.25211863727E+03  0.12500000000E+03 0.  0.
         25    1    1    2    0    0 -0.25820011503E+02 -0.14531600903E+03  0.44735867895E+02  0.19851879848E+03  0.12500000000E+03 0.  0.
         25    1    1    2    0    0 -0.15866585479E+03  0.26298627369E+03  0.14990313758E+03  0.36391288007E+03  0.12500000000E+03 0.  0.
</event>
<event>
 5    0  0.5655767E-005  0.3355112E+03  0.7546771E-02  0.1068724E+00
         21   -1    0    0  502  501  0.00000000000E+00  0.00000000000E+00  0.19382025733E+03  0.19382025733E+03  0.00000000000E+00 0. -1.
         21   -1    0    0  501  502 -0.00000000000E+00 -0.00000000000E+00 -0.58078418479E+03  0.58078418479E+03  0.00000000000E+00 0. -1.
         25    1    1    2    0    0  0.19696510203E+02 -0.82789586292E+02  0.81176022339E+02  0.17162929446E+03  0.12500000000E+03 0.  0.
         25    1    1    2    0    0 -0.12225506164E+03  0.14690477181E+02 -0.11833048886E+03  0.21163462574E+03  0.12500000000E+03 0.  0.
         25    1    1    2    0    0  0.10255855144E+03  0.68099109110E+02 -0.34980946094E+03  0.39134052192E+03  0.12500000000E+03 0.  0.
</event>
<event>
 5    0  0.5655767E-005  0.4854048E+03  0.7546771E-02  0.1017660E+00
         21   -1    0    0  502  501  0.00000000000E+00  0.00000000000E+00  0.19054186631E+04  0.19054186631E+04  0.00000000000E+00 0. -1.
         21   -1    0    0  501  502 -0.00000000000E+00 -0.00000000000E+00 -0.12365672359E+03  0.12365672359E+03  0.00000000000E+00 0. -1.
         25    1    1    2    0    0  0.20915852915E+03 -0.15281638161E+03  0.49889826509E+03  0.57586857503E+03  0.12500000000E+03 0.  0.
         25    1    1    2    0    0  0.49502704172E+00  0.27809764451E+03  0.10499121172E+04  0.10932881591E+04  0.12500000000E+03 0.  0.
         25    1    1    2    0    0 -0.20965355619E+03 -0.12528126290E+03  0.23295155722E+03  0.35991865257E+03  0.12500000000E+03 0.  0.
</event>
<event>
 5    0  0.5655767E-005  0.2313209E+03  0.7546771E-02  0.1125713E+00
         21   -1    0    0  502  501  0.00000000000E+00  0.00000000000E+00  0.10987983752E+03  0.10987983752E+03  0.00000000000E+00 0.  1.
         21   -1    0    0  501  502 -0.00000000000E+00 -0.00000000000E+00 -0.48698074427E+03  0.48698074427E+03  0.00000000000E+00 0.  1.
         25    1    1    2    0    0 -0.53259367833E+02  0.98542286026E+02 -0.10557718201E+03  0.19828939396E+03  0.12500000000E+03 0.  0.
         25    1    1    2    0    0  0.64624105494E+02 -0.83857606753E+02 -0.13243947949E+03  0.21065039508E+03  0.12500000000E+03 0.  0.
         25    1    1    2    0    0 -0.11364737661E+02 -0.14684679273E+02 -0.13908424526E+03  0.18792079275E+03  0.12500000000E+03 0.  0.
</event>
<event>
 5    0  0.5655767E-005  0.3758428E+03  0.7546771E-02  0.1052481E+00
         21   -1    0    0  502  501  0.00000000000E+00  0.00000000000E+00  0.16101816329E+03  0.16101816329E+03  0.00000000000E+00 0.  1.
         21   -1    0    0  501  502 -0.00000000000E+00 -0.00000000000E+00 -0.87727884068E+03  0.87727884068E+03  0.00000000000E+00 0.  1.
         25    1    1    2    0    0 -0.28238212176E+03 -0.16268172277E+02 -0.46182556528E+03  0.55579867656E+03  0.12500000000E+03 0.  0.
         25    1    1    2    0    0  0.18545441342E+03  0.48143261809E+02 -0.22024427506E+03  0.31755889818E+03  0.12500000000E+03 0.  0.
         25    1    1    2    0    0  0.96927708337E+02 -0.31875089532E+02 -0.34190837047E+02  0.16493942923E+03  0.12500000000E+03 0.  0.
</event>
<event>
 5    0  0.5655767E-005  0.3932840E+03  0.7546771E-02  0.1046130E+00
         21   -1    0    0  502  501  0.00000000000E+00  0.00000000000E+00  0.40369881325E+03  0.40369881325E+03  0.00000000000E+00 0. -1.
         21   -1    0    0  501  502 -0.00000000000E+00 -0.00000000000E+00 -0.38313778131E+03  0.38313778131E+03  0.00000000000E+00 0.  1.
         25    1    1    2    0    0  0.20095274434E+03 -0.15395777849E+03  0.20305619722E+02  0.28305886527E+03  0.12500000000E+03 0.  0.
         25    1    1    2    0    0 -0.23597116540E+03  0.17782520653E+03 -0.10217834431E+03  0.33670403773E+03  0.12500000000E+03 0.  0.
         25    1    1    2    0    0  0.35018421061E+02 -0.23867428043E+02  0.10243375653E+03  0.16707369156E+03  0.12500000000E+03 0.  0.
</event>
<event>
 5    0  0.5655767E-005  0.4073661E+03  0.7546771E-02  0.1041258E+00
         21   -1    0    0  502  501  0.00000000000E+00  0.00000000000E+00  0.26821841045E+03  0.26821841045E+03  0.00000000000E+00 0.  1.
         21   -1    0    0  501  502 -0.00000000000E+00 -0.00000000000E+00 -0.61870150807E+03  0.61870150807E+03  0.00000000000E+00 0.  1.
         25    1    1    2    0    0  0.15639498488E+03 -0.20429990958E+02 -0.41290512518E+03  0.45933911027E+03  0.12500000000E+03 0.  0.
         25    1    1    2    0    0 -0.13053845469E+03 -0.42825380881E+02  0.16785547638E+03  0.25034928071E+03  0.12500000000E+03 0.  0.
         25    1    1    2    0    0 -0.25856530191E+02  0.63255371839E+02 -0.10543344883E+03  0.17723152753E+03  0.12500000000E+03 0.  0.
</event>
<event>
 5    0  0.5655767E-005  0.2974211E+03  0.7546771E-02  0.1086537E+00
         21   -1    0    0  502  501  0.00000000000E+00  0.00000000000E+00  0.10724873848E+04  0.10724873848E+04  0.00000000000E+00 0.  1.
         21   -1    0    0  501  502 -0.00000000000E+00 -0.00000000000E+00 -0.82480508425E+02  0.82480508425E+02  0.00000000000E+00 0.  1.
         25    1    1    2    0    0 -0.18913481775E+03 -0.59460573367E+02  0.48310953375E+03  0.53696122827E+03  0.12500000000E+03 0.  0.
         25    1    1    2    0    0  0.52582794626E+02  0.88403296718E+02  0.18757449870E+03  0.24776861327E+03  0.12500000000E+03 0.  0.
         25    1    1    2    0    0  0.13655202312E+03 -0.28942723351E+02  0.31932284389E+03  0.37023805164E+03  0.12500000000E+03 0.  0.
</event>
<event>
 5    0  0.5794423E-005  0.2672606E+03  0.7546771E-02  0.1102858E+00
         21   -1    0    0  502  501  0.00000000000E+00  0.00000000000E+00  0.35559463019E+02  0.35559463019E+02  0.00000000000E+00 0. -1.
         21   -1    0    0  501  502 -0.00000000000E+00 -0.00000000000E+00 -0.20086987393E+04  0.20086987393E+04  0.00000000000E+00 0. -1.
         25    1    1    2    0    0  0.19091194968E+02 -0.10721387208E+03 -0.57900441956E+03  0.60227104028E+03  0.12500000000E+03 0.  0.
         25    1    1    2    0    0 -0.10806479629E+03  0.11688488108E+03 -0.60323679103E+03  0.63628586474E+03  0.12500000000E+03 0.  0.
         25    1    1    2    0    0  0.88973601320E+02 -0.96710090006E+01 -0.79089806570E+03  0.80570129730E+03  0.12500000000E+03 0.  0.
</event>
<event>
 5    0  0.5655767E-005  0.2527468E+03  0.7546771E-02  0.1111581E+00
         21   -1    0    0  502  501  0.00000000000E+00  0.00000000000E+00  0.73501426725E+03  0.73501426725E+03  0.00000000000E+00 0. -1.
         21   -1    0    0  501  502 -0.00000000000E+00 -0.00000000000E+00 -0.86911156138E+02  0.86911156138E+02  0.00000000000E+00 0. -1.
         25    1    1    2    0    0  0.51481050668E+02  0.55345787878E+02  0.18558708153E+03  0.23618005768E+03  0.12500000000E+03 0.  0.
         25    1    1    2    0    0 -0.15044606670E+03 -0.33744576455E+02  0.25152918736E+03  0.32041324492E+03  0.12500000000E+03 0.  0.
         25    1    1    2    0    0  0.98965016033E+02 -0.21601211423E+02  0.21098684223E+03  0.26533212080E+03  0.12500000000E+03 0.  0.
</event>
<event>
 5    0  0.5655767E-005  0.3141555E+03  0.7546771E-02  0.1078371E+00
         21   -1    0    0  502  501  0.00000000000E+00  0.00000000000E+00  0.49722428095E+03  0.49722428095E+03  0.00000000000E+00 0. -1.
         21   -1    0    0  501  502 -0.00000000000E+00 -0.00000000000E+00 -0.19848921150E+03  0.19848921150E+03  0.00000000000E+00 0. -1.
         25    1    1    2    0    0  0.17583566949E+03 -0.14676575021E+03  0.21314880066E+03  0.33692102832E+03  0.12500000000E+03 0.  0.
         25    1    1    2    0    0 -0.12253333600E+03  0.73468343426E+02  0.19455989740E+02  0.19082859182E+03  0.12500000000E+03 0.  0.
         25    1    1    2    0    0 -0.53302333489E+02  0.73297406783E+02  0.66130279042E+02  0.16796387231E+03  0.12500000000E+03 0.  0.
</event>
<event>
 5    0  0.6325913E-005  0.6345879E+03  0.7546771E-02  0.9836136E-01
         21   -1    0    0  502  501  0.00000000000E+00  0.00000000000E+00  0.78674044026E+03  0.78674044026E+03  0.00000000000E+00 0. -1.
         21   -1    0    0  501  502 -0.00000000000E+00 -0.00000000000E+00 -0.51186114863E+03  0.51186114863E+03  0.00000000000E+00 0. -1.
         25    1    1    2    0    0  0.40133343906E+03 -0.13467936454E+03  0.18148898491E+03  0.47725288075E+03  0.12500000000E+03 0.  0.
         25    1    1    2    0    0  0.80981490186E+02  0.19882717484E+03 -0.11958038677E+03  0.27570766422E+03  0.12500000000E+03 0.  0.
         25    1    1    2    0    0 -0.48231492924E+03 -0.64147810301E+02  0.21297069349E+03  0.54564104393E+03  0.12500000000E+03 0.  0.
</event>
<event>
 5    0  0.5655767E-005  0.3137692E+03  0.7546771E-02  0.1078553E+00
         21   -1    0    0  502  501  0.00000000000E+00  0.00000000000E+00  0.23076130608E+03  0.23076130608E+03  0.00000000000E+00 0. -1.
         21   -1    0    0  501  502 -0.00000000000E+00 -0.00000000000E+00 -0.42663610072E+03  0.42663610072E+03  0.00000000000E+00 0. -1.
         25    1    1    2    0    0  0.12393959457E+03  0.89279206138E+02 -0.19168872400E+03  0.27513881344E+03  0.12500000000E+03 0.  0.
         25    1    1    2    0    0 -0.12994602329E+03  0.53833310093E+02 -0.29494308195E+02  0.19047022986E+03  0.12500000000E+03 0.  0.
         25    1    1    2    0    0  0.60064287250E+01 -0.14311251623E+03  0.25308237559E+02  0.19178836351E+03  0.12500000000E+03 0.  0.
</event>
<event>
 5    0  0.5655767E-005  0.4079540E+03  0.7546771E-02  0.1041060E+00
         21   -1    0    0  502  501  0.00000000000E+00  0.00000000000E+00  0.38380026159E+03  0.38380026159E+03  0.00000000000E+00 0.  1.
         21   -1    0    0  501  502 -0.00000000000E+00 -0.00000000000E+00 -0.43362782050E+03  0.43362782050E+03  0.00000000000E+00 0.  1.
         25    1    1    2    0    0  0.18908402277E+03 -0.27257290523E+02 -0.73005492461E+02  0.23968840081E+03  0.12500000000E+03 0.  0.
         25    1    1    2    0    0 -0.23288754125E+03  0.21874353273E+03  0.33200728257E+02  0.34469207756E+03  0.12500000000E+03 0.  0.
         25    1    1    2    0    0  0.43803518484E+02 -0.19148624220E+03 -0.10022794712E+02  0.23304760372E+03  0.12500000000E+03 0.  0.
</event>
<event>
 5    0  0.5655767E-005  0.3266930E+03  0.7546771E-02  0.1072610E+00
         21   -1    0    0  502  501  0.00000000000E+00  0.00000000000E+00  0.22039977858E+03  0.22039977858E+03  0.00000000000E+00 0.  1.
         21   -1    0    0  501  502 -0.00000000000E+00 -0.00000000000E+00 -0.48424870044E+03  0.48424870044E+03  0.00000000000E+00 0.  1.
         25    1    1    2    0    0  0.68909625993E+01  0.12968057837E+03 -0.11197728149E+03  0.21219907951E+03  0.12500000000E+03 0.  0.
         25    1    1    2    0    0  0.68061891454E+01 -0.24633597470E+03 -0.16256014353E+03  0.32059091832E+03  0.12500000000E+03 0.  0.
         25    1    1    2    0    0 -0.13697151745E+02  0.11665539633E+03  0.10688503157E+02  0.17185848119E+03  0.12500000000E+03 0.  0.
</event>
<event>
 5    0  0.5655767E-005  0.3479974E+03  0.7546771E-02  0.1063440E+00
         21   -1    0    0  502  501  0.00000000000E+00  0.00000000000E+00  0.14071421361E+04  0.14071421361E+04  0.00000000000E+00 0.  1.
         21   -1    0    0  501  502 -0.00000000000E+00 -0.00000000000E+00 -0.86062526906E+02  0.86062526906E+02  0.00000000000E+00 0.  1.
         25    1    1    2    0    0 -0.18360105095E+03  0.18461868057E+03  0.56687716409E+03  0.63621389665E+03  0.12500000000E+03 0.  0.
         25    1    1    2    0    0  0.16522096201E+02 -0.13978796345E+03  0.28542173163E+03  0.34191259011E+03  0.12500000000E+03 0.  0.
         25    1    1    2    0    0  0.16707895475E+03 -0.44830717116E+02  0.46878071346E+03  0.51507817623E+03  0.12500000000E+03 0.  0.
</event>
<event>
 5    0  0.5655767E-005  0.2167768E+03  0.7546771E-02  0.1136309E+00
         21   -1    0    0  502  501  0.00000000000E+00  0.00000000000E+00  0.13896856328E+04  0.13896856328E+04  0.00000000000E+00 0. -1.
         21   -1    0    0  501  502 -0.00000000000E+00 -0.00000000000E+00 -0.33814961804E+02  0.33814961804E+02  0.00000000000E+00 0. -1.
         25    1    1    2    0    0  0.65318486671E+02  0.47429610717E+01  0.61687256229E+03  0.63280783693E+03  0.12500000000E+03 0.  0.
         25    1    1    2    0    0 -0.61914578053E+02  0.39565982563E+02  0.44801861945E+03  0.47089761661E+03  0.12500000000E+03 0.  0.
         25    1    1    2    0    0 -0.34039086172E+01 -0.44308943634E+02  0.29097948927E+03  0.31979514107E+03  0.12500000000E+03 0.  0.
</event>
<event>
 5    0  0.5655767E-005  0.5142087E+03  0.7546771E-02  0.1010135E+00
         21   -1    0    0  502  501  0.00000000000E+00  0.00000000000E+00  0.26230688859E+04  0.26230688859E+04  0.00000000000E+00 0. -1.
         21   -1    0    0  501  502 -0.00000000000E+00 -0.00000000000E+00 -0.10080198982E+03  0.10080198982E+03  0.00000000000E+00 0. -1.
         25    1    1    2    0    0 -0.10554182230E+03  0.20521165605E+03  0.16282199554E+03  0.30884770076E+03  0.12500000000E+03 0.  0.
         25    1    1    2    0    0 -0.15662882528E+02 -0.28952491299E+03  0.12791088570E+04  0.13175031192E+04  0.12500000000E+03 0.  0.
         25    1    1    2    0    0  0.12120470483E+03  0.84313256935E+02  0.10803360436E+04  0.10975200558E+04  0.12500000000E+03 0.  0.
</event>
<event>
 5    0  0.5655767E-005  0.3634419E+03  0.7546771E-02  0.1057229E+00
         21   -1    0    0  502  501  0.00000000000E+00  0.00000000000E+00  0.79039214397E+03  0.79039214397E+03  0.00000000000E+00 0.  1.
         21   -1    0    0  501  502 -0.00000000000E+00 -0.00000000000E+00 -0.16711960200E+03  0.16711960200E+03  0.00000000000E+00 0.  1.
         25    1    1    2    0    0 -0.50150977437E+01  0.18734127657E+03  0.21317501649E+03  0.31014592173E+03  0.12500000000E+03 0.  0.
         25    1    1    2    0    0  0.41042245605E+02  0.45094365998E+02  0.34670906247E+03  0.37356410664E+03  0.12500000000E+03 0.  0.
         25    1    1    2    0    0 -0.36027147861E+02 -0.23243564256E+03  0.63388463016E+02  0.27380171760E+03  0.12500000000E+03 0.  0.
</event>
<event>
 5    0  0.5655767E-005  0.2833651E+03  0.7546771E-02  0.1093865E+00
         21   -1    0    0  502  501  0.00000000000E+00  0.00000000000E+00  0.37669129762E+03  0.37669129762E+03  0.00000000000E+00 0. -1.
         21   -1    0    0  501  502 -0.00000000000E+00 -0.00000000000E+00 -0.21316075628E+03  0.21316075628E+03  0.00000000000E+00 0. -1.
         25    1    1    2    0    0  0.63761944488E+02  0.15289149584E+03  0.80979949112E+02  0.22276478004E+03  0.12500000000E+03 0.  0.
         25    1    1    2    0    0  0.21776724539E+02  0.87177557378E+00 -0.19442277122E+02  0.12836661507E+03  0.12500000000E+03 0.  0.
         25    1    1    2    0    0 -0.85538669027E+02 -0.15376327142E+03  0.10199286935E+03  0.23872065879E+03  0.12500000000E+03 0.  0.
</event>
<event>
 5    0  0.5655767E-005  0.4689976E+03  0.7546771E-02  0.1022204E+00
         21   -1    0    0  502  501  0.00000000000E+00  0.00000000000E+00  0.76803936643E+03  0.76803936643E+03  0.00000000000E+00 0. -1.
         21   -1    0    0  501  502 -0.00000000000E+00 -0.00000000000E+00 -0.28638998157E+03  0.28638998157E+03  0.00000000000E+00 0. -1.
         25    1    1    2    0    0  0.15838439138E+03  0.16764446078E+02  0.56678107593E+03  0.60185749985E+03  0.12500000000E+03 0.  0.
         25    1    1    2    0    0  0.55305990484E+02  0.43993938713E+01  0.75972943811E+02  0.15644486390E+03  0.12500000000E+03 0.  0.
         25    1    1    2    0    0 -0.21369038187E+03 -0.21163839950E+02 -0.16110463488E+03  0.29612698425E+03  0.12500000000E+03 0.  0.
</event>
<event>
 5    0  0.5655767E-005  0.4309451E+03  0.7546771E-02  0.1033562E+00
         21   -1    0    0  502  501  0.00000000000E+00  0.00000000000E+00  0.47113055403E+03  0.47113055403E+03  0.00000000000E+00 0.  1.
         21   -1    0    0  501  502 -0.00000000000E+00 -0.00000000000E+00 -0.39418722539E+03  0.39418722539E+03  0.00000000000E+00 0.  1.
         25    1    1    2    0    0  0.44913114265E+02 -0.32300804110E+03 -0.40177988789E+02  0.35155462339E+03  0.12500000000E+03 0.  0.
         25    1    1    2    0    0 -0.72696814363E+02  0.33128149686E+03  0.13150110496E+03  0.38464242822E+03  0.12500000000E+03 0.  0.
         25    1    1    2    0    0  0.27783700098E+02 -0.82734557616E+01 -0.14379787524E+02  0.12912072781E+03  0.12500000000E+03 0.  0.
</event>
<event>
 5    0  0.5655767E-005  0.2700232E+03  0.7546771E-02  0.1101266E+00
         21   -1    0    0  502  501  0.00000000000E+00  0.00000000000E+00  0.40536192198E+02  0.40536192198E+02  0.00000000000E+00 0.  1.
         21   -1    0    0  501  502 -0.00000000000E+00 -0.00000000000E+00 -0.17987021115E+04  0.17987021115E+04  0.00000000000E+00 0.  1.
         25    1    1    2    0    0  0.77263709753E+02  0.49902657183E+02 -0.79974350470E+03  0.81466227933E+03  0.12500000000E+03 0.  0.
         25    1    1    2    0    0  0.36871450092E+02  0.50070644314E+02 -0.22104500879E+03  0.26144305148E+03  0.12500000000E+03 0.  0.
         25    1    1    2    0    0 -0.11413515984E+03 -0.99973301497E+02 -0.73737740578E+03  0.76313297287E+03  0.12500000000E+03 0.  0.
</event>
<event>
 5    0  0.5655767E-005  0.2766014E+03  0.7546771E-02  0.1097560E+00
         21   -1    0    0  502  501  0.00000000000E+00  0.00000000000E+00  0.62981675188E+02  0.62981675188E+02  0.00000000000E+00 0.  1.
         21   -1    0    0  501  502 -0.00000000000E+00 -0.00000000000E+00 -0.12147714860E+04  0.12147714860E+04  0.00000000000E+00 0.  1.
         25    1    1    2    0    0 -0.12859195964E+03  0.48542703190E+02 -0.34520888245E+03  0.39202864518E+03  0.12500000000E+03 0.  0.
         25    1    1    2    0    0  0.14295975717E+03  0.56418284383E+02 -0.37550866107E+03  0.42456126710E+03  0.12500000000E+03 0.  0.
         25    1    1    2    0    0 -0.14367797532E+02 -0.10496098757E+03 -0.43107226728E+03  0.46116324890E+03  0.12500000000E+03 0.  0.
</event>
<event>
 5    0  0.5655767E-005  0.2867368E+03  0.7546771E-02  0.1092065E+00
         21   -1    0    0  502  501  0.00000000000E+00  0.00000000000E+00  0.18925264077E+03  0.18925264077E+03  0.00000000000E+00 0. -1.
         21   -1    0    0  501  502 -0.00000000000E+00 -0.00000000000E+00 -0.43443501298E+03  0.43443501298E+03  0.00000000000E+00 0. -1.
         25    1    1    2    0    0 -0.75838474042E+02 -0.32079220434E+02 -0.21891644993E+02  0.15127721127E+03  0.12500000000E+03 0.  0.
         25    1    1    2    0    0 -0.17157801882E+02 -0.13257805200E+03 -0.14179999238E+03  0.23152444337E+03  0.12500000000E+03 0.  0.
         25    1    1    2    0    0  0.92996275925E+02  0.16465727244E+03 -0.81490734838E+02  0.24088599911E+03  0.12500000000E+03 0.  0.
</event>
<event>
 5    0  0.5655767E-005  0.2355840E+03  0.7546771E-02  0.1122770E+00
         21   -1    0    0  502  501  0.00000000000E+00  0.00000000000E+00  0.11848013341E+03  0.11848013341E+03  0.00000000000E+00 0. -1.
         21   -1    0    0  501  502 -0.00000000000E+00 -0.00000000000E+00 -0.46843157037E+03  0.46843157037E+03  0.00000000000E+00 0. -1.
         25    1    1    2    0    0 -0.60277007017E+02 -0.95763581611E+02 -0.10938025868E+03  0.20098015356E+03  0.12500000000E+03 0.  0.
         25    1    1    2    0    0  0.34131547427E+02  0.11273448621E+03 -0.12034428779E+03  0.20971832184E+03  0.12500000000E+03 0.  0.
         25    1    1    2    0    0  0.26145459590E+02 -0.16970904598E+02 -0.12022689049E+03  0.17621322838E+03  0.12500000000E+03 0.  0.
</event>
<event>
 5    0  0.5655767E-005  0.3356256E+03  0.7546771E-02  0.1068675E+00
         21   -1    0    0  502  501  0.00000000000E+00  0.00000000000E+00  0.69148890365E+03  0.69148890365E+03  0.00000000000E+00 0.  1.
         21   -1    0    0  501  502 -0.00000000000E+00 -0.00000000000E+00 -0.16290140858E+03  0.16290140858E+03  0.00000000000E+00 0.  1.
         25    1    1    2    0    0  0.37826270807E+02  0.15771200568E+03  0.18066967031E+03  0.27307587457E+03  0.12500000000E+03 0.  0.
         25    1    1    2    0    0 -0.52496021745E+02  0.10643594897E+03  0.11329574135E+03  0.20626528681E+03  0.12500000000E+03 0.  0.
         25    1    1    2    0    0  0.14669750938E+02 -0.26414795465E+03  0.23462208340E+03  0.37504915086E+03  0.12500000000E+03 0.  0.
</event>
<event>
 5    0  0.5736774E-005  0.2628422E+03  0.7546771E-02  0.1105448E+00
         21   -1    0    0  502  501  0.00000000000E+00  0.00000000000E+00  0.66045982994E+03  0.66045982994E+03  0.00000000000E+00 0.  1.
         21   -1    0    0  501  502 -0.00000000000E+00 -0.00000000000E+00 -0.10460290909E+03  0.10460290909E+03  0.00000000000E+00 0.  1.
         25    1    1    2    0    0 -0.32381245548E+01 -0.58012129958E+02  0.20649718325E+03  0.24827802836E+03  0.12500000000E+03 0.  0.
         25    1    1    2    0    0  0.97239396212E+02  0.12870339224E+03  0.14736006593E+03  0.25171422761E+03  0.12500000000E+03 0.  0.
         25    1    1    2    0    0 -0.94001271657E+02 -0.70691262280E+02  0.20199967167E+03  0.26507048306E+03  0.12500000000E+03 0.  0.
</event>
<event>
 5    0  0.5655767E-005  0.2180649E+03  0.7546771E-02  0.1135334E+00
         21   -1    0    0  502  501  0.00000000000E+00  0.00000000000E+00  0.10072829478E+04  0.10072829478E+04  0.00000000000E+00 0. -1.
         21   -1    0    0  501  502 -0.00000000000E+00 -0.00000000000E+00 -0.47208493578E+02  0.47208493578E+02  0.00000000000E+00 0. -1.
         25    1    1    2    0    0 -0.23631916210E+02  0.60606099727E+02  0.33117007418E+03  0.35990302141E+03  0.12500000000E+03 0.  0.
         25    1    1    2    0    0 -0.39111081253E+02 -0.64159529413E+02  0.40613634542E+03  0.43152966638E+03  0.12500000000E+03 0.  0.
         25    1    1    2    0    0  0.62742997463E+02  0.35534296854E+01  0.22276803464E+03  0.26305875361E+03  0.12500000000E+03 0.  0.
</event>
<event>
 5    0  0.5655767E-005  0.5765884E+03  0.7546771E-02  0.9955204E-01
         21   -1    0    0  502  501  0.00000000000E+00  0.00000000000E+00  0.30625095906E+03  0.30625095906E+03  0.00000000000E+00 0. -1.
         21   -1    0    0  501  502 -0.00000000000E+00 -0.00000000000E+00 -0.10855613443E+04  0.10855613443E+04  0.00000000000E+00 0. -1.
         25    1    1    2    0    0 -0.63395011091E+02  0.12567477984E+02 -0.46137874458E+03  0.48236108351E+03  0.12500000000E+03 0.  0.
         25    1    1    2    0    0  0.37185643337E+03  0.10260212205E+03  0.39797972144E+02  0.40744727398E+03  0.12500000000E+03 0.  0.
         25    1    1    2    0    0 -0.30846142228E+03 -0.11516960003E+03 -0.35772961283E+03  0.50200394590E+03  0.12500000000E+03 0.  0.
</event>
<event>
 5    0  0.5655767E-005  0.4813386E+03  0.7546771E-02  0.1018768E+00
         21   -1    0    0  502  501  0.00000000000E+00  0.00000000000E+00  0.50504800673E+03  0.50504800673E+03  0.00000000000E+00 0.  1.
         21   -1    0    0  501  502 -0.00000000000E+00 -0.00000000000E+00 -0.45874214422E+03  0.45874214422E+03  0.00000000000E+00 0.  1.
         25    1    1    2    0    0 -0.57786577961E+02 -0.32433175815E+02 -0.18425230623E+03  0.23230392127E+03  0.12500000000E+03 0.  0.
         25    1    1    2    0    0 -0.26364830557E+03 -0.10647763905E+03  0.17215081146E+03  0.35511803465E+03  0.12500000000E+03 0.  0.
         25    1    1    2    0    0  0.32143488354E+03  0.13891081487E+03  0.58407357285E+02  0.37636819502E+03  0.12500000000E+03 0.  0.
</event>
<event>
 5    0  0.5655767E-005  0.2621477E+03  0.7546771E-02  0.1105860E+00
         21   -1    0    0  502  501  0.00000000000E+00  0.00000000000E+00  0.20281694066E+03  0.20281694066E+03  0.00000000000E+00 0.  1.
         21   -1    0    0  501  502 -0.00000000000E+00 -0.00000000000E+00 -0.33883481058E+03  0.33883481058E+03  0.00000000000E+00 0.  1.
         25    1    1    2    0    0  0.11519959231E+03 -0.97758479210E+02 -0.55187782099E+02  0.20371145677E+03  0.12500000000E+03 0.  0.
         25    1    1    2    0    0  0.12279286670E+02  0.38369594784E+02  0.43435784956E+01  0.13140347545E+03  0.12500000000E+03 0.  0.
         25    1    1    2    0    0 -0.12747887898E+03  0.59388884426E+02 -0.85173666315E+02  0.20653681902E+03  0.12500000000E+03 0.  0.
</event>
<event>
 5    0  0.5655767E-005  0.2979776E+03  0.7546771E-02  0.1086256E+00
         21   -1    0    0  502  501  0.00000000000E+00  0.00000000000E+00  0.74652973221E+03  0.74652973221E+03  0.00000000000E+00 0.  1.
         21   -1    0    0  501  502 -0.00000000000E+00 -0.00000000000E+00 -0.11893783931E+03  0.11893783931E+03  0.00000000000E+00 0.  1.
         25    1    1    2    0    0  0.16999583114E+03  0.68616191366E+02  0.31228949012E+03  0.38308809687E+03  0.12500000000E+03 0.  0.
         25    1    1    2    0    0 -0.22018715575E+02 -0.11621866201E+02  0.26808862258E+02  0.13024441142E+03  0.12500000000E+03 0.  0.
         25    1    1    2    0    0 -0.14797711557E+03 -0.56994325166E+02  0.28849354052E+03  0.35213506323E+03  0.12500000000E+03 0.  0.
</event>
<event>
 5    0  0.5655767E-005  0.3205040E+03  0.7546771E-02  0.1075418E+00
         21   -1    0    0  502  501  0.00000000000E+00  0.00000000000E+00  0.47028907961E+03  0.47028907961E+03  0.00000000000E+00 0. -1.
         21   -1    0    0  501  502 -0.00000000000E+00 -0.00000000000E+00 -0.21842481927E+03  0.21842481927E+03  0.00000000000E+00 0. -1.
         25    1    1    2    0    0 -0.55397961064E+01 -0.53335769475E+01 -0.70158124070E+00  0.12523828728E+03  0.12500000000E+03 0.  0.
         25    1    1    2    0    0 -0.10879954110E+03  0.94017513985E+02 -0.57651259135E+02  0.19906104782E+03  0.12500000000E+03 0.  0.
         25    1    1    2    0    0  0.11433933721E+03 -0.88683937038E+02  0.31021710071E+03  0.36441456378E+03  0.12500000000E+03 0.  0.
</event>
<event>
 5    0  0.5655767E-005  0.2719238E+03  0.7546771E-02  0.1100184E+00
         21   -1    0    0  502  501  0.00000000000E+00  0.00000000000E+00  0.13355885488E+03  0.13355885488E+03  0.00000000000E+00 0. -1.
         21   -1    0    0  501  502 -0.00000000000E+00 -0.00000000000E+00 -0.55363279806E+03  0.55363279806E+03  0.00000000000E+00 0. -1.
         25    1    1    2    0    0 -0.46877760658E+02  0.22594687844E+02 -0.11761982576E+03  0.17935291404E+03  0.12500000000E+03 0.  0.
         25    1    1    2    0    0  0.52327704101E+02  0.71069540173E+02 -0.31585886483E+03  0.35097135303E+03  0.12500000000E+03 0.  0.
         25    1    1    2    0    0 -0.54499434430E+01 -0.93664228017E+02  0.13404747414E+02  0.15686738586E+03  0.12500000000E+03 0.  0.
</event>
<event>
 5    0  0.5655767E-005  0.6765227E+03  0.7546771E-02  0.9758246E-01
         21   -1    0    0  502  501  0.00000000000E+00  0.00000000000E+00  0.40839033031E+03  0.40839033031E+03  0.00000000000E+00 0. -1.
         21   -1    0    0  501  502 -0.00000000000E+00 -0.00000000000E+00 -0.11206997918E+04  0.11206997918E+04  0.00000000000E+00 0. -1.
         25    1    1    2    0    0 -0.44246699173E+02  0.27924574942E+03  0.30505794512E+03  0.43430554778E+03  0.12500000000E+03 0.  0.
         25    1    1    2    0    0  0.37859643038E+02 -0.21411319320E+03 -0.77227722986E+03  0.81198210068E+03  0.12500000000E+03 0.  0.
         25    1    1    2    0    0  0.63870561350E+01 -0.65132556219E+02 -0.24509017674E+03  0.28280247365E+03  0.12500000000E+03 0.  0.
</event>
<event>
 5    0  0.5655767E-005  0.3010274E+03  0.7546771E-02  0.1084728E+00
         21   -1    0    0  502  501  0.00000000000E+00  0.00000000000E+00  0.98971208024E+02  0.98971208024E+02  0.00000000000E+00 0.  1.
         21   -1    0    0  501  502 -0.00000000000E+00 -0.00000000000E+00 -0.91559445392E+03  0.91559445392E+03  0.00000000000E+00 0.  1.
         25    1    1    2    0    0  0.14955391817E+02 -0.35975530135E+02 -0.27924048507E+03  0.30841230685E+03  0.12500000000E+03 0.  0.
         25    1    1    2    0    0 -0.34940994036E+02  0.20536313457E+03 -0.33177218471E+03  0.41120879447E+03  0.12500000000E+03 0.  0.
         25    1    1    2    0    0  0.19985602219E+02 -0.16938760443E+03 -0.20561057611E+03  0.29494456062E+03  0.12500000000E+03 0.  0.
</event>
<event>
 5    0  0.5655767E-005  0.5638241E+03  0.7546771E-02  0.9983439E-01
         21   -1    0    0  502  501  0.00000000000E+00  0.00000000000E+00  0.49874486467E+03  0.49874486467E+03  0.00000000000E+00 0. -1.
         21   -1    0    0  501  502 -0.00000000000E+00 -0.00000000000E+00 -0.63739524307E+03  0.63739524307E+03  0.00000000000E+00 0. -1.
         25    1    1    2    0    0 -0.15456614269E+03  0.20376889404E+03  0.11881680369E+02  0.28491863570E+03  0.12500000000E+03 0.  0.
         25    1    1    2    0    0  0.16634695056E+03 -0.43137862286E+03 -0.28626939797E+03  0.55797311085E+03  0.12500000000E+03 0.  0.
         25    1    1    2    0    0 -0.11780807869E+02  0.22760972882E+03  0.13573733920E+03  0.29324836119E+03  0.12500000000E+03 0.  0.
</event>
<event>
 5    0  0.5655767E-005  0.5787577E+03  0.7546771E-02  0.9950484E-01
         21   -1    0    0  502  501  0.00000000000E+00  0.00000000000E+00  0.53739493733E+03  0.53739493733E+03  0.00000000000E+00 0.  1.
         21   -1    0    0  501  502 -0.00000000000E+00 -0.00000000000E+00 -0.62330415416E+03  0.62330415416E+03  0.00000000000E+00 0.  1.
         25    1    1    2    0    0  0.30294123623E+03 -0.34677997524E+03  0.19335556337E+03  0.51482144256E+03  0.12500000000E+03 0.  0.
         25    1    1    2    0    0 -0.58871164515E+02  0.24414748227E+03 -0.80026023516E+02  0.29172413605E+03  0.12500000000E+03 0.  0.
         25    1    1    2    0    0 -0.24407007172E+03  0.10263249296E+03 -0.19923875669E+03  0.35415351288E+03  0.12500000000E+03 0.  0.
</event>
<event>
 5    0  0.5655767E-005  0.2438409E+03  0.7546771E-02  0.1117260E+00
         21   -1    0    0  502  501  0.00000000000E+00  0.00000000000E+00  0.86666205518E+03  0.86666205518E+03  0.00000000000E+00 0. -1.
         21   -1    0    0  501  502 -0.00000000000E+00 -0.00000000000E+00 -0.68606220689E+02  0.68606220689E+02  0.00000000000E+00 0. -1.
         25    1    1    2    0    0 -0.11075095264E+03  0.60901061183E+02  0.24055497858E+03  0.29910936208E+03  0.12500000000E+03 0.  0.
         25    1    1    2    0    0  0.10458774586E+03 -0.18390143732E+02  0.22571312210E+03  0.27901291629E+03  0.12500000000E+03 0.  0.
         25    1    1    2    0    0  0.61632067783E+01 -0.42510917451E+02  0.33178773381E+03  0.35714599750E+03  0.12500000000E+03 0.  0.
</event>
<event>
 5    0  0.5655767E-005  0.2335845E+03  0.7546771E-02  0.1124142E+00
         21   -1    0    0  502  501  0.00000000000E+00  0.00000000000E+00  0.97638518600E+02  0.97638518600E+02  0.00000000000E+00 0.  1.
         21   -1    0    0  501  502 -0.00000000000E+00 -0.00000000000E+00 -0.55881360113E+03  0.55881360113E+03  0.00000000000E+00 0.  1.
         25    1    1    2    0    0  0.42661778834E+02  0.35423488430E+02 -0.10815257952E+03  0.17434687081E+03  0.12500000000E+03 0.  0.
         25    1    1    2    0    0  0.19850443203E+02  0.36593144867E+02 -0.27854844834E+03  0.30813525669E+03  0.12500000000E+03 0.  0.
         25    1    1    2    0    0 -0.62512222037E+02 -0.72016633297E+02 -0.74474054681E+02  0.17396999223E+03  0.12500000000E+03 0.  0.
</event>
<event>
 5    0  0.5655767E-005  0.2567924E+03  0.7546771E-02  0.1109086E+00
         21   -1    0    0  502  501  0.00000000000E+00  0.00000000000E+00  0.27060420909E+03  0.27060420909E+03  0.00000000000E+00 0.  1.
         21   -1    0    0  501  502 -0.00000000000E+00 -0.00000000000E+00 -0.24368552074E+03  0.24368552074E+03  0.00000000000E+00 0.  1.
         25    1    1    2    0    0  0.40149969093E+01 -0.14945151418E+03 -0.41432941301E+02  0.19923243690E+03  0.12500000000E+03 0.  0.
         25    1    1    2    0    0  0.13341548680E+02  0.11957225027E+03  0.12782355860E+02  0.17396525106E+03  0.12500000000E+03 0.  0.
         25    1    1    2    0    0 -0.17356545589E+02  0.29879263908E+02  0.55569273798E+02  0.14109204186E+03  0.12500000000E+03 0.  0.
</event>
<event>
 5    0  0.5655767E-005  0.3745838E+03  0.7546771E-02  0.1052954E+00
         21   -1    0    0  502  501  0.00000000000E+00  0.00000000000E+00  0.45240330490E+02  0.45240330490E+02  0.00000000000E+00 0.  1.
         21   -1    0    0  501  502 -0.00000000000E+00 -0.00000000000E+00 -0.31015035260E+04  0.31015035260E+04  0.00000000000E+00 0.  1.
         25    1    1    2    0    0  0.21215083922E+03  0.11258211031E+03 -0.18850290977E+04  0.19043745455E+04  0.12500000000E+03 0.  0.
         25    1    1    2    0    0 -0.21925184737E+03 -0.12825393725E+03 -0.89441971844E+03  0.93815354699E+03  0.12500000000E+03 0.  0.
         25    1    1    2    0    0  0.71010081475E+01  0.15671826934E+02 -0.27681437938E+03  0.30421576407E+03  0.12500000000E+03 0.  0.
</event>
<event>
 5    0  0.5655767E-005  0.5958223E+03  0.7546771E-02  0.9914111E-01
         21   -1    0    0  502  501  0.00000000000E+00  0.00000000000E+00  0.14587989008E+04  0.14587989008E+04  0.00000000000E+00 0. -1.
         21   -1    0    0  501  502 -0.00000000000E+00 -0.00000000000E+00 -0.24335380978E+03  0.24335380978E+03  0.00000000000E+00 0. -1.
         25    1    1    2    0    0  0.11864821237E+03 -0.24795936732E+03  0.47924383951E+03  0.56644585253E+03  0.12500000000E+03 0.  0.
         25    1    1    2    0    0 -0.23277263662E+02  0.38186242682E+02 -0.15654859205E+03  0.20526198335E+03  0.12500000000E+03 0.  0.
         25    1    1    2    0    0 -0.95370948705E+02  0.20977312464E+03  0.89274984359E+03  0.93044487473E+03  0.12500000000E+03 0.  0.
</event>
<event>
 5    0  0.5655767E-005  0.2292130E+03  0.7546771E-02  0.1127195E+00
         21   -1    0    0  502  501  0.00000000000E+00  0.00000000000E+00  0.14625008433E+03  0.14625008433E+03  0.00000000000E+00 0.  1.
         21   -1    0    0  501  502 -0.00000000000E+00 -0.00000000000E+00 -0.35923808999E+03  0.35923808999E+03  0.00000000000E+00 0.  1.
         25    1    1    2    0    0 -0.45888524638E+02 -0.12133550219E+02 -0.38855518265E+02  0.13923983279E+03  0.12500000000E+03 0.  0.
         25    1    1    2    0    0  0.64010220945E+02  0.38717698456E+02  0.46401404293E+01  0.14574944069E+03  0.12500000000E+03 0.  0.
         25    1    1    2    0    0 -0.18121696306E+02 -0.26584148237E+02 -0.17877262782E+03  0.22049890084E+03  0.12500000000E+03 0.  0.
</event>
<event>
 5    0  0.5655767E-005  0.2973078E+03  0.7546771E-02  0.1086594E+00
         21   -1    0    0  502  501  0.00000000000E+00  0.00000000000E+00  0.47468189103E+03  0.47468189103E+03  0.00000000000E+00 0. -1.
         21   -1    0    0  501  502 -0.00000000000E+00 -0.00000000000E+00 -0.18621293296E+03  0.18621293296E+03  0.00000000000E+00 0. -1.
         25    1    1    2    0    0  0.93069079783E+02 -0.10445466664E+03  0.11049004858E+03  0.21772845894E+03  0.12500000000E+03 0.  0.
         25    1    1    2    0    0 -0.56759456797E+02 -0.62204096343E+02  0.17596564018E+03  0.23168921439E+03  0.12500000000E+03 0.  0.
         25    1    1    2    0    0 -0.36309622986E+02  0.16665876299E+03  0.20132693003E+01  0.21147715067E+03  0.12500000000E+03 0.  0.
</event>
<event>
 5    0  0.5655767E-005  0.3458208E+03  0.7546771E-02  0.1064344E+00
         21   -1    0    0  502  501  0.00000000000E+00  0.00000000000E+00  0.22060078399E+03  0.22060078399E+03  0.00000000000E+00 0. -1.
         21   -1    0    0  501  502 -0.00000000000E+00 -0.00000000000E+00 -0.54211956635E+03  0.54211956635E+03  0.00000000000E+00 0. -1.
         25    1    1    2    0    0 -0.80550118352E+02  0.43155720191E+02 -0.12647218778E+03  0.19992736690E+03  0.12500000000E+03 0.  0.
         25    1    1    2    0    0 -0.16390541775E+03  0.60895884145E+02 -0.88584895275E+01  0.21512035587E+03  0.12500000000E+03 0.  0.
         25    1    1    2    0    0  0.24445553610E+03 -0.10405160434E+03 -0.18618810505E+03  0.34767262756E+03  0.12500000000E+03 0.  0.
</event>
<event>
 5    0  0.5655767E-005  0.2758701E+03  0.7546771E-02  0.1097966E+00
         21   -1    0    0  502  501  0.00000000000E+00  0.00000000000E+00  0.72732040259E+03  0.72732040259E+03  0.00000000000E+00 0. -1.
         21   -1    0    0  501  502 -0.00000000000E+00 -0.00000000000E+00 -0.10463654210E+03  0.10463654210E+03  0.00000000000E+00 0. -1.
         25    1    1    2    0    0  0.10170283232E+03  0.57944559618E+00  0.17245120564E+03  0.23602588880E+03  0.12500000000E+03 0.  0.
         25    1    1    2    0    0 -0.18423115197E+03  0.56932587463E+02  0.25646097222E+03  0.34435398523E+03  0.12500000000E+03 0.  0.
         25    1    1    2    0    0  0.82528319648E+02 -0.57512033059E+02  0.19377168264E+03  0.25157707066E+03  0.12500000000E+03 0.  0.
</event>
<event>
 5    0  0.5655767E-005  0.3328040E+03  0.7546771E-02  0.1069903E+00
         21   -1    0    0  502  501  0.00000000000E+00  0.00000000000E+00  0.14666162528E+03  0.14666162528E+03  0.00000000000E+00 0. -1.
         21   -1    0    0  501  502 -0.00000000000E+00 -0.00000000000E+00 -0.75519744656E+03  0.75519744656E+03  0.00000000000E+00 0. -1.
         25    1    1    2    0    0  0.81268932669E+02 -0.25288022295E+03 -0.28635742336E+03  0.41009586744E+03  0.12500000000E+03 0.  0.
         25    1    1    2    0    0 -0.64661519335E+02  0.15349700867E+03 -0.15214546828E+03  0.25790635369E+03  0.12500000000E+03 0.  0.
         25    1    1    2    0    0 -0.16607413334E+02  0.99383214285E+02 -0.17003292964E+03  0.23385685071E+03  0.12500000000E+03 0.  0.
</event>
<event>
 5    0  0.5655767E-005  0.4438355E+03  0.7546771E-02  0.1029576E+00
         21   -1    0    0  502  501  0.00000000000E+00  0.00000000000E+00  0.10439616200E+03  0.10439616200E+03  0.00000000000E+00 0. -1.
         21   -1    0    0  501  502 -0.00000000000E+00 -0.00000000000E+00 -0.18869463453E+04  0.18869463453E+04  0.00000000000E+00 0. -1.
         25    1    1    2    0    0  0.94640176784E+02 -0.25845726927E+03 -0.60863894859E+03  0.67957581831E+03  0.12500000000E+03 0.  0.
         25    1    1    2    0    0 -0.15128227214E+03 -0.86245314021E+02 -0.43056051527E+03  0.48096978841E+03  0.12500000000E+03 0.  0.
         25    1    1    2    0    0  0.56642095356E+02  0.34470258329E+03 -0.74335071943E+03  0.83079690055E+03  0.12500000000E+03 0.  0.
</event>
<event>
 5    0  0.5655767E-005  0.3921278E+03  0.7546771E-02  0.1046540E+00
         21   -1    0    0  502  501  0.00000000000E+00  0.00000000000E+00  0.11862638812E+03  0.11862638812E+03  0.00000000000E+00 0.  1.
         21   -1    0    0  501  502 -0.00000000000E+00 -0.00000000000E+00 -0.12962058742E+04  0.12962058742E+04  0.00000000000E+00 0.  1.
         25    1    1    2    0    0 -0.19904643369E+03 -0.65142483853E+02 -0.14024059660E+03  0.28134578530E+03  0.12500000000E+03 0.  0.
         25    1    1    2    0    0  0.27680376975E+03  0.32526337593E+02 -0.72183190824E+03  0.78380137365E+03  0.12500000000E+03 0.  0.
         25    1    1    2    0    0 -0.77757336056E+02  0.32616146261E+02 -0.31550698120E+03  0.34968510333E+03  0.12500000000E+03 0.  0.
</event>
<event>
 5    0  0.5655767E-005  0.2415582E+03  0.7546771E-02  0.1118759E+00
         21   -1    0    0  502  501  0.00000000000E+00  0.00000000000E+00  0.75277078773E+03  0.75277078773E+03  0.00000000000E+00 0.  1.
         21   -1    0    0  501  502 -0.00000000000E+00 -0.00000000000E+00 -0.77514111415E+02  0.77514111415E+02  0.00000000000E+00 0.  1.
         25    1    1    2    0    0  0.78319770200E+02 -0.22159499523E+02  0.14256359213E+03  0.20633566736E+03  0.12500000000E+03 0.  0.
         25    1    1    2    0    0  0.64290070641E+01  0.66587210966E+02  0.37598207987E+03  0.40182423169E+03  0.12500000000E+03 0.  0.
         25    1    1    2    0    0 -0.84748777264E+02 -0.44427711443E+02  0.15671100432E+03  0.22212500009E+03  0.12500000000E+03 0.  0.
</event>
<event>
 5    0  0.5655767E-005  0.2534519E+03  0.7546771E-02  0.1111143E+00
         21   -1    0    0  502  501  0.00000000000E+00  0.00000000000E+00  0.58644874104E+02  0.58644874104E+02  0.00000000000E+00 0.  1.
         21   -1    0    0  501  502 -0.00000000000E+00 -0.00000000000E+00 -0.10953708213E+04  0.10953708213E+04  0.00000000000E+00 0.  1.
         25    1    1    2    0    0 -0.12930891067E+02 -0.27179385562E+02 -0.91165998409E+02  0.15761397847E+03  0.12500000000E+03 0.  0.
         25    1    1    2    0    0 -0.21804508242E+02 -0.26841449332E+02 -0.20468314276E+03  0.24231402954E+03  0.12500000000E+03 0.  0.
         25    1    1    2    0    0  0.34735399310E+02  0.54020834894E+02 -0.74087680601E+03  0.75408768738E+03  0.12500000000E+03 0.  0.
</event>
<event>
 5    0  0.5655767E-005  0.2750339E+03  0.7546771E-02  0.1098433E+00
         21   -1    0    0  502  501  0.00000000000E+00  0.00000000000E+00  0.74566986440E+02  0.74566986440E+02  0.00000000000E+00 0. -1.
         21   -1    0    0  501  502 -0.00000000000E+00 -0.00000000000E+00 -0.10144391149E+04  0.10144391149E+04  0.00000000000E+00 0. -1.
         25    1    1    2    0    0 -0.13458317369E+03 -0.45851688998E+02 -0.25777861932E+03  0.31982780461E+03  0.12500000000E+03 0.  0.
         25    1    1    2    0    0 -0.27103609206E+02  0.72484928021E+02 -0.32864458026E+03  0.36002906905E+03  0.12500000000E+03 0.  0.
         25    1    1    2    0    0  0.16168678290E+03 -0.26633239023E+02 -0.35344892884E+03  0.40914922765E+03  0.12500000000E+03 0.  0.
</event>
<event>
 5    0  0.5655767E-005  0.3806067E+03  0.7546771E-02  0.1050710E+00
         21   -1    0    0  502  501  0.00000000000E+00  0.00000000000E+00  0.87163252772E+03  0.87163252772E+03  0.00000000000E+00 0.  1.
         21   -1    0    0  501  502 -0.00000000000E+00 -0.00000000000E+00 -0.16619553892E+03  0.16619553892E+03  0.00000000000E+00 0.  1.
         25    1    1    2    0    0  0.22925875718E+03  0.94702781674E+02  0.32491080913E+03  0.42745786751E+03  0.12500000000E+03 0.  0.
         25    1    1    2    0    0 -0.27613885870E+03 -0.13784726091E+03  0.30228283252E+03  0.44972708108E+03  0.12500000000E+03 0.  0.
         25    1    1    2    0    0  0.46880101513E+02  0.43144479236E+02  0.78243347151E+02  0.16064311806E+03  0.12500000000E+03 0.  0.
</event>
<event>
 5    0  0.5655767E-005  0.2847357E+03  0.7546771E-02  0.1093130E+00
         21   -1    0    0  502  501  0.00000000000E+00  0.00000000000E+00  0.31420816307E+02  0.31420816307E+02  0.00000000000E+00 0. -1.
         21   -1    0    0  501  502 -0.00000000000E+00 -0.00000000000E+00 -0.25802768348E+04  0.25802768348E+04  0.00000000000E+00 0. -1.
         25    1    1    2    0    0 -0.16835804637E+02 -0.10496094393E+03 -0.17201195788E+04  0.17279284156E+04  0.12500000000E+03 0.  0.
         25    1    1    2    0    0 -0.14800679335E+02  0.10905625934E+03 -0.34453885038E+03  0.38268047668E+03  0.12500000000E+03 0.  0.
         25    1    1    2    0    0  0.31636483972E+02 -0.40953154131E+01 -0.48419758932E+03  0.50108875884E+03  0.12500000000E+03 0.  0.
</event>
<event>
 5    0  0.6784194E-005  0.3404577E+03  0.7546771E-02  0.1066601E+00
         21   -1    0    0  502  501  0.00000000000E+00  0.00000000000E+00  0.53892534562E+03  0.53892534562E+03  0.00000000000E+00 0.  1.
         21   -1    0    0  501  502 -0.00000000000E+00 -0.00000000000E+00 -0.21507889702E+03  0.21507889702E+03  0.00000000000E+00 0.  1.
         25    1    1    2    0    0 -0.74348201084E+02  0.20142000790E+03  0.23856486836E+02  0.24958326576E+03  0.12500000000E+03 0.  0.
         25    1    1    2    0    0  0.34395611739E+02 -0.16080739074E+02  0.23389154374E+03  0.26790278556E+03  0.12500000000E+03 0.  0.
         25    1    1    2    0    0  0.39952589345E+02 -0.18533926882E+03  0.66098418023E+02  0.23651819133E+03  0.12500000000E+03 0.  0.
</event>
<event>
 5    0  0.5655767E-005  0.8323634E+03  0.7546771E-02  0.9514319E-01
         21   -1    0    0  502  501  0.00000000000E+00  0.00000000000E+00  0.71416817421E+03  0.71416817421E+03  0.00000000000E+00 0.  1.
         21   -1    0    0  501  502 -0.00000000000E+00 -0.00000000000E+00 -0.97011991589E+03  0.97011991589E+03  0.00000000000E+00 0.  1.
         25    1    1    2    0    0 -0.41622712492E+02  0.27244994478E+03  0.53561421229E+03  0.61519834770E+03  0.12500000000E+03 0.  0.
         25    1    1    2    0    0  0.30917964603E+03 -0.14064355843E+03 -0.57654417300E+03  0.68073551947E+03  0.12500000000E+03 0.  0.
         25    1    1    2    0    0 -0.26755693354E+03 -0.13180638635E+03 -0.21502178097E+03  0.38835422292E+03  0.12500000000E+03 0.  0.
</event>
<event>
 5    0  0.5655767E-005  0.5960501E+03  0.7546771E-02  0.9913635E-01
         21   -1    0    0  502  501  0.00000000000E+00  0.00000000000E+00  0.17382365589E+04  0.17382365589E+04  0.00000000000E+00 0.  1.
         21   -1    0    0  501  502 -0.00000000000E+00 -0.00000000000E+00 -0.20438860506E+03  0.20438860506E+03  0.00000000000E+00 0.  1.
         25    1    1    2    0    0  0.14773976543E+03  0.42267531555E+03  0.11640892288E+04  0.12534792353E+04  0.12500000000E+03 0.  0.
         25    1    1    2    0    0  0.50476701926E+02 -0.25741295325E+03  0.22753446080E+03  0.36906131847E+03  0.12500000000E+03 0.  0.
         25    1    1    2    0    0 -0.19821646736E+03 -0.16526236231E+03  0.14222426416E+03  0.32008461013E+03  0.12500000000E+03 0.  0.
</event>
<event>
 5    0  0.5655767E-005  0.2545792E+03  0.7546771E-02  0.1110445E+00
         21   -1    0    0  502  501  0.00000000000E+00  0.00000000000E+00  0.10060306280E+04  0.10060306280E+04  0.00000000000E+00 0. -1.
         21   -1    0    0  501  502 -0.00000000000E+00 -0.00000000000E+00 -0.64422063212E+02  0.64422063212E+02  0.00000000000E+00 0. -1.
         25    1    1    2    0    0 -0.51607378954E+02  0.33492107530E+02  0.58556806472E+03  0.60191361611E+03  0.12500000000E+03 0.  0.
         25    1    1    2    0    0  0.19359492413E+02 -0.53142268538E+02  0.29301406643E+03  0.32354463955E+03  0.12500000000E+03 0.  0.
         25    1    1    2    0    0  0.32247886541E+02  0.19650161008E+02  0.63026433676E+02  0.14499443560E+03  0.12500000000E+03 0.  0.
</event>
<event>
 5    0  0.5655767E-005  0.3278269E+03  0.7546771E-02  0.1072102E+00
         21   -1    0    0  502  501  0.00000000000E+00  0.00000000000E+00  0.82409958572E+02  0.82409958572E+02  0.00000000000E+00 0. -1.
         21   -1    0    0  501  502 -0.00000000000E+00 -0.00000000000E+00 -0.13040955282E+04  0.13040955282E+04  0.00000000000E+00 0. -1.
         25    1    1    2    0    0 -0.62637518982E+02  0.21601528748E+02 -0.57328463670E+03  0.59048315768E+03  0.12500000000E+03 0.  0.
         25    1    1    2    0    0 -0.10125153189E+02 -0.17808080715E+03 -0.47037629552E+03  0.51835716643E+03  0.12500000000E+03 0.  0.
         25    1    1    2    0    0  0.72762672171E+02  0.15647927840E+03 -0.17802463741E+03  0.27766516266E+03  0.12500000000E+03 0.  0.
</event>
<event>
 5    0  0.5655767E-005  0.2322504E+03  0.7546771E-02  0.1125066E+00
         21   -1    0    0  502  501  0.00000000000E+00  0.00000000000E+00  0.24713575445E+02  0.24713575445E+02  0.00000000000E+00 0.  1.
         21   -1    0    0  501  502 -0.00000000000E+00 -0.00000000000E+00 -0.21826159533E+04  0.21826159533E+04  0.00000000000E+00 0.  1.
         25    1    1    2    0    0  0.14491567611E+02 -0.90982138567E+02 -0.46956740574E+03  0.49457689352E+03  0.12500000000E+03 0.  0.
         25    1    1    2    0    0 -0.61213868184E+02  0.49994549417E+02 -0.80926639071E+03  0.82266863545E+03  0.12500000000E+03 0.  0.
         25    1    1    2    0    0  0.46722300573E+02  0.40987589150E+02 -0.87906858144E+03  0.89008399981E+03  0.12500000000E+03 0.  0.
</event>
<event>
 5    0  0.5655767E-005  0.3887253E+03  0.7546771E-02  0.1047755E+00
         21   -1    0    0  502  501  0.00000000000E+00  0.00000000000E+00  0.78972399965E+02  0.78972399965E+02  0.00000000000E+00 0. -1.
         21   -1    0    0  501  502 -0.00000000000E+00 -0.00000000000E+00 -0.19134197792E+04  0.19134197792E+04  0.00000000000E+00 0. -1.
         25    1    1    2    0    0  0.22289764266E+02  0.13300789024E+03 -0.14319753226E+03  0.23306322254E+03  0.12500000000E+03 0.  0.
         25    1    1    2    0    0  0.16610744274E+03  0.11103876918E+02 -0.58126242572E+03  0.61741880937E+03  0.12500000000E+03 0.  0.
         25    1    1    2    0    0 -0.18839720701E+03 -0.14411176716E+03 -0.11099874213E+04  0.11419101473E+04  0.12500000000E+03 0.  0.
</event>
<event>
 5    0  0.5655767E-005  0.2896009E+03  0.7546771E-02  0.1090558E+00
         21   -1    0    0  502  501  0.00000000000E+00  0.00000000000E+00  0.58866317647E+03  0.58866317647E+03  0.00000000000E+00 0. -1.
         21   -1    0    0  501  502 -0.00000000000E+00 -0.00000000000E+00 -0.14247314728E+03  0.14247314728E+03  0.00000000000E+00 0. -1.
         25    1    1    2    0    0  0.12447182046E+03 -0.81512817904E+01  0.14474886868E+03  0.22833508812E+03  0.12500000000E+03 0.  0.
         25    1    1    2    0    0  0.43198007195E+02 -0.87818850317E+02  0.61211552353E+02  0.17014720814E+03  0.12500000000E+03 0.  0.
         25    1    1    2    0    0 -0.16766982766E+03  0.95970132108E+02  0.24022960816E+03  0.33265402748E+03  0.12500000000E+03 0.  0.
</event>
<event>
 5    0  0.5655767E-005  0.3673754E+03  0.7546771E-02  0.1055701E+00
         21   -1    0    0  502  501  0.00000000000E+00  0.00000000000E+00  0.16121812365E+03  0.16121812365E+03  0.00000000000E+00 0. -1.
         21   -1    0    0  501  502 -0.00000000000E+00 -0.00000000000E+00 -0.83715567309E+03  0.83715567309E+03  0.00000000000E+00 0. -1.
         25    1    1    2    0    0  0.34359726111E+02 -0.19232443574E+03 -0.50682332517E+03  0.55737255251E+03  0.12500000000E+03 0.  0.
         25    1    1    2    0    0 -0.10169603486E+03 -0.71841318636E+01 -0.51328833051E+02  0.16927298768E+03  0.12500000000E+03 0.  0.
         25    1    1    2    0    0  0.67336308750E+02  0.19950856760E+03 -0.11778539122E+03  0.27172825655E+03  0.12500000000E+03 0.  0.
</event>
<event>
 5    0  0.5655767E-005  0.2777712E+03  0.7546771E-02  0.1096913E+00
         21   -1    0    0  502  501  0.00000000000E+00  0.00000000000E+00  0.69889843548E+02  0.69889843548E+02  0.00000000000E+00 0. -1.
         21   -1    0    0  501  502 -0.00000000000E+00 -0.00000000000E+00 -0.11039778867E+04  0.11039778867E+04  0.00000000000E+00 0. -1.
         25    1    1    2    0    0  0.21016767966E+02 -0.76468465225E+02 -0.33262732853E+03  0.36408113161E+03  0.12500000000E+03 0.  0.
         25    1    1    2    0    0  0.55089404789E+02  0.49625260001E+02 -0.62658804690E+03  0.64322242612E+03  0.12500000000E+03 0.  0.
         25    1    1    2    0    0 -0.76106172755E+02  0.26843205223E+02 -0.74872667746E+02  0.16656417254E+03  0.12500000000E+03 0.  0.
</event>
<event>
 5    0  0.5655767E-005  0.3439803E+03  0.7546771E-02  0.1065113E+00
         21   -1    0    0  502  501  0.00000000000E+00  0.00000000000E+00  0.65982345478E+03  0.65982345478E+03  0.00000000000E+00 0. -1.
         21   -1    0    0  501  502 -0.00000000000E+00 -0.00000000000E+00 -0.17932438970E+03  0.17932438970E+03  0.00000000000E+00 0. -1.
         25    1    1    2    0    0 -0.46489876537E+02 -0.70636422488E+02 -0.10086312955E+03  0.18151910011E+03  0.12500000000E+03 0.  0.
         25    1    1    2    0    0  0.82822325703E+02  0.55390195263E+02  0.21068435914E+03  0.26446268272E+03  0.12500000000E+03 0.  0.
         25    1    1    2    0    0 -0.36332449166E+02  0.15246227225E+02  0.37067783549E+03  0.39316606164E+03  0.12500000000E+03 0.  0.
</event>
<event>
 5    0  0.5655767E-005  0.7895477E+03  0.7546771E-02  0.9575271E-01
         21   -1    0    0  502  501  0.00000000000E+00  0.00000000000E+00  0.68546475975E+03  0.68546475975E+03  0.00000000000E+00 0. -1.
         21   -1    0    0  501  502 -0.00000000000E+00 -0.00000000000E+00 -0.90943486749E+03  0.90943486749E+03  0.00000000000E+00 0. -1.
         25    1    1    2    0    0  0.61650762652E+03  0.15723339586E+03 -0.22575124091E+03  0.68658037920E+03  0.12500000000E+03 0.  0.
         25    1    1    2    0    0  0.65661081414E+02  0.59610190341E+02 -0.87072242144E+02  0.17627060945E+03  0.12500000000E+03 0.  0.
         25    1    1    2    0    0 -0.68216870793E+03 -0.21684358621E+03  0.88853375316E+02  0.73204863859E+03  0.12500000000E+03 0.  0.
</event>
<event>
 5    0  0.5655767E-005  0.2118684E+03  0.7546771E-02  0.1140095E+00
         21   -1    0    0  502  501  0.00000000000E+00  0.00000000000E+00  0.13306587329E+04  0.13306587329E+04  0.00000000000E+00 0. -1.
         21   -1    0    0  501  502 -0.00000000000E+00 -0.00000000000E+00 -0.33733821075E+02  0.33733821075E+02  0.00000000000E+00 0. -1.
         25    1    1    2    0    0  0.55650393344E+02  0.33211840329E+02  0.27766655543E+03  0.31132572753E+03  0.12500000000E+03 0.  0.
         25    1    1    2    0    0 -0.17308410273E+02 -0.33805843144E+01  0.58970962583E+03  0.60307002265E+03  0.12500000000E+03 0.  0.
         25    1    1    2    0    0 -0.38341983071E+02 -0.29831256014E+02  0.42954873059E+03  0.44999680382E+03  0.12500000000E+03 0.  0.
</event>
<event>
 5    0  0.5655767E-005  0.4165508E+03  0.7546771E-02  0.1038195E+00
         21   -1    0    0  502  501  0.00000000000E+00  0.00000000000E+00  0.83951927944E+03  0.83951927944E+03  0.00000000000E+00 0. -1.
         21   -1    0    0  501  502 -0.00000000000E+00 -0.00000000000E+00 -0.20668326222E+03  0.20668326222E+03  0.00000000000E+00 0. -1.
         25    1    1    2    0    0 -0.18219956375E+03  0.24965045480E+03  0.50465474880E+03  0.60483340359E+03  0.12500000000E+03 0.  0.
         25    1    1    2    0    0  0.12970335485E+03 -0.21567377271E+03  0.10338061450E+03  0.29941724725E+03  0.12500000000E+03 0.  0.
         25    1    1    2    0    0  0.52496208894E+02 -0.33976682090E+02  0.24800653920E+02  0.14195189083E+03  0.12500000000E+03 0.  0.
</event>
<event>
 5    0  0.5655767E-005  0.2996358E+03  0.7546771E-02  0.1085423E+00
         21   -1    0    0  502  501  0.00000000000E+00  0.00000000000E+00  0.22353660161E+03  0.22353660161E+03  0.00000000000E+00 0.  1.
         21   -1    0    0  501  502 -0.00000000000E+00 -0.00000000000E+00 -0.40164175830E+03  0.40164175830E+03  0.00000000000E+00 0.  1.
         25    1    1    2    0    0 -0.58256009061E+02 -0.37220893191E+02 -0.88965101842E+02  0.16828234259E+03  0.12500000000E+03 0.  0.
         25    1    1    2    0    0 -0.10280395977E+03  0.46651146485E+02 -0.16818910944E+03  0.23802848600E+03  0.12500000000E+03 0.  0.
         25    1    1    2    0    0  0.16105996883E+03 -0.94302532944E+01  0.79049054586E+02  0.21886753132E+03  0.12500000000E+03 0.  0.
</event>
<event>
 5    0  0.5655767E-005  0.2803790E+03  0.7546771E-02  0.1095482E+00
         21   -1    0    0  502  501  0.00000000000E+00  0.00000000000E+00  0.48201734839E+03  0.48201734839E+03  0.00000000000E+00 0. -1.
         21   -1    0    0  501  502 -0.00000000000E+00 -0.00000000000E+00 -0.16309039020E+03  0.16309039020E+03  0.00000000000E+00 0. -1.
         25    1    1    2    0    0 -0.10302901283E+03 -0.88063597599E+02  0.22445309480E+03  0.29047266046E+03  0.12500000000E+03 0.  0.
         25    1    1    2    0    0  0.10446464849E+03  0.95406140487E+02  0.12414100426E+03  0.22594508927E+03  0.12500000000E+03 0.  0.
         25    1    1    2    0    0 -0.14356356602E+01 -0.73425428878E+01 -0.29667140868E+02  0.12868998886E+03  0.12500000000E+03 0.  0.
</event>
<event>
 5    0  0.5655767E-005  0.2649229E+03  0.7546771E-02  0.1104221E+00
         21   -1    0    0  502  501  0.00000000000E+00  0.00000000000E+00  0.26053143745E+03  0.26053143745E+03  0.00000000000E+00 0.  1.
         21   -1    0    0  501  502 -0.00000000000E+00 -0.00000000000E+00 -0.26938838240E+03  0.26938838240E+03  0.00000000000E+00 0.  1.
         25    1    1    2    0    0  0.17017978034E+02 -0.15131057350E+03  0.37320639309E+02  0.20050519032E+03  0.12500000000E+03 0.  0.
         25    1    1    2    0    0  0.12195014435E+02  0.17226251513E+02  0.27471658893E+02  0.12971181195E+03  0.12500000000E+03 0.  0.
         25    1    1    2    0    0 -0.29212992469E+02  0.13408432198E+03 -0.73649243143E+02  0.19970281757E+03  0.12500000000E+03 0.  0.
</event>
<event>
 5    0  0.6536403E-005  0.3341260E+03  0.7546771E-02  0.1069326E+00
         21   -1    0    0  502  501  0.00000000000E+00  0.00000000000E+00  0.47022358758E+03  0.47022358758E+03  0.00000000000E+00 0. -1.
         21   -1    0    0  501  502 -0.00000000000E+00 -0.00000000000E+00 -0.23741935246E+03  0.23741935246E+03  0.00000000000E+00 0. -1.
         25    1    1    2    0    0  0.99288414294E+02  0.11601207726E+03  0.19828631837E+03  0.27974891481E+03  0.12500000000E+03 0.  0.
         25    1    1    2    0    0 -0.15200895131E+03 -0.70267286093E+02  0.13871712948E+03  0.25082195833E+03  0.12500000000E+03 0.  0.
         25    1    1    2    0    0  0.52720537012E+02 -0.45744791162E+02 -0.10419921273E+03  0.17707206689E+03  0.12500000000E+03 0.  0.
</event>
<event>
 5    0  0.5655767E-005  0.3099863E+03  0.7546771E-02  0.1080352E+00
         21   -1    0    0  502  501  0.00000000000E+00  0.00000000000E+00  0.16958998198E+03  0.16958998198E+03  0.00000000000E+00 0. -1.
         21   -1    0    0  501  502 -0.00000000000E+00 -0.00000000000E+00 -0.56661066168E+03  0.56661066168E+03  0.00000000000E+00 0. -1.
         25    1    1    2    0    0 -0.52707008878E+02 -0.22584581693E+02 -0.37531606462E+03  0.39971895186E+03  0.12500000000E+03 0.  0.
         25    1    1    2    0    0  0.32111167246E+02 -0.62868441149E+02  0.68468055524E+02  0.15904855416E+03  0.12500000000E+03 0.  0.
         25    1    1    2    0    0  0.20595841632E+02  0.85453022842E+02 -0.90172670612E+02  0.17743313763E+03  0.12500000000E+03 0.  0.
</event>
<event>
 5    0  0.5655767E-005  0.2740931E+03  0.7546771E-02  0.1098960E+00
         21   -1    0    0  502  501  0.00000000000E+00  0.00000000000E+00  0.15887662135E+03  0.15887662135E+03  0.00000000000E+00 0.  1.
         21   -1    0    0  501  502 -0.00000000000E+00 -0.00000000000E+00 -0.47286393104E+03  0.47286393104E+03  0.00000000000E+00 0.  1.
         25    1    1    2    0    0 -0.15192310698E+03  0.36154756813E+02 -0.11528917434E+03  0.23087743631E+03  0.12500000000E+03 0.  0.
         25    1    1    2    0    0  0.29506856140E+02  0.62067646389E+02 -0.50119193145E+02  0.15119517456E+03  0.12500000000E+03 0.  0.
         25    1    1    2    0    0  0.12241625084E+03 -0.98222403202E+02 -0.14857894220E+03  0.24966794153E+03  0.12500000000E+03 0.  0.
</event>
<event>
 5    0  0.5655767E-005  0.6607785E+03  0.7546771E-02  0.9786762E-01
         21   -1    0    0  502  501  0.00000000000E+00  0.00000000000E+00  0.30185789954E+03  0.30185789954E+03  0.00000000000E+00 0.  1.
         21   -1    0    0  501  502 -0.00000000000E+00 -0.00000000000E+00 -0.14464696142E+04  0.14464696142E+04  0.00000000000E+00 0.  1.
         25    1    1    2    0    0  0.65935165366E+02  0.54237833322E+03 -0.83082750437E+03  0.10022080844E+04  0.12500000000E+03 0.  0.
         25    1    1    2    0    0 -0.66990197097E+02 -0.52669114268E+03 -0.29055222319E+03  0.61801038882E+03  0.12500000000E+03 0.  0.
         25    1    1    2    0    0  0.10550317309E+01 -0.15687190541E+02 -0.23231987068E+02  0.12810904052E+03  0.12500000000E+03 0.  0.
</event>
<event>
 5    0  0.5655767E-005  0.3512323E+03  0.7546771E-02  0.1062110E+00
         21   -1    0    0  502  501  0.00000000000E+00  0.00000000000E+00  0.10672249369E+04  0.10672249369E+04  0.00000000000E+00 0. -1.
         21   -1    0    0  501  502 -0.00000000000E+00 -0.00000000000E+00 -0.11559340391E+03  0.11559340391E+03  0.00000000000E+00 0. -1.
         25    1    1    2    0    0  0.90465070116E+02 -0.54920934248E+01  0.14424959948E+02  0.15507150438E+03  0.12500000000E+03 0.  0.
         25    1    1    2    0    0 -0.23264507339E+02 -0.15758230801E+03  0.39105018142E+03  0.44036197099E+03  0.12500000000E+03 0.  0.
         25    1    1    2    0    0 -0.67200562777E+02  0.16307440144E+03  0.54615639162E+03  0.58738486544E+03  0.12500000000E+03 0.  0.
</event>
<event>
 5    0  0.5655767E-005  0.2887608E+03  0.7546771E-02  0.1090998E+00
         21   -1    0    0  502  501  0.00000000000E+00  0.00000000000E+00  0.17071286832E+03  0.17071286832E+03  0.00000000000E+00 0. -1.
         21   -1    0    0  501  502 -0.00000000000E+00 -0.00000000000E+00 -0.48843880587E+03  0.48843880587E+03  0.00000000000E+00 0. -1.
         25    1    1    2    0    0 -0.45195286886E+02  0.55742673135E+01 -0.11826010163E+03  0.17800038778E+03  0.12500000000E+03 0.  0.
         25    1    1    2    0    0  0.13760405760E+03  0.85069094028E+02  0.10394198365E+02  0.20470629396E+03  0.12500000000E+03 0.  0.
         25    1    1    2    0    0 -0.92408770711E+02 -0.90643361341E+02 -0.20986003429E+03  0.27644499245E+03  0.12500000000E+03 0.  0.
</event>
<event>
 5    0  0.5655767E-005  0.3115779E+03  0.7546771E-02  0.1079592E+00
         21   -1    0    0  502  501  0.00000000000E+00  0.00000000000E+00  0.11099047319E+04  0.11099047319E+04  0.00000000000E+00 0. -1.
         21   -1    0    0  501  502 -0.00000000000E+00 -0.00000000000E+00 -0.87467655986E+02  0.87467655986E+02  0.00000000000E+00 0. -1.
         25    1    1    2    0    0 -0.70966488457E+02  0.44814224684E+02  0.51741651589E+03  0.53887791579E+03  0.12500000000E+03 0.  0.
         25    1    1    2    0    0 -0.24416974088E+02  0.85450889692E+02  0.52616993572E+02  0.16214681984E+03  0.12500000000E+03 0.  0.
         25    1    1    2    0    0  0.95383462544E+02 -0.13026511438E+03  0.45240356645E+03  0.49634765224E+03  0.12500000000E+03 0.  0.
</event>
<event>
 5    0  0.5655767E-005  0.2598088E+03  0.7546771E-02  0.1107258E+00
         21   -1    0    0  502  501  0.00000000000E+00  0.00000000000E+00  0.14737369644E+04  0.14737369644E+04  0.00000000000E+00 0.  1.
         21   -1    0    0  501  502 -0.00000000000E+00 -0.00000000000E+00 -0.45802347037E+02  0.45802347037E+02  0.00000000000E+00 0.  1.
         25    1    1    2    0    0  0.11534118076E+01  0.10339406790E+03  0.57124774536E+03  0.59383554139E+03  0.12500000000E+03 0.  0.
         25    1    1    2    0    0  0.10546349365E+03 -0.19532472949E+02  0.44797329511E+03  0.47729355655E+03  0.12500000000E+03 0.  0.
         25    1    1    2    0    0 -0.10661690545E+03 -0.83861594952E+02  0.40871357692E+03  0.44841021352E+03  0.12500000000E+03 0.  0.
</event>
<event>
 5    0  0.6060437E-005  0.3123479E+03  0.7546771E-02  0.1079226E+00
         21   -1    0    0  502  501  0.00000000000E+00  0.00000000000E+00  0.55956895953E+03  0.55956895953E+03  0.00000000000E+00 0. -1.
         21   -1    0    0  501  502 -0.00000000000E+00 -0.00000000000E+00 -0.17435069577E+03  0.17435069577E+03  0.00000000000E+00 0. -1.
         25    1    1    2    0    0 -0.12855506563E+03 -0.15573662386E+02  0.27783645868E+03  0.33103933547E+03  0.12500000000E+03 0.  0.
         25    1    1    2    0    0  0.85570837410E+01  0.44994330339E+01 -0.78973947955E+02  0.14817338842E+03  0.12500000000E+03 0.  0.
         25    1    1    2    0    0  0.11999798189E+03  0.11074229352E+02  0.18635575304E+03  0.25470693140E+03  0.12500000000E+03 0.  0.
</event>
<event>
 5    0  0.5655767E-005  0.2346229E+03  0.7546771E-02  0.1123428E+00
         21   -1    0    0  502  501  0.00000000000E+00  0.00000000000E+00  0.14546006779E+03  0.14546006779E+03  0.00000000000E+00 0.  1.
         21   -1    0    0  501  502 -0.00000000000E+00 -0.00000000000E+00 -0.37844010964E+03  0.37844010964E+03  0.00000000000E+00 0.  1.
         25    1    1    2    0    0  0.31731929115E+02  0.12446154948E+02 -0.86977982900E+02  0.15605124674E+03  0.12500000000E+03 0.  0.
         25    1    1    2    0    0 -0.56393305927E+01  0.70577262843E+02 -0.15983914622E+03  0.21491045750E+03  0.12500000000E+03 0.  0.
         25    1    1    2    0    0 -0.26092598523E+02 -0.83023417791E+02  0.13837087271E+02  0.15293847320E+03  0.12500000000E+03 0.  0.
</event>
<event>
 5    0  0.5655767E-005  0.2498643E+03  0.7546771E-02  0.1113391E+00
         21   -1    0    0  502  501  0.00000000000E+00  0.00000000000E+00  0.23342011447E+03  0.23342011447E+03  0.00000000000E+00 0. -1.
         21   -1    0    0  501  502 -0.00000000000E+00 -0.00000000000E+00 -0.26746694988E+03  0.26746694988E+03  0.00000000000E+00 0. -1.
         25    1    1    2    0    0  0.78256287810E+02 -0.85381558806E+02  0.69291746222E+02  0.18395761267E+03  0.12500000000E+03 0.  0.
         25    1    1    2    0    0 -0.76852443170E+01  0.63250595337E+02 -0.28811565477E+01  0.14033175640E+03  0.12500000000E+03 0.  0.
         25    1    1    2    0    0 -0.70571043493E+02  0.22130963470E+02 -0.10045742508E+03  0.17659769528E+03  0.12500000000E+03 0.  0.
</event>
<event>
 5    0  0.5655767E-005  0.2755324E+03  0.7546771E-02  0.1098154E+00
         21   -1    0    0  502  501  0.00000000000E+00  0.00000000000E+00  0.92785576213E+03  0.92785576213E+03  0.00000000000E+00 0. -1.
         21   -1    0    0  501  502 -0.00000000000E+00 -0.00000000000E+00 -0.81821033632E+02  0.81821033632E+02  0.00000000000E+00 0. -1.
         25    1    1    2    0    0  0.62376179738E+02  0.98945926760E+01  0.53206655450E+02  0.14981534950E+03  0.12500000000E+03 0.  0.
         25    1    1    2    0    0 -0.15444010082E+01 -0.10119621327E+03  0.31084166040E+03  0.34998656631E+03  0.12500000000E+03 0.  0.
         25    1    1    2    0    0 -0.60831778730E+02  0.91301620595E+02  0.48198641264E+03  0.50987487994E+03  0.12500000000E+03 0.  0.
</event>
<event>
 5    0  0.5655767E-005  0.4079951E+03  0.7546771E-02  0.1041046E+00
         21   -1    0    0  502  501  0.00000000000E+00  0.00000000000E+00  0.21091560603E+03  0.21091560603E+03  0.00000000000E+00 0.  1.
         21   -1    0    0  501  502 -0.00000000000E+00 -0.00000000000E+00 -0.78922543770E+03  0.78922543770E+03  0.00000000000E+00 0.  1.
         25    1    1    2    0    0 -0.16915847101E+03 -0.23771494796E+03 -0.15092602100E+03  0.35146358077E+03  0.12500000000E+03 0.  0.
         25    1    1    2    0    0  0.23391679726E+03  0.10856798580E+03 -0.18946277621E+03  0.34354798668E+03  0.12500000000E+03 0.  0.
         25    1    1    2    0    0 -0.64758326253E+02  0.12914696215E+03 -0.23792103446E+03  0.30512947628E+03  0.12500000000E+03 0.  0.
</event>
<event>
 5    0  0.5655767E-005  0.2330139E+03  0.7546771E-02  0.1124536E+00
         21   -1    0    0  502  501  0.00000000000E+00  0.00000000000E+00  0.76847961072E+03  0.76847961072E+03  0.00000000000E+00 0. -1.
         21   -1    0    0  501  502 -0.00000000000E+00 -0.00000000000E+00 -0.70653136640E+02  0.70653136640E+02  0.00000000000E+00 0. -1.
         25    1    1    2    0    0 -0.27863619078E+02  0.15139715868E+02  0.10565092851E+03  0.16671146019E+03  0.12500000000E+03 0.  0.
         25    1    1    2    0    0 -0.10676559956E+02  0.60702552620E+02  0.14835348960E+03  0.20354986294E+03  0.12500000000E+03 0.  0.
         25    1    1    2    0    0  0.38540179033E+02 -0.75842268488E+02  0.44382205597E+03  0.46887142422E+03  0.12500000000E+03 0.  0.
</event>
<event>
 5    0  0.5655767E-005  0.2879029E+03  0.7546771E-02  0.1091449E+00
         21   -1    0    0  502  501  0.00000000000E+00  0.00000000000E+00  0.24088535420E+03  0.24088535420E+03  0.00000000000E+00 0. -1.
         21   -1    0    0  501  502 -0.00000000000E+00 -0.00000000000E+00 -0.34409774596E+03  0.34409774596E+03  0.00000000000E+00 0. -1.
         25    1    1    2    0    0 -0.80401063392E+02  0.19801690997E+02 -0.22286234545E+00  0.14993827940E+03  0.12500000000E+03 0.  0.
         25    1    1    2    0    0  0.19127129757E+03  0.49166359803E+02 -0.10011304240E+03  0.25426297699E+03  0.12500000000E+03 0.  0.
         25    1    1    2    0    0 -0.11087023418E+03 -0.68968050801E+02 -0.28764870104E+01  0.18078184377E+03  0.12500000000E+03 0.  0.
</event>
<event>
 5    0  0.5655767E-005  0.2395173E+03  0.7546771E-02  0.1120115E+00
         21   -1    0    0  502  501  0.00000000000E+00  0.00000000000E+00  0.69092485420E+03  0.69092485420E+03  0.00000000000E+00 0. -1.
         21   -1    0    0  501  502 -0.00000000000E+00 -0.00000000000E+00 -0.83031521201E+02  0.83031521201E+02  0.00000000000E+00 0. -1.
         25    1    1    2    0    0  0.11883493543E+03  0.44731290190E+02  0.22022831641E+03  0.28328102928E+03  0.12500000000E+03 0.  0.
         25    1    1    2    0    0 -0.72309265139E+02 -0.30045925171E+02  0.11589695513E+03  0.18758595804E+03  0.12500000000E+03 0.  0.
         25    1    1    2    0    0 -0.46525670286E+02 -0.14685365019E+02  0.27176806146E+03  0.30308938809E+03  0.12500000000E+03 0.  0.
</event>
<event>
 5    0  0.7881039E-005  0.7210151E+03  0.7546771E-02  0.9681953E-01
         21   -1    0    0  502  501  0.00000000000E+00  0.00000000000E+00  0.10519921750E+04  0.10519921750E+04  0.00000000000E+00 0. -1.
         21   -1    0    0  501  502 -0.00000000000E+00 -0.00000000000E+00 -0.49416987347E+03  0.49416987347E+03  0.00000000000E+00 0. -1.
         25    1    1    2    0    0  0.28441733745E+03  0.28382260245E+03 -0.10389987616E+03  0.43343820294E+03  0.12500000000E+03 0.  0.
         25    1    1    2    0    0  0.13631760454E+02 -0.28168595865E+03  0.72091559409E+03  0.78414099369E+03  0.12500000000E+03 0.  0.
         25    1    1    2    0    0 -0.29804909790E+03 -0.21366438024E+01 -0.59193416352E+02  0.32858285188E+03  0.12500000000E+03 0.  0.
</event>
<event>
 5    0  0.5655767E-005  0.3839157E+03  0.7546771E-02  0.1049496E+00
         21   -1    0    0  502  501  0.00000000000E+00  0.00000000000E+00  0.92646581878E+03  0.92646581878E+03  0.00000000000E+00 0. -1.
         21   -1    0    0  501  502 -0.00000000000E+00 -0.00000000000E+00 -0.15908978404E+03  0.15908978404E+03  0.00000000000E+00 0. -1.
         25    1    1    2    0    0 -0.18308094175E+03  0.60121229831E+01  0.62509867064E+03  0.66327077796E+03  0.12500000000E+03 0.  0.
         25    1    1    2    0    0  0.73361803378E+01 -0.19504769757E+02  0.16156998947E+03  0.20533902961E+03  0.12500000000E+03 0.  0.
         25    1    1    2    0    0  0.17574476141E+03  0.13492646774E+02 -0.19292625369E+02  0.21694579525E+03  0.12500000000E+03 0.  0.
</event>
<event>
 5    0  0.5655767E-005  0.3719156E+03  0.7546771E-02  0.1053963E+00
         21   -1    0    0  502  501  0.00000000000E+00  0.00000000000E+00  0.10288019335E+03  0.10288019335E+03  0.00000000000E+00 0. -1.
         21   -1    0    0  501  502 -0.00000000000E+00 -0.00000000000E+00 -0.13444883427E+04  0.13444883427E+04  0.00000000000E+00 0. -1.
         25    1    1    2    0    0 -0.15952807720E+03  0.61087768669E+02 -0.36650821013E+03  0.42324247304E+03  0.12500000000E+03 0.  0.
         25    1    1    2    0    0 -0.62448024824E+02 -0.61777989346E+02 -0.50246812570E+02  0.16082915763E+03  0.12500000000E+03 0.  0.
         25    1    1    2    0    0  0.22197610202E+03  0.69022067696E+00 -0.82485312661E+03  0.86329690533E+03  0.12500000000E+03 0.  0.
</event>
<event>
 5    0  0.5655767E-005  0.2775580E+03  0.7546771E-02  0.1097030E+00
         21   -1    0    0  502  501  0.00000000000E+00  0.00000000000E+00  0.65135953030E+02  0.65135953030E+02  0.00000000000E+00 0. -1.
         21   -1    0    0  501  502 -0.00000000000E+00 -0.00000000000E+00 -0.11827330306E+04  0.11827330306E+04  0.00000000000E+00 0. -1.
         25    1    1    2    0    0 -0.79996429227E+02  0.34156226433E+02 -0.46125373321E+03  0.48574281559E+03  0.12500000000E+03 0.  0.
         25    1    1    2    0    0  0.12773855344E+03  0.51952115236E+02 -0.17617111943E+03  0.25627606918E+03  0.12500000000E+03 0.  0.
         25    1    1    2    0    0 -0.47742124212E+02 -0.86108341669E+02 -0.48017222491E+03  0.50585009885E+03  0.12500000000E+03 0.  0.
</event>
<event>
 5    0  0.5655767E-005  0.5124022E+03  0.7546771E-02  0.1010592E+00
         21   -1    0    0  502  501  0.00000000000E+00  0.00000000000E+00  0.16803571837E+03  0.16803571837E+03  0.00000000000E+00 0.  1.
         21   -1    0    0  501  502 -0.00000000000E+00 -0.00000000000E+00 -0.15625014922E+04  0.15625014922E+04  0.00000000000E+00 0. -1.
         25    1    1    2    0    0  0.13481965025E+03 -0.97860642633E+01 -0.41611176948E+03  0.45502319704E+03  0.12500000000E+03 0.  0.
         25    1    1    2    0    0  0.27639182111E+03  0.69859929772E+02 -0.16184683794E+03  0.35084504773E+03  0.12500000000E+03 0.  0.
         25    1    1    2    0    0 -0.41121147136E+03 -0.60073865509E+02 -0.81650716640E+03  0.92466896578E+03  0.12500000000E+03 0.  0.
</event>
<event>
 5    0  0.5655767E-005  0.2919612E+03  0.7546771E-02  0.1089330E+00
         21   -1    0    0  502  501  0.00000000000E+00  0.00000000000E+00  0.15168695600E+03  0.15168695600E+03  0.00000000000E+00 0.  1.
         21   -1    0    0  501  502 -0.00000000000E+00 -0.00000000000E+00 -0.56195552621E+03  0.56195552621E+03  0.00000000000E+00 0.  1.
         25    1    1    2    0    0 -0.13628671351E+03  0.21982706297E+02 -0.23788001868E+03  0.30210794585E+03  0.12500000000E+03 0.  0.
         25    1    1    2    0    0  0.18638456102E+03 -0.49473560544E+02 -0.70284205474E+02  0.24031584908E+03  0.12500000000E+03 0.  0.
         25    1    1    2    0    0 -0.50097847511E+02  0.27490854247E+02 -0.10210434605E+03  0.17121868729E+03  0.12500000000E+03 0.  0.
</event>
<event>
 5    0  0.5655767E-005  0.3052679E+03  0.7546771E-02  0.1082636E+00
         21   -1    0    0  502  501  0.00000000000E+00  0.00000000000E+00  0.45206212799E+02  0.45206212799E+02  0.00000000000E+00 0. -1.
         21   -1    0    0  501  502 -0.00000000000E+00 -0.00000000000E+00 -0.20614091107E+04  0.20614091107E+04  0.00000000000E+00 0. -1.
         25    1    1    2    0    0  0.62728273255E+02 -0.52702835738E+01 -0.76150800351E+03  0.77426226278E+03  0.12500000000E+03 0.  0.
         25    1    1    2    0    0 -0.68794285289E+01 -0.51925069697E+02 -0.11312506464E+04  0.11393404076E+04  0.12500000000E+03 0.  0.
         25    1    1    2    0    0 -0.55848844726E+02  0.57195353271E+02 -0.12344424791E+03  0.19301265304E+03  0.12500000000E+03 0.  0.
</event>
<event>
 5    0  0.5655767E-005  0.3278852E+03  0.7546771E-02  0.1072076E+00
         21   -1    0    0  502  501  0.00000000000E+00  0.00000000000E+00  0.11312006657E+04  0.11312006657E+04  0.00000000000E+00 0. -1.
         21   -1    0    0  501  502 -0.00000000000E+00 -0.00000000000E+00 -0.95039471162E+02  0.95039471162E+02  0.00000000000E+00 0. -1.
         25    1    1    2    0    0  0.13007864836E+02 -0.51206788548E+02  0.12840928927E+03  0.18682956220E+03  0.12500000000E+03 0.  0.
         25    1    1    2    0    0  0.19762336222E+03  0.76864898239E+02  0.33281154574E+03  0.41394653140E+03  0.12500000000E+03 0.  0.
         25    1    1    2    0    0 -0.21063122705E+03 -0.25658109691E+02  0.57494035950E+03  0.62546404324E+03  0.12500000000E+03 0.  0.
</event>
<event>
 5    0  0.5655767E-005  0.4471456E+03  0.7546771E-02  0.1028577E+00
         21   -1    0    0  502  501  0.00000000000E+00  0.00000000000E+00  0.19470648930E+03  0.19470648930E+03  0.00000000000E+00 0.  1.
         21   -1    0    0  501  502 -0.00000000000E+00 -0.00000000000E+00 -0.10268747033E+04  0.10268747033E+04  0.00000000000E+00 0.  1.
         25    1    1    2    0    0 -0.40452607149E+01  0.19109644222E+03 -0.23672852686E+03  0.32893709093E+03  0.12500000000E+03 0.  0.
         25    1    1    2    0    0 -0.42593414606E+01 -0.11458266103E+03 -0.69491692441E+03  0.71531941120E+03  0.12500000000E+03 0.  0.
         25    1    1    2    0    0  0.83046021754E+01 -0.76513781192E+02  0.99477237241E+02  0.17732469049E+03  0.12500000000E+03 0.  0.
</event>
<event>
 5    0  0.5655767E-005  0.2765501E+03  0.7546771E-02  0.1097588E+00
         21   -1    0    0  502  501  0.00000000000E+00  0.00000000000E+00  0.97696275001E+03  0.97696275001E+03  0.00000000000E+00 0. -1.
         21   -1    0    0  501  502 -0.00000000000E+00 -0.00000000000E+00 -0.78283394798E+02  0.78283394798E+02  0.00000000000E+00 0. -1.
         25    1    1    2    0    0  0.11283672826E+03  0.90808627478E+02  0.13455217758E+03  0.23389660656E+03  0.12500000000E+03 0.  0.
         25    1    1    2    0    0 -0.99977198158E+02 -0.37354304594E+02  0.43505541181E+03  0.46506880735E+03  0.12500000000E+03 0.  0.
         25    1    1    2    0    0 -0.12859530101E+02 -0.53454322884E+02  0.32907176583E+03  0.35628073091E+03  0.12500000000E+03 0.  0.
</event>
<event>
 5    0  0.5655767E-005  0.2713197E+03  0.7546771E-02  0.1100527E+00
         21   -1    0    0  502  501  0.00000000000E+00  0.00000000000E+00  0.15592950392E+04  0.15592950392E+04  0.00000000000E+00 0.  1.
         21   -1    0    0  501  502 -0.00000000000E+00 -0.00000000000E+00 -0.47210047172E+02  0.47210047172E+02  0.00000000000E+00 0.  1.
         25    1    1    2    0    0  0.24257440670E+02 -0.12263755369E+03  0.67974488093E+03  0.70235781206E+03  0.12500000000E+03 0.  0.
         25    1    1    2    0    0  0.50396320773E+02  0.60812006437E+02  0.63105863225E+03  0.64814958660E+03  0.12500000000E+03 0.  0.
         25    1    1    2    0    0 -0.74653761443E+02  0.61825547249E+02  0.20128147885E+03  0.25599768772E+03  0.12500000000E+03 0.  0.
</event>
<event>
 5    0  0.5655767E-005  0.3109178E+03  0.7546771E-02  0.1079907E+00
         21   -1    0    0  502  501  0.00000000000E+00  0.00000000000E+00  0.15802879730E+04  0.15802879730E+04  0.00000000000E+00 0.  1.
         21   -1    0    0  501  502 -0.00000000000E+00 -0.00000000000E+00 -0.61172307234E+02  0.61172307234E+02  0.00000000000E+00 0.  1.
         25    1    1    2    0    0 -0.14860352710E+03  0.12375255755E+03  0.39211315726E+03  0.45472566660E+03  0.12500000000E+03 0.  0.
         25    1    1    2    0    0  0.15203099693E+03 -0.78695047278E+01  0.69288934874E+03  0.72034436399E+03  0.12500000000E+03 0.  0.
         25    1    1    2    0    0 -0.34274698371E+01 -0.11588305282E+03  0.43411315972E+03  0.46639024960E+03  0.12500000000E+03 0.  0.
</event>
<event>
 5    0  0.5655767E-005  0.6050705E+03  0.7546771E-02  0.9894942E-01
         21   -1    0    0  502  501  0.00000000000E+00  0.00000000000E+00  0.44751961126E+03  0.44751961126E+03  0.00000000000E+00 0. -1.
         21   -1    0    0  501  502 -0.00000000000E+00 -0.00000000000E+00 -0.81808765328E+03  0.81808765328E+03  0.00000000000E+00 0. -1.
         25    1    1    2    0    0 -0.43891221822E+03 -0.20555529192E+03 -0.46274042735E+03  0.68165285626E+03  0.12500000000E+03 0.  0.
         25    1    1    2    0    0  0.30748760094E+03  0.11510765808E+03 -0.20774326621E+02  0.35193034868E+03  0.12500000000E+03 0.  0.
         25    1    1    2    0    0  0.13142461728E+03  0.90447633846E+02  0.11294671195E+03  0.23202405961E+03  0.12500000000E+03 0.  0.
</event>
<event>
 5    0  0.5655767E-005  0.2725448E+03  0.7546771E-02  0.1099832E+00
         21   -1    0    0  502  501  0.00000000000E+00  0.00000000000E+00  0.10932677058E+03  0.10932677058E+03  0.00000000000E+00 0. -1.
         21   -1    0    0  501  502 -0.00000000000E+00 -0.00000000000E+00 -0.67943731806E+03  0.67943731806E+03  0.00000000000E+00 0. -1.
         25    1    1    2    0    0 -0.12417705152E+02  0.30987806996E+02 -0.19697476345E+03  0.23566607948E+03  0.12500000000E+03 0.  0.
         25    1    1    2    0    0  0.11566027981E+03 -0.66713384960E+02 -0.33664392881E+03  0.38312153537E+03  0.12500000000E+03 0.  0.
         25    1    1    2    0    0 -0.10324257466E+03  0.35725577964E+02 -0.36491855225E+02  0.16997647379E+03  0.12500000000E+03 0.  0.
</event>
<event>
 5    0  0.5702642E-005  0.3413489E+03  0.7546771E-02  0.1066223E+00
         21   -1    0    0  502  501  0.00000000000E+00  0.00000000000E+00  0.50712198811E+03  0.50712198811E+03  0.00000000000E+00 0. -1.
         21   -1    0    0  501  502 -0.00000000000E+00 -0.00000000000E+00 -0.22976542245E+03  0.22976542245E+03  0.00000000000E+00 0. -1.
         25    1    1    2    0    0 -0.38860337467E+02  0.10012551990E+02 -0.11464143301E+03  0.17429295794E+03  0.12500000000E+03 0.  0.
         25    1    1    2    0    0  0.17031729041E+03  0.47453175892E+01  0.14711066165E+03  0.25748212408E+03  0.12500000000E+03 0.  0.
         25    1    1    2    0    0 -0.13145695295E+03 -0.14757869579E+02  0.24488733702E+03  0.30511232854E+03  0.12500000000E+03 0.  0.
</event>
<event>
 5    0  0.5655767E-005  0.3233323E+03  0.7546771E-02  0.1074126E+00
         21   -1    0    0  502  501  0.00000000000E+00  0.00000000000E+00  0.73959265852E+03  0.73959265852E+03  0.00000000000E+00 0.  1.
         21   -1    0    0  501  502 -0.00000000000E+00 -0.00000000000E+00 -0.14135319912E+03  0.14135319912E+03  0.00000000000E+00 0.  1.
         25    1    1    2    0    0 -0.35560975131E+02 -0.68558398649E+01  0.17428690901E+03  0.21751439526E+03  0.12500000000E+03 0.  0.
         25    1    1    2    0    0  0.15347570595E+03  0.17723836129E+03  0.25527970981E+03  0.36845754066E+03  0.12500000000E+03 0.  0.
         25    1    1    2    0    0 -0.11791473082E+03 -0.17038252142E+03  0.16867284058E+03  0.29497392172E+03  0.12500000000E+03 0.  0.
</event>
<event>
 5    0  0.6129041E-005  0.3043768E+03  0.7546771E-02  0.1083073E+00
         21   -1    0    0  502  501  0.00000000000E+00  0.00000000000E+00  0.57973707791E+03  0.57973707791E+03  0.00000000000E+00 0.  1.
         21   -1    0    0  501  502 -0.00000000000E+00 -0.00000000000E+00 -0.15980563662E+03  0.15980563662E+03  0.00000000000E+00 0.  1.
         25    1    1    2    0    0  0.68005584279E+02  0.19860040152E+02  0.21120303134E+03  0.25544255936E+03  0.12500000000E+03 0.  0.
         25    1    1    2    0    0 -0.18245710052E+03 -0.10687621619E+03  0.10455570562E+03  0.26696444463E+03  0.12500000000E+03 0.  0.
         25    1    1    2    0    0  0.11445151624E+03  0.87016176042E+02  0.10417270434E+03  0.21713571054E+03  0.12500000000E+03 0.  0.
</event>
<event>
 5    0  0.5655767E-005  0.2782355E+03  0.7546771E-02  0.1096657E+00
         21   -1    0    0  502  501  0.00000000000E+00  0.00000000000E+00  0.92827006058E+02  0.92827006058E+02  0.00000000000E+00 0. -1.
         21   -1    0    0  501  502 -0.00000000000E+00 -0.00000000000E+00 -0.83397061287E+03  0.83397061287E+03  0.00000000000E+00 0. -1.
         25    1    1    2    0    0 -0.89051304020E+02 -0.80033873800E+02 -0.43260001258E+03  0.46594348004E+03  0.12500000000E+03 0.  0.
         25    1    1    2    0    0  0.10802794679E+03  0.61837222870E+02 -0.27844366078E+03  0.32962061775E+03  0.12500000000E+03 0.  0.
         25    1    1    2    0    0 -0.18976642773E+02  0.18196650929E+02 -0.30099933450E+02  0.13123352114E+03  0.12500000000E+03 0.  0.
</event>
<event>
 5    0  0.5655767E-005  0.2429117E+03  0.7546771E-02  0.1117868E+00
         21   -1    0    0  502  501  0.00000000000E+00  0.00000000000E+00  0.29167841447E+03  0.29167841447E+03  0.00000000000E+00 0.  1.
         21   -1    0    0  501  502 -0.00000000000E+00 -0.00000000000E+00 -0.20229842981E+03  0.20229842981E+03  0.00000000000E+00 0.  1.
         25    1    1    2    0    0  0.47466104448E+00 -0.45258078107E+02 -0.35473536561E+02  0.13759320744E+03  0.12500000000E+03 0.  0.
         25    1    1    2    0    0  0.63002337070E+02 -0.39299022819E+02 -0.78981520007E+01  0.14560593558E+03  0.12500000000E+03 0.  0.
         25    1    1    2    0    0 -0.63476998114E+02  0.84557100926E+02  0.13275167322E+03  0.21077770126E+03  0.12500000000E+03 0.  0.
</event>
<event>
 5    0  0.5655767E-005  0.3218320E+03  0.7546771E-02  0.1074809E+00
         21   -1    0    0  502  501  0.00000000000E+00  0.00000000000E+00  0.31947781725E+03  0.31947781725E+03  0.00000000000E+00 0.  1.
         21   -1    0    0  501  502 -0.00000000000E+00 -0.00000000000E+00 -0.32420358978E+03  0.32420358978E+03  0.00000000000E+00 0.  1.
         25    1    1    2    0    0  0.14706465622E+03 -0.13368309186E+03  0.62159129320E+02  0.24287432865E+03  0.12500000000E+03 0.  0.
         25    1    1    2    0    0 -0.35650164708E+01 -0.32678865970E+02 -0.72063871411E+02  0.14798249622E+03  0.12500000000E+03 0.  0.
         25    1    1    2    0    0 -0.14349963975E+03  0.16636195783E+03  0.51789695600E+01  0.25282458216E+03  0.12500000000E+03 0.  0.
</event>
<event>
 5    0  0.5655767E-005  0.2733456E+03  0.7546771E-02  0.1099380E+00
         21   -1    0    0  502  501  0.00000000000E+00  0.00000000000E+00  0.14088393265E+03  0.14088393265E+03  0.00000000000E+00 0. -1.
         21   -1    0    0  501  502 -0.00000000000E+00 -0.00000000000E+00 -0.53035015498E+03  0.53035015498E+03  0.00000000000E+00 0. -1.
         25    1    1    2    0    0 -0.51129975894E+02 -0.28208278064E+02 -0.16183778473E+03  0.21266511221E+03  0.12500000000E+03 0.  0.
         25    1    1    2    0    0  0.26070036409E+02 -0.87155661181E+02 -0.24077099775E+03  0.28613183925E+03  0.12500000000E+03 0.  0.
         25    1    1    2    0    0  0.25059939485E+02  0.11536393925E+03  0.13142560148E+02  0.17243713618E+03  0.12500000000E+03 0.  0.
</event>
<event>
 5    0  0.5655767E-005  0.3415906E+03  0.7546771E-02  0.1066121E+00
         21   -1    0    0  502  501  0.00000000000E+00  0.00000000000E+00  0.15052125117E+04  0.15052125117E+04  0.00000000000E+00 0. -1.
         21   -1    0    0  501  502 -0.00000000000E+00 -0.00000000000E+00 -0.77520028414E+02  0.77520028414E+02  0.00000000000E+00 0. -1.
         25    1    1    2    0    0  0.26999725007E+03  0.33440024986E+02  0.66688031223E+03  0.73100690910E+03  0.12500000000E+03 0.  0.
         25    1    1    2    0    0 -0.75596778183E+02  0.32966831788E+01  0.24415520754E+03  0.28453911218E+03  0.12500000000E+03 0.  0.
         25    1    1    2    0    0 -0.19440047189E+03 -0.36736708165E+02  0.51665696353E+03  0.56718651885E+03  0.12500000000E+03 0.  0.
</event>
<event>
 5    0  0.5655767E-005  0.2873974E+03  0.7546771E-02  0.1091716E+00
         21   -1    0    0  502  501  0.00000000000E+00  0.00000000000E+00  0.73643354056E+02  0.73643354056E+02  0.00000000000E+00 0. -1.
         21   -1    0    0  501  502 -0.00000000000E+00 -0.00000000000E+00 -0.11215851578E+04  0.11215851578E+04  0.00000000000E+00 0. -1.
         25    1    1    2    0    0  0.17140078791E+02 -0.24989058731E+02 -0.64475892780E+02  0.14387625276E+03  0.12500000000E+03 0.  0.
         25    1    1    2    0    0 -0.13278353205E+03 -0.43626340859E+02 -0.46794591923E+03  0.50411616451E+03  0.12500000000E+03 0.  0.
         25    1    1    2    0    0  0.11564345325E+03  0.68615399590E+02 -0.51551999173E+03  0.54723609458E+03  0.12500000000E+03 0.  0.
</event>
<event>
 5    0  0.5655767E-005  0.2687027E+03  0.7546771E-02  0.1102024E+00
         21   -1    0    0  502  501  0.00000000000E+00  0.00000000000E+00  0.15119044528E+03  0.15119044528E+03  0.00000000000E+00 0.  1.
         21   -1    0    0  501  502 -0.00000000000E+00 -0.00000000000E+00 -0.47755086613E+03  0.47755086613E+03  0.00000000000E+00 0.  1.
         25    1    1    2    0    0  0.23954151278E+02 -0.27485142452E+02 -0.19066352014E+03  0.23088268089E+03  0.12500000000E+03 0.  0.
         25    1    1    2    0    0 -0.41834965252E+02 -0.99007677310E+02 -0.14405939380E+03  0.21893102435E+03  0.12500000000E+03 0.  0.
         25    1    1    2    0    0  0.17880813973E+02  0.12649281976E+03  0.83624930885E+01  0.17892760617E+03  0.12500000000E+03 0.  0.
</event>
<event>
 5    0  0.5678248E-005  0.3562007E+03  0.7546771E-02  0.1060098E+00
         21   -1    0    0  502  501  0.00000000000E+00  0.00000000000E+00  0.86414423352E+03  0.86414423352E+03  0.00000000000E+00 0. -1.
         21   -1    0    0  501  502 -0.00000000000E+00 -0.00000000000E+00 -0.14682607240E+03  0.14682607240E+03  0.00000000000E+00 0. -1.
         25    1    1    2    0    0 -0.54715397505E+02  0.56439180968E+02  0.46112987157E+03  0.48419512010E+03  0.12500000000E+03 0.  0.
         25    1    1    2    0    0 -0.14540742585E+03 -0.52322368411E+02  0.20452745545E+03  0.28519717698E+03  0.12500000000E+03 0.  0.
         25    1    1    2    0    0  0.20012282335E+03 -0.41168125576E+01  0.51660834105E+02  0.24157800884E+03  0.12500000000E+03 0.  0.
</event>
<event>
 5    0  0.5655767E-005  0.2789520E+03  0.7546771E-02  0.1096263E+00
         21   -1    0    0  502  501  0.00000000000E+00  0.00000000000E+00  0.63695817362E+03  0.63695817362E+03  0.00000000000E+00 0. -1.
         21   -1    0    0  501  502 -0.00000000000E+00 -0.00000000000E+00 -0.12216538597E+03  0.12216538597E+03  0.00000000000E+00 0. -1.
         25    1    1    2    0    0  0.68109926023E+02 -0.48140545836E+02  0.15900259931E+02  0.15111019966E+03  0.12500000000E+03 0.  0.
         25    1    1    2    0    0  0.68292526906E+02  0.27852825145E+02  0.31272638513E+03  0.34476432683E+03  0.12500000000E+03 0.  0.
         25    1    1    2    0    0 -0.13640245293E+03  0.20287720692E+02  0.18616614259E+03  0.26324903309E+03  0.12500000000E+03 0.  0.
</event>
<event>
 5    0  0.5655767E-005  0.4551825E+03  0.7546771E-02  0.1026188E+00
         21   -1    0    0  502  501  0.00000000000E+00  0.00000000000E+00  0.30249109163E+03  0.30249109163E+03  0.00000000000E+00 0. -1.
         21   -1    0    0  501  502 -0.00000000000E+00 -0.00000000000E+00 -0.68494931664E+03  0.68494931664E+03  0.00000000000E+00 0. -1.
         25    1    1    2    0    0  0.19137649658E+03 -0.26128363282E+03 -0.42164849032E+03  0.54617446811E+03  0.12500000000E+03 0.  0.
         25    1    1    2    0    0 -0.11190653547E+03  0.23539103121E+03  0.21524721650E+02  0.28986259485E+03  0.12500000000E+03 0.  0.
         25    1    1    2    0    0 -0.79469961112E+02  0.25892601611E+02  0.17665543669E+02  0.15140334531E+03  0.12500000000E+03 0.  0.
</event>
<event>
 5    0  0.5747526E-005  0.3049575E+03  0.7546771E-02  0.1082788E+00
         21   -1    0    0  502  501  0.00000000000E+00  0.00000000000E+00  0.72185467048E+03  0.72185467048E+03  0.00000000000E+00 0.  1.
         21   -1    0    0  501  502 -0.00000000000E+00 -0.00000000000E+00 -0.12883348290E+03  0.12883348290E+03  0.00000000000E+00 0.  1.
         25    1    1    2    0    0  0.31043295482E+02 -0.15373691198E+03  0.17572524049E+03  0.26665161625E+03  0.12500000000E+03 0.  0.
         25    1    1    2    0    0  0.15268631383E+02 -0.64279169453E+02  0.85450123850E+02  0.16520189586E+03  0.12500000000E+03 0.  0.
         25    1    1    2    0    0 -0.46311926865E+02  0.21801608144E+03  0.33184582324E+03  0.41883464128E+03  0.12500000000E+03 0.  0.
</event>
<event>
 5    0  0.5655767E-005  0.2562306E+03  0.7546771E-02  0.1109429E+00
         21   -1    0    0  502  501  0.00000000000E+00  0.00000000000E+00  0.41516675898E+02  0.41516675898E+02  0.00000000000E+00 0.  1.
         21   -1    0    0  501  502 -0.00000000000E+00 -0.00000000000E+00 -0.15813912540E+04  0.15813912540E+04  0.00000000000E+00 0.  1.
         25    1    1    2    0    0 -0.24815764789E+02 -0.16167634476E+03 -0.65337453703E+03  0.68503893924E+03  0.12500000000E+03 0.  0.
         25    1    1    2    0    0  0.13238734707E+02  0.44880735548E+02 -0.34738898574E+03  0.37214735245E+03  0.12500000000E+03 0.  0.
         25    1    1    2    0    0  0.11577030082E+02  0.11679560921E+03 -0.53911105534E+03  0.56572163822E+03  0.12500000000E+03 0.  0.
</event>
<event>
 5    0  0.5655767E-005  0.3477867E+03  0.7546771E-02  0.1063527E+00
         21   -1    0    0  502  501  0.00000000000E+00  0.00000000000E+00  0.23314142956E+03  0.23314142956E+03  0.00000000000E+00 0. -1.
         21   -1    0    0  501  502 -0.00000000000E+00 -0.00000000000E+00 -0.51880768655E+03  0.51880768655E+03  0.00000000000E+00 0. -1.
         25    1    1    2    0    0 -0.47551764927E+02 -0.13185305286E+03 -0.24067114663E+03  0.30527692136E+03  0.12500000000E+03 0.  0.
         25    1    1    2    0    0 -0.97952786226E+02  0.42694892685E+02 -0.13887709505E+03  0.21524276926E+03  0.12500000000E+03 0.  0.
         25    1    1    2    0    0  0.14550455115E+03  0.89158160179E+02  0.93881984688E+02  0.23142942549E+03  0.12500000000E+03 0.  0.
</event>
<event>
 5    0  0.5655767E-005  0.2540808E+03  0.7546771E-02  0.1110753E+00
         21   -1    0    0  502  501  0.00000000000E+00  0.00000000000E+00  0.66932091627E+03  0.66932091627E+03  0.00000000000E+00 0. -1.
         21   -1    0    0  501  502 -0.00000000000E+00 -0.00000000000E+00 -0.96451571787E+02  0.96451571787E+02  0.00000000000E+00 0. -1.
         25    1    1    2    0    0 -0.27290497575E+02  0.70237165728E+02  0.20819482993E+03  0.25425994163E+03  0.12500000000E+03 0.  0.
         25    1    1    2    0    0 -0.98991435715E+02 -0.75475328229E+02  0.22211082397E+03  0.28364422723E+03  0.12500000000E+03 0.  0.
         25    1    1    2    0    0  0.12628193329E+03  0.52381625011E+01  0.14256369058E+03  0.22786831920E+03  0.12500000000E+03 0.  0.
</event>
<event>
 5    0  0.5655767E-005  0.3709889E+03  0.7546771E-02  0.1054315E+00
         21   -1    0    0  502  501  0.00000000000E+00  0.00000000000E+00  0.76579357326E+02  0.76579357326E+02  0.00000000000E+00 0. -1.
         21   -1    0    0  501  502 -0.00000000000E+00 -0.00000000000E+00 -0.17972569047E+04  0.17972569047E+04  0.00000000000E+00 0. -1.
         25    1    1    2    0    0 -0.74161356836E+02  0.10674488058E+03 -0.14326214056E+04  0.14439264067E+04  0.12500000000E+03 0.  0.
         25    1    1    2    0    0  0.43093744980E+02 -0.12108570385E+03 -0.21910854313E+03  0.28311194289E+03  0.12500000000E+03 0.  0.
         25    1    1    2    0    0  0.31067611856E+02  0.14340823271E+02 -0.68947598655E+02  0.14679791238E+03  0.12500000000E+03 0.  0.
</event>
<event>
 5    0  0.5655767E-005  0.3209013E+03  0.7546771E-02  0.1075235E+00
         21   -1    0    0  502  501  0.00000000000E+00  0.00000000000E+00  0.40889514528E+03  0.40889514528E+03  0.00000000000E+00 0. -1.
         21   -1    0    0  501  502 -0.00000000000E+00 -0.00000000000E+00 -0.25184362218E+03  0.25184362218E+03  0.00000000000E+00 0. -1.
         25    1    1    2    0    0 -0.14120734735E+03 -0.22690707595E+02 -0.11026315693E+03  0.21963002284E+03  0.12500000000E+03 0.  0.
         25    1    1    2    0    0  0.72167679986E+02  0.93972004428E+02  0.66568315154E+02  0.18464899738E+03  0.12500000000E+03 0.  0.
         25    1    1    2    0    0  0.69039667364E+02 -0.71281296833E+02  0.20074636487E+03  0.25645974724E+03  0.12500000000E+03 0.  0.
</event>
<event>
 5    0  0.5655767E-005  0.3773329E+03  0.7546771E-02  0.1051924E+00
         21   -1    0    0  502  501  0.00000000000E+00  0.00000000000E+00  0.13632641189E+03  0.13632641189E+03  0.00000000000E+00 0.  1.
         21   -1    0    0  501  502 -0.00000000000E+00 -0.00000000000E+00 -0.10444058435E+04  0.10444058435E+04  0.00000000000E+00 0.  1.
         25    1    1    2    0    0  0.11628801684E+03  0.38661515655E+02 -0.19600198698E+03  0.26279154201E+03  0.12500000000E+03 0.  0.
         25    1    1    2    0    0 -0.28748484522E+03 -0.13598176916E+03 -0.47717100471E+03  0.58690352318E+03  0.12500000000E+03 0.  0.
         25    1    1    2    0    0  0.17119682838E+03  0.97320253506E+02 -0.23490643996E+03  0.33103719024E+03  0.12500000000E+03 0.  0.
</event>
<event>
 5    0  0.5655767E-005  0.3139282E+03  0.7546771E-02  0.1078478E+00
         21   -1    0    0  502  501  0.00000000000E+00  0.00000000000E+00  0.14383494845E+04  0.14383494845E+04  0.00000000000E+00 0.  1.
         21   -1    0    0  501  502 -0.00000000000E+00 -0.00000000000E+00 -0.68516664025E+02  0.68516664025E+02  0.00000000000E+00 0.  1.
         25    1    1    2    0    0 -0.59597338695E+02 -0.51903448732E+02  0.92225735373E+03  0.93403931249E+03  0.12500000000E+03 0.  0.
         25    1    1    2    0    0  0.12281121259E+03  0.17999834741E+02  0.36849574121E+03  0.40843689755E+03  0.12500000000E+03 0.  0.
         25    1    1    2    0    0 -0.63213873891E+02  0.33903613991E+02  0.79079725587E+02  0.16438993854E+03  0.12500000000E+03 0.  0.
</event>
<event>
 5    0  0.5655767E-005  0.2938994E+03  0.7546771E-02  0.1088331E+00
         21   -1    0    0  502  501  0.00000000000E+00  0.00000000000E+00  0.58665120915E+02  0.58665120915E+02  0.00000000000E+00 0. -1.
         21   -1    0    0  501  502 -0.00000000000E+00 -0.00000000000E+00 -0.14723719645E+04  0.14723719645E+04  0.00000000000E+00 0. -1.
         25    1    1    2    0    0 -0.50849578228E+02 -0.16496044675E+03 -0.45057139836E+03  0.49843476366E+03  0.12500000000E+03 0.  0.
         25    1    1    2    0    0 -0.30348823714E+02  0.11163230362E+02 -0.18549524029E+03  0.22600697552E+03  0.12500000000E+03 0.  0.
         25    1    1    2    0    0  0.81198401942E+02  0.15379721639E+03 -0.77764020489E+03  0.80659534620E+03  0.12500000000E+03 0.  0.
</event>
<event>
 5    0  0.5655767E-005  0.2565651E+03  0.7546771E-02  0.1109225E+00
         21   -1    0    0  502  501  0.00000000000E+00  0.00000000000E+00  0.58024296407E+03  0.58024296407E+03  0.00000000000E+00 0.  1.
         21   -1    0    0  501  502 -0.00000000000E+00 -0.00000000000E+00 -0.11344498154E+03  0.11344498154E+03  0.00000000000E+00 0.  1.
         25    1    1    2    0    0 -0.11341056593E+02 -0.12776144568E+02  0.72369370946E+02  0.14544474994E+03  0.12500000000E+03 0.  0.
         25    1    1    2    0    0 -0.80778882157E+02 -0.10650131980E+03  0.16277362166E+03  0.24492450027E+03  0.12500000000E+03 0.  0.
         25    1    1    2    0    0  0.92119938750E+02  0.11927746437E+03  0.23165498992E+03  0.30331869540E+03  0.12500000000E+03 0.  0.
</event>
<event>
 5    0  0.5655767E-005  0.2336304E+03  0.7546771E-02  0.1124110E+00
         21   -1    0    0  502  501  0.00000000000E+00  0.00000000000E+00  0.19644674523E+03  0.19644674523E+03  0.00000000000E+00 0. -1.
         21   -1    0    0  501  502 -0.00000000000E+00 -0.00000000000E+00 -0.27785228164E+03  0.27785228164E+03  0.00000000000E+00 0. -1.
         25    1    1    2    0    0  0.15025788177E+01 -0.80717751932E+02 -0.19517791095E+02  0.15007850409E+03  0.12500000000E+03 0.  0.
         25    1    1    2    0    0  0.67763928030E+02  0.95123124880E+02 -0.95090090065E+01  0.17133528557E+03  0.12500000000E+03 0.  0.
         25    1    1    2    0    0 -0.69266506848E+02 -0.14405372947E+02 -0.52378736313E+02  0.15288523722E+03  0.12500000000E+03 0.  0.
</event>
<event>
 5    0  0.5655767E-005  0.2797202E+03  0.7546771E-02  0.1095842E+00
         21   -1    0    0  502  501  0.00000000000E+00  0.00000000000E+00  0.86770459111E+03  0.86770459111E+03  0.00000000000E+00 0.  1.
         21   -1    0    0  501  502 -0.00000000000E+00 -0.00000000000E+00 -0.90172875582E+02  0.90172875582E+02  0.00000000000E+00 0.  1.
         25    1    1    2    0    0 -0.82813940906E+01  0.17336636133E+03  0.17529336982E+03  0.27654519022E+03  0.12500000000E+03 0.  0.
         25    1    1    2    0    0 -0.14651179794E+02 -0.34756534904E+02  0.24451633574E+03  0.27719291519E+03  0.12500000000E+03 0.  0.
         25    1    1    2    0    0  0.22932573884E+02 -0.13860982642E+03  0.35772200997E+03  0.40413936129E+03  0.12500000000E+03 0.  0.
</event>
<event>
 5    0  0.5655767E-005  0.6206047E+03  0.7546771E-02  0.9863557E-01
         21   -1    0    0  502  501  0.00000000000E+00  0.00000000000E+00  0.12366683210E+04  0.12366683210E+04  0.00000000000E+00 0. -1.
         21   -1    0    0  501  502 -0.00000000000E+00 -0.00000000000E+00 -0.31144174067E+03  0.31144174067E+03  0.00000000000E+00 0. -1.
         25    1    1    2    0    0  0.45734893228E+03  0.26284960067E+03  0.37368550664E+03  0.65842525491E+03  0.12500000000E+03 0.  0.
         25    1    1    2    0    0 -0.11719409809E+03 -0.15394206113E+03  0.43755846625E+03  0.49448460664E+03  0.12500000000E+03 0.  0.
         25    1    1    2    0    0 -0.34015483419E+03 -0.10890753954E+03  0.11398260746E+03  0.39520020014E+03  0.12500000000E+03 0.  0.
</event>
<event>
 5    0  0.5655767E-005  0.5889229E+03  0.7546771E-02  0.9928658E-01
         21   -1    0    0  502  501  0.00000000000E+00  0.00000000000E+00  0.58440524433E+03  0.58440524433E+03  0.00000000000E+00 0.  1.
         21   -1    0    0  501  502 -0.00000000000E+00 -0.00000000000E+00 -0.59347538334E+03  0.59347538334E+03  0.00000000000E+00 0.  1.
         25    1    1    2    0    0  0.84611529223E+02  0.25888196939E+03  0.23510498733E+03  0.38089150688E+03  0.12500000000E+03 0.  0.
         25    1    1    2    0    0  0.12877126005E+03  0.14493194080E+03 -0.22627440589E+03  0.32312909439E+03  0.12500000000E+03 0.  0.
         25    1    1    2    0    0 -0.21338278928E+03 -0.40381391019E+03 -0.17900720452E+02  0.47386002639E+03  0.12500000000E+03 0.  0.
</event>
<event>
 5    0  0.5655767E-005  0.4205000E+03  0.7546771E-02  0.1036904E+00
         21   -1    0    0  502  501  0.00000000000E+00  0.00000000000E+00  0.16866394761E+04  0.16866394761E+04  0.00000000000E+00 0.  1.
         21   -1    0    0  501  502 -0.00000000000E+00 -0.00000000000E+00 -0.10483582765E+03  0.10483582765E+03  0.00000000000E+00 0.  1.
         25    1    1    2    0    0  0.17713363578E+03 -0.24536664754E+03  0.11017451286E+04  0.11493687159E+04  0.12500000000E+03 0.  0.
         25    1    1    2    0    0 -0.87142523144E+02  0.52986012591E+02  0.10216487989E+03  0.19095549103E+03  0.12500000000E+03 0.  0.
         25    1    1    2    0    0 -0.89991112634E+02  0.19238063495E+03  0.37789363991E+03  0.45115109680E+03  0.12500000000E+03 0.  0.
</event>
<event>
 5    0  0.5655767E-005  0.2602718E+03  0.7546771E-02  0.1106980E+00
         21   -1    0    0  502  501  0.00000000000E+00  0.00000000000E+00  0.19899556335E+03  0.19899556335E+03  0.00000000000E+00 0. -1.
         21   -1    0    0  501  502 -0.00000000000E+00 -0.00000000000E+00 -0.34041662981E+03  0.34041662981E+03  0.00000000000E+00 0. -1.
         25    1    1    2    0    0 -0.79337193437E+02  0.10650712363E+03 -0.89991643902E+02  0.20337564657E+03  0.12500000000E+03 0.  0.
         25    1    1    2    0    0  0.55403582091E+02 -0.12092252139E+02  0.52023106315E+02  0.14678958771E+03  0.12500000000E+03 0.  0.
         25    1    1    2    0    0  0.23933611345E+02 -0.94414871490E+02 -0.10345252887E+03  0.18924695887E+03  0.12500000000E+03 0.  0.
</event>
<event>
 5    0  0.5655767E-005  0.3733002E+03  0.7546771E-02  0.1053438E+00
         21   -1    0    0  502  501  0.00000000000E+00  0.00000000000E+00  0.90591130907E+03  0.90591130907E+03  0.00000000000E+00 0. -1.
         21   -1    0    0  501  502 -0.00000000000E+00 -0.00000000000E+00 -0.15382639914E+03  0.15382639914E+03  0.00000000000E+00 0. -1.
         25    1    1    2    0    0  0.14820507856E+03  0.48034522286E+02  0.25906284360E+03  0.32712477372E+03  0.12500000000E+03 0.  0.
         25    1    1    2    0    0 -0.13349318253E+03 -0.24643493153E+03  0.28461107889E+03  0.41854398991E+03  0.12500000000E+03 0.  0.
         25    1    1    2    0    0 -0.14711896035E+02  0.19840040924E+03  0.20841098743E+03  0.31406894459E+03  0.12500000000E+03 0.  0.
</event>
<event>
 5    0  0.5944810E-005  0.3000225E+03  0.7546771E-02  0.1085229E+00
         21   -1    0    0  502  501  0.00000000000E+00  0.00000000000E+00  0.55570662667E+03  0.55570662667E+03  0.00000000000E+00 0.  1.
         21   -1    0    0  501  502 -0.00000000000E+00 -0.00000000000E+00 -0.16198026463E+03  0.16198026463E+03  0.00000000000E+00 0.  1.
         25    1    1    2    0    0  0.56378845482E+02  0.78117426228E+02  0.18006702554E+03  0.23943692319E+03  0.12500000000E+03 0.  0.
         25    1    1    2    0    0  0.11361867732E+03 -0.53720241024E+02  0.19726541942E+03  0.26520504111E+03  0.12500000000E+03 0.  0.
         25    1    1    2    0    0 -0.16999752280E+03 -0.24397185205E+02  0.16393917071E+02  0.21304492700E+03  0.12500000000E+03 0.  0.
</event>
<event>
 5    0  0.5655767E-005  0.4158306E+03  0.7546771E-02  0.1038432E+00
         21   -1    0    0  502  501  0.00000000000E+00  0.00000000000E+00  0.16121139810E+03  0.16121139810E+03  0.00000000000E+00 0. -1.
         21   -1    0    0  501  502 -0.00000000000E+00 -0.00000000000E+00 -0.10725981509E+04  0.10725981509E+04  0.00000000000E+00 0. -1.
         25    1    1    2    0    0  0.10329613893E+03  0.21997463589E+03 -0.21908768188E+02  0.27416040355E+03  0.12500000000E+03 0.  0.
         25    1    1    2    0    0 -0.39546166800E+02 -0.92778140537E+02 -0.29713068467E+03  0.33776223359E+03  0.12500000000E+03 0.  0.
         25    1    1    2    0    0 -0.63749972130E+02 -0.12719649535E+03 -0.59234729990E+03  0.62188691181E+03  0.12500000000E+03 0.  0.
</event>
<event>
 5    0  0.5655767E-005  0.7635011E+03  0.7546771E-02  0.9614404E-01
         21   -1    0    0  502  501  0.00000000000E+00  0.00000000000E+00  0.22145250374E+04  0.22145250374E+04  0.00000000000E+00 0. -1.
         21   -1    0    0  501  502 -0.00000000000E+00 -0.00000000000E+00 -0.26323203548E+03  0.26323203548E+03  0.00000000000E+00 0. -1.
         25    1    1    2    0    0  0.11094862251E+03 -0.70095858824E+01  0.20745029954E+03  0.26649457388E+03  0.12500000000E+03 0.  0.
         25    1    1    2    0    0  0.24230938659E+03  0.19777176174E+02  0.18100037472E+04  0.18305309450E+04  0.12500000000E+03 0.  0.
         25    1    1    2    0    0 -0.35325800909E+03 -0.12767590291E+02 -0.66161044877E+02  0.38073155400E+03  0.12500000000E+03 0.  0.
</event>
<event>
 5    0  0.6444508E-005  0.3261043E+03  0.7546771E-02  0.1072874E+00
         21   -1    0    0  502  501  0.00000000000E+00  0.00000000000E+00  0.33368352312E+03  0.33368352312E+03  0.00000000000E+00 0.  1.
         21   -1    0    0  501  502 -0.00000000000E+00 -0.00000000000E+00 -0.31869727836E+03  0.31869727836E+03  0.00000000000E+00 0.  1.
         25    1    1    2    0    0  0.18236446273E+03  0.64755179174E+02  0.12038995039E+03  0.25993993662E+03  0.12500000000E+03 0.  0.
         25    1    1    2    0    0 -0.13099859385E+03  0.54034840813E+02 -0.11070784685E+02  0.18928274587E+03  0.12500000000E+03 0.  0.
         25    1    1    2    0    0 -0.51365868880E+02 -0.11879001999E+03 -0.94332920944E+02  0.20315811898E+03  0.12500000000E+03 0.  0.
</event>
<event>
 5    0  0.5655767E-005  0.4239886E+03  0.7546771E-02  0.1035776E+00
         21   -1    0    0  502  501  0.00000000000E+00  0.00000000000E+00  0.10665573806E+04  0.10665573806E+04  0.00000000000E+00 0.  1.
         21   -1    0    0  501  502 -0.00000000000E+00 -0.00000000000E+00 -0.16854818857E+03  0.16854818857E+03  0.00000000000E+00 0.  1.
         25    1    1    2    0    0  0.21147946256E+03 -0.17935201338E+02  0.31791027107E+03  0.40216560641E+03  0.12500000000E+03 0.  0.
         25    1    1    2    0    0  0.53932214156E+02  0.18389499831E+03  0.10838368843E+03  0.25317598237E+03  0.12500000000E+03 0.  0.
         25    1    1    2    0    0 -0.26541167671E+03 -0.16595979698E+03  0.47171523253E+03  0.57976398038E+03  0.12500000000E+03 0.  0.
</event>
<event>
 5    0  0.5655767E-005  0.2565591E+03  0.7546771E-02  0.1109228E+00
         21   -1    0    0  502  501  0.00000000000E+00  0.00000000000E+00  0.67772282855E+03  0.67772282855E+03  0.00000000000E+00 0.  1.
         21   -1    0    0  501  502 -0.00000000000E+00 -0.00000000000E+00 -0.97123138344E+02  0.97123138344E+02  0.00000000000E+00 0.  1.
         25    1    1    2    0    0  0.35049480148E+02  0.78463618657E+02  0.18424301331E+03  0.23865350085E+03  0.12500000000E+03 0.  0.
         25    1    1    2    0    0  0.65740859806E+02 -0.16712636528E+02  0.52316496136E+02  0.15153609681E+03  0.12500000000E+03 0.  0.
         25    1    1    2    0    0 -0.10079033995E+03 -0.61750982130E+02  0.34404018076E+03  0.38465636924E+03  0.12500000000E+03 0.  0.
</event>
<event>
 5    0  0.5655767E-005  0.2807097E+03  0.7546771E-02  0.1095302E+00
         21   -1    0    0  502  501  0.00000000000E+00  0.00000000000E+00  0.10862372554E+04  0.10862372554E+04  0.00000000000E+00 0. -1.
         21   -1    0    0  501  502 -0.00000000000E+00 -0.00000000000E+00 -0.72542101927E+02  0.72542101927E+02  0.00000000000E+00 0. -1.
         25    1    1    2    0    0 -0.11758099162E+03 -0.49110663434E+02  0.11240957683E+03  0.21094563237E+03  0.12500000000E+03 0.  0.
         25    1    1    2    0    0  0.40173773482E+02 -0.14470844776E+02  0.44854241107E+03  0.46758810074E+03  0.12500000000E+03 0.  0.
         25    1    1    2    0    0  0.77407218135E+02  0.63581508210E+02  0.45274316557E+03  0.48024562422E+03  0.12500000000E+03 0.  0.
</event>
<event>
 5    0  0.5655767E-005  0.4166115E+03  0.7546771E-02  0.1038175E+00
         21   -1    0    0  502  501  0.00000000000E+00  0.00000000000E+00  0.75886953754E+03  0.75886953754E+03  0.00000000000E+00 0.  1.
         21   -1    0    0  501  502 -0.00000000000E+00 -0.00000000000E+00 -0.22871541876E+03  0.22871541876E+03  0.00000000000E+00 0.  1.
         25    1    1    2    0    0 -0.21984400046E+03 -0.28598865701E+03  0.21831111605E+03  0.43977908075E+03  0.12500000000E+03 0.  0.
         25    1    1    2    0    0  0.10415939563E+03  0.17985129940E+03  0.21865458273E+03  0.32654325310E+03  0.12500000000E+03 0.  0.
         25    1    1    2    0    0  0.11568460482E+03  0.10613735760E+03  0.93188420008E+02  0.22126262246E+03  0.12500000000E+03 0.  0.
</event>
<event>
 5    0  0.6310450E-005  0.6286558E+03  0.7546771E-02  0.9847675E-01
         21   -1    0    0  502  501  0.00000000000E+00  0.00000000000E+00  0.79341056120E+03  0.79341056120E+03  0.00000000000E+00 0.  1.
         21   -1    0    0  501  502 -0.00000000000E+00 -0.00000000000E+00 -0.49811306892E+03  0.49811306892E+03  0.00000000000E+00 0.  1.
         25    1    1    2    0    0 -0.19813955912E+03  0.33694482224E+03  0.29984125774E+03  0.50825276976E+03  0.12500000000E+03 0.  0.
         25    1    1    2    0    0  0.19692705602E+03  0.17685217833E+02 -0.24357610463E+03  0.33770897392E+03  0.12500000000E+03 0.  0.
         25    1    1    2    0    0  0.12125031009E+01 -0.35463004008E+03  0.23903233915E+03  0.44556188644E+03  0.12500000000E+03 0.  0.
</event>
<event>
 5    0  0.5655767E-005  0.2625839E+03  0.7546771E-02  0.1105601E+00
         21   -1    0    0  502  501  0.00000000000E+00  0.00000000000E+00  0.29891390181E+03  0.29891390181E+03  0.00000000000E+00 0. -1.
         21   -1    0    0  501  502 -0.00000000000E+00 -0.00000000000E+00 -0.23066947440E+03  0.23066947440E+03  0.00000000000E+00 0. -1.
         25    1    1    2    0    0 -0.52945821790E+02  0.53153129504E+02 -0.67223361162E+02  0.16053814346E+03  0.12500000000E+03 0.  0.
         25    1    1    2    0    0 -0.18092612914E+02 -0.57738060867E+02 -0.37722925498E+02  0.14390637728E+03  0.12500000000E+03 0.  0.
         25    1    1    2    0    0  0.71038434704E+02  0.45849313627E+01  0.17319071407E+03  0.22513885547E+03  0.12500000000E+03 0.  0.
</event>
