<event>
 6    0  0.2839294E+002  0.9277028E+02  0.7546771E-02  0.1296278E+00
         21   -1    0    0  501  502  0.00000000000E+00  0.00000000000E+00  0.20752032396E+03  0.20752032396E+03  0.00000000000E+00 0.  1.
          2   -1    0    0  503    0 -0.00000000000E+00 -0.00000000000E+00 -0.21814681875E+04  0.21814681875E+04  0.00000000000E+00 0. -1.
         21    1    1    2  503  504  0.16606304842E+02 -0.26820542534E+02 -0.76230624117E+03  0.76295865956E+03  0.00000000000E+00 0. -1.
         21    1    1    2  504  505 -0.55332664599E+02 -0.59753500970E+02  0.20573708061E+02  0.83996798231E+02  0.00000000000E+00 0. -1.
         21    1    1    2  505  502 -0.35303597174E+02  0.35184530401E+02  0.14939323910E+03  0.15748852352E+03  0.00000000000E+00 0.  1.
          2    1    1    2  501    0  0.74029956930E+02  0.51389513102E+02 -0.13816085695E+04  0.13845445301E+04  0.00000000000E+00 0. -1.
<scales pt_clust_3="31.54538" pt_clust_4="14000.00000" pt_clust_5="49.75514" pt_clust_6="92.77028"></scales>
<clustering>
<clus scale="   31.545">  2  3  1 -1</clus>
<clus scale="   49.755">  1  5  2 -1</clus>
<clus scale="   92.770">  2  6  1 -1</clus>
<clus scale="   49.755">  1  3  2 -1</clus>
</clustering>
</event>
<event>
 6    0  0.2839294E+002  0.9085814E+02  0.7546771E-02  0.1300787E+00
         21   -1    0    0  504  502  0.00000000000E+00  0.00000000000E+00  0.93407627054E+02  0.93407627054E+02  0.00000000000E+00 0. -1.
          1   -1    0    0  505    0 -0.00000000000E+00 -0.00000000000E+00 -0.29830441847E+03  0.29830441847E+03  0.00000000000E+00 0.  1.
         21    1    1    2  503  501 -0.39058759640E+02 -0.26162649642E+02 -0.13134019065E+03  0.13950023879E+03  0.00000000000E+00 0.  1.
         21    1    1    2  504  503  0.34542613917E+02 -0.43545272543E+02  0.13922247492E+02  0.57299318603E+02  0.00000000000E+00 0. -1.
         21    1    1    2  505  502  0.92655820216E+01  0.10910940366E+03 -0.12675581050E+02  0.11023331317E+03  0.00000000000E+00 0. -1.
          1    1    1    2  501    0 -0.47494362995E+01 -0.39401481477E+02 -0.74803267209E+02  0.84679174966E+02  0.00000000000E+00 0.  1.
<scales pt_clust_3="36.09692" pt_clust_4="55.58222" pt_clust_5="81.92515" pt_clust_6="36.09692"></scales>
<clustering>
<clus scale="   36.097">  3  6 -1 -1</clus>
<clus scale="   55.582">  1  4  2 -1</clus>
<clus scale="   81.925">  1  5  2 -1</clus>
<clus scale="   55.582">  1  3  2 -1</clus>
</clustering>
</event>
<event>
 6    0  0.2839294E+002  0.9571282E+02  0.7546771E-02  0.1289579E+00
          2   -1    0    0  502    0 -0.00000000000E+00  0.00000000000E+00  0.16161673798E+04  0.16161673798E+04  0.00000000000E+00 0.  1.
         21   -1    0    0  504  502  0.00000000000E+00 -0.00000000000E+00 -0.28384752962E+02  0.28384752962E+02  0.00000000000E+00 0.  1.
         21    1    1    2  503  501  0.59724548670E+02  0.11363017988E+03  0.51659551514E+03  0.53230608277E+03  0.00000000000E+00 0.  1.
         21    1    1    2  504  505 -0.41769399123E+02  0.31290796664E+01  0.10938381402E+03  0.11712938407E+03  0.00000000000E+00 0. -1.
         21    1    1    2  505  503 -0.43239128303E+02 -0.26623046549E+02  0.30737930177E+02  0.59356795529E+02  0.00000000000E+00 0.  1.
          2    1    1    2  501    0  0.25283978756E+02 -0.90136213000E+02  0.93106536749E+03  0.93575987038E+03  0.00000000000E+00 0.  1.
<scales pt_clust_3="14000.00000" pt_clust_4="41.88644" pt_clust_5="72.02589" pt_clust_6="95.71282"></scales>
<clustering>
<clus scale="   41.886">  2  4  1 -1</clus>
<clus scale="   72.026">  2  5  1 -1</clus>
<clus scale="   95.713">  1  6  2 -1</clus>
<clus scale="   41.886">  2  3  1 -1</clus>
</clustering>
</event>
<event>
 6    0  0.2839294E+002  0.9530992E+02  0.7546771E-02  0.1290480E+00
         21   -1    0    0  504  502  0.00000000000E+00  0.00000000000E+00  0.28639961486E+03  0.28639961486E+03  0.00000000000E+00 0.  1.
          2   -1    0    0  505    0 -0.00000000000E+00 -0.00000000000E+00 -0.10027136579E+04  0.10027136579E+04  0.00000000000E+00 0. -1.
         21    1    1    2  503  502 -0.10779175742E+02 -0.70108605315E+02 -0.18632613015E+03  0.19937109606E+03  0.00000000000E+00 0. -1.
         21    1    1    2  504  501 -0.54591531868E+01  0.96292409007E+02  0.26593112249E+03  0.28288052654E+03  0.00000000000E+00 0.  1.
         21    1    1    2  505  503 -0.29700035236E+02  0.46361427683E+01 -0.46286899152E+02  0.55191149163E+02  0.00000000000E+00 0.  1.
          2    1    1    2  501    0  0.45938364165E+02 -0.30819946461E+02 -0.74963213624E+03  0.75167050101E+03  0.00000000000E+00 0. -1.
<scales pt_clust_3="14000.00000" pt_clust_4="95.30992" pt_clust_5="30.05971" pt_clust_6="35.28477"></scales>
<clustering>
<clus scale="   30.060">  2  5  1 -1</clus>
<clus scale="   35.285">  2  6  1 -1</clus>
<clus scale="   95.310">  1  4  2 -1</clus>
<clus scale="   95.310">  1  3  2 -1</clus>
</clustering>
</event>
<event>
 6    0  0.2839294E+002  0.1932889E+03  0.7546771E-02  0.1155528E+00
         21   -1    0    0  504  502  0.00000000000E+00  0.00000000000E+00  0.29926365367E+03  0.29926365367E+03  0.00000000000E+00 0. -1.
          2   -1    0    0  503    0 -0.00000000000E+00 -0.00000000000E+00 -0.26434802325E+04  0.26434802325E+04  0.00000000000E+00 0. -1.
         21    1    1    2  503  502 -0.45857673139E+01  0.49735179644E+02 -0.20772809447E+02  0.54093686955E+02  0.00000000000E+00 0. -1.
         21    1    1    2  504  505 -0.27946676636E+02 -0.75639294305E+02  0.25626406830E+03  0.26865143268E+03  0.00000000000E+00 0. -1.
         21    1    1    2  505  501 -0.16168596314E+03  0.70331511925E+02 -0.48896103607E+03  0.51978049891E+03  0.00000000000E+00 0. -1.
          2    1    1    2  501    0  0.19421840709E+03 -0.44427397264E+02 -0.20907468016E+04  0.21002182676E+04  0.00000000000E+00 0. -1.
<scales pt_clust_3="49.94614" pt_clust_4="43.64024" pt_clust_5="14000.00000" pt_clust_6="193.28893"></scales>
<clustering>
<clus scale="   49.946">  1  3  2 -1</clus>
<clus scale="   43.640">  1  4  2 -1</clus>
<clus scale="  193.289">  2  6  1 -1</clus>
<clus scale="   49.946">  1  3  2 -1</clus>
</clustering>
</event>
<event>
 6    0  0.2839294E+002  0.1241159E+03  0.7546771E-02  0.1236457E+00
         21   -1    0    0  504  502  0.00000000000E+00  0.00000000000E+00  0.52099304333E+02  0.52099304333E+02  0.00000000000E+00 0.  1.
          2   -1    0    0  505    0 -0.00000000000E+00 -0.00000000000E+00 -0.11847952332E+04  0.11847952332E+04  0.00000000000E+00 0.  1.
         21    1    1    2  503  501 -0.13677466516E+03  0.10397224436E+03 -0.31851340015E+03  0.36189545825E+03  0.00000000000E+00 0.  1.
         21    1    1    2  504  503  0.52586557113E+02 -0.15184774550E+02 -0.66383536113E+01  0.55136114352E+02  0.00000000000E+00 0.  1.
         21    1    1    2  505  502  0.37068656550E+02 -0.77773556070E+01 -0.11673558362E+03  0.12272639912E+03  0.00000000000E+00 0.  1.
          2    1    1    2  501    0  0.47119451498E+02 -0.81010114205E+02 -0.69080859147E+03  0.69713656579E+03  0.00000000000E+00 0.  1.
<scales pt_clust_3="124.11590" pt_clust_4="55.83047" pt_clust_5="37.87575" pt_clust_6="14000.00000"></scales>
<clustering>
<clus scale="   37.876">  2  5  1 -1</clus>
<clus scale="   55.830">  1  4  2 -1</clus>
<clus scale="  124.116">  1  3  2 -1</clus>
<clus scale="   55.830">  1  3  2 -1</clus>
</clustering>
</event>
<event>
 6    0  0.2839294E+002  0.7808928E+02  0.7546771E-02  0.1334563E+00
          2   -1    0    0  505    0 -0.00000000000E+00  0.00000000000E+00  0.28782507980E+04  0.28782507980E+04  0.00000000000E+00 0. -1.
         21   -1    0    0  501  502  0.00000000000E+00 -0.00000000000E+00 -0.29125002018E+03  0.29125002018E+03  0.00000000000E+00 0.  1.
         21    1    1    2  503  502 -0.58656899145E+02  0.53292172577E+02 -0.16198519641E+03  0.18033272397E+03  0.00000000000E+00 0.  1.
         21    1    1    2  504  503  0.89113635020E+02 -0.39591568173E+01 -0.95435113191E+02  0.13063221539E+03  0.00000000000E+00 0.  1.
         21    1    1    2  505  504  0.60601618437E+02 -0.11849019349E+02  0.14862694694E+03  0.16094385596E+03  0.00000000000E+00 0.  1.
          2    1    1    2  501    0 -0.91058354311E+02 -0.37483996411E+02  0.26957941405E+04  0.26975920229E+04  0.00000000000E+00 0. -1.
<scales pt_clust_3="14000.00000" pt_clust_4="78.08928" pt_clust_5="61.74913" pt_clust_6="58.19384"></scales>
<clustering>
<clus scale="   61.749">  1  5  2 -1</clus>
<clus scale="   58.194">  1  6  2 -1</clus>
<clus scale="   78.089">  1  4  2 -1</clus>
<clus scale="   78.089">  2  3  1 -1</clus>
</clustering>
</event>
<event>
 6    0  0.2839294E+002  0.1363780E+03  0.7546771E-02  0.1218287E+00
          1   -1    0    0  505    0 -0.00000000000E+00  0.00000000000E+00  0.10774877386E+04  0.10774877386E+04  0.00000000000E+00 0. -1.
         21   -1    0    0  504  502  0.00000000000E+00 -0.00000000000E+00 -0.23571465366E+03  0.23571465366E+03  0.00000000000E+00 0.  1.
         21    1    1    2  503  501  0.32668988423E+02 -0.37499619311E+02  0.47708515857E+03  0.47967044185E+03  0.00000000000E+00 0. -1.
         21    1    1    2  504  503 -0.51548467119E+02  0.79536773076E+02 -0.19289511665E+03  0.21492293680E+03  0.00000000000E+00 0.  1.
         21    1    1    2  505  502 -0.65667182331E+02 -0.34523503535E+02  0.23498591910E+02  0.77821815408E+02  0.00000000000E+00 0.  1.
          1    1    1    2  501    0  0.84546661026E+02 -0.75136502303E+01  0.53408445109E+03  0.54078719819E+03  0.00000000000E+00 0. -1.
<scales pt_clust_3="42.64751" pt_clust_4="124.47827" pt_clust_5="74.18929" pt_clust_6="42.64751"></scales>
<clustering>
<clus scale="   42.648">  3  6 -1 -1</clus>
<clus scale="   74.189">  2  5  1 -1</clus>
<clus scale="  124.478">  2  4  1 -1</clus>
<clus scale="   74.189">  2  3  1 -1</clus>
</clustering>
</event>
<event>
 6    0  0.2839294E+002  0.8834261E+02  0.7546771E-02  0.1306916E+00
         -1   -1    0    0    0  501 -0.00000000000E+00  0.00000000000E+00  0.17358295924E+04  0.17358295924E+04  0.00000000000E+00 0. -1.
         21   -1    0    0  503  502  0.00000000000E+00 -0.00000000000E+00 -0.50471939862E+03  0.50471939862E+03  0.00000000000E+00 0.  1.
         21    1    1    2  503  504  0.41127461012E+02 -0.33969673570E+02 -0.43263279277E+03  0.43590886679E+03  0.00000000000E+00 0.  1.
         21    1    1    2  504  501  0.72799801206E+02 -0.99308446605E+01  0.84963304611E+02  0.11232629194E+03  0.00000000000E+00 0.  1.
         21    1    1    2  505  502  0.80303761823E+01 -0.40691017316E+02 -0.45326992980E+02  0.61439255565E+02  0.00000000000E+00 0.  1.
         -1    1    1    2    0  505 -0.12195763840E+03  0.84591535546E+02  0.16241066749E+04  0.16308745767E+04  0.00000000000E+00 0. -1.
<scales pt_clust_3="88.34261" pt_clust_4="73.89151" pt_clust_5="41.47585" pt_clust_6="14000.00000"></scales>
<clustering>
<clus scale="   41.476">  2  5  1 -1</clus>
<clus scale="   73.892">  1  4  2 -1</clus>
<clus scale="   88.343">  2  3  1 -1</clus>
<clus scale="   41.476">  2  3  1 -1</clus>
</clustering>
</event>
<event>
 6    0  0.2839294E+002  0.1062151E+03  0.7546771E-02  0.1267744E+00
         21   -1    0    0  501  502  0.00000000000E+00  0.00000000000E+00  0.89915374536E+02  0.89915374536E+02  0.00000000000E+00 0. -1.
          1   -1    0    0  503    0 -0.00000000000E+00 -0.00000000000E+00 -0.16489710504E+04  0.16489710504E+04  0.00000000000E+00 0. -1.
         21    1    1    2  503  504 -0.38599599298E+02 -0.57594400180E+01 -0.12826516260E+03  0.13407107127E+03  0.00000000000E+00 0. -1.
         21    1    1    2  504  505 -0.60449132662E+02 -0.73736954067E+02  0.65823867983E+01  0.95574912245E+02  0.00000000000E+00 0. -1.
         21    1    1    2  505  502 -0.32004040516E+02  0.21095685788E+02  0.21081297916E+02  0.43745944841E+02  0.00000000000E+00 0.  1.
          1    1    1    2  501    0  0.13105277248E+03  0.58400708297E+02 -0.14584541979E+04  0.14654944965E+04  0.00000000000E+00 0. -1.
<scales pt_clust_3="40.48838" pt_clust_4="106.21510" pt_clust_5="38.33127" pt_clust_6="14000.00000"></scales>
<clustering>
<clus scale="   38.331">  1  5  2 -1</clus>
<clus scale="   40.488">  2  3  1 -1</clus>
<clus scale="  106.215">  1  4  2 -1</clus>
<clus scale="   38.331">  1  3  2 -1</clus>
</clustering>
</event>
<event>
 6    0  0.2839294E+002  0.1062525E+03  0.7546771E-02  0.1267671E+00
         21   -1    0    0  503  502  0.00000000000E+00  0.00000000000E+00  0.61846632149E+02  0.61846632149E+02  0.00000000000E+00 0.  1.
          2   -1    0    0  505    0 -0.00000000000E+00 -0.00000000000E+00 -0.37452988241E+04  0.37452988241E+04  0.00000000000E+00 0. -1.
         21    1    1    2  503  501  0.49631629614E+02  0.74496708964E+02 -0.11927472379E+03  0.14912919915E+03  0.00000000000E+00 0.  1.
         21    1    1    2  504  502  0.17818988458E+02 -0.30531562436E+02  0.36783508300E+02  0.51016851503E+02  0.00000000000E+00 0.  1.
         21    1    1    2  505  504 -0.11690601403E+02  0.47622044879E+02 -0.27682547311E+03  0.28113497094E+03  0.00000000000E+00 0. -1.
          2    1    1    2  501    0 -0.55760016669E+02 -0.91587191407E+02 -0.33241355033E+04  0.33258644346E+04  0.00000000000E+00 0. -1.
<scales pt_clust_3="106.25252" pt_clust_4="35.35099" pt_clust_5="44.98197" pt_clust_6="14000.00000"></scales>
<clustering>
<clus scale="   35.351">  1  4  2 -1</clus>
<clus scale="   44.982">  1  5  2 -1</clus>
<clus scale="  106.253">  1  3  2 -1</clus>
<clus scale="   35.351">  1  3  2 -1</clus>
</clustering>
</event>
<event>
 6    0  0.2839294E+002  0.9780490E+02  0.7546771E-02  0.1284981E+00
         21   -1    0    0  503  502  0.00000000000E+00  0.00000000000E+00  0.30187371716E+02  0.30187371716E+02  0.00000000000E+00 0.  1.
          2   -1    0    0  504    0 -0.00000000000E+00 -0.00000000000E+00 -0.31971110495E+04  0.31971110495E+04  0.00000000000E+00 0.  1.
         21    1    1    2  503  501  0.75113177261E+02  0.74980550886E+02 -0.13071914361E+04  0.13114928605E+04  0.00000000000E+00 0.  1.
         21    1    1    2  504  505 -0.41292254512E+02 -0.83877180356E+02 -0.85546346552E+03  0.86055689673E+03  0.00000000000E+00 0.  1.
         21    1    1    2  505  502 -0.42615858144E+02 -0.22227370980E+02  0.23393324730E+01  0.48121095815E+02  0.00000000000E+00 0.  1.
          2    1    1    2  501    0  0.87949353951E+01  0.31124000450E+02 -0.10066081086E+04  0.10071275682E+04  0.00000000000E+00 0.  1.
<scales pt_clust_3="14000.00000" pt_clust_4="97.80490" pt_clust_5="47.83290" pt_clust_6="32.34276"></scales>
<clustering>
<clus scale="   32.343">  2  6  1 -1</clus>
<clus scale="   47.833">  1  5  2 -1</clus>
<clus scale="   97.805">  2  4  1 -1</clus>
<clus scale="   47.833">  1  3  2 -1</clus>
</clustering>
</event>
<event>
 6    0  0.2839294E+002  0.1277146E+03  0.7546771E-02  0.1230887E+00
         21   -1    0    0  505  502  0.00000000000E+00  0.00000000000E+00  0.14369301641E+04  0.14369301641E+04  0.00000000000E+00 0.  1.
          2   -1    0    0  503    0 -0.00000000000E+00 -0.00000000000E+00 -0.18395141075E+04  0.18395141075E+04  0.00000000000E+00 0.  1.
         21    1    1    2  503  504 -0.57462781472E+02 -0.62259585948E+02  0.36414367551E+03  0.37387008935E+03  0.00000000000E+00 0. -1.
         21    1    1    2  504  502 -0.46807499442E+02  0.41829364915E+02  0.10517646708E+04  0.10536363512E+04  0.00000000000E+00 0.  1.
         21    1    1    2  505  501  0.21054579209E+03  0.22345208620E+02 -0.91303157348E+03  0.93725956548E+03  0.00000000000E+00 0.  1.
          2    1    1    2  501    0 -0.10627551118E+03 -0.19149875865E+01 -0.90546071616E+03  0.91167826559E+03  0.00000000000E+00 0.  1.
<scales pt_clust_3="104.77049" pt_clust_4="62.77450" pt_clust_5="127.71460" pt_clust_6="14000.00000"></scales>
<clustering>
<clus scale="   62.774">  1  4  2 -1</clus>
<clus scale="  104.770">  1  3  2 -1</clus>
<clus scale="  127.715">  1  5  2 -1</clus>
<clus scale="   62.774">  1  3  2 -1</clus>
</clustering>
</event>
<event>
 6    0  0.2839294E+002  0.1062696E+03  0.7546771E-02  0.1267638E+00
          2   -1    0    0  502    0 -0.00000000000E+00  0.00000000000E+00  0.16514945337E+04  0.16514945337E+04  0.00000000000E+00 0. -1.
         21   -1    0    0  503  502  0.00000000000E+00 -0.00000000000E+00 -0.97747070659E+02  0.97747070659E+02  0.00000000000E+00 0.  1.
         21    1    1    2  503  505 -0.20233385666E+02  0.31361797051E+02 -0.39485045627E+02  0.54332504433E+02  0.00000000000E+00 0.  1.
         21    1    1    2  504  501 -0.75570533467E+02  0.74769233212E+02  0.25879751497E+02  0.10941254636E+03  0.00000000000E+00 0.  1.
         21    1    1    2  505  504  0.12047418790E+02 -0.40676473553E+02  0.55231569824E+02  0.69643679580E+02  0.00000000000E+00 0. -1.
          2    1    1    2  501    0  0.83756500343E+02 -0.65454556710E+02  0.15121211873E+04  0.15158528740E+04  0.00000000000E+00 0. -1.
<scales pt_clust_3="37.32227" pt_clust_4="106.26964" pt_clust_5="37.37587" pt_clust_6="14000.00000"></scales>
<clustering>
<clus scale="   37.322">  2  3  1 -1</clus>
<clus scale="   37.376">  2  5  1 -1</clus>
<clus scale="  106.270">  2  4  1 -1</clus>
<clus scale="   37.322">  2  3  1 -1</clus>
</clustering>
</event>
<event>
 6    0  0.2839294E+002  0.1081529E+03  0.7546771E-02  0.1264029E+00
          1   -1    0    0  504    0 -0.00000000000E+00  0.00000000000E+00  0.14179015643E+04  0.14179015643E+04  0.00000000000E+00 0.  1.
         21   -1    0    0  503  502  0.00000000000E+00 -0.00000000000E+00 -0.30399145090E+03  0.30399145090E+03  0.00000000000E+00 0. -1.
         21    1    1    2  503  501  0.23115750309E+02  0.23683460857E+02 -0.28441401791E+03  0.28633298416E+03  0.00000000000E+00 0. -1.
         21    1    1    2  504  505  0.92505859651E+02 -0.35356348552E+02  0.21709857401E+03  0.23861935439E+03  0.00000000000E+00 0. -1.
         21    1    1    2  505  502 -0.38519710598E+01  0.33207895991E+02  0.50889578182E+02  0.60888021849E+02  0.00000000000E+00 0. -1.
          1    1    1    2  501    0 -0.11176963890E+03 -0.21535008295E+02  0.11303359791E+04  0.11360526548E+04  0.00000000000E+00 0.  1.
<scales pt_clust_3="33.09447" pt_clust_4="108.15292" pt_clust_5="39.63731" pt_clust_6="14000.00000"></scales>
<clustering>
<clus scale="   33.094">  2  3  1 -1</clus>
<clus scale="   39.637">  2  5  1 -1</clus>
<clus scale="  108.153">  2  4  1 -1</clus>
<clus scale="   33.094">  2  3  1 -1</clus>
</clustering>
</event>
<event>
 6    0  0.2839294E+002  0.1748724E+03  0.7546771E-02  0.1172860E+00
         21   -1    0    0  501  502  0.00000000000E+00  0.00000000000E+00  0.48363679781E+03  0.48363679781E+03  0.00000000000E+00 0.  1.
          4   -1    0    0  504    0 -0.00000000000E+00 -0.00000000000E+00 -0.53182104664E+03  0.53182104664E+03  0.00000000000E+00 0. -1.
         21    1    1    2  503  502  0.33279731403E+02  0.52846825162E+02  0.11826172103E+03  0.13373915699E+03  0.00000000000E+00 0.  1.
         21    1    1    2  504  505  0.30897445495E+02 -0.61462320408E+01 -0.10349093589E+03  0.10817949028E+03  0.00000000000E+00 0.  1.
         21    1    1    2  505  503  0.93447352174E+02  0.54312747800E+02  0.32514755314E+03  0.34264152334E+03  0.00000000000E+00 0.  1.
          4    1    1    2  501    0 -0.15762452907E+03 -0.10101334092E+03 -0.38810258710E+03  0.43089767384E+03  0.00000000000E+00 0. -1.
<scales pt_clust_3="40.08295" pt_clust_4="31.50283" pt_clust_5="40.08295" pt_clust_6="166.72282"></scales>
<clustering>
<clus scale="   31.503">  2  4  1 -1</clus>
<clus scale="   40.083">  3  5 -1 -1</clus>
<clus scale="  166.723">  2  6  1 -1</clus>
<clus scale="  174.872">  1  3  2 -1</clus>
</clustering>
</event>
<event>
 6    0  0.2839294E+002  0.8978697E+02  0.7546771E-02  0.1303368E+00
         21   -1    0    0  505  502  0.00000000000E+00  0.00000000000E+00  0.68426167703E+02  0.68426167703E+02  0.00000000000E+00 0. -1.
          1   -1    0    0  503    0 -0.00000000000E+00 -0.00000000000E+00 -0.74675592566E+03  0.74675592566E+03  0.00000000000E+00 0.  1.
         21    1    1    2  503  504  0.17752766721E+02 -0.28873431112E+02 -0.75542590969E+02  0.82798060369E+02  0.00000000000E+00 0.  1.
         21    1    1    2  504  502  0.17547874911E+02 -0.78600192239E+02 -0.12994938580E+02  0.81576875170E+02  0.00000000000E+00 0.  1.
         21    1    1    2  505  501 -0.73905744971E+02  0.96175318484E+02 -0.94174299550E+02  0.15355959664E+03  0.00000000000E+00 0. -1.
          1    1    1    2  501    0  0.38605103338E+02  0.11298304867E+02 -0.49561792886E+03  0.49724756118E+03  0.00000000000E+00 0.  1.
<scales pt_clust_3="33.89448" pt_clust_4="14000.00000" pt_clust_5="89.78697" pt_clust_6="52.79579"></scales>
<clustering>
<clus scale="   33.894">  2  3  1 -1</clus>
<clus scale="   52.796">  2  6  1 -1</clus>
<clus scale="   89.787">  2  5  1 -1</clus>
<clus scale="   89.787">  1  3  2 -1</clus>
</clustering>
</event>
<event>
 6    0  0.2839294E+002  0.1187569E+03  0.7546771E-02  0.1245162E+00
         21   -1    0    0  505  502  0.00000000000E+00  0.00000000000E+00  0.19617553026E+03  0.19617553026E+03  0.00000000000E+00 0.  1.
          2   -1    0    0  503    0 -0.00000000000E+00 -0.00000000000E+00 -0.98420612980E+03  0.98420612980E+03  0.00000000000E+00 0. -1.
         21    1    1    2  503  502  0.97739687977E+02 -0.46855251299E+02 -0.45040450547E+03  0.46326307831E+03  0.00000000000E+00 0. -1.
         21    1    1    2  504  501 -0.46767384855E+02 -0.16147326707E+02 -0.89690086265E+02  0.10243161631E+03  0.00000000000E+00 0.  1.
         21    1    1    2  505  504 -0.55144770227E+02  0.10671699394E+03  0.16240547142E+03  0.20200247430E+03  0.00000000000E+00 0.  1.
          2    1    1    2  501    0  0.41724671049E+01 -0.43714415934E+02 -0.41034147923E+03  0.41268449113E+03  0.00000000000E+00 0. -1.
<scales pt_clust_3="118.75689" pt_clust_4="51.70605" pt_clust_5="14000.00000" pt_clust_6="43.91309"></scales>
<clustering>
<clus scale="   43.913">  2  6  1 -1</clus>
<clus scale="   51.706">  2  4  1 -1</clus>
<clus scale="  118.757">  2  3  1 -1</clus>
<clus scale="  118.757">  1  3  2 -1</clus>
</clustering>
</event>
<event>
 6    0  0.2839294E+002  0.1148293E+03  0.7546771E-02  0.1251879E+00
         21   -1    0    0  504  502  0.00000000000E+00  0.00000000000E+00  0.17066118353E+03  0.17066118353E+03  0.00000000000E+00 0.  1.
          2   -1    0    0  505    0 -0.00000000000E+00 -0.00000000000E+00 -0.18613760510E+04  0.18613760510E+04  0.00000000000E+00 0. -1.
         21    1    1    2  503  502  0.27878557917E+02  0.11559319611E+03  0.13784264236E+03  0.18204283846E+03  0.00000000000E+00 0.  1.
         21    1    1    2  504  501 -0.86644640965E+01 -0.77645558071E+02 -0.19444040427E+03  0.20954946060E+03  0.00000000000E+00 0.  1.
         21    1    1    2  505  503 -0.26773990331E+02  0.27479922253E+02 -0.14874618458E+03  0.15361451791E+03  0.00000000000E+00 0. -1.
          2    1    1    2  501    0  0.75598965101E+01 -0.65427560294E+02 -0.14853709210E+04  0.14868304175E+04  0.00000000000E+00 0. -1.
<scales pt_clust_3="14000.00000" pt_clust_4="114.82926" pt_clust_5="38.36656" pt_clust_6="44.41786"></scales>
<clustering>
<clus scale="   38.367">  2  5  1 -1</clus>
<clus scale="   44.418">  2  6  1 -1</clus>
<clus scale="  114.829">  2  4  1 -1</clus>
<clus scale="  114.829">  1  3  2 -1</clus>
</clustering>
</event>
<event>
 6    0  0.2839294E+002  0.2545281E+03  0.7546771E-02  0.1110476E+00
          1   -1    0    0  504    0 -0.00000000000E+00  0.00000000000E+00  0.89917409872E+03  0.89917409872E+03  0.00000000000E+00 0.  1.
         21   -1    0    0  505  502  0.00000000000E+00 -0.00000000000E+00 -0.80904732963E+03  0.80904732963E+03  0.00000000000E+00 0. -1.
         21    1    1    2  503  502  0.29562096509E+01 -0.37818245184E+02 -0.73962030977E+03  0.74059243952E+03  0.00000000000E+00 0. -1.
         21    1    1    2  504  503 -0.15199651997E+03 -0.16858153636E+03  0.32570785156E+03  0.39699909452E+03  0.00000000000E+00 0.  1.
         21    1    1    2  505  501  0.39393195754E+02  0.73539213877E+02  0.92899419588E+02  0.12486049018E+03  0.00000000000E+00 0. -1.
          1    1    1    2  501    0  0.10964711457E+03  0.13286056767E+03  0.41113980771E+03  0.44576940413E+03  0.00000000000E+00 0.  1.
<scales pt_clust_3="37.93361" pt_clust_4="240.90562" pt_clust_5="55.72605" pt_clust_6="55.72605"></scales>
<clustering>
<clus scale="   37.934">  2  3  1 -1</clus>
<clus scale="   55.726">  5  6 -1 -1</clus>
<clus scale="  240.906">  2  4  1 -1</clus>
<clus scale="   37.934">  2  3  1 -1</clus>
</clustering>
</event>
<event>
 6    0  0.2839294E+002  0.1122571E+03  0.7546771E-02  0.1256446E+00
          2   -1    0    0  504    0 -0.00000000000E+00  0.00000000000E+00  0.24231991090E+04  0.24231991090E+04  0.00000000000E+00 0. -1.
         21   -1    0    0  505  502  0.00000000000E+00 -0.00000000000E+00 -0.89528485681E+02  0.89528485681E+02  0.00000000000E+00 0.  1.
         21    1    1    2  503  502 -0.96257048882E+02  0.97153931389E+02 -0.24075518909E+02  0.13886661389E+03  0.00000000000E+00 0.  1.
         21    1    1    2  504  503  0.15984427588E+02 -0.41940176156E+02  0.41008711364E+03  0.41253596337E+03  0.00000000000E+00 0.  1.
         21    1    1    2  505  501  0.30694037314E+02 -0.44820874025E+01  0.32771521777E+02  0.45124114104E+02  0.00000000000E+00 0. -1.
          2    1    1    2  501    0  0.49578583981E+02 -0.50731667830E+02  0.19148875069E+04  0.19162009034E+04  0.00000000000E+00 0. -1.
<scales pt_clust_3="112.25711" pt_clust_4="45.10682" pt_clust_5="31.01956" pt_clust_6="14000.00000"></scales>
<clustering>
<clus scale="   31.020">  2  5  1 -1</clus>
<clus scale="   45.107">  1  4  2 -1</clus>
<clus scale="  112.257">  2  3  1 -1</clus>
<clus scale="   31.020">  2  3  1 -1</clus>
</clustering>
</event>
<event>
 6    0  0.2839294E+002  0.7939949E+02  0.7546771E-02  0.1330764E+00
         21   -1    0    0  503  502  0.00000000000E+00  0.00000000000E+00  0.53101062806E+03  0.53101062806E+03  0.00000000000E+00 0.  1.
         -1   -1    0    0    0  501 -0.00000000000E+00 -0.00000000000E+00 -0.50633640943E+03  0.50633640943E+03  0.00000000000E+00 0. -1.
         21    1    1    2  503  501  0.53894824731E+02 -0.10155630650E+03 -0.25934750144E+03  0.28368902345E+03  0.00000000000E+00 0. -1.
         21    1    1    2  504  502 -0.20760205419E+02  0.26520333680E+02  0.38544961764E+03  0.38691823680E+03  0.00000000000E+00 0.  1.
         21    1    1    2  505  504 -0.40045334998E+02  0.62103130025E+01  0.12425395723E+03  0.13069522841E+03  0.00000000000E+00 0.  1.
         -1    1    1    2    0  505  0.69107156852E+01  0.68825659819E+02 -0.22568185481E+03  0.23604454883E+03  0.00000000000E+00 0. -1.
<scales pt_clust_3="14000.00000" pt_clust_4="33.67958" pt_clust_5="65.37891" pt_clust_6="79.39949"></scales>
<clustering>
<clus scale="   33.680">  1  4  2 -1</clus>
<clus scale="   65.379">  1  5  2 -1</clus>
<clus scale="   79.399">  2  6  1 -1</clus>
<clus scale="   33.680">  1  3  2 -1</clus>
</clustering>
</event>
<event>
 6    0  0.2839294E+002  0.8772519E+02  0.7546771E-02  0.1308456E+00
         21   -1    0    0  504  502  0.00000000000E+00  0.00000000000E+00  0.23157733626E+02  0.23157733626E+02  0.00000000000E+00 0. -1.
          1   -1    0    0  503    0 -0.00000000000E+00 -0.00000000000E+00 -0.38308628166E+04  0.38308628166E+04  0.00000000000E+00 0.  1.
         21    1    1    2  503  502  0.23307700012E+02  0.72473053952E+02 -0.88809101456E+02  0.11697285553E+03  0.00000000000E+00 0. -1.
         21    1    1    2  504  505 -0.36954257506E+02 -0.46292462067E+02 -0.20034881271E+03  0.20892165026E+03  0.00000000000E+00 0.  1.
         21    1    1    2  505  501 -0.65493358059E+02 -0.25975239275E+02 -0.28394027317E+03  0.29255114379E+03  0.00000000000E+00 0. -1.
          1    1    1    2  501    0  0.79139915553E+02 -0.20535261076E+00 -0.32346068957E+04  0.32355749007E+04  0.00000000000E+00 0.  1.
<scales pt_clust_3="76.12879" pt_clust_4="32.03801" pt_clust_5="32.03801" pt_clust_6="80.46614"></scales>
<clustering>
<clus scale="   32.038">  4  5 -1 -1</clus>
<clus scale="   76.129">  1  3  2 -1</clus>
<clus scale="   80.466">  2  6  1 -1</clus>
<clus scale="   76.129">  1  3  2 -1</clus>
</clustering>
</event>
<event>
 6    0  0.2839294E+002  0.8405671E+02  0.7546771E-02  0.1317918E+00
         21   -1    0    0  503  502  0.00000000000E+00  0.00000000000E+00  0.21673086020E+04  0.21673086020E+04  0.00000000000E+00 0. -1.
          2   -1    0    0  504    0 -0.00000000000E+00 -0.00000000000E+00 -0.24393412472E+04  0.24393412472E+04  0.00000000000E+00 0. -1.
         21    1    1    2  503  501 -0.61378093671E+01  0.11163103452E+03  0.13450450493E+03  0.17490175075E+03  0.00000000000E+00 0. -1.
         21    1    1    2  504  505 -0.47743649463E+02 -0.18986332340E+02 -0.28175126545E+03  0.28639782203E+03  0.00000000000E+00 0.  1.
         21    1    1    2  505  502  0.36950705923E+02 -0.33489329792E+02  0.20095294798E+04  0.20101481587E+04  0.00000000000E+00 0. -1.
          2    1    1    2  501    0  0.16930752907E+02 -0.59155372385E+02 -0.21343153645E+04  0.21352021177E+04  0.00000000000E+00 0. -1.
<scales pt_clust_3="14000.00000" pt_clust_4="51.06059" pt_clust_5="49.86873" pt_clust_6="84.05671"></scales>
<clustering>
<clus scale="   49.869">  1  5  2 -1</clus>
<clus scale="   51.061">  2  4  1 -1</clus>
<clus scale="   84.057">  2  6  1 -1</clus>
<clus scale="   49.869">  1  3  2 -1</clus>
</clustering>
</event>
<event>
 6    0  0.2839294E+002  0.1313513E+03  0.7546771E-02  0.1225464E+00
          2   -1    0    0  504    0 -0.00000000000E+00  0.00000000000E+00  0.86912082834E+03  0.86912082834E+03  0.00000000000E+00 0.  1.
         21   -1    0    0  505  502  0.00000000000E+00 -0.00000000000E+00 -0.13728063487E+03  0.13728063487E+03  0.00000000000E+00 0. -1.
         21    1    1    2  503  501 -0.39615236873E+02  0.70599474804E+01  0.25000846914E+03  0.25322607388E+03  0.00000000000E+00 0.  1.
         21    1    1    2  504  502  0.10328472367E+03  0.15508247602E+02  0.14852896873E+02  0.10549335729E+03  0.00000000000E+00 0. -1.
         21    1    1    2  505  503  0.10030789785E+02  0.34787383784E+02 -0.82620465753E+02  0.90204878889E+02  0.00000000000E+00 0. -1.
          2    1    1    2  501    0 -0.73700276581E+02 -0.57355578867E+02  0.54959929321E+03  0.55747715316E+03  0.00000000000E+00 0.  1.
<scales pt_clust_3="32.80172" pt_clust_4="121.47460" pt_clust_5="36.20468" pt_clust_6="32.80172"></scales>
<clustering>
<clus scale="   32.802">  3  6 -1 -1</clus>
<clus scale="   36.205">  2  5  1 -1</clus>
<clus scale="  121.475">  2  4  1 -1</clus>
<clus scale="   36.205">  2  3  1 -1</clus>
</clustering>
</event>
<event>
 6    0  0.2839294E+002  0.8214631E+02  0.7546771E-02  0.1323069E+00
         21   -1    0    0  505  502  0.00000000000E+00  0.00000000000E+00  0.30746294808E+04  0.30746294808E+04  0.00000000000E+00 0.  1.
          1   -1    0    0  504    0 -0.00000000000E+00 -0.00000000000E+00 -0.76405451452E+03  0.76405451452E+03  0.00000000000E+00 0.  1.
         21    1    1    2  503  502  0.45958112285E+02  0.13349454931E+02  0.28753500928E+04  0.28757483395E+04  0.00000000000E+00 0.  1.
         21    1    1    2  504  503  0.27871809130E+02 -0.56686444088E+02  0.33137633831E+01  0.63254815748E+02  0.00000000000E+00 0.  1.
         21    1    1    2  505  501 -0.12716314093E+03  0.22078339543E+02  0.13933743693E+03  0.18992850975E+03  0.00000000000E+00 0.  1.
          1    1    1    2  501    0  0.53333219514E+02  0.21258649613E+02 -0.70742632683E+03  0.70975233031E+03  0.00000000000E+00 0.  1.
<scales pt_clust_3="47.85766" pt_clust_4="82.14631" pt_clust_5="14000.00000" pt_clust_6="57.69224"></scales>
<clustering>
<clus scale="   47.858">  1  3  2 -1</clus>
<clus scale="   57.692">  2  6  1 -1</clus>
<clus scale="   82.146">  2  4  1 -1</clus>
<clus scale="   47.858">  1  3  2 -1</clus>
</clustering>
</event>
<event>
 6    0  0.2839294E+002  0.1128767E+03  0.7546771E-02  0.1255334E+00
         21   -1    0    0  504  502  0.00000000000E+00  0.00000000000E+00  0.74534930287E+03  0.74534930287E+03  0.00000000000E+00 0. -1.
         -2   -1    0    0    0  501 -0.00000000000E+00 -0.00000000000E+00 -0.44232083595E+02  0.44232083595E+02  0.00000000000E+00 0.  1.
         21    1    1    2  503  505 -0.90725230247E+02 -0.73698737825E+02  0.36672537065E+03  0.38490267450E+03  0.00000000000E+00 0. -1.
         21    1    1    2  504  501 -0.34090028549E+02  0.31496354786E+02  0.49212544467E+02  0.67646322474E+02  0.00000000000E+00 0. -1.
         21    1    1    2  505  502  0.26376455772E+02 -0.18292935398E+02  0.17313627233E+03  0.17608667667E+03  0.00000000000E+00 0. -1.
         -2    1    1    2    0  503  0.98438803024E+02  0.60495318437E+02  0.11204303183E+03  0.16094571282E+03  0.00000000000E+00 0.  1.
<scales pt_clust_3="112.87665" pt_clust_4="43.16102" pt_clust_5="32.09905" pt_clust_6="14000.00000"></scales>
<clustering>
<clus scale="   32.099">  1  5  2 -1</clus>
<clus scale="   43.161">  2  4  1 -1</clus>
<clus scale="  112.877">  1  3  2 -1</clus>
<clus scale="   32.099">  1  3  2 -1</clus>
</clustering>
</event>
<event>
 6    0  0.2839294E+002  0.1764867E+03  0.7546771E-02  0.1171247E+00
          1   -1    0    0  505    0 -0.00000000000E+00  0.00000000000E+00  0.13772213574E+04  0.13772213574E+04  0.00000000000E+00 0.  1.
         21   -1    0    0  503  502  0.00000000000E+00 -0.00000000000E+00 -0.15282042676E+03  0.15282042676E+03  0.00000000000E+00 0. -1.
         21    1    1    2  503  504  0.65243211673E+02  0.52577914255E+01 -0.34849519349E+02  0.74153961722E+02  0.00000000000E+00 0. -1.
         21    1    1    2  504  501  0.28817540631E+02  0.24079485190E+02  0.13459106677E+03  0.13973198456E+03  0.00000000000E+00 0. -1.
         21    1    1    2  505  502 -0.16394563117E+03 -0.13278556340E+03  0.28477200194E+02  0.21288759183E+03  0.00000000000E+00 0. -1.
          1    1    1    2  501    0  0.69884878861E+02  0.10344828678E+03  0.10961821830E+04  0.11032682461E+04  0.00000000000E+00 0.  1.
<scales pt_clust_3="65.45473" pt_clust_4="35.71860" pt_clust_5="164.03137" pt_clust_6="35.71860"></scales>
<clustering>
<clus scale="   35.719">  4  6 -1 -1</clus>
<clus scale="   65.455">  2  3  1 -1</clus>
<clus scale="  164.031">  2  5  1 -1</clus>
<clus scale="   65.455">  2  3  1 -1</clus>
</clustering>
</event>
<event>
 6    0  0.2839294E+002  0.1322880E+03  0.7546771E-02  0.1224100E+00
         21   -1    0    0  503  502  0.00000000000E+00  0.00000000000E+00  0.26392665506E+04  0.26392665506E+04  0.00000000000E+00 0. -1.
         -2   -1    0    0    0  501 -0.00000000000E+00 -0.00000000000E+00 -0.33621478787E+03  0.33621478787E+03  0.00000000000E+00 0. -1.
         21    1    1    2  503  504 -0.50157007032E+02  0.12327199052E+03  0.25999511719E+04  0.26033551055E+04  0.00000000000E+00 0. -1.
         21    1    1    2  504  501 -0.26130510605E+02 -0.22517286220E+02 -0.84593319072E+01  0.35516081703E+02  0.00000000000E+00 0.  1.
         21    1    1    2  505  502 -0.16791211736E+02 -0.74600442188E+02 -0.13833877933E+03  0.15806577312E+03  0.00000000000E+00 0. -1.
         -2    1    1    2    0  505  0.93078729374E+02 -0.26154262113E+02 -0.15010129800E+03  0.17854437810E+03  0.00000000000E+00 0. -1.
<scales pt_clust_3="14000.00000" pt_clust_4="34.49394" pt_clust_5="132.28795" pt_clust_6="88.00696"></scales>
<clustering>
<clus scale="   34.494">  2  4  1 -1</clus>
<clus scale="   88.007">  2  6  1 -1</clus>
<clus scale="  132.288">  2  5  1 -1</clus>
<clus scale="  132.288">  1  3  2 -1</clus>
</clustering>
</event>
<event>
 6    0  0.2839294E+002  0.6917638E+02  0.7546771E-02  0.1362916E+00
         -2   -1    0    0    0  501 -0.00000000000E+00  0.00000000000E+00  0.61708615488E+03  0.61708615488E+03  0.00000000000E+00 0. -1.
         21   -1    0    0  505  502  0.00000000000E+00 -0.00000000000E+00 -0.63465695821E+03  0.63465695821E+03  0.00000000000E+00 0. -1.
         21    1    1    2  503  501 -0.32311665650E+02 -0.62712419819E+01  0.48352784255E+03  0.48464682681E+03  0.00000000000E+00 0. -1.
         21    1    1    2  504  503 -0.34382617954E+02 -0.89032495350E+02 -0.23800166847E+03  0.25642492828E+03  0.00000000000E+00 0. -1.
         21    1    1    2  505  504  0.51048750588E+02  0.22385045796E+02 -0.37339158487E+03  0.37752925829E+03  0.00000000000E+00 0. -1.
         -2    1    1    2    0  502  0.15645533016E+02  0.72918691536E+02  0.11029460747E+03  0.13314209971E+03  0.00000000000E+00 0. -1.
<scales pt_clust_3="32.91462" pt_clust_4="69.17638" pt_clust_5="55.24169" pt_clust_6="14000.00000"></scales>
<clustering>
<clus scale="   32.915">  1  3  2 -1</clus>
<clus scale="   55.242">  2  5  1 -1</clus>
<clus scale="   69.176">  2  4  1 -1</clus>
<clus scale="   55.242">  2  3  1 -1</clus>
</clustering>
</event>
<event>
 6    0  0.2839294E+002  0.1148999E+03  0.7546771E-02  0.1251756E+00
          1   -1    0    0  505    0 -0.00000000000E+00  0.00000000000E+00  0.13950229616E+04  0.13950229616E+04  0.00000000000E+00 0. -1.
         21   -1    0    0  504  502  0.00000000000E+00 -0.00000000000E+00 -0.23667214141E+04  0.23667214141E+04  0.00000000000E+00 0. -1.
         21    1    1    2  503  502  0.66847982753E+02 -0.24093698107E+02 -0.69716484462E+03  0.70077669743E+03  0.00000000000E+00 0.  1.
         21    1    1    2  504  501 -0.73895986648E+02  0.13884864513E+03 -0.16611338113E+04  0.16685637842E+04  0.00000000000E+00 0. -1.
         21    1    1    2  505  503 -0.17007883234E+01 -0.32391376687E+02  0.17532664943E+03  0.17830178902E+03  0.00000000000E+00 0.  1.
          1    1    1    2  501    0  0.87487922184E+01 -0.82363570333E+02  0.12112735539E+04  0.12141021050E+04  0.00000000000E+00 0. -1.
<scales pt_clust_3="71.07136" pt_clust_4="14000.00000" pt_clust_5="32.43600" pt_clust_6="114.89994"></scales>
<clustering>
<clus scale="   32.436">  1  5  2 -1</clus>
<clus scale="   71.071">  2  3  1 -1</clus>
<clus scale="  114.900">  1  6  2 -1</clus>
<clus scale="   71.071">  2  3  1 -1</clus>
</clustering>
</event>
<event>
 6    0  0.2839294E+002  0.1515530E+03  0.7546771E-02  0.1198578E+00
          3   -1    0    0  505    0 -0.00000000000E+00  0.00000000000E+00  0.73224472703E+03  0.73224472703E+03  0.00000000000E+00 0.  1.
         21   -1    0    0  501  502  0.00000000000E+00 -0.00000000000E+00 -0.52281201990E+03  0.52281201990E+03  0.00000000000E+00 0.  1.
         21    1    1    2  503  504 -0.19181812217E+02 -0.12029303977E+03 -0.90156372943E+02  0.15154711782E+03  0.00000000000E+00 0.  1.
         21    1    1    2  504  502 -0.10200036765E+02 -0.38832531652E+02 -0.37882599701E+03  0.38094768968E+03  0.00000000000E+00 0.  1.
         21    1    1    2  505  503  0.94281747505E+02  0.22622851851E+02  0.28975823370E+03  0.30554979191E+03  0.00000000000E+00 0.  1.
          3    1    1    2  501    0 -0.64899898524E+02  0.13650271957E+03  0.38865684338E+03  0.41701214753E+03  0.00000000000E+00 0.  1.
<scales pt_clust_3="14000.00000" pt_clust_4="40.14980" pt_clust_5="95.92936" pt_clust_6="151.55295"></scales>
<clustering>
<clus scale="   40.150">  2  4  1 -1</clus>
<clus scale="   95.929">  1  5  2 -1</clus>
<clus scale="  151.553">  1  6  2 -1</clus>
<clus scale="   40.150">  2  3  1 -1</clus>
</clustering>
</event>
<event>
 6    0  0.2839294E+002  0.1187701E+03  0.7546771E-02  0.1245140E+00
         21   -1    0    0  505  502  0.00000000000E+00  0.00000000000E+00  0.89230207512E+02  0.89230207512E+02  0.00000000000E+00 0.  1.
          2   -1    0    0  503    0 -0.00000000000E+00 -0.00000000000E+00 -0.15392621288E+04  0.15392621288E+04  0.00000000000E+00 0. -1.
         21    1    1    2  503  504  0.84571158490E+02  0.42914430115E+02 -0.22697261905E+03  0.24598881877E+03  0.00000000000E+00 0. -1.
         21    1    1    2  504  502 -0.51790485030E+02 -0.11868459244E+03  0.10655734592E+02  0.12993010237E+03  0.00000000000E+00 0.  1.
         21    1    1    2  505  501  0.13426168328E+02  0.55868469461E+02 -0.84080132605E+02  0.10183818819E+03  0.00000000000E+00 0.  1.
          2    1    1    2  501    0 -0.46206841788E+02  0.19901692861E+02 -0.11496349042E+04  0.11507352269E+04  0.00000000000E+00 0. -1.
<scales pt_clust_3="14000.00000" pt_clust_4="118.77015" pt_clust_5="60.67037" pt_clust_6="50.31053"></scales>
<clustering>
<clus scale="   50.311">  2  6  1 -1</clus>
<clus scale="   60.670">  2  5  1 -1</clus>
<clus scale="  118.770">  1  4  2 -1</clus>
<clus scale="  118.770">  1  3  2 -1</clus>
</clustering>
</event>
<event>
 6    0  0.2839294E+002  0.1780091E+03  0.7546771E-02  0.1169744E+00
         21   -1    0    0  504  502  0.00000000000E+00  0.00000000000E+00  0.10329788874E+03  0.10329788874E+03  0.00000000000E+00 0. -1.
          4   -1    0    0  505    0 -0.00000000000E+00 -0.00000000000E+00 -0.71400306660E+03  0.71400306660E+03  0.00000000000E+00 0. -1.
         21    1    1    2  503  501  0.16332607193E+03 -0.69832941462E+02 -0.15695134293E+03  0.23703537612E+03  0.00000000000E+00 0. -1.
         21    1    1    2  504  503  0.34871126800E+02  0.19264699023E+02 -0.26465700437E+02  0.47828416369E+02  0.00000000000E+00 0. -1.
         21    1    1    2  505  502 -0.63680139501E+02 -0.19099674239E+02  0.12182732524E+02  0.67589767677E+02  0.00000000000E+00 0. -1.
          4    1    1    2  501    0 -0.13451705923E+03  0.69667916678E+02 -0.43947086702E+03  0.46484739517E+03  0.00000000000E+00 0. -1.
<scales pt_clust_3="35.64883" pt_clust_4="35.64883" pt_clust_5="66.48276" pt_clust_6="161.31010"></scales>
<clustering>
<clus scale="   35.649">  3  4 -1 -1</clus>
<clus scale="   66.483">  1  5  2 -1</clus>
<clus scale="  161.310">  2  6  1 -1</clus>
<clus scale="   66.483">  1  3  2 -1</clus>
</clustering>
</event>
<event>
 6    0  0.2839294E+002  0.1378809E+03  0.7546771E-02  0.1216209E+00
          2   -1    0    0  502    0 -0.00000000000E+00  0.00000000000E+00  0.23166308291E+04  0.23166308291E+04  0.00000000000E+00 0. -1.
         21   -1    0    0  504  502  0.00000000000E+00 -0.00000000000E+00 -0.17398537917E+02  0.17398537917E+02  0.00000000000E+00 0. -1.
         21    1    1    2  503  505  0.41561562918E+02  0.96885986728E+02  0.42824760361E+03  0.44103318235E+03  0.00000000000E+00 0. -1.
         21    1    1    2  504  503  0.77875014281E+02 -0.18154344693E+02  0.20768668344E+03  0.22254854877E+03  0.00000000000E+00 0. -1.
         21    1    1    2  505  501 -0.64520282605E+02 -0.67455141673E+02  0.82179922093E+03  0.82708344351E+03  0.00000000000E+00 0. -1.
          2    1    1    2  501    0 -0.54916294593E+02 -0.11276500362E+02  0.84149878320E+03  0.84336419239E+03  0.00000000000E+00 0. -1.
<scales pt_clust_3="125.05946" pt_clust_4="79.96310" pt_clust_5="44.99764" pt_clust_6="44.99764"></scales>
<clustering>
<clus scale="   44.998">  5  6 -1 -1</clus>
<clus scale="   79.963">  2  4  1 -1</clus>
<clus scale="  125.059">  2  3  1 -1</clus>
<clus scale="   79.963">  2  3  1 -1</clus>
</clustering>
</event>
<event>
 6    0  0.2839294E+002  0.1533284E+03  0.7546771E-02  0.1196442E+00
          2   -1    0    0  503    0 -0.00000000000E+00  0.00000000000E+00  0.48666046309E+03  0.48666046309E+03  0.00000000000E+00 0.  1.
         21   -1    0    0  504  502  0.00000000000E+00 -0.00000000000E+00 -0.39574765068E+03  0.39574765068E+03  0.00000000000E+00 0.  1.
         21    1    1    2  503  505  0.35070876895E+02 -0.80576670936E+01  0.29226668509E+02  0.46358284667E+02  0.00000000000E+00 0. -1.
         21    1    1    2  504  501 -0.29869318858E+02  0.15382449659E+03 -0.32933253732E+03  0.36471094321E+03  0.00000000000E+00 0.  1.
         21    1    1    2  505  502  0.44650441614E+02 -0.64563170977E+02  0.10651191088E+02  0.79218134632E+02  0.00000000000E+00 0.  1.
          2    1    1    2  501    0 -0.49851999651E+02 -0.81203658524E+02  0.38036749013E+03  0.39212075126E+03  0.00000000000E+00 0.  1.
<scales pt_clust_3="34.18928" pt_clust_4="144.77459" pt_clust_5="34.18928" pt_clust_6="95.28513"></scales>
<clustering>
<clus scale="   34.189">  3  5 -1 -1</clus>
<clus scale="   95.285">  1  6  2 -1</clus>
<clus scale="  144.775">  2  4  1 -1</clus>
<clus scale="  144.775">  2  3  1 -1</clus>
</clustering>
</event>
<event>
 6    0  0.2839294E+002  0.1010177E+03  0.7546771E-02  0.1278170E+00
         21   -1    0    0  504  502  0.00000000000E+00  0.00000000000E+00  0.17915715956E+04  0.17915715956E+04  0.00000000000E+00 0.  1.
          2   -1    0    0  503    0 -0.00000000000E+00 -0.00000000000E+00 -0.98296473392E+02  0.98296473392E+02  0.00000000000E+00 0. -1.
         21    1    1    2  503  505  0.12483168504E+03 -0.72750471441E+02  0.25001347084E+03  0.28875996309E+03  0.00000000000E+00 0.  1.
         21    1    1    2  504  501 -0.53515593438E+02  0.49239748369E+01 -0.13518068619E+02  0.55415723837E+02  0.00000000000E+00 0. -1.
         21    1    1    2  505  502 -0.35011172184E+02  0.90363334452E+02  0.14890155236E+04  0.14921657227E+04  0.00000000000E+00 0.  1.
          2    1    1    2  501    0 -0.36304919415E+02 -0.22536837848E+02 -0.32235803596E+02  0.53526659408E+02  0.00000000000E+00 0. -1.
<scales pt_clust_3="93.84825" pt_clust_4="33.32952" pt_clust_5="96.90879" pt_clust_6="33.32952"></scales>
<clustering>
<clus scale="   33.330">  4  6 -1 -1</clus>
<clus scale="   96.909">  1  5  2 -1</clus>
<clus scale="   93.848">  1  3  2 -1</clus>
<clus scale="   96.909">  1  3  2 -1</clus>
</clustering>
</event>
<event>
 6    0  0.2839294E+002  0.3751349E+03  0.7546771E-02  0.1052747E+00
         21   -1    0    0  503  502  0.00000000000E+00  0.00000000000E+00  0.15745494415E+03  0.15745494415E+03  0.00000000000E+00 0.  1.
          1   -1    0    0  504    0 -0.00000000000E+00 -0.00000000000E+00 -0.13874796896E+04  0.13874796896E+04  0.00000000000E+00 0.  1.
         21    1    1    2  503  501 -0.15298755506E+03 -0.73481378568E+02 -0.57429181389E+02  0.17917258684E+03  0.00000000000E+00 0.  1.
         21    1    1    2  504  505  0.29206933994E+03  0.20227828457E+03 -0.99582072506E+03  0.10572984064E+04  0.00000000000E+00 0.  1.
         21    1    1    2  505  502  0.69106566547E+01  0.31810148400E+02 -0.79989766773E+01  0.33520536161E+02  0.00000000000E+00 0. -1.
          1    1    1    2  501    0 -0.14599244154E+03 -0.16060705440E+03 -0.16877586230E+03  0.27494310431E+03  0.00000000000E+00 0.  1.
<scales pt_clust_3="92.16750" pt_clust_4="360.36134" pt_clust_5="32.55215" pt_clust_6="92.16750"></scales>
<clustering>
<clus scale="   32.552">  1  5  2 -1</clus>
<clus scale="   92.168">  3  6 -1 -1</clus>
<clus scale="  360.361">  2  4  1 -1</clus>
<clus scale="   32.552">  1  3  2 -1</clus>
</clustering>
</event>
<event>
 6    0  0.2839294E+002  0.1039799E+03  0.7546771E-02  0.1272143E+00
          2   -1    0    0  505    0 -0.00000000000E+00  0.00000000000E+00  0.20743087113E+03  0.20743087113E+03  0.00000000000E+00 0.  1.
         21   -1    0    0  503  502  0.00000000000E+00 -0.00000000000E+00 -0.10959192536E+04  0.10959192536E+04  0.00000000000E+00 0.  1.
         21    1    1    2  503  501  0.52250967255E+01  0.19540192959E+03 -0.35339693243E+01  0.19550372033E+03  0.00000000000E+00 0.  1.
         21    1    1    2  504  502 -0.65688311776E+01 -0.10123900844E+03 -0.96612587652E+03  0.97143795255E+03  0.00000000000E+00 0.  1.
         21    1    1    2  505  504 -0.13163655467E+02 -0.31972290132E+02  0.19197189381E+01  0.34629387554E+02  0.00000000000E+00 0.  1.
          2    1    1    2  501    0  0.14507389919E+02 -0.62190631022E+02  0.79251744388E+02  0.10177906434E+03  0.00000000000E+00 0.  1.
<scales pt_clust_3="14000.00000" pt_clust_4="103.97988" pt_clust_5="34.57614" pt_clust_6="77.92359"></scales>
<clustering>
<clus scale="   34.576">  1  5  2 -1</clus>
<clus scale="   77.924">  1  6  2 -1</clus>
<clus scale="  103.980">  2  4  1 -1</clus>
<clus scale="  103.980">  2  3  1 -1</clus>
</clustering>
</event>
<event>
 6    0  0.2839294E+002  0.1888655E+03  0.7546771E-02  0.1159489E+00
          4   -1    0    0  505    0 -0.00000000000E+00  0.00000000000E+00  0.10510990410E+04  0.10510990410E+04  0.00000000000E+00 0.  1.
         21   -1    0    0  503  502  0.00000000000E+00 -0.00000000000E+00 -0.94039158563E+03  0.94039158563E+03  0.00000000000E+00 0. -1.
         21    1    1    2  503  501 -0.97908093418E+02  0.82211266843E+02 -0.16931910267E+02  0.12896269514E+03  0.00000000000E+00 0. -1.
         21    1    1    2  504  502  0.23232876652E+03 -0.21460859647E+03 -0.82712166336E+03  0.88553020921E+03  0.00000000000E+00 0. -1.
         21    1    1    2  505  504 -0.10269143158E+03  0.13717888497E+03  0.86133476438E+03  0.87821475331E+03  0.00000000000E+00 0.  1.
          4    1    1    2  501    0 -0.31729241524E+02 -0.47815553360E+01  0.93426264658E+02  0.98782969014E+02  0.00000000000E+00 0.  1.
<scales pt_clust_3="129.09898" pt_clust_4="188.86553" pt_clust_5="14000.00000" pt_clust_6="32.08751"></scales>
<clustering>
<clus scale="   32.088">  1  6  2 -1</clus>
<clus scale="  129.099">  2  3  1 -1</clus>
<clus scale="  188.866">  2  4  1 -1</clus>
<clus scale="  129.099">  2  3  1 -1</clus>
</clustering>
</event>
<event>
 6    0  0.2839294E+002  0.7578505E+02  0.7546771E-02  0.1341457E+00
         21   -1    0    0  504  502  0.00000000000E+00  0.00000000000E+00  0.40459917833E+03  0.40459917833E+03  0.00000000000E+00 0.  1.
          3   -1    0    0  505    0 -0.00000000000E+00 -0.00000000000E+00 -0.33344114347E+03  0.33344114347E+03  0.00000000000E+00 0.  1.
         21    1    1    2  503  501  0.43271919557E+02 -0.61847595820E+01 -0.64159401019E+02  0.77634650848E+02  0.00000000000E+00 0.  1.
         21    1    1    2  504  503 -0.18181307995E+02 -0.73213714167E+02  0.28726521911E+03  0.29700524240E+03  0.00000000000E+00 0.  1.
         21    1    1    2  505  502 -0.58948679634E+02  0.88265996242E+02  0.77420942696E+02  0.13137669234E+03  0.00000000000E+00 0.  1.
          3    1    1    2  501    0  0.33858068072E+02 -0.88675224937E+01 -0.22936872593E+03  0.23202373621E+03  0.00000000000E+00 0.  1.
<scales pt_clust_3="67.76135" pt_clust_4="75.78505" pt_clust_5="14000.00000" pt_clust_6="35.00002"></scales>
<clustering>
<clus scale="   35.000">  2  6  1 -1</clus>
<clus scale="   67.761">  2  3  1 -1</clus>
<clus scale="   75.785">  1  4  2 -1</clus>
<clus scale="   75.785">  1  3  2 -1</clus>
</clustering>
</event>
<event>
 6    0  0.2839294E+002  0.8779321E+02  0.7546771E-02  0.1308285E+00
         -1   -1    0    0    0  501 -0.00000000000E+00  0.00000000000E+00  0.72125573169E+03  0.72125573169E+03  0.00000000000E+00 0. -1.
         21   -1    0    0  503  502  0.00000000000E+00 -0.00000000000E+00 -0.33473796619E+03  0.33473796619E+03  0.00000000000E+00 0.  1.
         21    1    1    2  503  504 -0.66459682990E+02 -0.57217338797E+02 -0.31368142809E+03  0.32570961247E+03  0.00000000000E+00 0.  1.
         21    1    1    2  504  505 -0.12333942412E+02 -0.43854297039E+02  0.18060882594E+03  0.18626559938E+03  0.00000000000E+00 0. -1.
         21    1    1    2  505  501  0.30075592680E+02  0.11071359818E+02  0.30178829974E+02  0.44021336439E+02  0.00000000000E+00 0. -1.
         -1    1    1    2    0  502  0.48718032722E+02  0.90000276018E+02  0.48941153768E+03  0.49999714960E+03  0.00000000000E+00 0. -1.
<scales pt_clust_3="14000.00000" pt_clust_4="41.10819" pt_clust_5="32.04865" pt_clust_6="87.79321"></scales>
<clustering>
<clus scale="   32.049">  1  5  2 -1</clus>
<clus scale="   41.108">  1  4  2 -1</clus>
<clus scale="   87.793">  1  6  2 -1</clus>
<clus scale="   87.793">  2  3  1 -1</clus>
</clustering>
</event>
<event>
 6    0  0.3355010E+003  0.9070243E+02  0.7546771E-02  0.1301160E+00
         21   -1    0    0  504  502  0.00000000000E+00  0.00000000000E+00  0.12527200321E+04  0.12527200321E+04  0.00000000000E+00 0.  1.
          2   -1    0    0  505    0 -0.00000000000E+00 -0.00000000000E+00 -0.17123281298E+04  0.17123281298E+04  0.00000000000E+00 0.  1.
         21    1    1    2  503  502 -0.74597250841E+02 -0.38871828740E+01  0.12161921653E+04  0.12184839937E+04  0.00000000000E+00 0.  1.
         21    1    1    2  504  501  0.44408324511E+02  0.62828500150E+01  0.15806551891E+01  0.44878413085E+02  0.00000000000E+00 0.  1.
         21    1    1    2  505  503 -0.63877899315E+02 -0.61357321099E+01 -0.84896240832E+02  0.10642088581E+03  0.00000000000E+00 0.  1.
          2    1    1    2  501    0  0.94066825646E+02  0.37400649690E+01 -0.15924846773E+04  0.15952648693E+04  0.00000000000E+00 0.  1.
<scales pt_clust_3="30.71663" pt_clust_4="44.85057" pt_clust_5="90.70243" pt_clust_6="14000.00000"></scales>
<clustering>
<clus scale="   44.851">  1  4  2 -1</clus>
<clus scale="   30.717">  1  3  2 -1</clus>
<clus scale="   90.702">  1  5  2 -1</clus>
<clus scale="   44.851">  1  3  2 -1</clus>
</clustering>
</event>
<event>
 6    0  0.2839294E+002  0.9882515E+02  0.7546771E-02  0.1282786E+00
          1   -1    0    0  503    0 -0.00000000000E+00  0.00000000000E+00  0.43459048469E+03  0.43459048469E+03  0.00000000000E+00 0. -1.
         21   -1    0    0  505  502  0.00000000000E+00 -0.00000000000E+00 -0.25583295797E+03  0.25583295797E+03  0.00000000000E+00 0.  1.
         21    1    1    2  503  502  0.12728901987E+03 -0.22556012786E+02 -0.10698068013E+03  0.16779789693E+03  0.00000000000E+00 0.  1.
         21    1    1    2  504  501 -0.44773484562E+02 -0.63071921631E+02  0.20157188802E+02  0.79931498662E+02  0.00000000000E+00 0. -1.
         21    1    1    2  505  504 -0.46311216545E+02 -0.79551005541E+01 -0.74520919126E+02  0.88098693464E+02  0.00000000000E+00 0.  1.
          1    1    1    2  501    0 -0.36204318763E+02  0.93583034971E+02  0.34010193717E+03  0.35459535361E+03  0.00000000000E+00 0. -1.
<scales pt_clust_3="14000.00000" pt_clust_4="83.24370" pt_clust_5="46.98949" pt_clust_6="98.82515"></scales>
<clustering>
<clus scale="   46.989">  2  5  1 -1</clus>
<clus scale="   83.244">  2  4  1 -1</clus>
<clus scale="   98.825">  1  6  2 -1</clus>
<clus scale="   46.989">  2  3  1 -1</clus>
</clustering>
</event>
<event>
 6    0  0.2839294E+002  0.7025239E+02  0.7546771E-02  0.1359237E+00
         21   -1    0    0  504  502  0.00000000000E+00  0.00000000000E+00  0.20939119600E+03  0.20939119600E+03  0.00000000000E+00 0. -1.
          1   -1    0    0  505    0 -0.00000000000E+00 -0.00000000000E+00 -0.85438212489E+03  0.85438212489E+03  0.00000000000E+00 0.  1.
         21    1    1    2  503  502  0.47434488226E+02 -0.48172912139E+01  0.20588650106E+02  0.51933895300E+02  0.00000000000E+00 0. -1.
         21    1    1    2  504  501 -0.60814928923E+02 -0.40977192279E+02  0.10775303793E+03  0.13033918463E+03  0.00000000000E+00 0. -1.
         21    1    1    2  505  503 -0.72297545044E+01  0.11175570740E+03 -0.71606496730E+01  0.11221801278E+03  0.00000000000E+00 0. -1.
          1    1    1    2  501    0  0.20610195201E+02 -0.65961223911E+02 -0.76617196725E+03  0.76928222819E+03  0.00000000000E+00 0.  1.
<scales pt_clust_3="47.67847" pt_clust_4="52.50449" pt_clust_5="70.25239" pt_clust_6="14000.00000"></scales>
<clustering>
<clus scale="   47.678">  1  3  2 -1</clus>
<clus scale="   52.504">  1  4  2 -1</clus>
<clus scale="   70.252">  1  5  2 -1</clus>
<clus scale="   47.678">  1  3  2 -1</clus>
</clustering>
</event>
<event>
 6    0  0.2839294E+002  0.7451649E+02  0.7546771E-02  0.1345375E+00
          1   -1    0    0  505    0 -0.00000000000E+00  0.00000000000E+00  0.56017348971E+03  0.56017348971E+03  0.00000000000E+00 0. -1.
         21   -1    0    0  504  502  0.00000000000E+00 -0.00000000000E+00 -0.32724194493E+03  0.32724194493E+03  0.00000000000E+00 0.  1.
         21    1    1    2  503  502 -0.46229942678E+02  0.69702728497E+01 -0.36372691067E+02  0.59234828936E+02  0.00000000000E+00 0.  1.
         21    1    1    2  504  501  0.84395791036E+02  0.57071723407E+02 -0.26333084528E+03  0.28235255486E+03  0.00000000000E+00 0.  1.
         21    1    1    2  505  503 -0.67716825420E+02 -0.33505415357E+02  0.37700119144E+03  0.38449717769E+03  0.00000000000E+00 0. -1.
          1    1    1    2  501    0  0.29550977061E+02 -0.30536580900E+02  0.15563388967E+03  0.16133087316E+03  0.00000000000E+00 0. -1.
<scales pt_clust_3="45.79724" pt_clust_4="74.51649" pt_clust_5="14000.00000" pt_clust_6="42.49404"></scales>
<clustering>
<clus scale="   42.494">  1  6  2 -1</clus>
<clus scale="   45.797">  2  3  1 -1</clus>
<clus scale="   74.516">  2  4  1 -1</clus>
<clus scale="   45.797">  2  3  1 -1</clus>
</clustering>
</event>
<event>
 6    0  0.2839294E+002  0.1176147E+03  0.7546771E-02  0.1247085E+00
         21   -1    0    0  504  502  0.00000000000E+00  0.00000000000E+00  0.11679784948E+03  0.11679784948E+03  0.00000000000E+00 0.  1.
          2   -1    0    0  505    0 -0.00000000000E+00 -0.00000000000E+00 -0.29409125446E+04  0.29409125446E+04  0.00000000000E+00 0. -1.
         21    1    1    2  503  502 -0.76987389110E+02  0.16475383197E+02  0.81215661789E+02  0.11311268741E+03  0.00000000000E+00 0.  1.
         21    1    1    2  504  501  0.18366220635E+03 -0.45600394017E+02 -0.50968357744E+03  0.54368055978E+03  0.00000000000E+00 0.  1.
         21    1    1    2  505  503 -0.29111892033E+02 -0.96163157484E+01 -0.12826287578E+03  0.13187623398E+03  0.00000000000E+00 0. -1.
          2    1    1    2  501    0 -0.77562925205E+02  0.38741326568E+02 -0.22673839037E+04  0.22690409129E+04  0.00000000000E+00 0. -1.
<scales pt_clust_3="78.88068" pt_clust_4="117.61472" pt_clust_5="30.65902" pt_clust_6="14000.00000"></scales>
<clustering>
<clus scale="   30.659">  2  5  1 -1</clus>
<clus scale="   78.881">  1  3  2 -1</clus>
<clus scale="  117.615">  1  4  2 -1</clus>
<clus scale="   78.881">  1  3  2 -1</clus>
</clustering>
</event>
<event>
 6    0  0.2839294E+002  0.1447456E+03  0.7546771E-02  0.1207082E+00
         21   -1    0    0  501  502  0.00000000000E+00  0.00000000000E+00  0.77593217307E+02  0.77593217307E+02  0.00000000000E+00 0. -1.
          2   -1    0    0  503    0 -0.00000000000E+00 -0.00000000000E+00 -0.28162144612E+04  0.28162144612E+04  0.00000000000E+00 0. -1.
         21    1    1    2  503  505  0.50913554935E+02  0.92250872843E+02 -0.52068682622E+03  0.53124117369E+03  0.00000000000E+00 0.  1.
         21    1    1    2  504  502 -0.12404676324E+02  0.45974058445E+02  0.20104440250E+01  0.47660590950E+02  0.00000000000E+00 0. -1.
         21    1    1    2  505  504 -0.12022745682E+03  0.24590376648E+02 -0.42520579015E+02  0.12987427627E+03  0.00000000000E+00 0. -1.
          2    1    1    2  501    0  0.81718578207E+02 -0.16281530794E+03 -0.21774242826E+04  0.21850316376E+04  0.00000000000E+00 0. -1.
<scales pt_clust_3="108.84488" pt_clust_4="47.61817" pt_clust_5="144.74556" pt_clust_6="14000.00000"></scales>
<clustering>
<clus scale="   47.618">  1  4  2 -1</clus>
<clus scale="  108.845">  2  3  1 -1</clus>
<clus scale="  144.746">  1  5  2 -1</clus>
<clus scale="   47.618">  1  3  2 -1</clus>
</clustering>
</event>
<event>
 6    0  0.2839294E+002  0.1199394E+03  0.7546771E-02  0.1243197E+00
         21   -1    0    0  504  502  0.00000000000E+00  0.00000000000E+00  0.92683470946E+03  0.92683470946E+03  0.00000000000E+00 0. -1.
          2   -1    0    0  503    0 -0.00000000000E+00 -0.00000000000E+00 -0.10673148523E+04  0.10673148523E+04  0.00000000000E+00 0.  1.
         21    1    1    2  503  502 -0.47263463110E+02 -0.21403243941E+02  0.64358464191E+02  0.82667682376E+02  0.00000000000E+00 0. -1.
         21    1    1    2  504  505  0.12306060828E+02  0.13904553772E+03  0.84230264072E+03  0.85379086389E+03  0.00000000000E+00 0. -1.
         21    1    1    2  505  501  0.11329221741E+02 -0.66284347656E+02 -0.26113332246E+03  0.26965269905E+03  0.00000000000E+00 0. -1.
          2    1    1    2  501    0  0.23628180541E+02 -0.51357946127E+02 -0.78600792527E+03  0.78803831641E+03  0.00000000000E+00 0.  1.
<scales pt_clust_3="51.88385" pt_clust_4="119.93936" pt_clust_5="14000.00000" pt_clust_6="56.53222"></scales>
<clustering>
<clus scale="   51.884">  1  3  2 -1</clus>
<clus scale="   56.532">  2  6  1 -1</clus>
<clus scale="  119.939">  1  4  2 -1</clus>
<clus scale="   51.884">  1  3  2 -1</clus>
</clustering>
</event>
<event>
 6    0  0.2839294E+002  0.8531077E+02  0.7546771E-02  0.1314622E+00
          1   -1    0    0  505    0 -0.00000000000E+00  0.00000000000E+00  0.57999133319E+02  0.57999133319E+02  0.00000000000E+00 0.  1.
         21   -1    0    0  503  502  0.00000000000E+00 -0.00000000000E+00 -0.13572632485E+04  0.13572632485E+04  0.00000000000E+00 0.  1.
         21    1    1    2  503  501 -0.41854961686E+02  0.49932827701E+01 -0.33289741694E+01  0.42283007930E+02  0.00000000000E+00 0.  1.
         21    1    1    2  504  502 -0.54584573664E+02 -0.48772763589E+02 -0.53837013441E+03  0.54332371546E+03  0.00000000000E+00 0.  1.
         21    1    1    2  505  504  0.12965899818E+03  0.62209846470E+02 -0.77473260049E+03  0.78796708248E+03  0.00000000000E+00 0.  1.
          1    1    1    2  501    0 -0.33219462828E+02 -0.18430365651E+02  0.17167593861E+02  0.41688575984E+02  0.00000000000E+00 0.  1.
<scales pt_clust_3="30.65955" pt_clust_4="73.20012" pt_clust_5="78.96158" pt_clust_6="30.65955"></scales>
<clustering>
<clus scale="   30.660">  3  6 -1 -1</clus>
<clus scale="   73.200">  2  4  1 -1</clus>
<clus scale="   78.962">  2  5  1 -1</clus>
<clus scale="   73.200">  2  3  1 -1</clus>
</clustering>
</event>
<event>
 6    0  0.2839294E+002  0.2424590E+03  0.7546771E-02  0.1118166E+00
         21   -1    0    0  505  502  0.00000000000E+00  0.00000000000E+00  0.47633733699E+03  0.47633733699E+03  0.00000000000E+00 0. -1.
          1   -1    0    0  502    0 -0.00000000000E+00 -0.00000000000E+00 -0.50687017945E+03  0.50687017945E+03  0.00000000000E+00 0. -1.
         21    1    1    2  503  504  0.79415882608E+02 -0.17069836049E+03  0.32307235976E+03  0.37392587811E+03  0.00000000000E+00 0. -1.
         21    1    1    2  504  501 -0.92212546516E+02  0.15771893720E+03 -0.29023982651E+03  0.34295418612E+03  0.00000000000E+00 0. -1.
         21    1    1    2  505  503  0.53180187722E+02 -0.10360646651E+02  0.90538073728E+02  0.10551122291E+03  0.00000000000E+00 0.  1.
          1    1    1    2  501    0 -0.40383523814E+02  0.23340069947E+02 -0.15390344943E+03  0.16081622930E+03  0.00000000000E+00 0. -1.
<scales pt_clust_3="49.23181" pt_clust_4="39.64815" pt_clust_5="49.23181" pt_clust_6="237.74226"></scales>
<clustering>
<clus scale="   39.648">  4  6 -1 -1</clus>
<clus scale="   49.232">  3  5 -1 -1</clus>
<clus scale="  237.742">  2  4  1 -1</clus>
<clus scale="  242.459">  1  3  2 -1</clus>
</clustering>
</event>
<event>
 6    0  0.2839294E+002  0.9647413E+02  0.7546771E-02  0.1287890E+00
         21   -1    0    0  505  502  0.00000000000E+00  0.00000000000E+00  0.58891267194E+03  0.58891267194E+03  0.00000000000E+00 0.  1.
          1   -1    0    0  504    0 -0.00000000000E+00 -0.00000000000E+00 -0.31194515446E+03  0.31194515446E+03  0.00000000000E+00 0.  1.
         21    1    1    2  503  502  0.77148330374E+02  0.72476655884E+02  0.88484699321E+02  0.13796475108E+03  0.00000000000E+00 0.  1.
         21    1    1    2  504  503  0.40942103735E+02  0.10060072685E+02 -0.40111242726E+02  0.58192548610E+02  0.00000000000E+00 0. -1.
         21    1    1    2  505  501 -0.62879478133E+02  0.22133367888E+02  0.44932795049E+03  0.45424588257E+03  0.00000000000E+00 0.  1.
          1    1    1    2  501    0 -0.55210955976E+02 -0.10467009646E+03 -0.22073388959E+03  0.25045464413E+03  0.00000000000E+00 0.  1.
<scales pt_clust_3="96.47413" pt_clust_4="42.15994" pt_clust_5="66.33144" pt_clust_6="14000.00000"></scales>
<clustering>
<clus scale="   42.160">  2  4  1 -1</clus>
<clus scale="   66.331">  1  5  2 -1</clus>
<clus scale="   96.474">  1  3  2 -1</clus>
<clus scale="   66.331">  1  3  2 -1</clus>
</clustering>
</event>
<event>
 6    0  0.2839294E+002  0.9813191E+02  0.7546771E-02  0.1284274E+00
         -2   -1    0    0    0  501 -0.00000000000E+00  0.00000000000E+00  0.19334891922E+03  0.19334891922E+03  0.00000000000E+00 0. -1.
         21   -1    0    0  504  502  0.00000000000E+00 -0.00000000000E+00 -0.10798560120E+04  0.10798560120E+04  0.00000000000E+00 0. -1.
         21    1    1    2  503  502 -0.17653205273E+02 -0.83899177612E+02 -0.76673489801E+03  0.77151351997E+03  0.00000000000E+00 0. -1.
         21    1    1    2  504  501 -0.69786868693E+02  0.20880249318E+02 -0.27667166585E+03  0.28610033649E+03  0.00000000000E+00 0. -1.
         21    1    1    2  505  503  0.63248729489E+02  0.21300952130E+02  0.18834151068E+02  0.69345926989E+02  0.00000000000E+00 0. -1.
         -2    1    1    2    0  505  0.24191344478E+02  0.41717976164E+02  0.13806531997E+03  0.14624514782E+03  0.00000000000E+00 0. -1.
<scales pt_clust_3="98.13191" pt_clust_4="71.94034" pt_clust_5="14000.00000" pt_clust_6="48.22459"></scales>
<clustering>
<clus scale="   48.225">  1  6  2 -1</clus>
<clus scale="   71.940">  2  4  1 -1</clus>
<clus scale="   98.132">  2  3  1 -1</clus>
<clus scale="   71.940">  2  3  1 -1</clus>
</clustering>
</event>
<event>
 6    0  0.2839294E+002  0.1022977E+03  0.7546771E-02  0.1275537E+00
         21   -1    0    0  504  502  0.00000000000E+00  0.00000000000E+00  0.18809202112E+03  0.18809202112E+03  0.00000000000E+00 0.  1.
          2   -1    0    0  503    0 -0.00000000000E+00 -0.00000000000E+00 -0.77718547682E+03  0.77718547682E+03  0.00000000000E+00 0.  1.
         21    1    1    2  503  505  0.20297667710E+02 -0.93173836074E+02 -0.11973790388E+03  0.15307032589E+03  0.00000000000E+00 0.  1.
         21    1    1    2  504  501 -0.36422108712E+02  0.93370357363E+01  0.14748179841E+03  0.15219931374E+03  0.00000000000E+00 0.  1.
         21    1    1    2  505  502  0.47195559789E+02 -0.15682184279E+02 -0.19144600882E+02  0.53290407303E+02  0.00000000000E+00 0.  1.
          2    1    1    2  501    0 -0.31071118787E+02  0.99518984616E+02 -0.59769274935E+03  0.60671745100E+03  0.00000000000E+00 0.  1.
<scales pt_clust_3="14000.00000" pt_clust_4="37.59987" pt_clust_5="33.01244" pt_clust_6="102.29768"></scales>
<clustering>
<clus scale="   37.600">  1  4  2 -1</clus>
<clus scale="   33.012">  1  5  2 -1</clus>
<clus scale="  102.298">  2  6  1 -1</clus>
<clus scale="   37.600">  1  3  2 -1</clus>
</clustering>
</event>
<event>
 6    0  0.2839294E+002  0.2303598E+03  0.7546771E-02  0.1126387E+00
         21   -1    0    0  503  502  0.00000000000E+00  0.00000000000E+00  0.23318175994E+03  0.23318175994E+03  0.00000000000E+00 0.  1.
          2   -1    0    0  505    0 -0.00000000000E+00 -0.00000000000E+00 -0.11804884876E+04  0.11804884876E+04  0.00000000000E+00 0. -1.
         21    1    1    2  503  504 -0.65697283689E+02  0.16230023268E+02  0.42018091600E+01  0.67802669119E+02  0.00000000000E+00 0.  1.
         21    1    1    2  504  501 -0.11602147624E+03  0.10824715361E+03  0.12576540636E+03  0.20247312575E+03  0.00000000000E+00 0.  1.
         21    1    1    2  505  502  0.19795495040E+02 -0.14800313183E+03 -0.19253481262E+03  0.24365229883E+03  0.00000000000E+00 0. -1.
          2    1    1    2  501    0  0.16192326489E+03  0.23525954957E+02 -0.88473913058E+03  0.89974215387E+03  0.00000000000E+00 0. -1.
<scales pt_clust_3="57.08615" pt_clust_4="57.08615" pt_clust_5="149.32109" pt_clust_6="213.13001"></scales>
<clustering>
<clus scale="   57.086">  3  4 -1 -1</clus>
<clus scale="  149.321">  2  5  1 -1</clus>
<clus scale="  213.130">  2  6  1 -1</clus>
<clus scale="  230.360">  1  3  2 -1</clus>
</clustering>
</event>
<event>
 6    0  0.2839294E+002  0.1466640E+03  0.7546771E-02  0.1204633E+00
         21   -1    0    0  505  502  0.00000000000E+00  0.00000000000E+00  0.33670596006E+03  0.33670596006E+03  0.00000000000E+00 0. -1.
          3   -1    0    0  503    0 -0.00000000000E+00 -0.00000000000E+00 -0.17394572418E+03  0.17394572418E+03  0.00000000000E+00 0. -1.
         21    1    1    2  503  504 -0.84594282599E+02  0.89287829805E+02 -0.54913496616E+02  0.13469967079E+03  0.00000000000E+00 0. -1.
         21    1    1    2  504  502  0.35852262505E+02  0.89281211446E+02  0.13018801598E+03  0.16188094066E+03  0.00000000000E+00 0. -1.
         21    1    1    2  505  501  0.37735189063E+02 -0.13783305961E+03  0.94458841457E+02  0.17130198348E+03  0.00000000000E+00 0. -1.
          3    1    1    2  501    0  0.11006831031E+02 -0.40735981640E+02 -0.69731249368E+01  0.42769089316E+02  0.00000000000E+00 0. -1.
<scales pt_clust_3="132.66633" pt_clust_4="96.21081" pt_clust_5="33.97844" pt_clust_6="33.97844"></scales>
<clustering>
<clus scale="   33.978">  5  6 -1 -1</clus>
<clus scale="   96.211">  1  4  2 -1</clus>
<clus scale="  132.666">  2  3  1 -1</clus>
<clus scale="   96.211">  1  3  2 -1</clus>
</clustering>
</event>
<event>
 6    0  0.2839294E+002  0.1302254E+03  0.7546771E-02  0.1227122E+00
          2   -1    0    0  505    0 -0.00000000000E+00  0.00000000000E+00  0.25326857486E+03  0.25326857486E+03  0.00000000000E+00 0. -1.
         21   -1    0    0  504  502  0.00000000000E+00 -0.00000000000E+00 -0.14164994733E+03  0.14164994733E+03  0.00000000000E+00 0.  1.
         21    1    1    2  503  501 -0.41374700748E+02  0.69227567191E+02  0.71647275142E+02  0.10787795862E+03  0.00000000000E+00 0. -1.
         21    1    1    2  504  503  0.11209047731E+02  0.36105493224E+02 -0.30267268922E+02  0.48428885595E+02  0.00000000000E+00 0. -1.
         21    1    1    2  505  502  0.59706171683E+02 -0.12583872680E+03 -0.20706387078E+02  0.14081536338E+03  0.00000000000E+00 0.  1.
          2    1    1    2  501    0 -0.29540518666E+02  0.20505666380E+02  0.90945008390E+02  0.97796314592E+02  0.00000000000E+00 0. -1.
<scales pt_clust_3="35.23657" pt_clust_4="37.80541" pt_clust_5="119.05474" pt_clust_6="35.23657"></scales>
<clustering>
<clus scale="   35.237">  3  6 -1 -1</clus>
<clus scale="   37.805">  2  4  1 -1</clus>
<clus scale="  119.055">  2  5  1 -1</clus>
<clus scale="   37.805">  2  3  1 -1</clus>
</clustering>
</event>
<event>
 6    0  0.2839294E+002  0.8050168E+02  0.7546771E-02  0.1327634E+00
         21   -1    0    0  503  502  0.00000000000E+00  0.00000000000E+00  0.62188372917E+02  0.62188372917E+02  0.00000000000E+00 0.  1.
          2   -1    0    0  505    0 -0.00000000000E+00 -0.00000000000E+00 -0.17244149542E+04  0.17244149542E+04  0.00000000000E+00 0.  1.
         21    1    1    2  503  501  0.35448224209E+02  0.47640266720E+02 -0.66177104584E+03  0.66442989753E+03  0.00000000000E+00 0.  1.
         21    1    1    2  504  502 -0.24727154165E+02  0.41011107178E+02  0.32226042308E+02  0.57722273586E+02  0.00000000000E+00 0.  1.
         21    1    1    2  505  504  0.14232154327E+02 -0.12251932655E+03 -0.23273465093E+03  0.26339885600E+03  0.00000000000E+00 0.  1.
          2    1    1    2  501    0 -0.24953224372E+02  0.33867952655E+02 -0.79994692682E+03  0.80105230001E+03  0.00000000000E+00 0.  1.
<scales pt_clust_3="80.50168" pt_clust_4="48.46686" pt_clust_5="14000.00000" pt_clust_6="42.06782"></scales>
<clustering>
<clus scale="   42.068">  2  6  1 -1</clus>
<clus scale="   48.467">  1  4  2 -1</clus>
<clus scale="   80.502">  2  3  1 -1</clus>
<clus scale="   48.467">  1  3  2 -1</clus>
</clustering>
</event>
<event>
 6    0  0.2839294E+002  0.8297555E+02  0.7546771E-02  0.1320813E+00
          3   -1    0    0  505    0 -0.00000000000E+00  0.00000000000E+00  0.81289992487E+03  0.81289992487E+03  0.00000000000E+00 0.  1.
         21   -1    0    0  504  502  0.00000000000E+00 -0.00000000000E+00 -0.54747942784E+02  0.54747942784E+02  0.00000000000E+00 0.  1.
         21    1    1    2  503  501  0.72388692681E+02 -0.35546135286E+02  0.27294367850E+03  0.28460833122E+03  0.00000000000E+00 0.  1.
         21    1    1    2  504  503  0.50235681291E+02 -0.13026705962E+02  0.20289698514E+02  0.55722442595E+02  0.00000000000E+00 0.  1.
         21    1    1    2  505  502 -0.61767550188E+02 -0.12896625688E+02  0.95646908409E+01  0.63820345668E+02  0.00000000000E+00 0.  1.
          3    1    1    2  501    0 -0.60856823784E+02  0.61469466936E+02  0.45535391423E+03  0.46349674818E+03  0.00000000000E+00 0.  1.
<scales pt_clust_3="82.97555" pt_clust_4="51.89719" pt_clust_5="33.56899" pt_clust_6="14000.00000"></scales>
<clustering>
<clus scale="   51.897">  2  4  1 -1</clus>
<clus scale="   33.569">  2  5  1 -1</clus>
<clus scale="   82.976">  2  3  1 -1</clus>
<clus scale="   51.897">  2  3  1 -1</clus>
</clustering>
</event>
<event>
 6    0  0.2839294E+002  0.6325483E+02  0.7546771E-02  0.1384659E+00
         -3   -1    0    0    0  501 -0.00000000000E+00  0.00000000000E+00  0.19591356948E+03  0.19591356948E+03  0.00000000000E+00 0.  1.
         21   -1    0    0  504  502  0.00000000000E+00 -0.00000000000E+00 -0.13802221923E+04  0.13802221923E+04  0.00000000000E+00 0.  1.
         21    1    1    2  503  502  0.54575086255E+02  0.70274147476E+02 -0.12877785927E+03  0.15652678007E+03  0.00000000000E+00 0. -1.
         21    1    1    2  504  505 -0.29562254171E+02 -0.45861343664E+02 -0.11906336791E+04  0.11918832777E+04  0.00000000000E+00 0.  1.
         21    1    1    2  505  501 -0.82600847233E+02 -0.48957282249E+01  0.35753737377E+01  0.82823012598E+02  0.00000000000E+00 0. -1.
         -3    1    1    2    0  503  0.57588015149E+02 -0.19517075587E+02  0.13152754183E+03  0.14490269145E+03  0.00000000000E+00 0.  1.
<scales pt_clust_3="48.07994" pt_clust_4="54.56363" pt_clust_5="63.25483" pt_clust_6="14000.00000"></scales>
<clustering>
<clus scale="   54.564">  2  4  1 -1</clus>
<clus scale="   48.080">  2  3  1 -1</clus>
<clus scale="   63.255">  2  5  1 -1</clus>
<clus scale="   54.564">  2  3  1 -1</clus>
</clustering>
</event>
<event>
 6    0  0.2839294E+002  0.7061840E+02  0.7546771E-02  0.1358003E+00
         21   -1    0    0  501  502  0.00000000000E+00  0.00000000000E+00  0.46353335943E+02  0.46353335943E+02  0.00000000000E+00 0. -1.
          2   -1    0    0  505    0 -0.00000000000E+00 -0.00000000000E+00 -0.29139811781E+04  0.29139811781E+04  0.00000000000E+00 0. -1.
         21    1    1    2  503  504 -0.54636524148E+02  0.72562052930E+02 -0.36160175001E+03  0.37283538848E+03  0.00000000000E+00 0.  1.
         21    1    1    2  504  502  0.46803543702E+02 -0.80591999683E+01  0.24708544683E+02  0.53535358293E+02  0.00000000000E+00 0. -1.
         21    1    1    2  505  503  0.25950107409E+02  0.23522968438E+02 -0.48935390059E+03  0.49060572575E+03  0.00000000000E+00 0.  1.
          2    1    1    2  501    0 -0.18117126963E+02 -0.88025821400E+02 -0.20413807362E+04  0.20433580415E+04  0.00000000000E+00 0. -1.
<scales pt_clust_3="14000.00000" pt_clust_4="47.62095" pt_clust_5="35.02482" pt_clust_6="70.61840"></scales>
<clustering>
<clus scale="   35.025">  2  5  1 -1</clus>
<clus scale="   47.621">  1  4  2 -1</clus>
<clus scale="   70.618">  2  6  1 -1</clus>
<clus scale="   47.621">  1  3  2 -1</clus>
</clustering>
</event>
<event>
 6    0  0.2839294E+002  0.5535931E+02  0.7546771E-02  0.1418407E+00
          2   -1    0    0  502    0 -0.00000000000E+00  0.00000000000E+00  0.32649077797E+04  0.32649077797E+04  0.00000000000E+00 0.  1.
         21   -1    0    0  504  502  0.00000000000E+00 -0.00000000000E+00 -0.71744098932E+03  0.71744098932E+03  0.00000000000E+00 0.  1.
         21    1    1    2  503  505 -0.14914876762E+02 -0.78592084980E+02 -0.57725340655E+03  0.58276982141E+03  0.00000000000E+00 0.  1.
         21    1    1    2  504  503 -0.96805947565E+01  0.31816417188E+02 -0.11176342867E+03  0.11660644196E+03  0.00000000000E+00 0.  1.
         21    1    1    2  505  501  0.24874646210E+02  0.97578889370E+02  0.86992700705E+02  0.13307185146E+03  0.00000000000E+00 0.  1.
          2    1    1    2  501    0 -0.27917469213E+00 -0.50803221579E+02  0.31494909249E+04  0.31499006542E+04  0.00000000000E+00 0.  1.
<scales pt_clust_3="55.35931" pt_clust_4="33.25655" pt_clust_5="14000.00000" pt_clust_6="50.79320"></scales>
<clustering>
<clus scale="   33.257">  2  4  1 -1</clus>
<clus scale="   50.793">  1  6  2 -1</clus>
<clus scale="   55.359">  2  3  1 -1</clus>
<clus scale="   33.257">  2  3  1 -1</clus>
</clustering>
</event>
<event>
 6    0  0.2839294E+002  0.8907312E+02  0.7546771E-02  0.1305112E+00
         21   -1    0    0  505  502  0.00000000000E+00  0.00000000000E+00  0.54542597850E+02  0.54542597850E+02  0.00000000000E+00 0.  1.
          2   -1    0    0  504    0 -0.00000000000E+00 -0.00000000000E+00 -0.54135699979E+03  0.54135699979E+03  0.00000000000E+00 0. -1.
         21    1    1    2  503  502 -0.11709709014E+03  0.24204506689E+02 -0.16541615244E+03  0.20410803549E+03  0.00000000000E+00 0.  1.
         21    1    1    2  504  503  0.38573989726E+02  0.15001412736E+02 -0.59197437989E+02  0.72231099479E+02  0.00000000000E+00 0.  1.
         21    1    1    2  505  501  0.19759363384E+02 -0.40541380740E+02  0.55438579711E+01  0.45439744221E+02  0.00000000000E+00 0.  1.
          2    1    1    2  501    0  0.58763737034E+02  0.13354613144E+01 -0.26774466948E+03  0.27412071844E+03  0.00000000000E+00 0. -1.
<scales pt_clust_3="14000.00000" pt_clust_4="41.38834" pt_clust_5="45.27657" pt_clust_6="89.07312"></scales>
<clustering>
<clus scale="   41.388">  2  4  1 -1</clus>
<clus scale="   45.277">  1  5  2 -1</clus>
<clus scale="   89.073">  2  6  1 -1</clus>
<clus scale="   45.277">  1  3  2 -1</clus>
</clustering>
</event>
<event>
 6    0  0.2839294E+002  0.5242118E+02  0.7546771E-02  0.1432703E+00
          2   -1    0    0  504    0 -0.00000000000E+00  0.00000000000E+00  0.52126556829E+03  0.52126556829E+03  0.00000000000E+00 0. -1.
         21   -1    0    0  503  502  0.00000000000E+00 -0.00000000000E+00 -0.87696671746E+03  0.87696671746E+03  0.00000000000E+00 0. -1.
         21    1    1    2  503  505 -0.37983055770E+02  0.22102332163E+02 -0.61856795475E+02  0.75878117788E+02  0.00000000000E+00 0. -1.
         21    1    1    2  504  502  0.79400826382E+02 -0.24723571648E+02 -0.79385955820E+03  0.79820344798E+03  0.00000000000E+00 0. -1.
         21    1    1    2  505  501 -0.88076434610E+02  0.35507326823E+01  0.17650561100E+03  0.19729241433E+03  0.00000000000E+00 0.  1.
          2    1    1    2  501    0  0.46658663998E+02 -0.92949319709E+00  0.32350959350E+03  0.32685830565E+03  0.00000000000E+00 0. -1.
<scales pt_clust_3="43.94571" pt_clust_4="42.08859" pt_clust_5="14000.00000" pt_clust_6="52.42118"></scales>
<clustering>
<clus scale="   43.946">  2  3  1 -1</clus>
<clus scale="   42.089">  2  4  1 -1</clus>
<clus scale="   52.421">  1  6  2 -1</clus>
<clus scale="   43.946">  2  3  1 -1</clus>
</clustering>
</event>
<event>
 6    0  0.2839294E+002  0.9138617E+02  0.7546771E-02  0.1299529E+00
         -2   -1    0    0    0  501 -0.00000000000E+00  0.00000000000E+00  0.23578633437E+04  0.23578633437E+04  0.00000000000E+00 0. -1.
         21   -1    0    0  503  502  0.00000000000E+00 -0.00000000000E+00 -0.12123968563E+03  0.12123968563E+03  0.00000000000E+00 0.  1.
         21    1    1    2  503  501 -0.10741307689E+03  0.10987412051E+03 -0.36611861912E+02  0.15795670254E+03  0.00000000000E+00 0.  1.
         21    1    1    2  504  502  0.66403207030E+02 -0.31758507624E+02  0.46538699464E+02  0.87085241334E+02  0.00000000000E+00 0.  1.
         21    1    1    2  505  504  0.11773415966E+02 -0.10394031342E+03  0.79738322073E+03  0.80421527142E+03  0.00000000000E+00 0.  1.
         -2    1    1    2    0  505  0.29236453892E+02  0.25824700537E+02  0.14293135998E+04  0.14298458141E+04  0.00000000000E+00 0. -1.
<scales pt_clust_3="91.38617" pt_clust_4="74.74805" pt_clust_5="14000.00000" pt_clust_6="39.00879"></scales>
<clustering>
<clus scale="   39.009">  1  6  2 -1</clus>
<clus scale="   74.748">  2  4  1 -1</clus>
<clus scale="   91.386">  2  3  1 -1</clus>
<clus scale="   74.748">  2  3  1 -1</clus>
</clustering>
</event>
<event>
 6    0  0.2839294E+002  0.9224000E+02  0.7546771E-02  0.1297516E+00
         21   -1    0    0  505  502  0.00000000000E+00  0.00000000000E+00  0.42986386970E+03  0.42986386970E+03  0.00000000000E+00 0. -1.
          1   -1    0    0  504    0 -0.00000000000E+00 -0.00000000000E+00 -0.75768053291E+03  0.75768053291E+03  0.00000000000E+00 0. -1.
         21    1    1    2  503  501  0.80522231279E+00  0.71420318978E+02 -0.21037536788E+03  0.22216954282E+03  0.00000000000E+00 0. -1.
         21    1    1    2  504  502 -0.14845578699E+02  0.30191698510E+02  0.40301380569E+03  0.40441569881E+03  0.00000000000E+00 0. -1.
         21    1    1    2  505  503  0.44192323758E+02 -0.11769686250E+03 -0.18444800518E+03  0.22321868098E+03  0.00000000000E+00 0. -1.
          1    1    1    2  501    0 -0.30151967371E+02  0.16084845016E+02 -0.33600709584E+03  0.33774048000E+03  0.00000000000E+00 0. -1.
<scales pt_clust_3="14000.00000" pt_clust_4="33.64417" pt_clust_5="92.24000" pt_clust_6="35.08519"></scales>
<clustering>
<clus scale="   33.644">  1  4  2 -1</clus>
<clus scale="   35.085">  2  6  1 -1</clus>
<clus scale="   92.240">  1  5  2 -1</clus>
<clus scale="   33.644">  1  3  2 -1</clus>
</clustering>
</event>
<event>
 6    0  0.2839294E+002  0.1437369E+03  0.7546771E-02  0.1208387E+00
          2   -1    0    0  504    0 -0.00000000000E+00  0.00000000000E+00  0.28123884580E+04  0.28123884580E+04  0.00000000000E+00 0.  1.
         21   -1    0    0  503  502  0.00000000000E+00 -0.00000000000E+00 -0.41778371651E+02  0.41778371651E+02  0.00000000000E+00 0. -1.
         21    1    1    2  503  501 -0.59094561148E+01 -0.77312671858E+02  0.94569524646E+03  0.94886862636E+03  0.00000000000E+00 0. -1.
         21    1    1    2  504  505  0.11353982294E+03  0.35686621380E+02  0.31004821802E+03  0.33210649472E+03  0.00000000000E+00 0. -1.
         21    1    1    2  505  502 -0.56715444619E+02  0.88117728829E+02  0.68525892074E+02  0.12520852078E+03  0.00000000000E+00 0. -1.
          2    1    1    2  501    0 -0.50914922209E+02 -0.46491678351E+02  0.14463407298E+04  0.14479831878E+04  0.00000000000E+00 0.  1.
<scales pt_clust_3="63.29905" pt_clust_4="127.09962" pt_clust_5="104.79206" pt_clust_6="63.29905"></scales>
<clustering>
<clus scale="   63.299">  3  6 -1 -1</clus>
<clus scale="  104.792">  2  5  1 -1</clus>
<clus scale="  127.100">  2  4  1 -1</clus>
<clus scale="  104.792">  2  3  1 -1</clus>
</clustering>
</event>
<event>
 6    0  0.2839294E+002  0.5660395E+02  0.7546771E-02  0.1412662E+00
         21   -1    0    0  505  502  0.00000000000E+00  0.00000000000E+00  0.10648543232E+04  0.10648543232E+04  0.00000000000E+00 0. -1.
          2   -1    0    0  504    0 -0.00000000000E+00 -0.00000000000E+00 -0.21864747479E+04  0.21864747479E+04  0.00000000000E+00 0. -1.
         21    1    1    2  503  502  0.43833295666E+01 -0.40344766032E+02  0.31947297426E+03  0.32204020712E+03  0.00000000000E+00 0. -1.
         21    1    1    2  504  503 -0.54713723113E+02 -0.70655462225E+01 -0.13873644846E+03  0.14930276478E+03  0.00000000000E+00 0.  1.
         21    1    1    2  505  501 -0.57180134343E+02  0.19885891707E+02  0.73606248805E+03  0.73854790147E+03  0.00000000000E+00 0. -1.
          2    1    1    2  501    0  0.10751052789E+03  0.27524420548E+02 -0.20384194385E+04  0.20414381976E+04  0.00000000000E+00 0. -1.
<scales pt_clust_3="40.58218" pt_clust_4="55.17462" pt_clust_5="14000.00000" pt_clust_6="56.60395"></scales>
<clustering>
<clus scale="   40.582">  1  3  2 -1</clus>
<clus scale="   55.175">  2  4  1 -1</clus>
<clus scale="   56.604">  2  6  1 -1</clus>
<clus scale="   40.582">  1  3  2 -1</clus>
</clustering>
</event>
<event>
 6    0  0.2839294E+002  0.1060493E+03  0.7546771E-02  0.1268066E+00
          2   -1    0    0  503    0 -0.00000000000E+00  0.00000000000E+00  0.21642551347E+04  0.21642551347E+04  0.00000000000E+00 0. -1.
         21   -1    0    0  505  502  0.00000000000E+00 -0.00000000000E+00 -0.17020576337E+03  0.17020576337E+03  0.00000000000E+00 0.  1.
         21    1    1    2  503  504 -0.79256780753E+02  0.29353623292E+02  0.71122385144E+03  0.71622806378E+03  0.00000000000E+00 0. -1.
         21    1    1    2  504  502 -0.37879349243E+02 -0.15533436121E+02 -0.16266694934E+02  0.44053809153E+02  0.00000000000E+00 0.  1.
         21    1    1    2  505  501  0.16813955438E+01  0.54081212955E+02 -0.12896427581E+03  0.13985488594E+03  0.00000000000E+00 0.  1.
          2    1    1    2  501    0  0.11545473445E+03 -0.67901400126E+02  0.14280564906E+04  0.14343241392E+04  0.00000000000E+00 0. -1.
<scales pt_clust_3="106.04928" pt_clust_4="40.94060" pt_clust_5="52.31416" pt_clust_6="14000.00000"></scales>
<clustering>
<clus scale="   40.941">  2  4  1 -1</clus>
<clus scale="   52.314">  2  5  1 -1</clus>
<clus scale="  106.049">  1  3  2 -1</clus>
<clus scale="   40.941">  2  3  1 -1</clus>
</clustering>
</event>
<event>
 6    0  0.2839294E+002  0.1652309E+03  0.7546771E-02  0.1182915E+00
         21   -1    0    0  503  502  0.00000000000E+00  0.00000000000E+00  0.21209322523E+03  0.21209322523E+03  0.00000000000E+00 0.  1.
          2   -1    0    0  504    0 -0.00000000000E+00 -0.00000000000E+00 -0.13786007806E+04  0.13786007806E+04  0.00000000000E+00 0.  1.
         21    1    1    2  503  501  0.47082566348E+01 -0.45471283933E+02  0.83923230738E+02  0.95566280667E+02  0.00000000000E+00 0.  1.
         21    1    1    2  504  505 -0.64118558003E+02 -0.56768591599E+02 -0.19028998890E+03  0.20867233249E+03  0.00000000000E+00 0. -1.
         21    1    1    2  505  502  0.16273974877E+03  0.16758268113E+02  0.47790405601E+02  0.17043763741E+03  0.00000000000E+00 0.  1.
          2    1    1    2  501    0 -0.10332944740E+03  0.85481607419E+02 -0.11079312028E+04  0.11160177553E+04  0.00000000000E+00 0.  1.
<scales pt_clust_3="45.71439" pt_clust_4="87.68201" pt_clust_5="165.23091" pt_clust_6="14000.00000"></scales>
<clustering>
<clus scale="   45.714">  1  3  2 -1</clus>
<clus scale="   87.682">  2  4  1 -1</clus>
<clus scale="  165.231">  1  5  2 -1</clus>
<clus scale="   45.714">  1  3  2 -1</clus>
</clustering>
</event>
<event>
 6    0  0.2839294E+002  0.6615613E+02  0.7546771E-02  0.1373675E+00
          1   -1    0    0  503    0 -0.00000000000E+00  0.00000000000E+00  0.30353272275E+04  0.30353272275E+04  0.00000000000E+00 0. -1.
         21   -1    0    0  505  502  0.00000000000E+00 -0.00000000000E+00 -0.30221767020E+02  0.30221767020E+02  0.00000000000E+00 0.  1.
         21    1    1    2  503  504 -0.34934861865E+02 -0.27685920776E+02  0.40037585199E+03  0.40284957197E+03  0.00000000000E+00 0.  1.
         21    1    1    2  504  502 -0.38283489067E+02  0.23859738437E+02  0.92827283828E+02  0.10320764156E+03  0.00000000000E+00 0.  1.
         21    1    1    2  505  501 -0.24353683281E+02 -0.45355252060E+02  0.67075176220E+01  0.51915234483E+02  0.00000000000E+00 0.  1.
          1    1    1    2  501    0  0.97572034214E+02  0.49181434400E+02  0.25051948071E+04  0.25075765465E+04  0.00000000000E+00 0. -1.
<scales pt_clust_3="44.57527" pt_clust_4="45.69513" pt_clust_5="14000.00000" pt_clust_6="66.15613"></scales>
<clustering>
<clus scale="   44.575">  1  3  2 -1</clus>
<clus scale="   45.695">  2  4  1 -1</clus>
<clus scale="   66.156">  1  6  2 -1</clus>
<clus scale="   45.695">  2  3  1 -1</clus>
</clustering>
</event>
<event>
 6    0  0.2839294E+002  0.7280568E+02  0.7546771E-02  0.1350804E+00
         -1   -1    0    0    0  501 -0.00000000000E+00  0.00000000000E+00  0.15203370853E+03  0.15203370853E+03  0.00000000000E+00 0. -1.
         21   -1    0    0  505  502  0.00000000000E+00 -0.00000000000E+00 -0.16873685784E+03  0.16873685784E+03  0.00000000000E+00 0. -1.
         21    1    1    2  503  504 -0.85833750558E+02 -0.22685098102E+02 -0.43481900834E+01  0.88887305999E+02  0.00000000000E+00 0. -1.
         21    1    1    2  504  501  0.34250500319E+02  0.66408793849E+02  0.72360264379E+02  0.10401553987E+03  0.00000000000E+00 0. -1.
         21    1    1    2  505  503  0.47296023146E+02  0.52629370953E+00 -0.61886557576E+02  0.77891827550E+02  0.00000000000E+00 0. -1.
         -1    1    1    2    0  502  0.42872270928E+01 -0.44249989457E+02 -0.22828666030E+02  0.49975892946E+02  0.00000000000E+00 0. -1.
<scales pt_clust_3="14000.00000" pt_clust_4="72.80568" pt_clust_5="54.57131" pt_clust_6="44.45719"></scales>
<clustering>
<clus scale="   44.457">  2  6  1 -1</clus>
<clus scale="   54.571">  2  5  1 -1</clus>
<clus scale="   72.806">  1  4  2 -1</clus>
<clus scale="   44.457">  2  3  1 -1</clus>
</clustering>
</event>
<event>
 6    0  0.2839294E+002  0.2696014E+03  0.7546771E-02  0.1101508E+00
          2   -1    0    0  505    0 -0.00000000000E+00  0.00000000000E+00  0.60890299468E+03  0.60890299468E+03  0.00000000000E+00 0. -1.
         21   -1    0    0  504  502  0.00000000000E+00 -0.00000000000E+00 -0.15005625404E+04  0.15005625404E+04  0.00000000000E+00 0. -1.
         21    1    1    2  503  502  0.37272939243E+02  0.66566752041E+01 -0.17674548294E+03  0.18075549526E+03  0.00000000000E+00 0. -1.
         21    1    1    2  504  501 -0.21400157783E+03 -0.20996856238E+03 -0.12549125492E+04  0.12902282661E+04  0.00000000000E+00 0. -1.
         21    1    1    2  505  503 -0.29532134446E+02  0.64310067952E+02  0.43234859664E+02  0.82928794125E+02  0.00000000000E+00 0. -1.
          2    1    1    2  501    0  0.20626077303E+03  0.13900181922E+03  0.49676362678E+03  0.55555297959E+03  0.00000000000E+00 0. -1.
<scales pt_clust_3="37.86269" pt_clust_4="269.60138" pt_clust_5="70.62616" pt_clust_6="14000.00000"></scales>
<clustering>
<clus scale="   37.863">  2  3  1 -1</clus>
<clus scale="   70.626">  1  5  2 -1</clus>
<clus scale="  269.601">  2  4  1 -1</clus>
<clus scale="   37.863">  2  3  1 -1</clus>
</clustering>
</event>
<event>
 6    0  0.2839294E+002  0.6583613E+02  0.7546771E-02  0.1374854E+00
          2   -1    0    0  504    0 -0.00000000000E+00  0.00000000000E+00  0.24839848516E+04  0.24839848516E+04  0.00000000000E+00 0. -1.
         21   -1    0    0  505  502  0.00000000000E+00 -0.00000000000E+00 -0.13804303689E+03  0.13804303689E+03  0.00000000000E+00 0. -1.
         21    1    1    2  503  501 -0.77473452568E+02 -0.55010237384E+02  0.12518052519E+02  0.95838216328E+02  0.00000000000E+00 0.  1.
         21    1    1    2  504  502  0.25298929276E+02 -0.30066388372E+02  0.25276845534E+03  0.25580444786E+03  0.00000000000E+00 0.  1.
         21    1    1    2  505  503  0.37611147067E+02  0.45382989871E+01 -0.90280647369E+02  0.97907046890E+02  0.00000000000E+00 0. -1.
          2    1    1    2  501    0  0.14563376225E+02  0.80538326769E+02  0.21709359542E+04  0.21724781774E+04  0.00000000000E+00 0. -1.
<scales pt_clust_3="14000.00000" pt_clust_4="40.02550" pt_clust_5="37.88396" pt_clust_6="65.83613"></scales>
<clustering>
<clus scale="   37.884">  2  5  1 -1</clus>
<clus scale="   40.025">  1  4  2 -1</clus>
<clus scale="   65.836">  1  6  2 -1</clus>
<clus scale="   37.884">  2  3  1 -1</clus>
</clustering>
</event>
<event>
 6    0  0.2839294E+002  0.1262542E+03  0.7546771E-02  0.1233122E+00
         -2   -1    0    0    0  501 -0.00000000000E+00  0.00000000000E+00  0.36360466023E+02  0.36360466023E+02  0.00000000000E+00 0. -1.
         21   -1    0    0  503  502  0.00000000000E+00 -0.00000000000E+00 -0.24285447408E+04  0.24285447408E+04  0.00000000000E+00 0.  1.
         21    1    1    2  503  501 -0.16524481997E+02 -0.39016692922E+02 -0.10132393773E+03  0.10982668705E+03  0.00000000000E+00 0.  1.
         21    1    1    2  504  505  0.44497906009E+02  0.92697721188E+02 -0.77346258213E+03  0.78026745230E+03  0.00000000000E+00 0.  1.
         21    1    1    2  505  502 -0.34613589202E+01  0.42631356747E+02 -0.14588255053E+04  0.14594523865E+04  0.00000000000E+00 0.  1.
         -2    1    1    2    0  504 -0.24512065093E+02 -0.96312385013E+02 -0.58572249558E+02  0.11535868091E+03  0.00000000000E+00 0. -1.
<scales pt_clust_3="42.37170" pt_clust_4="14000.00000" pt_clust_5="42.40551" pt_clust_6="126.25421"></scales>
<clustering>
<clus scale="   42.372">  1  3  2 -1</clus>
<clus scale="   42.406">  2  5  1 -1</clus>
<clus scale="  126.254">  1  6  2 -1</clus>
<clus scale="   42.406">  2  3  1 -1</clus>
</clustering>
</event>
<event>
 6    0  0.2839294E+002  0.6454204E+02  0.7546771E-02  0.1379702E+00
          2   -1    0    0  505    0 -0.00000000000E+00  0.00000000000E+00  0.11333758126E+04  0.11333758126E+04  0.00000000000E+00 0.  1.
         21   -1    0    0  501  502  0.00000000000E+00 -0.00000000000E+00 -0.59051295353E+03  0.59051295353E+03  0.00000000000E+00 0.  1.
         21    1    1    2  503  502  0.14878913506E+02  0.53632553632E+02 -0.51828388061E+03  0.52126386195E+03  0.00000000000E+00 0.  1.
         21    1    1    2  504  503 -0.33238082208E+02 -0.10623348502E+03 -0.99845047401E+01  0.11175873023E+03  0.00000000000E+00 0.  1.
         21    1    1    2  505  504 -0.36418683814E+02 -0.37103243434E+02  0.88588418937E+02  0.10271747258E+03  0.00000000000E+00 0.  1.
          2    1    1    2  501    0  0.54777852516E+02  0.89704174818E+02  0.98254282543E+03  0.98814870132E+03  0.00000000000E+00 0.  1.
<scales pt_clust_3="55.59288" pt_clust_4="64.54204" pt_clust_5="51.99011" pt_clust_6="14000.00000"></scales>
<clustering>
<clus scale="   51.990">  1  5  2 -1</clus>
<clus scale="   55.593">  2  3  1 -1</clus>
<clus scale="   64.542">  2  4  1 -1</clus>
<clus scale="   55.593">  2  3  1 -1</clus>
</clustering>
</event>
<event>
 6    0  0.2839294E+002  0.9737635E+02  0.7546771E-02  0.1285912E+00
          2   -1    0    0  504    0 -0.00000000000E+00  0.00000000000E+00  0.12875226324E+04  0.12875226324E+04  0.00000000000E+00 0. -1.
         21   -1    0    0  503  502  0.00000000000E+00 -0.00000000000E+00 -0.46661067242E+03  0.46661067242E+03  0.00000000000E+00 0. -1.
         21    1    1    2  503  505 -0.38371233814E+02  0.22378856619E+02 -0.27009474828E+03  0.27372310435E+03  0.00000000000E+00 0. -1.
         21    1    1    2  504  502  0.12188161582E+02  0.47504275083E+02  0.98135858577E+02  0.10970804060E+03  0.00000000000E+00 0. -1.
         21    1    1    2  505  501 -0.60702641424E+02 -0.20163951754E+02 -0.18130982575E+03  0.19226192692E+03  0.00000000000E+00 0. -1.
          2    1    1    2  501    0  0.86885713656E+02 -0.49719179948E+02  0.11741806754E+04  0.11784402329E+04  0.00000000000E+00 0. -1.
<scales pt_clust_3="44.42032" pt_clust_4="49.42002" pt_clust_5="97.37635" pt_clust_6="14000.00000"></scales>
<clustering>
<clus scale="   44.420">  2  3  1 -1</clus>
<clus scale="   49.420">  1  4  2 -1</clus>
<clus scale="   97.376">  2  5  1 -1</clus>
<clus scale="   44.420">  2  3  1 -1</clus>
</clustering>
</event>
<event>
 6    0  0.2839294E+002  0.2037994E+03  0.7546771E-02  0.1146572E+00
         21   -1    0    0  504  502  0.00000000000E+00  0.00000000000E+00  0.11808728023E+04  0.11808728023E+04  0.00000000000E+00 0. -1.
          4   -1    0    0  505    0 -0.00000000000E+00 -0.00000000000E+00 -0.13761157926E+03  0.13761157926E+03  0.00000000000E+00 0. -1.
         21    1    1    2  503  502 -0.21608580384E+03 -0.39336004764E+02  0.85147015161E+03  0.87934169409E+03  0.00000000000E+00 0. -1.
         21    1    1    2  504  501  0.94011583076E+01 -0.41025312583E+02  0.16243695348E+03  0.16780113798E+03  0.00000000000E+00 0. -1.
         21    1    1    2  505  503  0.96837065356E+02 -0.34569521767E+02 -0.20254514781E+02  0.10479844670E+03  0.00000000000E+00 0. -1.
          4    1    1    2  501    0  0.10984758018E+03  0.11493083911E+03  0.49608632752E+02  0.16654310281E+03  0.00000000000E+00 0. -1.
<scales pt_clust_3="203.79939" pt_clust_4="42.08869" pt_clust_5="103.77549" pt_clust_6="14000.00000"></scales>
<clustering>
<clus scale="   42.089">  1  4  2 -1</clus>
<clus scale="  103.775">  2  5  1 -1</clus>
<clus scale="  203.799">  1  3  2 -1</clus>
<clus scale="   42.089">  1  3  2 -1</clus>
</clustering>
</event>
<event>
 6    0  0.2839294E+002  0.1079037E+03  0.7546771E-02  0.1264502E+00
          1   -1    0    0  505    0 -0.00000000000E+00  0.00000000000E+00  0.46157220212E+03  0.46157220212E+03  0.00000000000E+00 0. -1.
         21   -1    0    0  504  502  0.00000000000E+00 -0.00000000000E+00 -0.23086722363E+03  0.23086722363E+03  0.00000000000E+00 0. -1.
         21    1    1    2  503  502 -0.59067691650E+02 -0.10988189985E+03 -0.17511869818E+03  0.21501065686E+03  0.00000000000E+00 0. -1.
         21    1    1    2  504  501 -0.19375142887E+02  0.25366894183E+02 -0.78422392833E+01  0.32869076643E+02  0.00000000000E+00 0.  1.
         21    1    1    2  505  503  0.52526902896E+02  0.57698117032E+02  0.91538394364E+02  0.12028061307E+03  0.00000000000E+00 0. -1.
          1    1    1    2  501    0  0.25915931641E+02  0.26816888635E+02  0.32212752159E+03  0.32427907918E+03  0.00000000000E+00 0. -1.
<scales pt_clust_3="107.90371" pt_clust_4="31.91983" pt_clust_5="14000.00000" pt_clust_6="37.31794"></scales>
<clustering>
<clus scale="   31.920">  2  4  1 -1</clus>
<clus scale="   37.318">  1  6  2 -1</clus>
<clus scale="  107.904">  2  3  1 -1</clus>
<clus scale="   31.920">  2  3  1 -1</clus>
</clustering>
</event>
<event>
 6    0  0.2839294E+002  0.1571027E+03  0.7546771E-02  0.1192007E+00
          2   -1    0    0  505    0 -0.00000000000E+00  0.00000000000E+00  0.62160167318E+03  0.62160167318E+03  0.00000000000E+00 0. -1.
         21   -1    0    0  504  502  0.00000000000E+00 -0.00000000000E+00 -0.37648215019E+03  0.37648215019E+03  0.00000000000E+00 0. -1.
         21    1    1    2  503  501 -0.30423424232E+02  0.35387601101E+02  0.11948043716E+03  0.12827097068E+03  0.00000000000E+00 0. -1.
         21    1    1    2  504  503  0.50985267988E+02 -0.89015236554E+01 -0.10504286555E+02  0.52811691047E+02  0.00000000000E+00 0. -1.
         21    1    1    2  505  502  0.86436956597E+02 -0.40000017724E+02 -0.32745412053E+03  0.34102426590E+03  0.00000000000E+00 0. -1.
          2    1    1    2  501    0 -0.10699880035E+03  0.13513940279E+02  0.46359749290E+03  0.47597689575E+03  0.00000000000E+00 0. -1.
<scales pt_clust_3="40.86571" pt_clust_4="51.75649" pt_clust_5="144.29787" pt_clust_6="40.86571"></scales>
<clustering>
<clus scale="   40.866">  3  6 -1 -1</clus>
<clus scale="   51.756">  2  4  1 -1</clus>
<clus scale="  144.298">  2  5  1 -1</clus>
<clus scale="   51.756">  2  3  1 -1</clus>
</clustering>
</event>
<event>
 6    0  0.2839294E+002  0.8545419E+02  0.7546771E-02  0.1314249E+00
          2   -1    0    0  503    0 -0.00000000000E+00  0.00000000000E+00  0.18074005082E+04  0.18074005082E+04  0.00000000000E+00 0.  1.
         21   -1    0    0  504  502  0.00000000000E+00 -0.00000000000E+00 -0.58005742750E+03  0.58005742750E+03  0.00000000000E+00 0.  1.
         21    1    1    2  503  505  0.22467877753E+02 -0.36684605142E+02  0.45463039541E+03  0.45666110214E+03  0.00000000000E+00 0. -1.
         21    1    1    2  504  501 -0.44186948754E+02 -0.87141646694E+02  0.11042516847E+03  0.14744446704E+03  0.00000000000E+00 0. -1.
         21    1    1    2  505  502  0.59364890299E+02  0.61187578698E+02 -0.55618965849E+03  0.56268556601E+03  0.00000000000E+00 0.  1.
          2    1    1    2  501    0 -0.37645819299E+02  0.62638673138E+02  0.12184771753E+04  0.12206668005E+04  0.00000000000E+00 0.  1.
<scales pt_clust_3="43.01820" pt_clust_4="14000.00000" pt_clust_5="85.45419" pt_clust_6="34.27213"></scales>
<clustering>
<clus scale="   43.018">  1  3  2 -1</clus>
<clus scale="   34.272">  1  6  2 -1</clus>
<clus scale="   85.454">  2  5  1 -1</clus>
<clus scale="   85.454">  2  3  1 -1</clus>
</clustering>
</event>
<event>
 6    0  0.2839294E+002  0.1412403E+03  0.7546771E-02  0.1211670E+00
          2   -1    0    0  503    0 -0.00000000000E+00  0.00000000000E+00  0.21452142075E+04  0.21452142075E+04  0.00000000000E+00 0. -1.
         21   -1    0    0  501  502  0.00000000000E+00 -0.00000000000E+00 -0.37519516406E+03  0.37519516406E+03  0.00000000000E+00 0. -1.
         21    1    1    2  503  505 -0.62392160183E+02 -0.63280642195E+01  0.20756961100E+03  0.21683627340E+03  0.00000000000E+00 0.  1.
         21    1    1    2  504  502  0.91874397953E+02 -0.23276383803E+01 -0.34089965563E+03  0.35307067013E+03  0.00000000000E+00 0. -1.
         21    1    1    2  505  504 -0.88632957953E+02  0.14075809254E+03  0.32091306677E+03  0.36146070087E+03  0.00000000000E+00 0. -1.
          2    1    1    2  501    0  0.59150720182E+02 -0.13210238994E+03  0.15824360213E+04  0.15890417271E+04  0.00000000000E+00 0. -1.
<scales pt_clust_3="62.71225" pt_clust_4="91.70803" pt_clust_5="14000.00000" pt_clust_6="141.24032"></scales>
<clustering>
<clus scale="   62.712">  1  3  2 -1</clus>
<clus scale="   91.708">  2  4  1 -1</clus>
<clus scale="  141.240">  1  6  2 -1</clus>
<clus scale="   91.708">  2  3  1 -1</clus>
</clustering>
</event>
<event>
 6    0  0.2839294E+002  0.1287906E+03  0.7546771E-02  0.1229261E+00
          1   -1    0    0  504    0 -0.00000000000E+00  0.00000000000E+00  0.19105529979E+04  0.19105529979E+04  0.00000000000E+00 0.  1.
         21   -1    0    0  505  502  0.00000000000E+00 -0.00000000000E+00 -0.86534406275E+02  0.86534406275E+02  0.00000000000E+00 0.  1.
         21    1    1    2  503  502  0.12092139642E+03 -0.57612212748E+02 -0.21975127462E+02  0.13573524744E+03  0.00000000000E+00 0.  1.
         21    1    1    2  504  503 -0.42509644881E+02  0.30914807504E+02  0.10933345629E+03  0.12131199403E+03  0.00000000000E+00 0.  1.
         21    1    1    2  505  501 -0.66179217279E+02 -0.33857737634E+01  0.77373900820E+03  0.77657144235E+03  0.00000000000E+00 0.  1.
          1    1    1    2  501    0 -0.12232534261E+02  0.30083179007E+02  0.96292125456E+03  0.96346872033E+03  0.00000000000E+00 0.  1.
<scales pt_clust_3="128.79056" pt_clust_4="55.95933" pt_clust_5="14000.00000" pt_clust_6="32.47511"></scales>
<clustering>
<clus scale="   32.475">  1  6  2 -1</clus>
<clus scale="   55.959">  1  4  2 -1</clus>
<clus scale="  128.791">  2  3  1 -1</clus>
<clus scale="  128.791">  2  3  1 -1</clus>
</clustering>
</event>
<event>
 6    0  0.2839294E+002  0.1271223E+03  0.7546771E-02  0.1231789E+00
         21   -1    0    0  504  502  0.00000000000E+00  0.00000000000E+00  0.80411867805E+03  0.80411867805E+03  0.00000000000E+00 0.  1.
          2   -1    0    0  503    0 -0.00000000000E+00 -0.00000000000E+00 -0.27840423990E+03  0.27840423990E+03  0.00000000000E+00 0.  1.
         21    1    1    2  503  505 -0.59680123714E+02  0.11342189867E+03  0.49710859740E+01  0.12826128005E+03  0.00000000000E+00 0.  1.
         21    1    1    2  504  501  0.57580760438E+02 -0.30006158807E+02  0.97799085945E+02  0.11739069278E+03  0.00000000000E+00 0.  1.
         21    1    1    2  505  502 -0.58938857873E+02 -0.10479379964E+03  0.61892497733E+03  0.63049477157E+03  0.00000000000E+00 0.  1.
          2    1    1    2  501    0  0.61038221148E+02  0.21378059775E+02 -0.19598071111E+03  0.20637617354E+03  0.00000000000E+00 0.  1.
<scales pt_clust_3="127.12232" pt_clust_4="70.79626" pt_clust_5="14000.00000" pt_clust_6="64.67369"></scales>
<clustering>
<clus scale="   64.674">  2  6  1 -1</clus>
<clus scale="   70.796">  1  4  2 -1</clus>
<clus scale="  127.122">  2  3  1 -1</clus>
<clus scale="   70.796">  1  3  2 -1</clus>
</clustering>
</event>
<event>
 6    0  0.2839294E+002  0.9955768E+02  0.7546771E-02  0.1281229E+00
          1   -1    0    0  505    0 -0.00000000000E+00  0.00000000000E+00  0.40845074786E+04  0.40845074786E+04  0.00000000000E+00 0. -1.
         21   -1    0    0  504  502  0.00000000000E+00 -0.00000000000E+00 -0.15575352000E+03  0.15575352000E+03  0.00000000000E+00 0.  1.
         21    1    1    2  503  501  0.59626276937E+02 -0.11703140200E+03  0.19534433843E+03  0.23539552356E+03  0.00000000000E+00 0.  1.
         21    1    1    2  504  503 -0.76004828265E+02  0.17842007927E+02 -0.12313414801E+03  0.14579811238E+03  0.00000000000E+00 0.  1.
         21    1    1    2  505  502 -0.20055634988E+02  0.27427629321E+02  0.36058603840E+03  0.36218337128E+03  0.00000000000E+00 0.  1.
          1    1    1    2  501    0  0.36434186317E+02  0.71761764755E+02  0.34959577298E+04  0.34968839914E+04  0.00000000000E+00 0. -1.
<scales pt_clust_3="14000.00000" pt_clust_4="78.14947" pt_clust_5="33.97798" pt_clust_6="99.55768"></scales>
<clustering>
<clus scale="   33.978">  1  5  2 -1</clus>
<clus scale="   78.149">  2  4  1 -1</clus>
<clus scale="   99.558">  1  6  2 -1</clus>
<clus scale="   78.149">  2  3  1 -1</clus>
</clustering>
</event>
<event>
 6    0  0.2839294E+002  0.9792044E+02  0.7546771E-02  0.1284731E+00
         21   -1    0    0  504  502  0.00000000000E+00  0.00000000000E+00  0.13913279118E+04  0.13913279118E+04  0.00000000000E+00 0.  1.
          1   -1    0    0  503    0 -0.00000000000E+00 -0.00000000000E+00 -0.72935341051E+02  0.72935341051E+02  0.00000000000E+00 0. -1.
         21    1    1    2  503  505  0.16912038910E+02  0.29722268596E+02  0.25759540456E+02  0.42813365145E+02  0.00000000000E+00 0.  1.
         21    1    1    2  504  501 -0.36092425716E+02  0.36403148006E+02  0.95439695515E+03  0.95577267192E+03  0.00000000000E+00 0.  1.
         21    1    1    2  505  502 -0.65672881345E+02 -0.61234683878E+02  0.36553868501E+03  0.37640555800E+03  0.00000000000E+00 0.  1.
          1    1    1    2  501    0  0.84853268152E+02 -0.48907327240E+01 -0.27302609854E+02  0.89271657806E+02  0.00000000000E+00 0. -1.
<scales pt_clust_3="34.19693" pt_clust_4="51.36203" pt_clust_5="97.92044" pt_clust_6="14000.00000"></scales>
<clustering>
<clus scale="   34.197">  2  3  1 -1</clus>
<clus scale="   51.362">  1  4  2 -1</clus>
<clus scale="   97.920">  1  5  2 -1</clus>
<clus scale="   51.362">  1  3  2 -1</clus>
</clustering>
</event>
<event>
 6    0  0.2839294E+002  0.1208502E+03  0.7546771E-02  0.1241701E+00
         -3   -1    0    0    0  501 -0.00000000000E+00  0.00000000000E+00  0.33069051657E+04  0.33069051657E+04  0.00000000000E+00 0.  1.
         21   -1    0    0  504  502  0.00000000000E+00 -0.00000000000E+00 -0.35145627785E+02  0.35145627785E+02  0.00000000000E+00 0.  1.
         21    1    1    2  503  505 -0.30163674202E+02 -0.71425337383E+01  0.33172135739E+03  0.33316650789E+03  0.00000000000E+00 0.  1.
         21    1    1    2  504  501  0.13452249625E+03 -0.29016324590E+01  0.91419381794E+03  0.92404277944E+03  0.00000000000E+00 0.  1.
         21    1    1    2  505  502 -0.40363369209E+02  0.55205466770E+02  0.11948937946E+02  0.69423499287E+02  0.00000000000E+00 0.  1.
         -3    1    1    2    0  503 -0.63995452838E+02 -0.45161300572E+02  0.20138954246E+04  0.20154180068E+04  0.00000000000E+00 0.  1.
<scales pt_clust_3="30.36295" pt_clust_4="110.79377" pt_clust_5="68.38746" pt_clust_6="30.36295"></scales>
<clustering>
<clus scale="   30.363">  3  6 -1 -1</clus>
<clus scale="   68.387">  2  5  1 -1</clus>
<clus scale="  110.794">  2  4  1 -1</clus>
<clus scale="   68.387">  2  3  1 -1</clus>
</clustering>
</event>
<event>
 6    0  0.2957574E+002  0.1343916E+03  0.7546771E-02  0.1221081E+00
         21   -1    0    0  504  502  0.00000000000E+00  0.00000000000E+00  0.12493791661E+04  0.12493791661E+04  0.00000000000E+00 0.  1.
          2   -1    0    0  505    0 -0.00000000000E+00 -0.00000000000E+00 -0.15156164189E+04  0.15156164189E+04  0.00000000000E+00 0. -1.
         21    1    1    2  503  502 -0.11064859151E+02 -0.28353951705E+02  0.16166318275E+02  0.34463423101E+02  0.00000000000E+00 0. -1.
         21    1    1    2  504  501 -0.12197059465E+03  0.69212484846E+01  0.12131181578E+04  0.12192540319E+04  0.00000000000E+00 0.  1.
         21    1    1    2  505  503  0.34947045452E+02 -0.64299063321E+02 -0.30532230837E+03  0.31397034497E+03  0.00000000000E+00 0.  1.
          2    1    1    2  501    0  0.98088408352E+02  0.85731766542E+02 -0.11901994205E+04  0.11973077850E+04  0.00000000000E+00 0. -1.
<scales pt_clust_3="30.43645" pt_clust_4="134.39164" pt_clust_5="73.25180" pt_clust_6="14000.00000"></scales>
<clustering>
<clus scale="   30.436">  1  3  2 -1</clus>
<clus scale="   73.252">  2  5  1 -1</clus>
<clus scale="  134.392">  1  4  2 -1</clus>
<clus scale="   30.436">  1  3  2 -1</clus>
</clustering>
</event>
<event>
 6    0  0.2839294E+002  0.9728514E+02  0.7546771E-02  0.1286111E+00
          2   -1    0    0  503    0 -0.00000000000E+00  0.00000000000E+00  0.10220143524E+04  0.10220143524E+04  0.00000000000E+00 0. -1.
         21   -1    0    0  504  502  0.00000000000E+00 -0.00000000000E+00 -0.30523937106E+03  0.30523937106E+03  0.00000000000E+00 0.  1.
         21    1    1    2  503  502  0.17642600612E+02  0.42784691122E+02  0.10743637167E+03  0.11698019109E+03  0.00000000000E+00 0. -1.
         21    1    1    2  504  505  0.45933319958E+02  0.23761145778E+02 -0.23253426382E+03  0.23821554479E+03  0.00000000000E+00 0.  1.
         21    1    1    2  505  501 -0.10491688200E+03 -0.99681014046E+02  0.17260795117E+02  0.14574564054E+03  0.00000000000E+00 0. -1.
          2    1    1    2  501    0  0.41340961425E+02  0.33135177147E+02  0.82461207833E+03  0.82631234699E+03  0.00000000000E+00 0. -1.
<scales pt_clust_3="46.27949" pt_clust_4="51.82559" pt_clust_5="97.28514" pt_clust_6="14000.00000"></scales>
<clustering>
<clus scale="   46.279">  1  3  2 -1</clus>
<clus scale="   51.826">  2  4  1 -1</clus>
<clus scale="   97.285">  2  5  1 -1</clus>
<clus scale="   51.826">  2  3  1 -1</clus>
</clustering>
</event>
<event>
 6    0  0.2839294E+002  0.7291482E+02  0.7546771E-02  0.1350452E+00
         -2   -1    0    0    0  501 -0.00000000000E+00  0.00000000000E+00  0.15007191218E+03  0.15007191218E+03  0.00000000000E+00 0. -1.
         21   -1    0    0  505  502  0.00000000000E+00 -0.00000000000E+00 -0.23845948586E+04  0.23845948586E+04  0.00000000000E+00 0. -1.
         21    1    1    2  503  501  0.18731317412E+02 -0.38031511784E+02 -0.46132540116E+01  0.42644346086E+02  0.00000000000E+00 0.  1.
         21    1    1    2  504  502  0.62228365094E+02  0.81769729340E+02 -0.21648241955E+04  0.21672615106E+04  0.00000000000E+00 0. -1.
         21    1    1    2  505  503 -0.30570324351E+01 -0.39600450691E+02 -0.18085202751E+03  0.18516208304E+03  0.00000000000E+00 0. -1.
         -2    1    1    2    0  504 -0.77902650071E+02 -0.41377668654E+01  0.11576653062E+03  0.13959883099E+03  0.00000000000E+00 0. -1.
<scales pt_clust_3="42.76142" pt_clust_4="72.91482" pt_clust_5="39.71827" pt_clust_6="14000.00000"></scales>
<clustering>
<clus scale="   39.718">  2  5  1 -1</clus>
<clus scale="   42.761">  1  3  2 -1</clus>
<clus scale="   72.915">  2  4  1 -1</clus>
<clus scale="   39.718">  2  3  1 -1</clus>
</clustering>
</event>
<event>
 6    0  0.2839294E+002  0.8903659E+02  0.7546771E-02  0.1305202E+00
          1   -1    0    0  504    0 -0.00000000000E+00  0.00000000000E+00  0.12638644969E+04  0.12638644969E+04  0.00000000000E+00 0. -1.
         21   -1    0    0  505  502  0.00000000000E+00 -0.00000000000E+00 -0.75780350322E+02  0.75780350322E+02  0.00000000000E+00 0.  1.
         21    1    1    2  503  502 -0.32418370973E+02  0.32448280973E+02 -0.35217588302E+02  0.57828368821E+02  0.00000000000E+00 0.  1.
         21    1    1    2  504  503 -0.21704782829E+02  0.22694979052E+02  0.21073408054E+03  0.21306105316E+03  0.00000000000E+00 0. -1.
         21    1    1    2  505  501  0.11456964834E+03  0.28371059974E+00  0.98718592503E+02  0.15123374398E+03  0.00000000000E+00 0. -1.
          1    1    1    2  501    0 -0.60446494533E+02 -0.55426970625E+02  0.91384906180E+03  0.91752168123E+03  0.00000000000E+00 0. -1.
<scales pt_clust_3="46.20506" pt_clust_4="31.40318" pt_clust_5="89.03659" pt_clust_6="14000.00000"></scales>
<clustering>
<clus scale="   31.403">  1  4  2 -1</clus>
<clus scale="   46.205">  2  3  1 -1</clus>
<clus scale="   89.037">  2  5  1 -1</clus>
<clus scale="   46.205">  2  3  1 -1</clus>
</clustering>
</event>
<event>
 6    0  0.2839294E+002  0.9614837E+02  0.7546771E-02  0.1288610E+00
         21   -1    0    0  501  502  0.00000000000E+00  0.00000000000E+00  0.95460601814E+03  0.95460601814E+03  0.00000000000E+00 0.  1.
          2   -1    0    0  503    0 -0.00000000000E+00 -0.00000000000E+00 -0.13628530517E+04  0.13628530517E+04  0.00000000000E+00 0. -1.
         21    1    1    2  503  505  0.31178199513E+02 -0.34264395014E+01 -0.26170551717E+02  0.40849949691E+02  0.00000000000E+00 0. -1.
         21    1    1    2  504  502  0.33938288354E+02  0.11561900129E+00  0.34745147319E+03  0.34910506586E+03  0.00000000000E+00 0.  1.
         21    1    1    2  505  504  0.23313554385E+02  0.77460245003E+02  0.59373407363E+03  0.59921929338E+03  0.00000000000E+00 0.  1.
          2    1    1    2  501    0 -0.88430042253E+02 -0.74149424503E+02 -0.13232620286E+04  0.13282847609E+04  0.00000000000E+00 0. -1.
<scales pt_clust_3="31.36591" pt_clust_4="33.95787" pt_clust_5="96.14837" pt_clust_6="14000.00000"></scales>
<clustering>
<clus scale="   31.366">  2  3  1 -1</clus>
<clus scale="   33.958">  1  4  2 -1</clus>
<clus scale="   96.148">  1  5  2 -1</clus>
<clus scale="   33.958">  1  3  2 -1</clus>
</clustering>
</event>
<event>
 6    0  0.2839294E+002  0.1118132E+03  0.7546771E-02  0.1257249E+00
         -2   -1    0    0    0  501 -0.00000000000E+00  0.00000000000E+00  0.49482890227E+03  0.49482890227E+03  0.00000000000E+00 0.  1.
         21   -1    0    0  504  502  0.00000000000E+00 -0.00000000000E+00 -0.66068350383E+03  0.66068350383E+03  0.00000000000E+00 0.  1.
         21    1    1    2  503  501 -0.69338990611E+02  0.22461267478E+02  0.30269240125E+02  0.78921676701E+02  0.00000000000E+00 0.  1.
         21    1    1    2  504  503 -0.13329095430E+03 -0.42653798189E+01 -0.54796800358E+03  0.56396241444E+03  0.00000000000E+00 0.  1.
         21    1    1    2  505  502  0.30100784223E+02 -0.29932741772E+02 -0.55630850701E+02  0.69977266241E+02  0.00000000000E+00 0. -1.
         -2    1    1    2    0  505  0.17252916068E+03  0.11736854113E+02  0.40747501259E+03  0.44265104870E+03  0.00000000000E+00 0.  1.
<scales pt_clust_3="71.35008" pt_clust_4="14000.00000" pt_clust_5="42.45028" pt_clust_6="111.81319"></scales>
<clustering>
<clus scale="   42.450">  2  5  1 -1</clus>
<clus scale="   71.350">  1  3  2 -1</clus>
<clus scale="  111.813">  1  6  2 -1</clus>
<clus scale="   42.450">  2  3  1 -1</clus>
</clustering>
</event>
<event>
 6    0  0.2839294E+002  0.1698146E+03  0.7546771E-02  0.1178041E+00
         21   -1    0    0  504  502  0.00000000000E+00  0.00000000000E+00  0.65878500956E+03  0.65878500956E+03  0.00000000000E+00 0.  1.
         -4   -1    0    0    0  501 -0.00000000000E+00 -0.00000000000E+00 -0.63891275273E+03  0.63891275273E+03  0.00000000000E+00 0.  1.
         21    1    1    2  503  502  0.15370780985E+02  0.58868967773E+02 -0.21517312839E+03  0.22360968552E+03  0.00000000000E+00 0. -1.
         21    1    1    2  504  505  0.33781497898E+02 -0.15854780824E+03  0.62351294227E+03  0.64424140373E+03  0.00000000000E+00 0.  1.
         21    1    1    2  505  501 -0.18876086446E+02  0.36141122940E+02 -0.63064264761E+01  0.41258434554E+02  0.00000000000E+00 0. -1.
         -4    1    1    2    0  503 -0.30276192436E+02  0.63537717530E+02 -0.38216113057E+03  0.38858823849E+03  0.00000000000E+00 0.  1.
<scales pt_clust_3="45.70836" pt_clust_4="161.44501" pt_clust_5="40.77361" pt_clust_6="45.70836"></scales>
<clustering>
<clus scale="   40.774">  2  5  1 -1</clus>
<clus scale="   45.708">  3  6 -1 -1</clus>
<clus scale="  161.445">  1  4  2 -1</clus>
<clus scale="  161.445">  1  3  2 -1</clus>
</clustering>
</event>
<event>
 6    0  0.2839294E+002  0.1659337E+03  0.7546771E-02  0.1182156E+00
          2   -1    0    0  504    0 -0.00000000000E+00  0.00000000000E+00  0.10384943236E+04  0.10384943236E+04  0.00000000000E+00 0.  1.
         21   -1    0    0  505  502  0.00000000000E+00 -0.00000000000E+00 -0.11728619238E+03  0.11728619238E+03  0.00000000000E+00 0. -1.
         21    1    1    2  503  502  0.16211611399E+03  0.21930277878E+02  0.10899736193E+03  0.19657821958E+03  0.00000000000E+00 0. -1.
         21    1    1    2  504  503  0.45936966496E+02  0.88045293958E+01  0.12540850027E+03  0.13384698939E+03  0.00000000000E+00 0. -1.
         21    1    1    2  505  501 -0.15918664517E+03 -0.56741727585E+02  0.36745404877E+02  0.17294576153E+03  0.00000000000E+00 0. -1.
          2    1    1    2  501    0 -0.48866435316E+02  0.26006920311E+02  0.65005686417E+03  0.65240954550E+03  0.00000000000E+00 0.  1.
<scales pt_clust_3="14000.00000" pt_clust_4="46.77312" pt_clust_5="165.93370" pt_clust_6="36.03801"></scales>
<clustering>
<clus scale="   46.773">  1  4  2 -1</clus>
<clus scale="   36.038">  1  6  2 -1</clus>
<clus scale="  165.934">  2  5  1 -1</clus>
<clus scale="  165.934">  2  3  1 -1</clus>
</clustering>
</event>
<event>
 6    0  0.2839294E+002  0.1013339E+03  0.7546771E-02  0.1277516E+00
         21   -1    0    0  503  502  0.00000000000E+00  0.00000000000E+00  0.24189311943E+02  0.24189311943E+02  0.00000000000E+00 0. -1.
          2   -1    0    0  502    0 -0.00000000000E+00 -0.00000000000E+00 -0.39547242415E+04  0.39547242415E+04  0.00000000000E+00 0.  1.
         21    1    1    2  503  504 -0.63870696513E+02 -0.14890555276E+02 -0.15055706076E+03  0.16422126249E+03  0.00000000000E+00 0. -1.
         21    1    1    2  504  505  0.60052072890E+02  0.10693691168E+03 -0.20926939214E+03  0.24256016372E+03  0.00000000000E+00 0. -1.
         21    1    1    2  505  501 -0.10313103994E+02 -0.49678583277E+02 -0.24648050849E+04  0.24653272457E+04  0.00000000000E+00 0.  1.
          2    1    1    2  501    0  0.14131727618E+02 -0.42367773122E+02 -0.11059033918E+04  0.11068048816E+04  0.00000000000E+00 0.  1.
<scales pt_clust_3="65.58349" pt_clust_4="92.66478" pt_clust_5="38.47620" pt_clust_6="38.47620"></scales>
<clustering>
<clus scale="   38.476">  5  6 -1 -1</clus>
<clus scale="   65.583">  1  3  2 -1</clus>
<clus scale="   92.665">  1  4  2 -1</clus>
<clus scale="   65.583">  1  3  2 -1</clus>
</clustering>
</event>
<event>
 6    0  0.2839294E+002  0.2367615E+03  0.7546771E-02  0.1121969E+00
         21   -1    0    0  504  502  0.00000000000E+00  0.00000000000E+00  0.15346608219E+04  0.15346608219E+04  0.00000000000E+00 0.  1.
          2   -1    0    0  505    0 -0.00000000000E+00 -0.00000000000E+00 -0.67510123211E+02  0.67510123211E+02  0.00000000000E+00 0.  1.
         21    1    1    2  503  502 -0.69875301261E+02 -0.33730024642E+02  0.22122278591E+03  0.23443505134E+03  0.00000000000E+00 0. -1.
         21    1    1    2  504  501  0.41492343185E+02  0.16665815275E+00  0.28706951428E+03  0.29005266478E+03  0.00000000000E+00 0.  1.
         21    1    1    2  505  503  0.73938247348E+02 -0.21564580291E+03  0.34403283900E+03  0.41270882114E+03  0.00000000000E+00 0.  1.
          2    1    1    2  501    0 -0.45555289272E+02  0.24920916940E+03  0.61482555948E+03  0.66497440784E+03  0.00000000000E+00 0.  1.
<scales pt_clust_3="70.82085" pt_clust_4="41.49268" pt_clust_5="236.76153" pt_clust_6="14000.00000"></scales>
<clustering>
<clus scale="   41.493">  1  4  2 -1</clus>
<clus scale="   70.821">  1  3  2 -1</clus>
<clus scale="  236.762">  2  5  1 -1</clus>
<clus scale="   41.493">  1  3  2 -1</clus>
</clustering>
</event>
<event>
 6    0  0.2839294E+002  0.7523451E+02  0.7546771E-02  0.1343146E+00
         -2   -1    0    0    0  501 -0.00000000000E+00  0.00000000000E+00  0.24327574079E+03  0.24327574079E+03  0.00000000000E+00 0.  1.
         21   -1    0    0  503  502  0.00000000000E+00 -0.00000000000E+00 -0.42162283665E+03  0.42162283665E+03  0.00000000000E+00 0. -1.
         21    1    1    2  503  504 -0.34384478847E+02  0.35639758840E+02 -0.15438367011E+03  0.16213205233E+03  0.00000000000E+00 0. -1.
         21    1    1    2  504  505  0.61121744654E+02 -0.76785546657E+02 -0.22131281229E+03  0.24209760166E+03  0.00000000000E+00 0. -1.
         21    1    1    2  505  501 -0.79508409891E+02 -0.11388279740E+02  0.15608205113E+03  0.17553599871E+03  0.00000000000E+00 0.  1.
         -2    1    1    2    0  502  0.52771144084E+02  0.52534067558E+02  0.41267335410E+02  0.85132924735E+02  0.00000000000E+00 0.  1.
<scales pt_clust_3="49.52257" pt_clust_4="54.92629" pt_clust_5="75.23451" pt_clust_6="14000.00000"></scales>
<clustering>
<clus scale="   49.523">  2  3  1 -1</clus>
<clus scale="   54.926">  2  4  1 -1</clus>
<clus scale="   75.235">  1  5  2 -1</clus>
<clus scale="   49.523">  2  3  1 -1</clus>
</clustering>
</event>
<event>
 6    0  0.2839294E+002  0.1214938E+03  0.7546771E-02  0.1240653E+00
          3   -1    0    0  502    0 -0.00000000000E+00  0.00000000000E+00  0.16461113430E+03  0.16461113430E+03  0.00000000000E+00 0.  1.
         21   -1    0    0  505  502  0.00000000000E+00 -0.00000000000E+00 -0.15065496155E+04  0.15065496155E+04  0.00000000000E+00 0. -1.
         21    1    1    2  503  504  0.11884418523E+03  0.79154150861E+02 -0.62269795290E+03  0.63885996941E+03  0.00000000000E+00 0. -1.
         21    1    1    2  504  501 -0.37123995687E+02 -0.47181096165E+02  0.43206725464E+02  0.73966668280E+02  0.00000000000E+00 0.  1.
         21    1    1    2  505  503 -0.38046769909E+02  0.24543313993E+01 -0.85203601232E+03  0.85288858987E+03  0.00000000000E+00 0. -1.
          3    1    1    2  501    0 -0.43673419635E+02 -0.34427386095E+02  0.89588758574E+02  0.10544552223E+03  0.00000000000E+00 0.  1.
<scales pt_clust_3="115.73602" pt_clust_4="35.57062" pt_clust_5="38.12585" pt_clust_6="35.57062"></scales>
<clustering>
<clus scale="   35.571">  4  6 -1 -1</clus>
<clus scale="   38.126">  2  5  1 -1</clus>
<clus scale="  115.736">  2  3  1 -1</clus>
<clus scale="   38.126">  2  3  1 -1</clus>
</clustering>
</event>
<event>
 6    0  0.2839294E+002  0.7258830E+02  0.7546771E-02  0.1351506E+00
         21   -1    0    0  501  502  0.00000000000E+00  0.00000000000E+00  0.37261566143E+02  0.37261566143E+02  0.00000000000E+00 0. -1.
          2   -1    0    0  503    0 -0.00000000000E+00 -0.00000000000E+00 -0.10746122207E+04  0.10746122207E+04  0.00000000000E+00 0. -1.
         21    1    1    2  503  504  0.86476537682E+00  0.33111309823E+02 -0.13598549230E+03  0.13996128312E+03  0.00000000000E+00 0.  1.
         21    1    1    2  504  505  0.85956038792E+02 -0.66935154394E+01 -0.46291869664E+03  0.47087892653E+03  0.00000000000E+00 0. -1.
         21    1    1    2  505  502 -0.31747265472E+02 -0.59905044203E+02 -0.10914765932E+02  0.68670483479E+02  0.00000000000E+00 0. -1.
          2    1    1    2  501    0 -0.55073538697E+02  0.33487249819E+02 -0.42753169966E+03  0.43236309368E+03  0.00000000000E+00 0. -1.
<scales pt_clust_3="33.12260" pt_clust_4="72.58830" pt_clust_5="66.54030" pt_clust_6="14000.00000"></scales>
<clustering>
<clus scale="   33.123">  2  3  1 -1</clus>
<clus scale="   66.540">  1  5  2 -1</clus>
<clus scale="   72.588">  1  4  2 -1</clus>
<clus scale="   66.540">  1  3  2 -1</clus>
</clustering>
</event>
<event>
 6    0  0.2839294E+002  0.7489133E+02  0.7546771E-02  0.1344208E+00
         21   -1    0    0  503  502  0.00000000000E+00  0.00000000000E+00  0.15425200126E+03  0.15425200126E+03  0.00000000000E+00 0. -1.
          3   -1    0    0  504    0 -0.00000000000E+00 -0.00000000000E+00 -0.21865451148E+03  0.21865451148E+03  0.00000000000E+00 0. -1.
         21    1    1    2  503  501  0.76966212584E+02  0.53141225718E+02  0.67392281971E+02  0.11528012587E+03  0.00000000000E+00 0. -1.
         21    1    1    2  504  505  0.44747466139E+02  0.19058260508E+02 -0.76072198036E+02  0.90291374635E+02  0.00000000000E+00 0.  1.
         21    1    1    2  505  502 -0.32100442317E+02 -0.17805456914E+02  0.16283494497E+02  0.40157500991E+02  0.00000000000E+00 0. -1.
          3    1    1    2  501    0 -0.89613236406E+02 -0.54394029312E+02 -0.72006088656E+02  0.12717751125E+03  0.00000000000E+00 0. -1.
<scales pt_clust_3="74.89133" pt_clust_4="46.57785" pt_clust_5="36.70794" pt_clust_6="14000.00000"></scales>
<clustering>
<clus scale="   36.708">  1  5  2 -1</clus>
<clus scale="   46.578">  2  4  1 -1</clus>
<clus scale="   74.891">  1  3  2 -1</clus>
<clus scale="   36.708">  1  3  2 -1</clus>
</clustering>
</event>
<event>
 6    0  0.2839294E+002  0.9341155E+02  0.7546771E-02  0.1294794E+00
          2   -1    0    0  504    0 -0.00000000000E+00  0.00000000000E+00  0.47008436166E+03  0.47008436166E+03  0.00000000000E+00 0.  1.
         21   -1    0    0  505  502  0.00000000000E+00 -0.00000000000E+00 -0.29219959591E+03  0.29219959591E+03  0.00000000000E+00 0.  1.
         21    1    1    2  503  502  0.78733648637E+02  0.92467337468E+02 -0.22178681095E+03  0.25286080250E+03  0.00000000000E+00 0.  1.
         21    1    1    2  504  503 -0.24652048587E+02 -0.61707603169E+02  0.20410744937E+03  0.21465181732E+03  0.00000000000E+00 0.  1.
         21    1    1    2  505  501 -0.67263881732E+01 -0.30433008450E+02 -0.42130022239E+02  0.52405639725E+02  0.00000000000E+00 0. -1.
          2    1    1    2  501    0 -0.47355211876E+02 -0.32672584871E+00  0.23769414957E+03  0.24236569803E+03  0.00000000000E+00 0.  1.
<scales pt_clust_3="14000.00000" pt_clust_4="93.41155" pt_clust_5="31.16749" pt_clust_6="47.42337"></scales>
<clustering>
<clus scale="   31.167">  2  5  1 -1</clus>
<clus scale="   47.423">  1  6  2 -1</clus>
<clus scale="   93.412">  1  4  2 -1</clus>
<clus scale="   31.167">  2  3  1 -1</clus>
</clustering>
</event>
<event>
 6    0  0.2839294E+002  0.1086990E+03  0.7546771E-02  0.1262998E+00
          2   -1    0    0  505    0 -0.00000000000E+00  0.00000000000E+00  0.10424476482E+04  0.10424476482E+04  0.00000000000E+00 0.  1.
         21   -1    0    0  501  502  0.00000000000E+00 -0.00000000000E+00 -0.12070053464E+03  0.12070053464E+03  0.00000000000E+00 0.  1.
         21    1    1    2  503  504 -0.94954724170E+02  0.43052362833E+02 -0.29884724489E+02  0.10845737571E+03  0.00000000000E+00 0.  1.
         21    1    1    2  504  502  0.25497541687E+02  0.44776829695E+02 -0.33491293738E+02  0.61455316009E+02  0.00000000000E+00 0.  1.
         21    1    1    2  505  503  0.44700578444E+01 -0.36134708814E+02  0.16780250574E+03  0.17170724950E+03  0.00000000000E+00 0.  1.
          2    1    1    2  501    0  0.64987124639E+02 -0.51694483714E+02  0.81732062606E+03  0.82152824163E+03  0.00000000000E+00 0.  1.
<scales pt_clust_3="108.69904" pt_clust_4="51.06110" pt_clust_5="36.41014" pt_clust_6="14000.00000"></scales>
<clustering>
<clus scale="   36.410">  1  5  2 -1</clus>
<clus scale="   51.061">  2  4  1 -1</clus>
<clus scale="  108.699">  2  3  1 -1</clus>
<clus scale="   51.061">  2  3  1 -1</clus>
</clustering>
</event>
<event>
 6    0  0.2839294E+002  0.9007853E+02  0.7546771E-02  0.1302662E+00
          1   -1    0    0  505    0 -0.00000000000E+00  0.00000000000E+00  0.10380004329E+04  0.10380004329E+04  0.00000000000E+00 0.  1.
         21   -1    0    0  503  502  0.00000000000E+00 -0.00000000000E+00 -0.44427055568E+02  0.44427055568E+02  0.00000000000E+00 0.  1.
         21    1    1    2  503  501  0.66094758173E+02 -0.11649997723E+03  0.16929529987E+03  0.21587417703E+03  0.00000000000E+00 0.  1.
         21    1    1    2  504  502 -0.68513622649E+02  0.34351571587E+02  0.66701420802E+02  0.10160327995E+03  0.00000000000E+00 0.  1.
         21    1    1    2  505  504 -0.74088224125E+01  0.53416054863E+02  0.21987764523E+03  0.22639422350E+03  0.00000000000E+00 0. -1.
          1    1    1    2  501    0  0.98276868875E+01  0.28732350782E+02  0.53769901139E+03  0.53855580793E+03  0.00000000000E+00 0.  1.
<scales pt_clust_3="90.07853" pt_clust_4="14000.00000" pt_clust_5="66.31064" pt_clust_6="30.36662"></scales>
<clustering>
<clus scale="   30.367">  1  6  2 -1</clus>
<clus scale="   66.311">  1  5  2 -1</clus>
<clus scale="   90.079">  1  3  2 -1</clus>
<clus scale="   90.079">  2  3  1 -1</clus>
</clustering>
</event>
<event>
 6    0  0.2839294E+002  0.1699926E+03  0.7546771E-02  0.1177856E+00
          2   -1    0    0  502    0 -0.00000000000E+00  0.00000000000E+00  0.16516952658E+04  0.16516952658E+04  0.00000000000E+00 0.  1.
         21   -1    0    0  504  502  0.00000000000E+00 -0.00000000000E+00 -0.12449322443E+03  0.12449322443E+03  0.00000000000E+00 0. -1.
         21    1    1    2  503  505  0.58582756567E+02 -0.60282437778E+02 -0.54469687124E+02  0.10016415770E+03  0.00000000000E+00 0. -1.
         21    1    1    2  504  503  0.28722083819E+02  0.42914998681E+02 -0.69790317220E+00  0.51644382846E+02  0.00000000000E+00 0. -1.
         21    1    1    2  505  501 -0.12021861051E+03 -0.14638567411E+03  0.64477473293E+03  0.67202361277E+03  0.00000000000E+00 0.  1.
          2    1    1    2  501    0  0.32913770126E+02  0.16375311320E+03  0.93759489873E+03  0.95235633693E+03  0.00000000000E+00 0.  1.
<scales pt_clust_3="85.39618" pt_clust_4="51.63967" pt_clust_5="169.99259" pt_clust_6="14000.00000"></scales>
<clustering>
<clus scale="   51.640">  2  4  1 -1</clus>
<clus scale="   85.396">  2  3  1 -1</clus>
<clus scale="  169.993">  2  5  1 -1</clus>
<clus scale="   51.640">  2  3  1 -1</clus>
</clustering>
</event>
<event>
 6    0  0.2839294E+002  0.6983454E+02  0.7546771E-02  0.1360657E+00
         21   -1    0    0  503  502  0.00000000000E+00  0.00000000000E+00  0.90615390222E+01  0.90615390222E+01  0.00000000000E+00 0.  1.
          2   -1    0    0  504    0 -0.00000000000E+00 -0.00000000000E+00 -0.29734061675E+04  0.29734061675E+04  0.00000000000E+00 0.  1.
         21    1    1    2  503  505 -0.64503942585E+02  0.36420788906E+02 -0.43787305273E+03  0.44409463268E+03  0.00000000000E+00 0.  1.
         21    1    1    2  504  502  0.41585441426E+02  0.17799361380E+02 -0.42584185399E+03  0.42823761023E+03  0.00000000000E+00 0.  1.
         21    1    1    2  505  501  0.10148588190E+00 -0.93386733782E+02 -0.48721977229E+03  0.49608890217E+03  0.00000000000E+00 0.  1.
          2    1    1    2  501    0  0.22817015278E+02  0.39166583496E+02 -0.16134099495E+04  0.16140465614E+04  0.00000000000E+00 0.  1.
<scales pt_clust_3="69.59916" pt_clust_4="45.23457" pt_clust_5="69.83454" pt_clust_6="14000.00000"></scales>
<clustering>
<clus scale="   45.235">  2  4  1 -1</clus>
<clus scale="   69.599">  1  3  2 -1</clus>
<clus scale="   69.835">  1  5  2 -1</clus>
<clus scale="   69.599">  1  3  2 -1</clus>
</clustering>
</event>
<event>
 6    0  0.2839294E+002  0.1882241E+03  0.7546771E-02  0.1160073E+00
         -4   -1    0    0    0  501 -0.00000000000E+00  0.00000000000E+00  0.85897605667E+03  0.85897605667E+03  0.00000000000E+00 0.  1.
         21   -1    0    0  504  502  0.00000000000E+00 -0.00000000000E+00 -0.29441475934E+03  0.29441475934E+03  0.00000000000E+00 0. -1.
         21    1    1    2  503  501  0.16225779914E+02  0.18951568677E+03 -0.79233696332E+02  0.20605205677E+03  0.00000000000E+00 0. -1.
         21    1    1    2  504  503  0.19363833678E+02 -0.24890388162E+02 -0.13900324460E+03  0.14253557972E+03  0.00000000000E+00 0.  1.
         21    1    1    2  505  502  0.10211925399E+02 -0.56187087049E+02  0.13802381506E+03  0.14937150229E+03  0.00000000000E+00 0.  1.
         -4    1    1    2    0  505 -0.45801538992E+02 -0.10843821155E+03  0.64477442320E+03  0.65543167722E+03  0.00000000000E+00 0.  1.
<scales pt_clust_3="169.88632" pt_clust_4="31.53553" pt_clust_5="56.82301" pt_clust_6="56.82301"></scales>
<clustering>
<clus scale="   31.536">  2  4  1 -1</clus>
<clus scale="   56.823">  5  6 -1 -1</clus>
<clus scale="  169.886">  2  3  1 -1</clus>
<clus scale="   31.536">  2  3  1 -1</clus>
</clustering>
</event>
<event>
 6    0  0.2839294E+002  0.7485846E+02  0.7546771E-02  0.1344310E+00
          2   -1    0    0  505    0 -0.00000000000E+00  0.00000000000E+00  0.73596541120E+03  0.73596541120E+03  0.00000000000E+00 0. -1.
         21   -1    0    0  503  502  0.00000000000E+00 -0.00000000000E+00 -0.12780994724E+04  0.12780994724E+04  0.00000000000E+00 0.  1.
         21    1    1    2  503  501 -0.36477161649E+02 -0.43502695969E+02 -0.12216427787E+04  0.12229612204E+04  0.00000000000E+00 0.  1.
         21    1    1    2  504  502  0.49290389217E+02  0.49946504741E+01 -0.34033825598E+02  0.60106491225E+02  0.00000000000E+00 0.  1.
         21    1    1    2  505  504 -0.82000721822E+02  0.13438776548E+02  0.31863568591E+03  0.32929230089E+03  0.00000000000E+00 0. -1.
          2    1    1    2  501    0  0.69187494253E+02  0.25069268947E+02  0.39490685718E+03  0.40170487109E+03  0.00000000000E+00 0. -1.
<scales pt_clust_3="40.50857" pt_clust_4="49.54280" pt_clust_5="14000.00000" pt_clust_6="74.85846"></scales>
<clustering>
<clus scale="   49.543">  2  4  1 -1</clus>
<clus scale="   40.509">  2  3  1 -1</clus>
<clus scale="   74.858">  1  6  2 -1</clus>
<clus scale="   49.543">  2  3  1 -1</clus>
</clustering>
</event>
<event>
 6    0  0.2839294E+002  0.1156984E+03  0.7546771E-02  0.1250367E+00
         -1   -1    0    0    0  501 -0.00000000000E+00  0.00000000000E+00  0.73965806010E+03  0.73965806010E+03  0.00000000000E+00 0.  1.
         21   -1    0    0  504  502  0.00000000000E+00 -0.00000000000E+00 -0.70303675126E+03  0.70303675126E+03  0.00000000000E+00 0. -1.
         21    1    1    2  503  502  0.45889584820E+02  0.11658774864E+03  0.39633120243E+02  0.13141286599E+03  0.00000000000E+00 0. -1.
         21    1    1    2  504  501 -0.10651375940E+03 -0.48774869120E+02 -0.64513928888E+03  0.65568961472E+03  0.00000000000E+00 0. -1.
         21    1    1    2  505  503  0.12836466689E+02 -0.63672527036E+02  0.18730789897E+03  0.19825038359E+03  0.00000000000E+00 0.  1.
         -1    1    1    2    0  505  0.47787707893E+02 -0.41403524852E+01  0.45481957850E+03  0.45734194705E+03  0.00000000000E+00 0.  1.
<scales pt_clust_3="14000.00000" pt_clust_4="115.69836" pt_clust_5="80.46571" pt_clust_6="47.96673"></scales>
<clustering>
<clus scale="   47.967">  1  6  2 -1</clus>
<clus scale="   80.466">  1  5  2 -1</clus>
<clus scale="  115.698">  2  4  1 -1</clus>
<clus scale="  115.698">  2  3  1 -1</clus>
</clustering>
</event>
<event>
 6    0  0.2839294E+002  0.1632665E+03  0.7546771E-02  0.1185057E+00
         21   -1    0    0  503  502  0.00000000000E+00  0.00000000000E+00  0.13397465775E+03  0.13397465775E+03  0.00000000000E+00 0.  1.
          2   -1    0    0  505    0 -0.00000000000E+00 -0.00000000000E+00 -0.73968731237E+03  0.73968731237E+03  0.00000000000E+00 0.  1.
         21    1    1    2  503  501 -0.17471035655E+03 -0.24242223856E+02 -0.14994512404E+03  0.23150579761E+03  0.00000000000E+00 0.  1.
         21    1    1    2  504  502  0.42372293253E+01  0.11193130266E+03  0.23816642537E+01  0.11203679285E+03  0.00000000000E+00 0.  1.
         21    1    1    2  505  504  0.54108846916E+02  0.58487694703E+02 -0.12820700564E+03  0.15094904452E+03  0.00000000000E+00 0. -1.
          2    1    1    2  501    0  0.11636428031E+03 -0.14617677351E+03 -0.32994218919E+03  0.37917033515E+03  0.00000000000E+00 0.  1.
<scales pt_clust_3="163.26650" pt_clust_4="117.63370" pt_clust_5="79.67796" pt_clust_6="14000.00000"></scales>
<clustering>
<clus scale="   79.678">  2  5  1 -1</clus>
<clus scale="  117.634">  1  4  2 -1</clus>
<clus scale="  163.267">  1  3  2 -1</clus>
<clus scale="  117.634">  1  3  2 -1</clus>
</clustering>
</event>
<event>
 6    0  0.2839294E+002  0.9408916E+02  0.7546771E-02  0.1293241E+00
          1   -1    0    0  503    0 -0.00000000000E+00  0.00000000000E+00  0.54905935613E+03  0.54905935613E+03  0.00000000000E+00 0. -1.
         21   -1    0    0  504  502  0.00000000000E+00 -0.00000000000E+00 -0.15243185792E+03  0.15243185792E+03  0.00000000000E+00 0.  1.
         21    1    1    2  503  505 -0.82951966181E+02  0.71613338503E+01  0.35948416236E+03  0.36900023900E+03  0.00000000000E+00 0. -1.
         21    1    1    2  504  501  0.12561887222E+03  0.22751433799E+02  0.15804580259E+02  0.12863713909E+03  0.00000000000E+00 0.  1.
         21    1    1    2  505  502 -0.48481893549E+02  0.27049461047E+02 -0.74079651239E+02  0.92574089640E+02  0.00000000000E+00 0.  1.
          1    1    1    2  501    0  0.58149875116E+01 -0.56962228696E+02  0.95418406829E+02  0.11127974631E+03  0.00000000000E+00 0. -1.
<scales pt_clust_3="94.08916" pt_clust_4="14000.00000" pt_clust_5="55.51727" pt_clust_6="53.85855"></scales>
<clustering>
<clus scale="   55.517">  2  5  1 -1</clus>
<clus scale="   53.859">  1  6  2 -1</clus>
<clus scale="   94.089">  1  3  2 -1</clus>
<clus scale="   55.517">  2  3  1 -1</clus>
</clustering>
</event>
<event>
 6    0  0.2839294E+002  0.1206563E+03  0.7546771E-02  0.1242018E+00
         21   -1    0    0  504  502  0.00000000000E+00  0.00000000000E+00  0.88746697187E+03  0.88746697187E+03  0.00000000000E+00 0. -1.
         -1   -1    0    0    0  501 -0.00000000000E+00 -0.00000000000E+00 -0.19790379401E+03  0.19790379401E+03  0.00000000000E+00 0. -1.
         21    1    1    2  503  505 -0.31998289876E+02  0.10451147525E+03  0.11984628803E+03  0.16220256400E+03  0.00000000000E+00 0. -1.
         21    1    1    2  504  503  0.73342724143E+02 -0.10090077887E+03  0.72558618137E+03  0.73623055421E+03  0.00000000000E+00 0. -1.
         21    1    1    2  505  501 -0.34462078991E+01  0.33800368027E+02 -0.16559038616E+02  0.37796071059E+02  0.00000000000E+00 0.  1.
         -1    1    1    2    0  502 -0.37898226367E+02 -0.37411064398E+02 -0.13931025293E+03  0.14914157660E+03  0.00000000000E+00 0. -1.
<scales pt_clust_3="120.65630" pt_clust_4="14000.00000" pt_clust_5="33.97560" pt_clust_6="41.75963"></scales>
<clustering>
<clus scale="   33.976">  2  5  1 -1</clus>
<clus scale="   41.760">  2  6  1 -1</clus>
<clus scale="  120.656">  2  3  1 -1</clus>
<clus scale="  120.656">  1  3  2 -1</clus>
</clustering>
</event>
<event>
 6    0  0.2839294E+002  0.8080988E+02  0.7546771E-02  0.1326769E+00
         21   -1    0    0  505  502  0.00000000000E+00  0.00000000000E+00  0.14100095078E+04  0.14100095078E+04  0.00000000000E+00 0. -1.
          2   -1    0    0  503    0 -0.00000000000E+00 -0.00000000000E+00 -0.10860828270E+03  0.10860828270E+03  0.00000000000E+00 0. -1.
         21    1    1    2  503  504 -0.22324385062E+02 -0.28061494101E+02  0.17867076980E+01  0.35902896039E+02  0.00000000000E+00 0. -1.
         21    1    1    2  504  502  0.85861876165E+02 -0.19479116652E+02 -0.47763462044E+02  0.10016509407E+03  0.00000000000E+00 0. -1.
         21    1    1    2  505  501  0.22232231506E+02  0.32965721815E+02  0.12550890595E+04  0.12557187417E+04  0.00000000000E+00 0. -1.
          2    1    1    2  501    0 -0.85769722609E+02  0.14574888937E+02  0.92288919891E+02  0.12683105865E+03  0.00000000000E+00 0. -1.
<scales pt_clust_3="35.85841" pt_clust_4="80.80988" pt_clust_5="39.63899" pt_clust_6="14000.00000"></scales>
<clustering>
<clus scale="   35.858">  2  3  1 -1</clus>
<clus scale="   39.639">  1  5  2 -1</clus>
<clus scale="   80.810">  2  4  1 -1</clus>
<clus scale="   39.639">  1  3  2 -1</clus>
</clustering>
</event>
<event>
 6    0  0.2839294E+002  0.3112265E+03  0.7546771E-02  0.1079759E+00
         21   -1    0    0  503  502  0.00000000000E+00  0.00000000000E+00  0.13629085110E+03  0.13629085110E+03  0.00000000000E+00 0. -1.
          1   -1    0    0  504    0 -0.00000000000E+00 -0.00000000000E+00 -0.81826506778E+03  0.81826506778E+03  0.00000000000E+00 0. -1.
         21    1    1    2  503  501  0.15457373549E+03 -0.10698969542E+03 -0.20688675174E+03  0.27953883930E+03  0.00000000000E+00 0. -1.
         21    1    1    2  504  505 -0.29125256209E+03  0.10607730430E+03 -0.27876069284E+03  0.41687884725E+03  0.00000000000E+00 0. -1.
         21    1    1    2  505  502  0.28894198709E+02  0.11144824233E+02  0.31950415250E+01  0.31133424428E+02  0.00000000000E+00 0. -1.
          1    1    1    2  501    0  0.10778462789E+03 -0.10232433104E+02 -0.19952181363E+03  0.22700480790E+03  0.00000000000E+00 0. -1.
<scales pt_clust_3="71.39445" pt_clust_4="296.67543" pt_clust_5="30.96905" pt_clust_6="71.39445"></scales>
<clustering>
<clus scale="   30.969">  1  5  2 -1</clus>
<clus scale="   71.394">  3  6 -1 -1</clus>
<clus scale="  296.675">  1  4  2 -1</clus>
<clus scale="   30.969">  1  3  2 -1</clus>
</clustering>
</event>
<event>
 6    0  0.2839294E+002  0.1288889E+03  0.7546771E-02  0.1229114E+00
          2   -1    0    0  503    0 -0.00000000000E+00  0.00000000000E+00  0.45555251652E+03  0.45555251652E+03  0.00000000000E+00 0.  1.
         21   -1    0    0  504  502  0.00000000000E+00 -0.00000000000E+00 -0.20339979154E+03  0.20339979154E+03  0.00000000000E+00 0.  1.
         21    1    1    2  503  505 -0.76914019504E+01  0.37549323333E+02  0.21613792092E+02  0.44003015298E+02  0.00000000000E+00 0.  1.
         21    1    1    2  504  501  0.77238170481E+02  0.79015829661E+02 -0.45697633596E+02  0.11957219590E+03  0.00000000000E+00 0.  1.
         21    1    1    2  505  502 -0.34588253696E+02 -0.19025829416E+03 -0.14013988966E+02  0.19388387678E+03  0.00000000000E+00 0.  1.
          2    1    1    2  501    0 -0.34958514835E+02  0.73693141164E+02  0.29025055545E+03  0.30149322008E+03  0.00000000000E+00 0.  1.
<scales pt_clust_3="38.32896" pt_clust_4="14000.00000" pt_clust_5="128.88889" pt_clust_6="107.80589"></scales>
<clustering>
<clus scale="   38.329">  1  3  2 -1</clus>
<clus scale="  107.806">  1  6  2 -1</clus>
<clus scale="  128.889">  1  5  2 -1</clus>
<clus scale="  128.889">  2  3  1 -1</clus>
</clustering>
</event>
<event>
 6    0  0.2839294E+002  0.1407093E+03  0.7546771E-02  0.1212378E+00
         21   -1    0    0  501  502  0.00000000000E+00  0.00000000000E+00  0.21257503936E+03  0.21257503936E+03  0.00000000000E+00 0. -1.
         -1   -1    0    0    0  501 -0.00000000000E+00 -0.00000000000E+00 -0.26174311813E+03  0.26174311813E+03  0.00000000000E+00 0.  1.
         21    1    1    2  503  505 -0.48584151320E+02 -0.11368601519E+03 -0.49054889362E+02  0.13300869137E+03  0.00000000000E+00 0.  1.
         21    1    1    2  504  502  0.46860243052E+02  0.49487571351E+02  0.10651489297E+03  0.12645285494E+03  0.00000000000E+00 0. -1.
         21    1    1    2  505  504  0.41178534046E+02  0.50972689812E+02  0.29973443116E+02  0.72057574654E+02  0.00000000000E+00 0. -1.
         -1    1    1    2    0  503 -0.39454625778E+02  0.13225754031E+02 -0.13660152550E+03  0.14279903653E+03  0.00000000000E+00 0.  1.
<scales pt_clust_3="129.86481" pt_clust_4="52.76823" pt_clust_5="52.76823" pt_clust_6="41.61235"></scales>
<clustering>
<clus scale="   41.612">  2  6  1 -1</clus>
<clus scale="   52.768">  4  5 -1 -1</clus>
<clus scale="  129.865">  2  3  1 -1</clus>
<clus scale="  140.709">  1  3  2 -1</clus>
</clustering>
</event>
<event>
 6    0  0.2839294E+002  0.1052501E+03  0.7546771E-02  0.1269628E+00
         21   -1    0    0  504  502  0.00000000000E+00  0.00000000000E+00  0.50122047699E+02  0.50122047699E+02  0.00000000000E+00 0. -1.
          2   -1    0    0  503    0 -0.00000000000E+00 -0.00000000000E+00 -0.41267776203E+04  0.41267776203E+04  0.00000000000E+00 0.  1.
         21    1    1    2  503  505  0.25835573132E+02 -0.35751314155E+02 -0.64741459139E+03  0.64891546942E+03  0.00000000000E+00 0. -1.
         21    1    1    2  504  501 -0.41336031400E+02 -0.13181699791E+03 -0.50055318395E+03  0.51926667368E+03  0.00000000000E+00 0. -1.
         21    1    1    2  505  502  0.54862811628E+02  0.37900236424E+02  0.95457203068E+01  0.67360795697E+02  0.00000000000E+00 0. -1.
          2    1    1    2  501    0 -0.39362353359E+02  0.12966807564E+03 -0.29382335176E+04  0.29413567292E+04  0.00000000000E+00 0.  1.
<scales pt_clust_3="44.10933" pt_clust_4="14000.00000" pt_clust_5="66.68979" pt_clust_6="105.25015"></scales>
<clustering>
<clus scale="   44.109">  2  3  1 -1</clus>
<clus scale="   66.690">  1  5  2 -1</clus>
<clus scale="  105.250">  2  6  1 -1</clus>
<clus scale="   66.690">  1  3  2 -1</clus>
</clustering>
</event>
<event>
 6    0  0.2839294E+002  0.1175133E+03  0.7546771E-02  0.1247257E+00
         21   -1    0    0  504  502  0.00000000000E+00  0.00000000000E+00  0.40386269750E+02  0.40386269750E+02  0.00000000000E+00 0. -1.
          1   -1    0    0  503    0 -0.00000000000E+00 -0.00000000000E+00 -0.39432470373E+04  0.39432470373E+04  0.00000000000E+00 0.  1.
         21    1    1    2  503  502  0.99331366105E+02 -0.38616873443E+02 -0.14553842134E+03  0.18038684901E+03  0.00000000000E+00 0. -1.
         21    1    1    2  504  505  0.13875294095E+02  0.26734369942E+02  0.11746256688E+02  0.32329937653E+02  0.00000000000E+00 0. -1.
         21    1    1    2  505  501 -0.53445590901E+02  0.19690884043E+02 -0.20528110991E+04  0.20536011225E+04  0.00000000000E+00 0. -1.
          1    1    1    2  501    0 -0.59761069299E+02 -0.78083805432E+01 -0.17162575039E+04  0.17173153979E+04  0.00000000000E+00 0.  1.
<scales pt_clust_3="113.28300" pt_clust_4="30.12060" pt_clust_5="30.47972" pt_clust_6="30.47972"></scales>
<clustering>
<clus scale="   30.121">  1  4  2 -1</clus>
<clus scale="   30.480">  5  6 -1 -1</clus>
<clus scale="  113.283">  1  3  2 -1</clus>
<clus scale="   30.121">  1  3  2 -1</clus>
</clustering>
</event>
<event>
 6    0  0.2839294E+002  0.1030038E+03  0.7546771E-02  0.1274103E+00
          1   -1    0    0  503    0 -0.00000000000E+00  0.00000000000E+00  0.77141614767E+03  0.77141614767E+03  0.00000000000E+00 0. -1.
         21   -1    0    0  504  502  0.00000000000E+00 -0.00000000000E+00 -0.19579507929E+03  0.19579507929E+03  0.00000000000E+00 0. -1.
         21    1    1    2  503  502  0.40340835129E+02 -0.46772632321E+01  0.10451846272E+03  0.11213103415E+03  0.00000000000E+00 0. -1.
         21    1    1    2  504  505  0.48011129059E+02  0.15394994099E+02 -0.10703791476E+03  0.11831817085E+03  0.00000000000E+00 0. -1.
         21    1    1    2  505  501 -0.14929547517E+03  0.45261548749E+01 -0.57761851628E+01  0.14947571475E+03  0.00000000000E+00 0. -1.
          1    1    1    2  501    0  0.60943510984E+02 -0.15243885742E+02  0.58391670559E+03  0.58728630722E+03  0.00000000000E+00 0. -1.
<scales pt_clust_3="40.61108" pt_clust_4="50.73379" pt_clust_5="14000.00000" pt_clust_6="103.00384"></scales>
<clustering>
<clus scale="   40.611">  1  3  2 -1</clus>
<clus scale="   50.734">  2  4  1 -1</clus>
<clus scale="  103.004">  1  6  2 -1</clus>
<clus scale="   50.734">  2  3  1 -1</clus>
</clustering>
</event>
<event>
 6    0  0.2839294E+002  0.2590017E+03  0.7546771E-02  0.1107745E+00
         21   -1    0    0  504  502  0.00000000000E+00  0.00000000000E+00  0.86998765152E+03  0.86998765152E+03  0.00000000000E+00 0.  1.
          1   -1    0    0  503    0 -0.00000000000E+00 -0.00000000000E+00 -0.94006278923E+03  0.94006278923E+03  0.00000000000E+00 0. -1.
         21    1    1    2  503  505 -0.10599717397E+02  0.29016079791E+02 -0.85043359777E+02  0.90480163226E+02  0.00000000000E+00 0. -1.
         21    1    1    2  504  501 -0.24760451351E+03  0.38024330920E+02  0.69093726414E+03  0.73494771775E+03  0.00000000000E+00 0.  1.
         21    1    1    2  505  502 -0.11440577219E+02 -0.38236328909E+02  0.12908947953E+03  0.13511845685E+03  0.00000000000E+00 0.  1.
          1    1    1    2  501    0  0.26964480813E+03 -0.28804081802E+02 -0.80505852160E+03  0.84950410292E+03  0.00000000000E+00 0. -1.
<scales pt_clust_3="30.89153" pt_clust_4="259.00170" pt_clust_5="39.82368" pt_clust_6="14000.00000"></scales>
<clustering>
<clus scale="   30.892">  2  3  1 -1</clus>
<clus scale="   39.824">  1  5  2 -1</clus>
<clus scale="  259.002">  1  4  2 -1</clus>
<clus scale="   39.824">  1  3  2 -1</clus>
</clustering>
</event>
<event>
 6    0  0.2839294E+002  0.1719500E+03  0.7546771E-02  0.1175829E+00
         21   -1    0    0  503  502  0.00000000000E+00  0.00000000000E+00  0.20980094981E+03  0.20980094981E+03  0.00000000000E+00 0.  1.
          1   -1    0    0  504    0 -0.00000000000E+00 -0.00000000000E+00 -0.12133428486E+04  0.12133428486E+04  0.00000000000E+00 0.  1.
         21    1    1    2  503  501  0.27877880549E+02  0.73875996804E+02 -0.36096267275E+03  0.36949816001E+03  0.00000000000E+00 0.  1.
         21    1    1    2  504  505 -0.86243497781E+02 -0.17225007906E+03 -0.19918383649E+03  0.27709606884E+03  0.00000000000E+00 0.  1.
         21    1    1    2  505  502  0.86502180835E+02  0.16330154343E+02  0.15157873587E+03  0.17528666349E+03  0.00000000000E+00 0.  1.
          1    1    1    2  501    0 -0.28136563603E+02  0.82043927913E+02 -0.59497412545E+03  0.60126290612E+03  0.00000000000E+00 0.  1.
<scales pt_clust_3="62.20789" pt_clust_4="159.11000" pt_clust_5="88.03012" pt_clust_6="62.20789"></scales>
<clustering>
<clus scale="   62.208">  3  6 -1 -1</clus>
<clus scale="   88.030">  1  5  2 -1</clus>
<clus scale="  159.110">  1  4  2 -1</clus>
<clus scale="   88.030">  1  3  2 -1</clus>
</clustering>
</event>
<event>
 6    0  0.2839294E+002  0.8376722E+02  0.7546771E-02  0.1318688E+00
          2   -1    0    0  505    0 -0.00000000000E+00  0.00000000000E+00  0.24876579967E+04  0.24876579967E+04  0.00000000000E+00 0. -1.
         21   -1    0    0  501  502  0.00000000000E+00 -0.00000000000E+00 -0.57127469439E+02  0.57127469439E+02  0.00000000000E+00 0. -1.
         21    1    1    2  503  502  0.48527572063E+02  0.20207137926E+02  0.11532945777E+02  0.53816935176E+02  0.00000000000E+00 0. -1.
         21    1    1    2  504  503  0.29184865938E+02 -0.56247712102E+02 -0.38769042390E+01  0.63486942776E+02  0.00000000000E+00 0. -1.
         21    1    1    2  505  504 -0.11251578967E+02 -0.35913069408E+02  0.30042049026E+03  0.30276858746E+03  0.00000000000E+00 0.  1.
          2    1    1    2  501    0 -0.66460859034E+02  0.71953643584E+02  0.21224539955E+04  0.21247130007E+04  0.00000000000E+00 0. -1.
<scales pt_clust_3="52.20684" pt_clust_4="14000.00000" pt_clust_5="37.63438" pt_clust_6="83.76722"></scales>
<clustering>
<clus scale="   37.634">  1  5  2 -1</clus>
<clus scale="   52.207">  2  3  1 -1</clus>
<clus scale="   83.767">  1  6  2 -1</clus>
<clus scale="   52.207">  2  3  1 -1</clus>
</clustering>
</event>
<event>
 6    0  0.2839294E+002  0.1230413E+03  0.7546771E-02  0.1238162E+00
         21   -1    0    0  503  502  0.00000000000E+00  0.00000000000E+00  0.93362101364E+02  0.93362101364E+02  0.00000000000E+00 0. -1.
         -1   -1    0    0    0  501 -0.00000000000E+00 -0.00000000000E+00 -0.16702658237E+04  0.16702658237E+04  0.00000000000E+00 0.  1.
         21    1    1    2  503  501  0.38408558494E+02 -0.42071451809E+02 -0.13491019954E+03  0.14644448219E+03  0.00000000000E+00 0.  1.
         21    1    1    2  504  505 -0.72019995681E+02  0.11080629633E+03 -0.12626551428E+03  0.18277826780E+03  0.00000000000E+00 0.  1.
         21    1    1    2  505  502  0.92166152858E+02 -0.78277976556E+02 -0.36398185742E+01  0.12097640111E+03  0.00000000000E+00 0. -1.
         -1    1    1    2    0  504 -0.58554715671E+02  0.95431320350E+01 -0.13120881900E+04  0.13134287740E+04  0.00000000000E+00 0.  1.
<scales pt_clust_3="56.96687" pt_clust_4="123.04134" pt_clust_5="14000.00000" pt_clust_6="36.88575"></scales>
<clustering>
<clus scale="   56.967">  2  3  1 -1</clus>
<clus scale="   36.886">  2  6  1 -1</clus>
<clus scale="  123.041">  2  4  1 -1</clus>
<clus scale="  123.041">  1  3  2 -1</clus>
</clustering>
</event>
<event>
 6    0  0.2839294E+002  0.1704195E+03  0.7546771E-02  0.1177411E+00
          2   -1    0    0  503    0 -0.00000000000E+00  0.00000000000E+00  0.19322996486E+04  0.19322996486E+04  0.00000000000E+00 0. -1.
         21   -1    0    0  504  502  0.00000000000E+00 -0.00000000000E+00 -0.70368788632E+02  0.70368788632E+02  0.00000000000E+00 0. -1.
         21    1    1    2  503  505 -0.17532537927E+03  0.39455187761E+02  0.95170365557E+02  0.20335461376E+03  0.00000000000E+00 0. -1.
         21    1    1    2  504  501  0.61737132289E+02 -0.10050327002E+02  0.43813167237E+03  0.44257411234E+03  0.00000000000E+00 0. -1.
         21    1    1    2  505  502  0.26876564125E+02  0.17568023001E+02  0.88838167360E+01  0.33315271741E+02  0.00000000000E+00 0.  1.
          2    1    1    2  501    0  0.86711682859E+02 -0.46972883761E+02  0.13197450053E+04  0.13234244394E+04  0.00000000000E+00 0. -1.
<scales pt_clust_3="160.34663" pt_clust_4="46.18958" pt_clust_5="32.10896" pt_clust_6="46.18958"></scales>
<clustering>
<clus scale="   32.109">  2  5  1 -1</clus>
<clus scale="   46.190">  4  6 -1 -1</clus>
<clus scale="  160.347">  2  3  1 -1</clus>
<clus scale="   32.109">  2  3  1 -1</clus>
</clustering>
</event>
<event>
 6    0  0.2839294E+002  0.1467413E+03  0.7546771E-02  0.1204535E+00
          2   -1    0    0  504    0 -0.00000000000E+00  0.00000000000E+00  0.57851498860E+03  0.57851498860E+03  0.00000000000E+00 0.  1.
         21   -1    0    0  505  502  0.00000000000E+00 -0.00000000000E+00 -0.57480145522E+03  0.57480145522E+03  0.00000000000E+00 0.  1.
         21    1    1    2  503  502  0.10749590930E+03 -0.91478023997E+02  0.15202004863E+03  0.20744564247E+03  0.00000000000E+00 0.  1.
         21    1    1    2  504  503  0.17239232771E+01  0.32995767771E+02  0.95924904770E+02  0.10145580298E+03  0.00000000000E+00 0. -1.
         21    1    1    2  505  501 -0.14064919912E+03  0.44872021830E+02 -0.53328309869E+03  0.55334126803E+03  0.00000000000E+00 0.  1.
          2    1    1    2  501    0  0.31429366539E+02  0.13610234396E+02  0.28905167866E+03  0.29107373035E+03  0.00000000000E+00 0.  1.
<scales pt_clust_3="146.74128" pt_clust_4="33.04077" pt_clust_5="14000.00000" pt_clust_6="46.69535"></scales>
<clustering>
<clus scale="   33.041">  1  4  2 -1</clus>
<clus scale="   46.695">  1  6  2 -1</clus>
<clus scale="  146.741">  1  3  2 -1</clus>
<clus scale="  146.741">  2  3  1 -1</clus>
</clustering>
</event>
<event>
 6    0  0.2839294E+002  0.3207963E+03  0.7546771E-02  0.1075283E+00
         -3   -1    0    0    0  501 -0.00000000000E+00  0.00000000000E+00  0.39446966937E+03  0.39446966937E+03  0.00000000000E+00 0.  1.
         21   -1    0    0  505  502  0.00000000000E+00 -0.00000000000E+00 -0.86937253067E+03  0.86937253067E+03  0.00000000000E+00 0. -1.
         21    1    1    2  503  501  0.30939010206E+03 -0.56327459394E+02 -0.36366751625E+03  0.48077965879E+03  0.00000000000E+00 0. -1.
         21    1    1    2  504  502 -0.15872861834E+03  0.31645807436E+02  0.13653826613E+03  0.21175204728E+03  0.00000000000E+00 0. -1.
         21    1    1    2  505  503  0.86691010174E+01  0.35401351860E+02 -0.36901437294E+03  0.37080994655E+03  0.00000000000E+00 0. -1.
         -3    1    1    2    0  504 -0.15933058474E+03 -0.10719699902E+02  0.12124076176E+03  0.20050054741E+03  0.00000000000E+00 0.  1.
<scales pt_clust_3="317.81704" pt_clust_4="43.22391" pt_clust_5="36.44735" pt_clust_6="43.22391"></scales>
<clustering>
<clus scale="   36.447">  2  5  1 -1</clus>
<clus scale="   43.224">  4  6 -1 -1</clus>
<clus scale="  317.817">  2  3  1 -1</clus>
<clus scale="   36.447">  2  3  1 -1</clus>
</clustering>
</event>
<event>
 6    0  0.2839294E+002  0.8193027E+02  0.7546771E-02  0.1323661E+00
         21   -1    0    0  501  502  0.00000000000E+00  0.00000000000E+00  0.90786612452E+03  0.90786612452E+03  0.00000000000E+00 0. -1.
          4   -1    0    0  505    0 -0.00000000000E+00 -0.00000000000E+00 -0.16991528924E+03  0.16991528924E+03  0.00000000000E+00 0. -1.
         21    1    1    2  503  502  0.36250012175E+02 -0.20315477291E+02  0.55291672027E+03  0.55447604236E+03  0.00000000000E+00 0. -1.
         21    1    1    2  504  503 -0.11549094157E+03  0.41106417421E+02  0.32855598614E+03  0.35068066836E+03  0.00000000000E+00 0. -1.
         21    1    1    2  505  504  0.26880064437E+02 -0.20250837199E+02 -0.21748947375E+02  0.40070575031E+02  0.00000000000E+00 0.  1.
          4    1    1    2  501    0  0.52360864955E+02 -0.54010293073E+00 -0.12177292375E+03  0.13255412800E+03  0.00000000000E+00 0. -1.
<scales pt_clust_3="41.74162" pt_clust_4="81.93027" pt_clust_5="33.65463" pt_clust_6="14000.00000"></scales>
<clustering>
<clus scale="   33.655">  2  5  1 -1</clus>
<clus scale="   41.742">  1  3  2 -1</clus>
<clus scale="   81.930">  1  4  2 -1</clus>
<clus scale="   41.742">  1  3  2 -1</clus>
</clustering>
</event>
<event>
 6    0  0.2839294E+002  0.8942823E+02  0.7546771E-02  0.1304242E+00
         21   -1    0    0  504  502  0.00000000000E+00  0.00000000000E+00  0.50338894880E+02  0.50338894880E+02  0.00000000000E+00 0.  1.
          2   -1    0    0  505    0 -0.00000000000E+00 -0.00000000000E+00 -0.94195922649E+03  0.94195922649E+03  0.00000000000E+00 0.  1.
         21    1    1    2  503  502  0.25289409994E+02 -0.88610274739E+02 -0.20093761275E+02  0.94313807522E+02  0.00000000000E+00 0.  1.
         21    1    1    2  504  501 -0.61293487925E+02 -0.54133804342E+01 -0.99694071632E+02  0.11715419014E+03  0.00000000000E+00 0.  1.
         21    1    1    2  505  503 -0.10040286350E+02  0.42854128884E+02 -0.19504598378E+03  0.19995054263E+03  0.00000000000E+00 0. -1.
          2    1    1    2  501    0  0.46044364281E+02  0.51169526289E+02 -0.57678651493E+03  0.58087958107E+03  0.00000000000E+00 0.  1.
<scales pt_clust_3="14000.00000" pt_clust_4="62.76123" pt_clust_5="44.01459" pt_clust_6="89.42823"></scales>
<clustering>
<clus scale="   44.015">  2  5  1 -1</clus>
<clus scale="   62.761">  1  4  2 -1</clus>
<clus scale="   89.428">  2  6  1 -1</clus>
<clus scale="   62.761">  1  3  2 -1</clus>
</clustering>
</event>
<event>
 6    0  0.2839294E+002  0.9066195E+02  0.7546771E-02  0.1301257E+00
          2   -1    0    0  505    0 -0.00000000000E+00  0.00000000000E+00  0.28103618485E+04  0.28103618485E+04  0.00000000000E+00 0.  1.
         21   -1    0    0  504  502  0.00000000000E+00 -0.00000000000E+00 -0.96793148311E+02  0.96793148311E+02  0.00000000000E+00 0.  1.
         21    1    1    2  503  501 -0.91925937839E+02  0.31175205102E+02  0.71242951874E+03  0.71901188491E+03  0.00000000000E+00 0.  1.
         21    1    1    2  504  503 -0.26726582523E+02  0.37367655337E+02 -0.68425991260E+02  0.82418251369E+02  0.00000000000E+00 0.  1.
         21    1    1    2  505  502  0.78883010111E+02 -0.10159773144E+03  0.21570761236E+03  0.25114617725E+03  0.00000000000E+00 0.  1.
          2    1    1    2  501    0  0.39769510251E+02  0.33054871001E+02  0.18538575603E+04  0.18545786832E+04  0.00000000000E+00 0.  1.
<scales pt_clust_3="90.66195" pt_clust_4="45.94183" pt_clust_5="14000.00000" pt_clust_6="51.77502"></scales>
<clustering>
<clus scale="   45.942">  2  4  1 -1</clus>
<clus scale="   51.775">  1  6  2 -1</clus>
<clus scale="   90.662">  1  3  2 -1</clus>
<clus scale="   45.942">  2  3  1 -1</clus>
</clustering>
</event>
<event>
 6    0  0.2839294E+002  0.2052247E+03  0.7546771E-02  0.1145404E+00
          1   -1    0    0  505    0 -0.00000000000E+00  0.00000000000E+00  0.16265434447E+04  0.16265434447E+04  0.00000000000E+00 0. -1.
         21   -1    0    0  504  502  0.00000000000E+00 -0.00000000000E+00 -0.68572538483E+03  0.68572538483E+03  0.00000000000E+00 0.  1.
         21    1    1    2  503  502  0.34134692212E+02 -0.31923378662E+02 -0.17929757486E+03  0.18528869277E+03  0.00000000000E+00 0.  1.
         21    1    1    2  504  501 -0.87506446345E+02 -0.16794508098E+03 -0.46848135570E+03  0.50530951804E+03  0.00000000000E+00 0.  1.
         21    1    1    2  505  503  0.31630960078E+02  0.50162636387E+02  0.55802549082E+02  0.81429308046E+02  0.00000000000E+00 0. -1.
          1    1    1    2  501    0  0.21740794055E+02  0.14970582326E+03  0.15327944413E+04  0.15402413106E+04  0.00000000000E+00 0. -1.
<scales pt_clust_3="46.73627" pt_clust_4="205.22465" pt_clust_5="59.09034" pt_clust_6="14000.00000"></scales>
<clustering>
<clus scale="   46.736">  2  3  1 -1</clus>
<clus scale="   59.090">  1  5  2 -1</clus>
<clus scale="  205.225">  2  4  1 -1</clus>
<clus scale="   46.736">  2  3  1 -1</clus>
</clustering>
</event>
<event>
 6    0  0.2839294E+002  0.1031459E+03  0.7546771E-02  0.1273816E+00
          2   -1    0    0  504    0 -0.00000000000E+00  0.00000000000E+00  0.43991580811E+04  0.43991580811E+04  0.00000000000E+00 0.  1.
         21   -1    0    0  503  502  0.00000000000E+00 -0.00000000000E+00 -0.11969315166E+02  0.11969315166E+02  0.00000000000E+00 0.  1.
         21    1    1    2  503  501 -0.15487503165E+02  0.51078921677E+02  0.11836718979E+03  0.12984494835E+03  0.00000000000E+00 0.  1.
         21    1    1    2  504  505 -0.10268376957E+03 -0.42492447481E+02  0.33307875305E+04  0.33326408654E+04  0.00000000000E+00 0.  1.
         21    1    1    2  505  502  0.32083929182E+02 -0.17477052250E+02  0.10602255705E+03  0.11214102046E+03  0.00000000000E+00 0.  1.
          2    1    1    2  501    0  0.86087343557E+02  0.88905780545E+01  0.83201148860E+03  0.83650056202E+03  0.00000000000E+00 0.  1.
<scales pt_clust_3="40.15731" pt_clust_4="14000.00000" pt_clust_5="36.53527" pt_clust_6="103.14585"></scales>
<clustering>
<clus scale="   36.535">  2  5  1 -1</clus>
<clus scale="   40.157">  2  3  1 -1</clus>
<clus scale="  103.146">  2  6  1 -1</clus>
<clus scale="   36.535">  2  3  1 -1</clus>
</clustering>
</event>
<event>
 6    0  0.2839294E+002  0.8441839E+02  0.7546771E-02  0.1316961E+00
         21   -1    0    0  503  502  0.00000000000E+00  0.00000000000E+00  0.16778048837E+03  0.16778048837E+03  0.00000000000E+00 0.  1.
          1   -1    0    0  505    0 -0.00000000000E+00 -0.00000000000E+00 -0.49385974956E+03  0.49385974956E+03  0.00000000000E+00 0.  1.
         21    1    1    2  503  501  0.94945514996E+02 -0.18236233873E+02  0.90247200847E+02  0.13225644901E+03  0.00000000000E+00 0.  1.
         21    1    1    2  504  502 -0.26106615697E+02 -0.35180974555E+02  0.34115066871E+02  0.55525616983E+02  0.00000000000E+00 0.  1.
         21    1    1    2  505  504 -0.79187721044E+02  0.27923448134E+01 -0.15656895781E+03  0.17547743702E+03  0.00000000000E+00 0. -1.
          1    1    1    2  501    0  0.10348821745E+02  0.50624863615E+02 -0.29387257109E+03  0.29838073492E+03  0.00000000000E+00 0.  1.
<scales pt_clust_3="14000.00000" pt_clust_4="43.80932" pt_clust_5="84.41839" pt_clust_6="50.94522"></scales>
<clustering>
<clus scale="   43.809">  1  4  2 -1</clus>
<clus scale="   50.945">  2  6  1 -1</clus>
<clus scale="   84.418">  2  5  1 -1</clus>
<clus scale="   43.809">  1  3  2 -1</clus>
</clustering>
</event>
<event>
 6    0  0.2839294E+002  0.9149836E+02  0.7546771E-02  0.1299263E+00
          2   -1    0    0  503    0 -0.00000000000E+00  0.00000000000E+00  0.25419075538E+04  0.25419075538E+04  0.00000000000E+00 0.  1.
         21   -1    0    0  504  502  0.00000000000E+00 -0.00000000000E+00 -0.36245737308E+03  0.36245737308E+03  0.00000000000E+00 0.  1.
         21    1    1    2  503  502 -0.43121174678E+02  0.11480870649E+03  0.35082608976E+03  0.37164421164E+03  0.00000000000E+00 0.  1.
         21    1    1    2  504  505 -0.55661469211E+02 -0.17256819115E+02 -0.31731561850E+03  0.32262237787E+03  0.00000000000E+00 0.  1.
         21    1    1    2  505  501  0.28562096669E+02 -0.74660217359E+02  0.19375259570E+02  0.82251699713E+02  0.00000000000E+00 0.  1.
          2    1    1    2  501    0  0.70220547220E+02 -0.22891670013E+02  0.21265644499E+04  0.21278466377E+04  0.00000000000E+00 0.  1.
<scales pt_clust_3="14000.00000" pt_clust_4="58.27518" pt_clust_5="91.49836" pt_clust_6="73.14163"></scales>
<clustering>
<clus scale="   58.275">  2  4  1 -1</clus>
<clus scale="   73.142">  1  6  2 -1</clus>
<clus scale="   91.498">  2  5  1 -1</clus>
<clus scale="   58.275">  2  3  1 -1</clus>
</clustering>
</event>
<event>
 6    0  0.2839294E+002  0.1272864E+03  0.7546771E-02  0.1231539E+00
          2   -1    0    0  505    0 -0.00000000000E+00  0.00000000000E+00  0.14408373303E+03  0.14408373303E+03  0.00000000000E+00 0.  1.
         21   -1    0    0  501  502  0.00000000000E+00 -0.00000000000E+00 -0.33632829869E+03  0.33632829869E+03  0.00000000000E+00 0. -1.
         21    1    1    2  503  502 -0.67458374569E+02  0.21215243202E+02 -0.16666609618E+03  0.18104780159E+03  0.00000000000E+00 0. -1.
         21    1    1    2  504  503 -0.39182585661E+02  0.93884809079E+02 -0.68283189634E+02  0.12252439097E+03  0.00000000000E+00 0. -1.
         21    1    1    2  505  504  0.32577460027E+02 -0.96464970660E-01 -0.27571026669E+01  0.32694064025E+02  0.00000000000E+00 0. -1.
          2    1    1    2  501    0  0.74063500203E+02 -0.11500358731E+03  0.45461822821E+02  0.14414577514E+03  0.00000000000E+00 0.  1.
<scales pt_clust_3="68.98548" pt_clust_4="14000.00000" pt_clust_5="32.57760" pt_clust_6="127.28641"></scales>
<clustering>
<clus scale="   32.578">  1  5  2 -1</clus>
<clus scale="   68.985">  2  3  1 -1</clus>
<clus scale="  127.286">  1  6  2 -1</clus>
<clus scale="   68.985">  2  3  1 -1</clus>
</clustering>
</event>
<event>
 6    0  0.2839294E+002  0.1245539E+03  0.7546771E-02  0.1235768E+00
         21   -1    0    0  505  502  0.00000000000E+00  0.00000000000E+00  0.17433090207E+03  0.17433090207E+03  0.00000000000E+00 0. -1.
          2   -1    0    0  503    0 -0.00000000000E+00 -0.00000000000E+00 -0.15407306454E+04  0.15407306454E+04  0.00000000000E+00 0. -1.
         21    1    1    2  503  502 -0.53937546732E+01  0.70851317779E+02 -0.97678940221E+03  0.97937048051E+03  0.00000000000E+00 0. -1.
         21    1    1    2  504  501  0.39806632307E+02 -0.32668088733E+02  0.40052340743E+02  0.65237734450E+02  0.00000000000E+00 0. -1.
         21    1    1    2  505  504  0.23951344328E+02 -0.66383350084E+02  0.10793671454E+03  0.12896026678E+03  0.00000000000E+00 0. -1.
          2    1    1    2  501    0 -0.58364221962E+02  0.28200121039E+02 -0.53759939637E+03  0.54149306571E+03  0.00000000000E+00 0. -1.
<scales pt_clust_3="116.52397" pt_clust_4="37.58391" pt_clust_5="37.58391" pt_clust_6="64.81998"></scales>
<clustering>
<clus scale="   37.584">  4  5 -1 -1</clus>
<clus scale="   64.820">  2  6  1 -1</clus>
<clus scale="  116.524">  2  3  1 -1</clus>
<clus scale="  124.554">  1  3  2 -1</clus>
</clustering>
</event>
<event>
 6    0  0.2839294E+002  0.9387726E+02  0.7546771E-02  0.1293725E+00
         21   -1    0    0  505  502  0.00000000000E+00  0.00000000000E+00  0.96213113020E+03  0.96213113020E+03  0.00000000000E+00 0. -1.
         -2   -1    0    0    0  501 -0.00000000000E+00 -0.00000000000E+00 -0.82239164362E+02  0.82239164362E+02  0.00000000000E+00 0.  1.
         21    1    1    2  503  501  0.59201624985E+01  0.30208946201E+02 -0.72844033861E+01  0.31633704924E+02  0.00000000000E+00 0. -1.
         21    1    1    2  504  502 -0.26977487803E+02 -0.13637755968E+02  0.58533189916E+02  0.65877974754E+02  0.00000000000E+00 0.  1.
         21    1    1    2  505  503  0.11818116031E+03  0.17358894962E+02  0.83526775724E+03  0.84376557418E+03  0.00000000000E+00 0. -1.
         -2    1    1    2    0  504 -0.97123835010E+02 -0.33930085195E+02 -0.66245779323E+01  0.10309304070E+03  0.00000000000E+00 0.  1.
<scales pt_clust_3="30.53404" pt_clust_4="30.22868" pt_clust_5="14000.00000" pt_clust_6="93.87726"></scales>
<clustering>
<clus scale="   30.229">  1  4  2 -1</clus>
<clus scale="   30.534">  2  3  1 -1</clus>
<clus scale="   93.877">  2  6  1 -1</clus>
<clus scale="   30.229">  1  3  2 -1</clus>
</clustering>
</event>
<event>
 6    0  0.2839294E+002  0.1146737E+03  0.7546771E-02  0.1252152E+00
         21   -1    0    0  501  502  0.00000000000E+00  0.00000000000E+00  0.33670756229E+03  0.33670756229E+03  0.00000000000E+00 0. -1.
          2   -1    0    0  503    0 -0.00000000000E+00 -0.00000000000E+00 -0.13309824949E+04  0.13309824949E+04  0.00000000000E+00 0.  1.
         21    1    1    2  503  505  0.49099368424E+02  0.46880920860E+01 -0.25145873965E+03  0.25625031499E+03  0.00000000000E+00 0.  1.
         21    1    1    2  504  502 -0.58835681624E+02 -0.99048435997E+02  0.31612280383E+03  0.33646078109E+03  0.00000000000E+00 0. -1.
         21    1    1    2  505  504 -0.30608745695E+02  0.43585534335E+02 -0.95400619864E+02  0.10926057105E+03  0.00000000000E+00 0. -1.
          2    1    1    2  501    0  0.40345058895E+02  0.50774809576E+02 -0.96353837691E+03  0.96571839003E+03  0.00000000000E+00 0.  1.
<scales pt_clust_3="49.32267" pt_clust_4="14000.00000" pt_clust_5="51.10597" pt_clust_6="114.67373"></scales>
<clustering>
<clus scale="   49.323">  2  3  1 -1</clus>
<clus scale="   51.106">  2  5  1 -1</clus>
<clus scale="  114.674">  2  6  1 -1</clus>
<clus scale="  114.674">  1  3  2 -1</clus>
</clustering>
</event>
<event>
 6    0  0.2839294E+002  0.1107170E+03  0.7546771E-02  0.1259248E+00
         21   -1    0    0  504  502  0.00000000000E+00  0.00000000000E+00  0.21948870454E+03  0.21948870454E+03  0.00000000000E+00 0. -1.
          1   -1    0    0  503    0 -0.00000000000E+00 -0.00000000000E+00 -0.14394639910E+04  0.14394639910E+04  0.00000000000E+00 0.  1.
         21    1    1    2  503  505 -0.14360753077E+03  0.31070770674E+02 -0.10897467033E+04  0.10996073813E+04  0.00000000000E+00 0.  1.
         21    1    1    2  504  501  0.96860331854E+02 -0.46426040317E+02  0.71358081852E+02  0.12895455382E+03  0.00000000000E+00 0.  1.
         21    1    1    2  505  502  0.13260601655E+02  0.42510690900E+02  0.10852008608E+03  0.11730137033E+03  0.00000000000E+00 0. -1.
          1    1    1    2  501    0  0.33486597265E+02 -0.27155421257E+02 -0.31010675103E+03  0.31308939001E+03  0.00000000000E+00 0.  1.
<scales pt_clust_3="110.71698" pt_clust_4="14000.00000" pt_clust_5="44.46909" pt_clust_6="43.11344"></scales>
<clustering>
<clus scale="   43.113">  2  6  1 -1</clus>
<clus scale="   44.469">  1  5  2 -1</clus>
<clus scale="  110.717">  2  3  1 -1</clus>
<clus scale="   44.469">  1  3  2 -1</clus>
</clustering>
</event>
<event>
 6    0  0.2839294E+002  0.7827725E+02  0.7546771E-02  0.1334013E+00
          1   -1    0    0  505    0 -0.00000000000E+00  0.00000000000E+00  0.48952091340E+03  0.48952091340E+03  0.00000000000E+00 0. -1.
         21   -1    0    0  504  502  0.00000000000E+00 -0.00000000000E+00 -0.56636415524E+02  0.56636415524E+02  0.00000000000E+00 0. -1.
         21    1    1    2  503  501 -0.21041076872E+02 -0.55309572090E+02  0.19390746031E+03  0.20273622973E+03  0.00000000000E+00 0. -1.
         21    1    1    2  504  503  0.87704637345E+02 -0.25668705225E+02  0.38403638677E+02  0.99125301026E+02  0.00000000000E+00 0. -1.
         21    1    1    2  505  502 -0.37448364392E+02  0.67425145336E+02  0.53816118310E+02  0.94046290778E+02  0.00000000000E+00 0. -1.
          1    1    1    2  501    0 -0.29215196081E+02  0.13553131979E+02  0.14675728057E+03  0.15024950739E+03  0.00000000000E+00 0. -1.
<scales pt_clust_3="60.79285" pt_clust_4="78.27725" pt_clust_5="14000.00000" pt_clust_6="32.20582"></scales>
<clustering>
<clus scale="   32.206">  1  6  2 -1</clus>
<clus scale="   60.793">  1  3  2 -1</clus>
<clus scale="   78.277">  2  4  1 -1</clus>
<clus scale="   78.277">  2  3  1 -1</clus>
</clustering>
</event>
<event>
 6    0  0.2839294E+002  0.1089200E+03  0.7546771E-02  0.1262583E+00
          1   -1    0    0  505    0 -0.00000000000E+00  0.00000000000E+00  0.13666315451E+04  0.13666315451E+04  0.00000000000E+00 0.  1.
         21   -1    0    0  501  502  0.00000000000E+00 -0.00000000000E+00 -0.53312048209E+02  0.53312048209E+02  0.00000000000E+00 0. -1.
         21    1    1    2  503  502 -0.61728078827E+02  0.24309667646E+02  0.70115292721E+01  0.66711896987E+02  0.00000000000E+00 0. -1.
         21    1    1    2  504  503 -0.11452534130E+02  0.73613078423E+02  0.50122190732E+02  0.89790199113E+02  0.00000000000E+00 0. -1.
         21    1    1    2  505  504  0.11770160917E+02 -0.28028085857E+02  0.13397999323E+03  0.13738540269E+03  0.00000000000E+00 0. -1.
          1    1    1    2  501    0  0.61410452040E+02 -0.69894660213E+02  0.11222057836E+04  0.11260560945E+04  0.00000000000E+00 0.  1.
<scales pt_clust_3="65.71014" pt_clust_4="108.92004" pt_clust_5="30.39918" pt_clust_6="14000.00000"></scales>
<clustering>
<clus scale="   30.399">  1  5  2 -1</clus>
<clus scale="   65.710">  2  3  1 -1</clus>
<clus scale="  108.920">  2  4  1 -1</clus>
<clus scale="   65.710">  2  3  1 -1</clus>
</clustering>
</event>
<event>
 6    0  0.2839294E+002  0.1239066E+03  0.7546771E-02  0.1236788E+00
          2   -1    0    0  505    0 -0.00000000000E+00  0.00000000000E+00  0.82639473649E+03  0.82639473649E+03  0.00000000000E+00 0. -1.
         21   -1    0    0  504  502  0.00000000000E+00 -0.00000000000E+00 -0.42322741642E+03  0.42322741642E+03  0.00000000000E+00 0. -1.
         21    1    1    2  503  502 -0.34715042780E+02 -0.25446607061E+02 -0.28569181538E+03  0.28891603863E+03  0.00000000000E+00 0. -1.
         21    1    1    2  504  501  0.73300418811E+02 -0.92360866459E+02 -0.99016372094E+02  0.15397312426E+03  0.00000000000E+00 0. -1.
         21    1    1    2  505  503 -0.19192348801E+02 -0.23717289139E+02  0.14623979878E+03  0.14938853638E+03  0.00000000000E+00 0. -1.
          2    1    1    2  501    0 -0.19393027230E+02  0.14152476266E+03  0.64163570877E+03  0.65734445363E+03  0.00000000000E+00 0. -1.
<scales pt_clust_3="43.11267" pt_clust_4="14000.00000" pt_clust_5="30.50993" pt_clust_6="123.90664"></scales>
<clustering>
<clus scale="   30.510">  1  5  2 -1</clus>
<clus scale="   43.113">  2  3  1 -1</clus>
<clus scale="  123.907">  1  6  2 -1</clus>
<clus scale="   43.113">  2  3  1 -1</clus>
</clustering>
</event>
<event>
 6    0  0.2839294E+002  0.1663958E+03  0.7546771E-02  0.1181659E+00
         21   -1    0    0  503  502  0.00000000000E+00  0.00000000000E+00  0.20224124386E+03  0.20224124386E+03  0.00000000000E+00 0. -1.
          1   -1    0    0  505    0 -0.00000000000E+00 -0.00000000000E+00 -0.21983994446E+04  0.21983994446E+04  0.00000000000E+00 0.  1.
         21    1    1    2  503  501  0.14557090768E+03  0.94409116181E+02  0.12632341150E+03  0.21461960459E+03  0.00000000000E+00 0. -1.
         21    1    1    2  504  502 -0.13201002677E+03 -0.48781465110E+02 -0.14917352510E+03  0.20508295662E+03  0.00000000000E+00 0.  1.
         21    1    1    2  505  504  0.39567046793E+02 -0.66600743178E+02 -0.45437582417E+03  0.46093231582E+03  0.00000000000E+00 0.  1.
          1    1    1    2  501    0 -0.53127927703E+02  0.20973092107E+02 -0.15189322630E+04  0.15200058114E+04  0.00000000000E+00 0.  1.
<scales pt_clust_3="14000.00000" pt_clust_4="166.39577" pt_clust_5="52.59736" pt_clust_6="57.11784"></scales>
<clustering>
<clus scale="   57.118">  2  6  1 -1</clus>
<clus scale="   52.597">  2  5  1 -1</clus>
<clus scale="  166.396">  2  4  1 -1</clus>
<clus scale="  166.396">  1  3  2 -1</clus>
</clustering>
</event>
<event>
 6    0  0.2839294E+002  0.1696366E+03  0.7546771E-02  0.1178227E+00
         21   -1    0    0  503  502  0.00000000000E+00  0.00000000000E+00  0.49439097197E+03  0.49439097197E+03  0.00000000000E+00 0. -1.
          2   -1    0    0  504    0 -0.00000000000E+00 -0.00000000000E+00 -0.58939762757E+03  0.58939762757E+03  0.00000000000E+00 0.  1.
         21    1    1    2  503  505  0.26011559945E+02 -0.44906000123E+02  0.55683030407E+02  0.76116686562E+02  0.00000000000E+00 0. -1.
         21    1    1    2  504  502  0.69595787040E+02 -0.63415984737E+02  0.33334584316E+03  0.34638794992E+03  0.00000000000E+00 0. -1.
         21    1    1    2  505  501 -0.77390884136E+02 -0.64428399915E+02  0.40647318913E+02  0.10859361030E+03  0.00000000000E+00 0.  1.
          2    1    1    2  501    0 -0.18216462849E+02  0.17275038477E+03 -0.52468284809E+03  0.55269035276E+03  0.00000000000E+00 0.  1.
<scales pt_clust_3="51.89557" pt_clust_4="169.63664" pt_clust_5="102.60896" pt_clust_6="14000.00000"></scales>
<clustering>
<clus scale="   51.896">  1  3  2 -1</clus>
<clus scale="  102.609">  1  5  2 -1</clus>
<clus scale="  169.637">  1  4  2 -1</clus>
<clus scale="   51.896">  1  3  2 -1</clus>
</clustering>
</event>
<event>
 6    0  0.2839294E+002  0.8157151E+02  0.7546771E-02  0.1324650E+00
         21   -1    0    0  505  502  0.00000000000E+00  0.00000000000E+00  0.28449138566E+02  0.28449138566E+02  0.00000000000E+00 0.  1.
          2   -1    0    0  504    0 -0.00000000000E+00 -0.00000000000E+00 -0.23530934506E+04  0.23530934506E+04  0.00000000000E+00 0.  1.
         21    1    1    2  503  502 -0.79742203896E+01  0.43051227751E+02 -0.59563014831E+01  0.44186807184E+02  0.00000000000E+00 0.  1.
         21    1    1    2  504  503  0.82195384388E+02  0.74301123579E+00 -0.12171935956E+04  0.12199659349E+04  0.00000000000E+00 0.  1.
         21    1    1    2  505  501  0.40591788942E+01 -0.75790052250E+02 -0.23906071402E+03  0.25081992333E+03  0.00000000000E+00 0.  1.
          2    1    1    2  501    0 -0.78280342893E+02  0.31995813263E+02 -0.86243370091E+03  0.86656992367E+03  0.00000000000E+00 0.  1.
<scales pt_clust_3="43.78352" pt_clust_4="14000.00000" pt_clust_5="48.68075" pt_clust_6="81.57151"></scales>
<clustering>
<clus scale="   43.784">  1  3  2 -1</clus>
<clus scale="   48.681">  1  5  2 -1</clus>
<clus scale="   81.572">  1  6  2 -1</clus>
<clus scale="   43.784">  1  3  2 -1</clus>
</clustering>
</event>
<event>
 6    0  0.2839294E+002  0.9156362E+02  0.7546771E-02  0.1299109E+00
          2   -1    0    0  505    0 -0.00000000000E+00  0.00000000000E+00  0.29368519458E+03  0.29368519458E+03  0.00000000000E+00 0.  1.
         21   -1    0    0  503  502  0.00000000000E+00 -0.00000000000E+00 -0.40631162347E+04  0.40631162347E+04  0.00000000000E+00 0.  1.
         21    1    1    2  503  504  0.10341608536E+03 -0.14827859719E+02 -0.29786190046E+04  0.29804506248E+04  0.00000000000E+00 0.  1.
         21    1    1    2  504  501 -0.74156468418E+02 -0.16069834024E+02 -0.10731305045E+04  0.10758096955E+04  0.00000000000E+00 0.  1.
         21    1    1    2  505  502 -0.10924536204E+02 -0.33885548281E+02  0.90623140379E+02  0.97365956298E+02  0.00000000000E+00 0.  1.
          2    1    1    2  501    0 -0.18335080741E+02  0.64783242024E+02  0.19169532862E+03  0.20317515263E+03  0.00000000000E+00 0.  1.
<scales pt_clust_3="91.56362" pt_clust_4="14000.00000" pt_clust_5="35.60303" pt_clust_6="42.74791"></scales>
<clustering>
<clus scale="   35.603">  1  5  2 -1</clus>
<clus scale="   42.748">  1  6  2 -1</clus>
<clus scale="   91.564">  2  3  1 -1</clus>
<clus scale="   91.564">  2  3  1 -1</clus>
</clustering>
</event>
<event>
 6    0  0.2839294E+002  0.9883612E+02  0.7546771E-02  0.1282763E+00
          2   -1    0    0  503    0 -0.00000000000E+00  0.00000000000E+00  0.32076882966E+04  0.32076882966E+04  0.00000000000E+00 0.  1.
         21   -1    0    0  501  502  0.00000000000E+00 -0.00000000000E+00 -0.23281006929E+03  0.23281006929E+03  0.00000000000E+00 0.  1.
         21    1    1    2  503  504 -0.73685896711E+02 -0.58633482731E+02  0.23731133997E+04  0.23749809903E+04  0.00000000000E+00 0.  1.
         21    1    1    2  504  505 -0.10726120650E+02 -0.73175998144E+02  0.26955240092E+02  0.78716969816E+02  0.00000000000E+00 0.  1.
         21    1    1    2  505  502  0.29883264108E+02 -0.18262058985E+02 -0.19626610349E+03  0.19936623498E+03  0.00000000000E+00 0.  1.
          2    1    1    2  501    0  0.54528753254E+02  0.15007153986E+03  0.77107569100E+03  0.78743417074E+03  0.00000000000E+00 0.  1.
<scales pt_clust_3="14000.00000" pt_clust_4="87.42546" pt_clust_5="35.02160" pt_clust_6="98.83612"></scales>
<clustering>
<clus scale="   35.022">  2  5  1 -1</clus>
<clus scale="   87.425">  2  4  1 -1</clus>
<clus scale="   98.836">  2  6  1 -1</clus>
<clus scale="   35.022">  2  3  1 -1</clus>
</clustering>
</event>
<event>
 6    0  0.2839294E+002  0.1112842E+03  0.7546771E-02  0.1258210E+00
         21   -1    0    0  504  502  0.00000000000E+00  0.00000000000E+00  0.16340571733E+04  0.16340571733E+04  0.00000000000E+00 0. -1.
         -1   -1    0    0    0  501 -0.00000000000E+00 -0.00000000000E+00 -0.37308228990E+02  0.37308228990E+02  0.00000000000E+00 0.  1.
         21    1    1    2  503  502 -0.49790612452E+02  0.11137466632E+03  0.11352342674E+04  0.11417706702E+04  0.00000000000E+00 0. -1.
         21    1    1    2  504  505  0.33825562424E+02 -0.85648978567E+02  0.35492089578E+03  0.36667254938E+03  0.00000000000E+00 0. -1.
         21    1    1    2  505  501  0.64248712932E+02 -0.91640890403E+01  0.86326764093E+02  0.10800086963E+03  0.00000000000E+00 0. -1.
         -1    1    1    2    0  503 -0.48283662903E+02 -0.16561598716E+02  0.20267017044E+02  0.54921313124E+02  0.00000000000E+00 0.  1.
<scales pt_clust_3="14000.00000" pt_clust_4="111.28425" pt_clust_5="42.16586" pt_clust_6="51.04506"></scales>
<clustering>
<clus scale="   51.045">  2  6  1 -1</clus>
<clus scale="   42.166">  2  5  1 -1</clus>
<clus scale="  111.284">  2  4  1 -1</clus>
<clus scale="  111.284">  1  3  2 -1</clus>
</clustering>
</event>
<event>
 6    0  0.2839294E+002  0.2426055E+03  0.7546771E-02  0.1118069E+00
          4   -1    0    0  504    0 -0.00000000000E+00  0.00000000000E+00  0.15969529719E+03  0.15969529719E+03  0.00000000000E+00 0.  1.
         21   -1    0    0  501  502  0.00000000000E+00 -0.00000000000E+00 -0.20605106506E+04  0.20605106506E+04  0.00000000000E+00 0.  1.
         21    1    1    2  503  502  0.25537373540E+02  0.24111635267E+03 -0.16246543226E+04  0.16426475340E+04  0.00000000000E+00 0.  1.
         21    1    1    2  504  505  0.37233623632E+02  0.33936359069E+02 -0.19504567713E+02  0.54022655963E+02  0.00000000000E+00 0.  1.
         21    1    1    2  505  503  0.13178352833E+03 -0.54725425534E+02 -0.15938282148E+03  0.21392674990E+03  0.00000000000E+00 0. -1.
          4    1    1    2  501    0 -0.19455452551E+03 -0.22032728620E+03 -0.97273641619E+02  0.30960900793E+03  0.00000000000E+00 0.  1.
<scales pt_clust_3="242.60550" pt_clust_4="50.37876" pt_clust_5="147.04630" pt_clust_6="14000.00000"></scales>
<clustering>
<clus scale="   50.379">  1  4  2 -1</clus>
<clus scale="  147.046">  1  5  2 -1</clus>
<clus scale="  242.606">  2  3  1 -1</clus>
<clus scale="  242.606">  2  3  1 -1</clus>
</clustering>
</event>
<event>
 6    0  0.2839294E+002  0.2025897E+03  0.7546771E-02  0.1147572E+00
         21   -1    0    0  503  502  0.00000000000E+00  0.00000000000E+00  0.24547534486E+03  0.24547534486E+03  0.00000000000E+00 0. -1.
          2   -1    0    0  504    0 -0.00000000000E+00 -0.00000000000E+00 -0.78589503521E+03  0.78589503521E+03  0.00000000000E+00 0. -1.
         21    1    1    2  503  501 -0.21187158611E+02 -0.21474077127E+02  0.55827342235E+02  0.63456471849E+02  0.00000000000E+00 0. -1.
         21    1    1    2  504  505 -0.45901613163E+02 -0.12044081607E+02 -0.17417668116E+03  0.18052571632E+03  0.00000000000E+00 0. -1.
         21    1    1    2  505  502 -0.18090781016E+02 -0.17855085664E+03  0.10848422100E+03  0.20970577238E+03  0.00000000000E+00 0. -1.
          2    1    1    2  501    0  0.85179552790E+02  0.21206901537E+03 -0.53055457243E+03  0.57768241952E+03  0.00000000000E+00 0. -1.
<scales pt_clust_3="30.16673" pt_clust_4="47.89934" pt_clust_5="202.58974" pt_clust_6="14000.00000"></scales>
<clustering>
<clus scale="   30.167">  1  3  2 -1</clus>
<clus scale="   47.899">  2  4  1 -1</clus>
<clus scale="  202.590">  1  5  2 -1</clus>
<clus scale="   30.167">  1  3  2 -1</clus>
</clustering>
</event>
<event>
 6    0  0.2839294E+002  0.8492202E+02  0.7546771E-02  0.1315637E+00
         21   -1    0    0  501  502  0.00000000000E+00  0.00000000000E+00  0.24296872473E+02  0.24296872473E+02  0.00000000000E+00 0. -1.
          2   -1    0    0  503    0 -0.00000000000E+00 -0.00000000000E+00 -0.23024766973E+04  0.23024766973E+04  0.00000000000E+00 0.  1.
         21    1    1    2  503  505 -0.32617761441E+02 -0.16679013633E+02 -0.12082656065E+04  0.12088208651E+04  0.00000000000E+00 0.  1.
         21    1    1    2  504  502  0.26946274498E+02  0.59252624003E+02 -0.91123934911E+02  0.11198458231E+03  0.00000000000E+00 0. -1.
         21    1    1    2  505  504  0.52853587123E+02 -0.98236382921E+02 -0.25277713250E+03  0.27629724449E+03  0.00000000000E+00 0. -1.
          2    1    1    2  501    0 -0.47182100181E+02  0.55662772551E+02 -0.72601315088E+03  0.72967087792E+03  0.00000000000E+00 0.  1.
<scales pt_clust_3="36.63479" pt_clust_4="62.46488" pt_clust_5="84.92202" pt_clust_6="14000.00000"></scales>
<clustering>
<clus scale="   36.635">  2  3  1 -1</clus>
<clus scale="   62.465">  1  4  2 -1</clus>
<clus scale="   84.922">  1  5  2 -1</clus>
<clus scale="   62.465">  1  3  2 -1</clus>
</clustering>
</event>
<event>
 6    0  0.2839294E+002  0.1027712E+03  0.7546771E-02  0.1274574E+00
         21   -1    0    0  505  502  0.00000000000E+00  0.00000000000E+00  0.43935944942E+02  0.43935944942E+02  0.00000000000E+00 0. -1.
          2   -1    0    0  504    0 -0.00000000000E+00 -0.00000000000E+00 -0.22800037562E+04  0.22800037562E+04  0.00000000000E+00 0.  1.
         21    1    1    2  503  502  0.65499719031E+01  0.11359066317E+03 -0.16302523735E+03  0.19880384529E+03  0.00000000000E+00 0. -1.
         21    1    1    2  504  503  0.79652131011E+00 -0.30028243969E+02 -0.24442652307E+03  0.24626541589E+03  0.00000000000E+00 0.  1.
         21    1    1    2  505  501  0.26645785894E+02 -0.95218279939E+02 -0.73044009398E+02  0.12293065545E+03  0.00000000000E+00 0. -1.
          2    1    1    2  501    0 -0.33992279108E+02  0.11655860737E+02 -0.17555720414E+04  0.17559397845E+04  0.00000000000E+00 0.  1.
<scales pt_clust_3="14000.00000" pt_clust_4="30.03881" pt_clust_5="102.77115" pt_clust_6="36.22788"></scales>
<clustering>
<clus scale="   30.039">  2  4  1 -1</clus>
<clus scale="   36.228">  2  6  1 -1</clus>
<clus scale="  102.771">  1  5  2 -1</clus>
<clus scale="  102.771">  1  3  2 -1</clus>
</clustering>
</event>
<event>
 6    0  0.2839294E+002  0.1067571E+03  0.7546771E-02  0.1266696E+00
         -1   -1    0    0    0  501 -0.00000000000E+00  0.00000000000E+00  0.14326510794E+04  0.14326510794E+04  0.00000000000E+00 0. -1.
         21   -1    0    0  501  502  0.00000000000E+00 -0.00000000000E+00 -0.45642366606E+02  0.45642366606E+02  0.00000000000E+00 0. -1.
         21    1    1    2  503  504  0.70333087299E+02 -0.33139697354E+01  0.32398054130E+03  0.33154353667E+03  0.00000000000E+00 0.  1.
         21    1    1    2  504  505 -0.13133353252E+03 -0.85881071122E+02  0.14520287455E+03  0.21379412976E+03  0.00000000000E+00 0. -1.
         21    1    1    2  505  502  0.74897864594E+01  0.55831098336E+02  0.11915156413E+03  0.13179644790E+03  0.00000000000E+00 0. -1.
         -1    1    1    2    0  503  0.53510658765E+02  0.33363942521E+02  0.79867373282E+03  0.80115933169E+03  0.00000000000E+00 0. -1.
<scales pt_clust_3="14000.00000" pt_clust_4="106.75713" pt_clust_5="56.33124" pt_clust_6="64.20905"></scales>
<clustering>
<clus scale="   56.331">  2  5  1 -1</clus>
<clus scale="   64.209">  1  6  2 -1</clus>
<clus scale="  106.757">  2  4  1 -1</clus>
<clus scale="   56.331">  2  3  1 -1</clus>
</clustering>
</event>
<event>
 6    0  0.2839294E+002  0.1973725E+03  0.7546771E-02  0.1151975E+00
          2   -1    0    0  503    0 -0.00000000000E+00  0.00000000000E+00  0.23189905541E+04  0.23189905541E+04  0.00000000000E+00 0. -1.
         21   -1    0    0  504  502  0.00000000000E+00 -0.00000000000E+00 -0.10836185977E+03  0.10836185977E+03  0.00000000000E+00 0. -1.
         21    1    1    2  503  502  0.18991616835E+03  0.47232392641E+02  0.15512209565E+04  0.15635170308E+04  0.00000000000E+00 0. -1.
         21    1    1    2  504  505 -0.29609116875E+02  0.88827803777E+01 -0.88684725917E+02  0.93917965269E+02  0.00000000000E+00 0. -1.
         21    1    1    2  505  501 -0.13556901954E+03 -0.19603475610E+02  0.53039620163E+03  0.54779867288E+03  0.00000000000E+00 0. -1.
          2    1    1    2  501    0 -0.24738031941E+02 -0.36511697410E+02  0.21769626219E+03  0.22211874491E+03  0.00000000000E+00 0. -1.
<scales pt_clust_3="186.20600" pt_clust_4="30.91284" pt_clust_5="35.86098" pt_clust_6="35.86098"></scales>
<clustering>
<clus scale="   30.913">  2  4  1 -1</clus>
<clus scale="   35.861">  5  6 -1 -1</clus>
<clus scale="  186.206">  1  3  2 -1</clus>
<clus scale="   30.913">  2  3  1 -1</clus>
</clustering>
</event>
<event>
 6    0  0.2839294E+002  0.8267634E+02  0.7546771E-02  0.1321623E+00
          1   -1    0    0  505    0 -0.00000000000E+00  0.00000000000E+00  0.42939699593E+03  0.42939699593E+03  0.00000000000E+00 0.  1.
         21   -1    0    0  503  502  0.00000000000E+00 -0.00000000000E+00 -0.54920272779E+03  0.54920272779E+03  0.00000000000E+00 0.  1.
         21    1    1    2  503  504 -0.63442431540E+02 -0.21366999419E+02 -0.15893785626E+03  0.17246081566E+03  0.00000000000E+00 0.  1.
         21    1    1    2  504  501 -0.15557263892E+02  0.53833240201E+02  0.97696090474E+02  0.11262580656E+03  0.00000000000E+00 0.  1.
         21    1    1    2  505  502  0.63390140122E+02 -0.65648412904E+02 -0.36940817156E+03  0.38051336533E+03  0.00000000000E+00 0.  1.
          1    1    1    2  501    0  0.15609555310E+02  0.33182172122E+02  0.31084420549E+03  0.31299973618E+03  0.00000000000E+00 0.  1.
<scales pt_clust_3="65.50062" pt_clust_4="14000.00000" pt_clust_5="82.67634" pt_clust_6="36.67035"></scales>
<clustering>
<clus scale="   36.670">  1  6  2 -1</clus>
<clus scale="   65.501">  2  3  1 -1</clus>
<clus scale="   82.676">  2  5  1 -1</clus>
<clus scale="   65.501">  2  3  1 -1</clus>
</clustering>
</event>
<event>
 6    0  0.2839294E+002  0.1012421E+03  0.7546771E-02  0.1277706E+00
          2   -1    0    0  503    0 -0.00000000000E+00  0.00000000000E+00  0.14125641014E+04  0.14125641014E+04  0.00000000000E+00 0. -1.
         21   -1    0    0  504  502  0.00000000000E+00 -0.00000000000E+00 -0.59973435608E+03  0.59973435608E+03  0.00000000000E+00 0.  1.
         21    1    1    2  503  505  0.62659823949E+02  0.21959897321E+02  0.18931139122E+03  0.20061728109E+03  0.00000000000E+00 0. -1.
         21    1    1    2  504  501  0.62773207659E+02 -0.16916036933E+02 -0.47086861437E+02  0.80273285875E+02  0.00000000000E+00 0.  1.
         21    1    1    2  505  502 -0.38785995555E+02  0.11453742413E+03 -0.51888315542E+03  0.53278786018E+03  0.00000000000E+00 0.  1.
          2    1    1    2  501    0 -0.86647036053E+02 -0.11958128452E+03  0.11894883710E+04  0.11986200303E+04  0.00000000000E+00 0. -1.
<scales pt_clust_3="66.96330" pt_clust_4="65.01252" pt_clust_5="101.24206" pt_clust_6="14000.00000"></scales>
<clustering>
<clus scale="   65.013">  2  4  1 -1</clus>
<clus scale="   66.963">  1  3  2 -1</clus>
<clus scale="  101.242">  2  5  1 -1</clus>
<clus scale="   65.013">  2  3  1 -1</clus>
</clustering>
</event>
<event>
 6    0  0.2839294E+002  0.8908893E+02  0.7546771E-02  0.1305073E+00
         -1   -1    0    0    0  501 -0.00000000000E+00  0.00000000000E+00  0.71285031494E+03  0.71285031494E+03  0.00000000000E+00 0. -1.
         21   -1    0    0  504  502  0.00000000000E+00 -0.00000000000E+00 -0.42935920479E+03  0.42935920479E+03  0.00000000000E+00 0.  1.
         21    1    1    2  503  505 -0.68428468788E+02 -0.98906009408E+01 -0.79030321517E+02  0.10500510010E+03  0.00000000000E+00 0.  1.
         21    1    1    2  504  501  0.56935467118E+02  0.33745267566E+02 -0.30210038101E+03  0.30926530795E+03  0.00000000000E+00 0.  1.
         21    1    1    2  505  502 -0.50635416124E+02 -0.16291625448E+02 -0.67838873185E+01  0.53622603004E+02  0.00000000000E+00 0.  1.
         -1    1    1    2    0  503  0.62128417794E+02 -0.75630411770E+01  0.67140570000E+03  0.67431650868E+03  0.00000000000E+00 0. -1.
<scales pt_clust_3="47.53432" pt_clust_4="70.70987" pt_clust_5="47.53432" pt_clust_6="62.58706"></scales>
<clustering>
<clus scale="   47.534">  3  5 -1 -1</clus>
<clus scale="   62.587">  1  6  2 -1</clus>
<clus scale="   70.710">  2  4  1 -1</clus>
<clus scale="   70.710">  2  3  1 -1</clus>
</clustering>
</event>
<event>
 6    0  0.2839294E+002  0.1579324E+03  0.7546771E-02  0.1191051E+00
          4   -1    0    0  504    0 -0.00000000000E+00  0.00000000000E+00  0.14046027002E+03  0.14046027002E+03  0.00000000000E+00 0.  1.
         21   -1    0    0  503  502  0.00000000000E+00 -0.00000000000E+00 -0.91747106734E+03  0.91747106734E+03  0.00000000000E+00 0.  1.
         21    1    1    2  503  505 -0.15400478158E+02  0.28689495949E+02 -0.36208745829E+03  0.36354860660E+03  0.00000000000E+00 0. -1.
         21    1    1    2  504  502  0.27436951472E+02  0.17800550927E+02 -0.16417206146E+02  0.36594679628E+02  0.00000000000E+00 0. -1.
         21    1    1    2  505  501 -0.64284634250E+02 -0.16646920660E+03 -0.47416207017E+03  0.50663021992E+03  0.00000000000E+00 0.  1.
          4    1    1    2  501    0  0.52248160935E+02  0.11997915972E+03  0.75655937294E+02  0.15115783121E+03  0.00000000000E+00 0.  1.
<scales pt_clust_3="32.56166" pt_clust_4="32.87084" pt_clust_5="14000.00000" pt_clust_6="157.93242"></scales>
<clustering>
<clus scale="   32.562">  2  3  1 -1</clus>
<clus scale="   32.871">  1  4  2 -1</clus>
<clus scale="  157.932">  1  6  2 -1</clus>
<clus scale="   32.562">  2  3  1 -1</clus>
</clustering>
</event>
<event>
 6    0  0.2839294E+002  0.2120502E+03  0.7546771E-02  0.1139953E+00
         21   -1    0    0  505  502  0.00000000000E+00  0.00000000000E+00  0.26701140748E+03  0.26701140748E+03  0.00000000000E+00 0. -1.
          2   -1    0    0  503    0 -0.00000000000E+00 -0.00000000000E+00 -0.74997683386E+03  0.74997683386E+03  0.00000000000E+00 0. -1.
         21    1    1    2  503  502  0.21877661586E+03  0.73010970427E+02  0.14198632674E+03  0.27083930002E+03  0.00000000000E+00 0. -1.
         21    1    1    2  504  501 -0.95562722457E+02 -0.28661958477E+02 -0.25124226455E+03  0.27032650126E+03  0.00000000000E+00 0. -1.
         21    1    1    2  505  504 -0.35582968974E+02  0.15755230744E+02  0.35722968254E+02  0.52825234857E+02  0.00000000000E+00 0.  1.
          2    1    1    2  501    0 -0.87630924431E+02 -0.60104242695E+02 -0.40943245683E+03  0.42299720521E+03  0.00000000000E+00 0. -1.
<scales pt_clust_3="205.42148" pt_clust_4="51.14586" pt_clust_5="38.91497" pt_clust_6="51.14586"></scales>
<clustering>
<clus scale="   38.915">  1  5  2 -1</clus>
<clus scale="   51.146">  4  6 -1 -1</clus>
<clus scale="  205.421">  1  3  2 -1</clus>
<clus scale="   38.915">  1  3  2 -1</clus>
</clustering>
</event>
<event>
 6    0  0.2839294E+002  0.1315476E+03  0.7546771E-02  0.1225177E+00
          2   -1    0    0  503    0 -0.00000000000E+00  0.00000000000E+00  0.40543744642E+03  0.40543744642E+03  0.00000000000E+00 0.  1.
         21   -1    0    0  505  502  0.00000000000E+00 -0.00000000000E+00 -0.11399187162E+03  0.11399187162E+03  0.00000000000E+00 0. -1.
         21    1    1    2  503  502 -0.61623979317E+02 -0.39457805962E+02 -0.49624754050E+02  0.88414079720E+02  0.00000000000E+00 0. -1.
         21    1    1    2  504  501  0.69295022375E+02  0.77498643815E+02  0.18657216867E+03  0.21358139910E+03  0.00000000000E+00 0.  1.
         21    1    1    2  505  504 -0.82235277348E+01 -0.92275113083E+02  0.66401938200E+02  0.11398043823E+03  0.00000000000E+00 0.  1.
          2    1    1    2  501    0  0.55248467654E+00  0.54234275229E+02  0.88096221980E+02  0.10345340099E+03  0.00000000000E+00 0.  1.
<scales pt_clust_3="73.17399" pt_clust_4="38.46578" pt_clust_5="120.28573" pt_clust_6="38.46578"></scales>
<clustering>
<clus scale="   38.466">  4  6 -1 -1</clus>
<clus scale="   73.174">  2  3  1 -1</clus>
<clus scale="  120.286">  2  5  1 -1</clus>
<clus scale="   73.174">  2  3  1 -1</clus>
</clustering>
</event>
<event>
 6    0  0.2839294E+002  0.1698086E+03  0.7546771E-02  0.1178048E+00
          1   -1    0    0  505    0 -0.00000000000E+00  0.00000000000E+00  0.40316009591E+04  0.40316009591E+04  0.00000000000E+00 0. -1.
         21   -1    0    0  503  502  0.00000000000E+00 -0.00000000000E+00 -0.39616372561E+02  0.39616372561E+02  0.00000000000E+00 0.  1.
         21    1    1    2  503  504  0.10935898374E+03  0.51533505821E+02  0.86585186231E+02  0.14870132488E+03  0.00000000000E+00 0.  1.
         21    1    1    2  504  501 -0.38722537986E+02 -0.95479045927E+01  0.57585417818E+03  0.57723360259E+03  0.00000000000E+00 0.  1.
         21    1    1    2  505  502 -0.86655141269E+01  0.70356870514E+02  0.18493482836E+03  0.19805572727E+03  0.00000000000E+00 0. -1.
          1    1    1    2  501    0 -0.61970931629E+02 -0.11234247174E+03  0.31446103938E+04  0.31472266770E+04  0.00000000000E+00 0. -1.
<scales pt_clust_3="155.18906" pt_clust_4="38.43093" pt_clust_5="70.88851" pt_clust_6="38.43093"></scales>
<clustering>
<clus scale="   38.431">  4  6 -1 -1</clus>
<clus scale="   70.889">  2  5  1 -1</clus>
<clus scale="  155.189">  2  3  1 -1</clus>
<clus scale="   70.889">  2  3  1 -1</clus>
</clustering>
</event>
<event>
 6    0  0.2839294E+002  0.1017016E+03  0.7546771E-02  0.1276758E+00
         21   -1    0    0  503  502  0.00000000000E+00  0.00000000000E+00  0.17539915478E+03  0.17539915478E+03  0.00000000000E+00 0. -1.
          1   -1    0    0  505    0 -0.00000000000E+00 -0.00000000000E+00 -0.69642590033E+03  0.69642590033E+03  0.00000000000E+00 0. -1.
         21    1    1    2  503  501 -0.27353422510E+02 -0.19549040086E+02 -0.61795457565E+02  0.70349507937E+02  0.00000000000E+00 0. -1.
         21    1    1    2  504  502 -0.15286973450E+02 -0.97380950271E+02  0.12955893217E+03  0.16279514101E+03  0.00000000000E+00 0. -1.
         21    1    1    2  505  504  0.47948014245E+02  0.17847127054E+03 -0.41668443098E+03  0.45582553844E+03  0.00000000000E+00 0. -1.
          1    1    1    2  501    0 -0.53076182843E+01 -0.61541280187E+02 -0.17210578918E+03  0.18285486772E+03  0.00000000000E+00 0. -1.
<scales pt_clust_3="30.95341" pt_clust_4="101.70156" pt_clust_5="14000.00000" pt_clust_6="96.96733"></scales>
<clustering>
<clus scale="   30.953">  3  6 -1 -1</clus>
<clus scale="   96.967">  2  3  1 -1</clus>
<clus scale="  101.702">  1  4  2 -1</clus>
<clus scale="  101.702">  1  3  2 -1</clus>
</clustering>
</event>
<event>
 6    0  0.2839294E+002  0.1237299E+03  0.7546771E-02  0.1237068E+00
         21   -1    0    0  505  502  0.00000000000E+00  0.00000000000E+00  0.14246874706E+04  0.14246874706E+04  0.00000000000E+00 0.  1.
         -2   -1    0    0    0  501 -0.00000000000E+00 -0.00000000000E+00 -0.85226084918E+02  0.85226084918E+02  0.00000000000E+00 0.  1.
         21    1    1    2  503  504  0.32900268554E+02  0.19782206917E+02  0.57876830365E+02  0.69451356175E+02  0.00000000000E+00 0. -1.
         21    1    1    2  504  501 -0.10119776516E+02 -0.32262492415E+02  0.34215731520E+02  0.48103997516E+02  0.00000000000E+00 0. -1.
         21    1    1    2  505  503 -0.10848423286E+03  0.61726830681E+02  0.12816680086E+04  0.12877313053E+04  0.00000000000E+00 0.  1.
         -2    1    1    2    0  502  0.85703740818E+02 -0.49246545184E+02 -0.34299184782E+02  0.10462689654E+03  0.00000000000E+00 0.  1.
<scales pt_clust_3="36.55705" pt_clust_4="33.81240" pt_clust_5="14000.00000" pt_clust_6="123.72988"></scales>
<clustering>
<clus scale="   33.812">  2  4  1 -1</clus>
<clus scale="   36.557">  2  3  1 -1</clus>
<clus scale="  123.730">  2  6  1 -1</clus>
<clus scale="  123.730">  1  3  2 -1</clus>
</clustering>
</event>
<event>
 6    0  0.2839294E+002  0.3299896E+03  0.7546771E-02  0.1071141E+00
          2   -1    0    0  504    0 -0.00000000000E+00  0.00000000000E+00  0.31926795715E+04  0.31926795715E+04  0.00000000000E+00 0.  1.
         21   -1    0    0  503  502  0.00000000000E+00 -0.00000000000E+00 -0.90038061706E+02  0.90038061706E+02  0.00000000000E+00 0. -1.
         21    1    1    2  503  501  0.10905933214E+03  0.38869178392E+02  0.20398317442E+03  0.23455039203E+03  0.00000000000E+00 0.  1.
         21    1    1    2  504  505  0.14784937296E+03 -0.22953857990E+03  0.98226725468E+03  0.10195078991E+04  0.00000000000E+00 0. -1.
         21    1    1    2  505  502 -0.82685837699E+02 -0.20881765978E+03  0.53762314325E+03  0.58264947177E+03  0.00000000000E+00 0.  1.
          2    1    1    2  501    0 -0.17422286740E+03  0.39948706128E+03  0.13787679375E+04  0.14460098703E+04  0.00000000000E+00 0.  1.
<scales pt_clust_3="115.77889" pt_clust_4="329.98957" pt_clust_5="203.31554" pt_clust_6="14000.00000"></scales>
<clustering>
<clus scale="  115.779">  2  3  1 -1</clus>
<clus scale="  203.316">  2  5  1 -1</clus>
<clus scale="  329.990">  1  4  2 -1</clus>
<clus scale="  115.779">  2  3  1 -1</clus>
</clustering>
</event>
<event>
 6    0  0.2839294E+002  0.1071762E+03  0.7546771E-02  0.1265890E+00
          3   -1    0    0  505    0 -0.00000000000E+00  0.00000000000E+00  0.79702081830E+03  0.79702081830E+03  0.00000000000E+00 0. -1.
         21   -1    0    0  503  502  0.00000000000E+00 -0.00000000000E+00 -0.16916917089E+03  0.16916917089E+03  0.00000000000E+00 0. -1.
         21    1    1    2  503  501  0.14176717915E+02 -0.42989758514E+02  0.12707411917E+02  0.47016773449E+02  0.00000000000E+00 0.  1.
         21    1    1    2  504  502 -0.91487023998E+02 -0.29990507920E+02 -0.11579425140E+03  0.15059088546E+03  0.00000000000E+00 0. -1.
         21    1    1    2  505  504 -0.54407134969E+02 -0.33299115307E+01  0.62055564040E+02  0.82596111740E+02  0.00000000000E+00 0. -1.
          3    1    1    2  501    0  0.13171744105E+03  0.76310177965E+02  0.66888292286E+03  0.68598621854E+03  0.00000000000E+00 0. -1.
<scales pt_clust_3="45.26697" pt_clust_4="107.17624" pt_clust_5="53.81170" pt_clust_6="14000.00000"></scales>
<clustering>
<clus scale="   45.267">  2  3  1 -1</clus>
<clus scale="   53.812">  1  5  2 -1</clus>
<clus scale="  107.176">  2  4  1 -1</clus>
<clus scale="   45.267">  2  3  1 -1</clus>
</clustering>
</event>
<event>
 6    0  0.2839294E+002  0.9370943E+02  0.7546771E-02  0.1294110E+00
          1   -1    0    0  504    0 -0.00000000000E+00  0.00000000000E+00  0.17370133994E+04  0.17370133994E+04  0.00000000000E+00 0.  1.
         21   -1    0    0  501  502  0.00000000000E+00 -0.00000000000E+00 -0.13052621617E+03  0.13052621617E+03  0.00000000000E+00 0. -1.
         21    1    1    2  503  505 -0.30616150370E+02  0.86013544669E+02  0.15015107025E+03  0.17572997021E+03  0.00000000000E+00 0.  1.
         21    1    1    2  504  503 -0.42827030407E+02 -0.26400366619E+01  0.73445906703E+03  0.73571138735E+03  0.00000000000E+00 0.  1.
         21    1    1    2  505  502  0.86025036019E+02 -0.44313099352E+02 -0.96518804000E+02  0.13667420064E+03  0.00000000000E+00 0. -1.
          1    1    1    2  501    0 -0.12581855242E+02 -0.39060408655E+02  0.81839584993E+03  0.81942405736E+03  0.00000000000E+00 0.  1.
<scales pt_clust_3="14000.00000" pt_clust_4="62.83829" pt_clust_5="93.70943" pt_clust_6="41.03680"></scales>
<clustering>
<clus scale="   41.037">  1  6  2 -1</clus>
<clus scale="   62.838">  1  4  2 -1</clus>
<clus scale="   93.709">  2  5  1 -1</clus>
<clus scale="   93.709">  2  3  1 -1</clus>
</clustering>
</event>
<event>
 6    0  0.2839294E+002  0.1339835E+03  0.7546771E-02  0.1221662E+00
          1   -1    0    0  505    0 -0.00000000000E+00  0.00000000000E+00  0.91254488474E+03  0.91254488474E+03  0.00000000000E+00 0.  1.
         21   -1    0    0  504  502  0.00000000000E+00 -0.00000000000E+00 -0.83279185848E+02  0.83279185848E+02  0.00000000000E+00 0. -1.
         21    1    1    2  503  502  0.17335165809E+02  0.52326827913E+02 -0.41185569535E+02  0.68810290153E+02  0.00000000000E+00 0. -1.
         21    1    1    2  504  501 -0.61280217848E+02 -0.13554300575E+02  0.26410490926E+03  0.27145973414E+03  0.00000000000E+00 0. -1.
         21    1    1    2  505  503  0.94535310364E+02  0.17641543889E+02  0.83842462155E+02  0.12758411906E+03  0.00000000000E+00 0. -1.
          1    1    1    2  501    0 -0.50590258325E+02 -0.56414071227E+02  0.52250389701E+03  0.52796992724E+03  0.00000000000E+00 0.  1.
<scales pt_clust_3="55.12354" pt_clust_4="49.21019" pt_clust_5="122.58788" pt_clust_6="49.21019"></scales>
<clustering>
<clus scale="   49.210">  4  6 -1 -1</clus>
<clus scale="   55.124">  2  3  1 -1</clus>
<clus scale="  122.588">  2  5  1 -1</clus>
<clus scale="   55.124">  2  3  1 -1</clus>
</clustering>
</event>
<event>
 6    0  0.2839294E+002  0.8826570E+02  0.7546771E-02  0.1307107E+00
         21   -1    0    0  501  502  0.00000000000E+00  0.00000000000E+00  0.25960197079E+02  0.25960197079E+02  0.00000000000E+00 0. -1.
          1   -1    0    0  505    0 -0.00000000000E+00 -0.00000000000E+00 -0.29526456927E+04  0.29526456927E+04  0.00000000000E+00 0.  1.
         21    1    1    2  503  502  0.48383192928E+02  0.55027010992E+02 -0.43684008977E+02  0.85306494107E+02  0.00000000000E+00 0. -1.
         21    1    1    2  504  503 -0.11461354482E+02 -0.50354367254E+02 -0.23770721765E+03  0.24325222768E+03  0.00000000000E+00 0.  1.
         21    1    1    2  505  504 -0.21851724646E+02 -0.67552424346E+02 -0.68143377021E+03  0.68512247890E+03  0.00000000000E+00 0.  1.
          1    1    1    2  501    0 -0.15070113800E+02  0.62879780608E+02 -0.19638604988E+04  0.19649246891E+04  0.00000000000E+00 0.  1.
<scales pt_clust_3="75.78368" pt_clust_4="38.59286" pt_clust_5="38.59286" pt_clust_6="64.66046"></scales>
<clustering>
<clus scale="   38.593">  4  5 -1 -1</clus>
<clus scale="   64.660">  2  6  1 -1</clus>
<clus scale="   75.784">  1  3  2 -1</clus>
<clus scale="   75.784">  1  3  2 -1</clus>
</clustering>
</event>
<event>
 6    0  0.2839294E+002  0.8375585E+02  0.7546771E-02  0.1318719E+00
          2   -1    0    0  505    0 -0.00000000000E+00  0.00000000000E+00  0.12035791723E+04  0.12035791723E+04  0.00000000000E+00 0. -1.
         21   -1    0    0  504  502  0.00000000000E+00 -0.00000000000E+00 -0.21707581735E+02  0.21707581735E+02  0.00000000000E+00 0. -1.
         21    1    1    2  503  501 -0.10972683841E+03  0.18579618784E+02  0.44276275688E+03  0.45653481815E+03  0.00000000000E+00 0. -1.
         21    1    1    2  504  503  0.20227163062E+02 -0.37773414721E+02  0.49786534423E+02  0.65686132441E+02  0.00000000000E+00 0.  1.
         21    1    1    2  505  502  0.25361938785E+02  0.55436654356E+02  0.23341182580E+03  0.24124164443E+03  0.00000000000E+00 0. -1.
          2    1    1    2  501    0  0.64137736561E+02 -0.36242858419E+02  0.45591047349E+03  0.46182415904E+03  0.00000000000E+00 0. -1.
<scales pt_clust_3="14000.00000" pt_clust_4="42.84821" pt_clust_5="54.45476" pt_clust_6="83.75585"></scales>
<clustering>
<clus scale="   42.848">  2  4  1 -1</clus>
<clus scale="   54.455">  2  5  1 -1</clus>
<clus scale="   83.756">  1  6  2 -1</clus>
<clus scale="   42.848">  2  3  1 -1</clus>
</clustering>
</event>
<event>
 6    0  0.2839294E+002  0.1641867E+03  0.7546771E-02  0.1184050E+00
          2   -1    0    0  504    0 -0.00000000000E+00  0.00000000000E+00  0.27900772341E+04  0.27900772341E+04  0.00000000000E+00 0.  1.
         21   -1    0    0  503  502  0.00000000000E+00 -0.00000000000E+00 -0.10009029984E+03  0.10009029984E+03  0.00000000000E+00 0.  1.
         21    1    1    2  503  501 -0.46855208965E+02  0.10285738032E+02  0.27883168195E+02  0.55485836775E+02  0.00000000000E+00 0.  1.
         21    1    1    2  504  505  0.76444222011E+02  0.15265002341E+03  0.75875008256E+03  0.77771938160E+03  0.00000000000E+00 0.  1.
         21    1    1    2  505  502 -0.97562980065E+02 -0.10199348183E+03 -0.99397749340E+01  0.14149206529E+03  0.00000000000E+00 0.  1.
          2    1    1    2  501    0  0.67973967019E+02 -0.60942279613E+02  0.19132934584E+04  0.19154702503E+04  0.00000000000E+00 0.  1.
<scales pt_clust_3="47.97090" pt_clust_4="164.18665" pt_clust_5="14000.00000" pt_clust_6="90.76689"></scales>
<clustering>
<clus scale="   47.971">  2  3  1 -1</clus>
<clus scale="   90.767">  1  6  2 -1</clus>
<clus scale="  164.187">  1  4  2 -1</clus>
<clus scale="   47.971">  2  3  1 -1</clus>
</clustering>
</event>
<event>
 6    0  0.2839294E+002  0.1146133E+03  0.7546771E-02  0.1252258E+00
          2   -1    0    0  505    0 -0.00000000000E+00  0.00000000000E+00  0.11971192259E+04  0.11971192259E+04  0.00000000000E+00 0. -1.
         21   -1    0    0  504  502  0.00000000000E+00 -0.00000000000E+00 -0.11488605272E+03  0.11488605272E+03  0.00000000000E+00 0. -1.
         21    1    1    2  503  502 -0.78140828263E+02 -0.70032900777E+02  0.34657288174E+02  0.11050666883E+03  0.00000000000E+00 0. -1.
         21    1    1    2  504  501  0.34710605523E+02  0.44131565587E+02 -0.42187883449E+02  0.70229899094E+02  0.00000000000E+00 0. -1.
         21    1    1    2  505  503 -0.10672708093E+03 -0.10181125362E+01  0.76559406848E+03  0.77299804918E+03  0.00000000000E+00 0. -1.
          2    1    1    2  501    0  0.15015730367E+03  0.26919447726E+02  0.32416969993E+03  0.35827066146E+03  0.00000000000E+00 0. -1.
<scales pt_clust_3="69.47111" pt_clust_4="56.14643" pt_clust_5="114.61329" pt_clust_6="14000.00000"></scales>
<clustering>
<clus scale="   56.146">  2  4  1 -1</clus>
<clus scale="   69.471">  2  3  1 -1</clus>
<clus scale="  114.613">  1  5  2 -1</clus>
<clus scale="   56.146">  2  3  1 -1</clus>
</clustering>
</event>
<event>
 6    0  0.2839294E+002  0.1496428E+03  0.7546771E-02  0.1200913E+00
         21   -1    0    0  501  502  0.00000000000E+00  0.00000000000E+00  0.26356119706E+03  0.26356119706E+03  0.00000000000E+00 0. -1.
          2   -1    0    0  503    0 -0.00000000000E+00 -0.00000000000E+00 -0.78181670727E+03  0.78181670727E+03  0.00000000000E+00 0. -1.
         21    1    1    2  503  504 -0.46932935587E+02  0.56163689940E+01 -0.11056140925E+03  0.12024171181E+03  0.00000000000E+00 0. -1.
         21    1    1    2  504  505 -0.41307266234E+02  0.47918675229E+02  0.51304704381E+02  0.81453436828E+02  0.00000000000E+00 0.  1.
         21    1    1    2  505  502 -0.28695216971E+02  0.66610197196E+02  0.17418338626E+03  0.18868011527E+03  0.00000000000E+00 0. -1.
          2    1    1    2  501    0  0.11693541879E+03 -0.12014524142E+03 -0.63318219160E+03  0.65500264043E+03  0.00000000000E+00 0. -1.
<scales pt_clust_3="47.26779" pt_clust_4="60.14281" pt_clust_5="60.14281" pt_clust_6="135.21432"></scales>
<clustering>
<clus scale="   47.268">  2  3  1 -1</clus>
<clus scale="   60.143">  4  5 -1 -1</clus>
<clus scale="  135.214">  2  6  1 -1</clus>
<clus scale="  149.643">  1  3  2 -1</clus>
</clustering>
</event>
<event>
 6    0  0.2839294E+002  0.1055614E+03  0.7546771E-02  0.1269018E+00
         21   -1    0    0  505  502  0.00000000000E+00  0.00000000000E+00  0.18176652822E+03  0.18176652822E+03  0.00000000000E+00 0.  1.
          2   -1    0    0  504    0 -0.00000000000E+00 -0.00000000000E+00 -0.48791966286E+03  0.48791966286E+03  0.00000000000E+00 0. -1.
         21    1    1    2  503  501  0.76000824291E+02 -0.46053028373E+02 -0.78035191911E+02  0.11826452508E+03  0.00000000000E+00 0.  1.
         21    1    1    2  504  502 -0.23985676748E+02 -0.18572550830E+02 -0.44361944628E+02  0.53742296793E+02  0.00000000000E+00 0. -1.
         21    1    1    2  505  503  0.37394425144E+02  0.66832053455E+00  0.14567046068E+03  0.15039505577E+03  0.00000000000E+00 0.  1.
          2    1    1    2  501    0 -0.89409572687E+02  0.63957258668E+02 -0.32942645877E+03  0.34728431344E+03  0.00000000000E+00 0. -1.
<scales pt_clust_3="14000.00000" pt_clust_4="30.33566" pt_clust_5="37.26965" pt_clust_6="105.56136"></scales>
<clustering>
<clus scale="   30.336">  2  4  1 -1</clus>
<clus scale="   37.270">  1  5  2 -1</clus>
<clus scale="  105.561">  2  6  1 -1</clus>
<clus scale="   37.270">  1  3  2 -1</clus>
</clustering>
</event>
<event>
 6    0  0.2839294E+002  0.5538514E+02  0.7546771E-02  0.1418286E+00
         21   -1    0    0  505  502  0.00000000000E+00  0.00000000000E+00  0.18949213158E+03  0.18949213158E+03  0.00000000000E+00 0.  1.
          2   -1    0    0  503    0 -0.00000000000E+00 -0.00000000000E+00 -0.78411079299E+03  0.78411079299E+03  0.00000000000E+00 0. -1.
         21    1    1    2  503  504 -0.31063648482E+02  0.15655371861E+02 -0.62193734243E+02  0.71260799211E+02  0.00000000000E+00 0. -1.
         21    1    1    2  504  502  0.30959821097E+02 -0.42662291598E+02 -0.47241669155E+01  0.52923524069E+02  0.00000000000E+00 0.  1.
         21    1    1    2  505  501 -0.34245699816E+02  0.95251532426E+02  0.14254761635E+03  0.17482976094E+03  0.00000000000E+00 0.  1.
          2    1    1    2  501    0  0.34349527200E+02 -0.68244612689E+02 -0.67024837661E+03  0.67458884035E+03  0.00000000000E+00 0. -1.
<scales pt_clust_3="34.78564" pt_clust_4="51.47409" pt_clust_5="55.38514" pt_clust_6="14000.00000"></scales>
<clustering>
<clus scale="   34.786">  2  3  1 -1</clus>
<clus scale="   51.474">  1  4  2 -1</clus>
<clus scale="   55.385">  1  5  2 -1</clus>
<clus scale="   51.474">  1  3  2 -1</clus>
</clustering>
</event>
<event>
 6    0  0.2839294E+002  0.1196516E+03  0.7546771E-02  0.1243673E+00
         21   -1    0    0  505  502  0.00000000000E+00  0.00000000000E+00  0.64549325652E+03  0.64549325652E+03  0.00000000000E+00 0. -1.
          1   -1    0    0  503    0 -0.00000000000E+00 -0.00000000000E+00 -0.29262917510E+03  0.29262917510E+03  0.00000000000E+00 0. -1.
         21    1    1    2  503  502 -0.17976649753E+03  0.42694603796E+02  0.49387898220E+03  0.52730946501E+03  0.00000000000E+00 0. -1.
         21    1    1    2  504  501  0.61395765991E+02 -0.21822109786E+02 -0.99661230447E+02  0.11907142987E+03  0.00000000000E+00 0. -1.
         21    1    1    2  505  504  0.75736228593E+02 -0.28300393922E+01  0.10993513214E+03  0.13352796981E+03  0.00000000000E+00 0. -1.
          1    1    1    2  501    0  0.42634502943E+02 -0.18042454617E+02 -0.15128880247E+03  0.15821356693E+03  0.00000000000E+00 0. -1.
<scales pt_clust_3="113.21191" pt_clust_4="32.64110" pt_clust_5="75.78909" pt_clust_6="32.64110"></scales>
<clustering>
<clus scale="   32.641">  4  6 -1 -1</clus>
<clus scale="   75.789">  1  5  2 -1</clus>
<clus scale="  113.212">  1  3  2 -1</clus>
<clus scale="   75.789">  1  3  2 -1</clus>
</clustering>
</event>
<event>
 6    0  0.2839294E+002  0.1067077E+03  0.7546771E-02  0.1266791E+00
          2   -1    0    0  505    0 -0.00000000000E+00  0.00000000000E+00  0.11891973763E+04  0.11891973763E+04  0.00000000000E+00 0. -1.
         21   -1    0    0  504  502  0.00000000000E+00 -0.00000000000E+00 -0.21538243907E+03  0.21538243907E+03  0.00000000000E+00 0. -1.
         21    1    1    2  503  502 -0.56359858412E+02 -0.11613888681E+02 -0.16727847166E+03  0.17689941529E+03  0.00000000000E+00 0. -1.
         21    1    1    2  504  501 -0.14267913146E+02 -0.73797293095E+02  0.64167196478E+01  0.75437312417E+02  0.00000000000E+00 0. -1.
         21    1    1    2  505  503  0.91444700819E+02  0.10800540721E+03  0.59132232251E+03  0.60802087990E+03  0.00000000000E+00 0.  1.
          2    1    1    2  501    0 -0.20816929261E+02 -0.22594225435E+02  0.54335436671E+03  0.54422220773E+03  0.00000000000E+00 0. -1.
<scales pt_clust_3="57.73014" pt_clust_4="14000.00000" pt_clust_5="106.70774" pt_clust_6="30.72204"></scales>
<clustering>
<clus scale="   30.722">  1  6  2 -1</clus>
<clus scale="   57.730">  2  3  1 -1</clus>
<clus scale="  106.708">  1  5  2 -1</clus>
<clus scale="   57.730">  2  3  1 -1</clus>
</clustering>
</event>
<event>
 6    0  0.2839294E+002  0.8372406E+02  0.7546771E-02  0.1318803E+00
         21   -1    0    0  505  502  0.00000000000E+00  0.00000000000E+00  0.38235959773E+03  0.38235959773E+03  0.00000000000E+00 0. -1.
         -2   -1    0    0    0  501 -0.00000000000E+00 -0.00000000000E+00 -0.74116970143E+02  0.74116970143E+02  0.00000000000E+00 0. -1.
         21    1    1    2  503  504 -0.58777584406E+02  0.10333849438E+02  0.57918718447E+02  0.83163518561E+02  0.00000000000E+00 0. -1.
         21    1    1    2  504  502  0.57828116459E+01 -0.69739335048E+02  0.32253997682E+02  0.77054111700E+02  0.00000000000E+00 0. -1.
         21    1    1    2  505  501  0.26734648280E+02  0.86234223288E+02  0.23743241490E+03  0.25401817717E+03  0.00000000000E+00 0. -1.
         -2    1    1    2    0  503  0.26260124481E+02 -0.26828737679E+02 -0.19362503447E+02  0.42240760444E+02  0.00000000000E+00 0. -1.
<scales pt_clust_3="51.18706" pt_clust_4="83.72406" pt_clust_5="14000.00000" pt_clust_6="37.54165"></scales>
<clustering>
<clus scale="   37.542">  2  6  1 -1</clus>
<clus scale="   51.187">  2  3  1 -1</clus>
<clus scale="   83.724">  2  4  1 -1</clus>
<clus scale="   83.724">  1  3  2 -1</clus>
</clustering>
</event>
<event>
 6    0  0.2839294E+002  0.7790155E+02  0.7546771E-02  0.1335114E+00
          2   -1    0    0  503    0 -0.00000000000E+00  0.00000000000E+00  0.51440093001E+02  0.51440093001E+02  0.00000000000E+00 0.  1.
         21   -1    0    0  504  502  0.00000000000E+00 -0.00000000000E+00 -0.10350968850E+04  0.10350968850E+04  0.00000000000E+00 0.  1.
         21    1    1    2  503  505  0.76147329164E+02  0.76476164344E+02 -0.42309559330E+03  0.43664276076E+03  0.00000000000E+00 0.  1.
         21    1    1    2  504  501 -0.39689379832E+02 -0.33131725121E+02 -0.60643537140E+02  0.79690631054E+02  0.00000000000E+00 0. -1.
         21    1    1    2  505  502 -0.44770905373E+02  0.97782975242E+01 -0.51285621416E+03  0.51489954892E+03  0.00000000000E+00 0.  1.
          2    1    1    2  501    0  0.83129560412E+01 -0.53122736748E+02  0.12938552585E+02  0.55304037291E+02  0.00000000000E+00 0.  1.
<scales pt_clust_3="14000.00000" pt_clust_4="77.90155" pt_clust_5="45.82629" pt_clust_6="53.12369"></scales>
<clustering>
<clus scale="   45.826">  2  5  1 -1</clus>
<clus scale="   53.124">  1  6  2 -1</clus>
<clus scale="   77.902">  1  4  2 -1</clus>
<clus scale="   45.826">  2  3  1 -1</clus>
</clustering>
</event>
<event>
 6    0  0.2839294E+002  0.6482438E+02  0.7546771E-02  0.1378633E+00
          2   -1    0    0  505    0 -0.00000000000E+00  0.00000000000E+00  0.24306691660E+04  0.24306691660E+04  0.00000000000E+00 0. -1.
         21   -1    0    0  503  502  0.00000000000E+00 -0.00000000000E+00 -0.19155344708E+03  0.19155344708E+03  0.00000000000E+00 0. -1.
         21    1    1    2  503  504  0.15937190185E+02 -0.62056551689E+02 -0.17339044795E+03  0.18484928206E+03  0.00000000000E+00 0. -1.
         21    1    1    2  504  501 -0.34449964322E+01  0.94042717356E+02  0.19598744490E+03  0.21740970366E+03  0.00000000000E+00 0. -1.
         21    1    1    2  505  502 -0.21533988622E+02 -0.73042527652E+02  0.10877519154E+04  0.10904142116E+04  0.00000000000E+00 0. -1.
          2    1    1    2  501    0  0.90417948694E+01  0.41056361984E+02  0.11287668066E+04  0.11295494157E+04  0.00000000000E+00 0. -1.
<scales pt_clust_3="14000.00000" pt_clust_4="64.82438" pt_clust_5="41.13157" pt_clust_6="42.04021"></scales>
<clustering>
<clus scale="   42.040">  1  6  2 -1</clus>
<clus scale="   41.132">  1  5  2 -1</clus>
<clus scale="   64.824">  1  4  2 -1</clus>
<clus scale="   64.824">  2  3  1 -1</clus>
</clustering>
</event>
<event>
 6    0  0.2839294E+002  0.8177692E+02  0.7546771E-02  0.1324083E+00
         21   -1    0    0  503  502  0.00000000000E+00  0.00000000000E+00  0.29462452549E+03  0.29462452549E+03  0.00000000000E+00 0. -1.
          2   -1    0    0  505    0 -0.00000000000E+00 -0.00000000000E+00 -0.70869925879E+03  0.70869925879E+03  0.00000000000E+00 0. -1.
         21    1    1    2  503  501 -0.74950644104E+02 -0.32341868459E+02  0.26606342339E+03  0.27830440308E+03  0.00000000000E+00 0. -1.
         21    1    1    2  504  502 -0.47154047517E+01 -0.82768813819E+02 -0.14701833021E+03  0.16878181478E+03  0.00000000000E+00 0. -1.
         21    1    1    2  505  504  0.10021200695E+02  0.42230931558E+02 -0.70719718007E+02  0.82976831456E+02  0.00000000000E+00 0.  1.
          2    1    1    2  501    0  0.69644848161E+02  0.72879750720E+02 -0.46240010847E+03  0.47326073496E+03  0.00000000000E+00 0. -1.
<scales pt_clust_3="81.77692" pt_clust_4="72.24911" pt_clust_5="43.40364" pt_clust_6="14000.00000"></scales>
<clustering>
<clus scale="   43.404">  2  5  1 -1</clus>
<clus scale="   72.249">  2  4  1 -1</clus>
<clus scale="   81.777">  1  3  2 -1</clus>
<clus scale="   81.777">  1  3  2 -1</clus>
</clustering>
</event>
<event>
 6    0  0.2839294E+002  0.3877025E+03  0.7546771E-02  0.1048123E+00
         21   -1    0    0  503  502  0.00000000000E+00  0.00000000000E+00  0.23553824230E+03  0.23553824230E+03  0.00000000000E+00 0. -1.
          1   -1    0    0  505    0 -0.00000000000E+00 -0.00000000000E+00 -0.15666464320E+04  0.15666464320E+04  0.00000000000E+00 0.  1.
         21    1    1    2  503  504  0.33543578266E+03  0.15851137320E+03 -0.22436158396E+02  0.37168050921E+03  0.00000000000E+00 0. -1.
         21    1    1    2  504  501 -0.14831791452E+02 -0.36069579023E+02 -0.13742531282E+03  0.14285206744E+03  0.00000000000E+00 0.  1.
         21    1    1    2  505  502  0.16567992077E+02 -0.31131097028E+02  0.23834949518E+02  0.42564637695E+02  0.00000000000E+00 0.  1.
          1    1    1    2  501    0 -0.33717198329E+03 -0.91310697149E+02 -0.11950816680E+04  0.12450874599E+04  0.00000000000E+00 0.  1.
<scales pt_clust_3="373.69022" pt_clust_4="34.51291" pt_clust_5="35.26533" pt_clust_6="34.51291"></scales>
<clustering>
<clus scale="   34.513">  4  6 -1 -1</clus>
<clus scale="   35.265">  1  5  2 -1</clus>
<clus scale="  373.690">  1  3  2 -1</clus>
<clus scale="   35.265">  1  3  2 -1</clus>
</clustering>
</event>
<event>
 6    0  0.2839294E+002  0.8108216E+02  0.7546771E-02  0.1326008E+00
         -2   -1    0    0    0  501 -0.00000000000E+00  0.00000000000E+00  0.14016059047E+04  0.14016059047E+04  0.00000000000E+00 0. -1.
         21   -1    0    0  505  502  0.00000000000E+00 -0.00000000000E+00 -0.49972248666E+02  0.49972248666E+02  0.00000000000E+00 0. -1.
         21    1    1    2  503  501 -0.41200383008E+02 -0.73428864395E+02  0.27078875391E+03  0.28357683073E+03  0.00000000000E+00 0. -1.
         21    1    1    2  504  502 -0.24010425050E+02  0.38355760739E+02  0.51574486269E+02  0.68611897852E+02  0.00000000000E+00 0. -1.
         21    1    1    2  505  503 -0.26008322500E+02  0.39201872523E+02 -0.16338254940E+02  0.49801186964E+02  0.00000000000E+00 0. -1.
         -2    1    1    2    0  504  0.91219130558E+02 -0.41287688668E+01  0.10456086708E+04  0.10495882378E+04  0.00000000000E+00 0. -1.
<scales pt_clust_3="81.08216" pt_clust_4="45.25113" pt_clust_5="80.36297" pt_clust_6="14000.00000"></scales>
<clustering>
<clus scale="   45.251">  2  4  1 -1</clus>
<clus scale="   81.082">  1  3  2 -1</clus>
<clus scale="   80.363">  2  5  1 -1</clus>
<clus scale="   45.251">  2  3  1 -1</clus>
</clustering>
</event>
<event>
 6    0  0.2839294E+002  0.1108506E+03  0.7546771E-02  0.1259003E+00
         21   -1    0    0  503  502  0.00000000000E+00  0.00000000000E+00  0.70551176925E+03  0.70551176925E+03  0.00000000000E+00 0. -1.
          2   -1    0    0  504    0 -0.00000000000E+00 -0.00000000000E+00 -0.18574231230E+04  0.18574231230E+04  0.00000000000E+00 0. -1.
         21    1    1    2  503  505 -0.15724575279E+01  0.12430379717E+03 -0.40012589604E+02  0.13059446366E+03  0.00000000000E+00 0.  1.
         21    1    1    2  504  502  0.83444478752E+02 -0.75070371583E+02  0.64525969109E+03  0.65494931916E+03  0.00000000000E+00 0. -1.
         21    1    1    2  505  501 -0.58149527456E+02  0.23990396888E+01 -0.78243849727E+02  0.97515244731E+02  0.00000000000E+00 0. -1.
          2    1    1    2  501    0 -0.23722493769E+02 -0.51632465273E+02 -0.16789146055E+04  0.16798758647E+04  0.00000000000E+00 0. -1.
<scales pt_clust_3="14000.00000" pt_clust_4="110.85058" pt_clust_5="73.57602" pt_clust_6="56.82137"></scales>
<clustering>
<clus scale="   56.821">  2  6  1 -1</clus>
<clus scale="   73.576">  2  5  1 -1</clus>
<clus scale="  110.851">  1  4  2 -1</clus>
<clus scale="  110.851">  1  3  2 -1</clus>
</clustering>
</event>
<event>
 6    0  0.2839294E+002  0.2052322E+03  0.7546771E-02  0.1145398E+00
          2   -1    0    0  504    0 -0.00000000000E+00  0.00000000000E+00  0.14482964082E+04  0.14482964082E+04  0.00000000000E+00 0. -1.
         21   -1    0    0  503  502  0.00000000000E+00 -0.00000000000E+00 -0.68257806017E+03  0.68257806017E+03  0.00000000000E+00 0.  1.
         21    1    1    2  503  501 -0.19894727972E+03  0.30515951467E+03  0.23294245327E+03  0.43239395930E+03  0.00000000000E+00 0. -1.
         21    1    1    2  504  505  0.30670579684E+02 -0.19674367500E+02  0.75465677526E+02  0.83802348888E+02  0.00000000000E+00 0.  1.
         21    1    1    2  505  502  0.66069492546E+02 -0.16203328004E+03 -0.55903095564E+03  0.58577774886E+03  0.00000000000E+00 0.  1.
          2    1    1    2  501    0  0.10220720748E+03 -0.12345186713E+03  0.10163411729E+04  0.10289004113E+04  0.00000000000E+00 0. -1.
<scales pt_clust_3="205.23219" pt_clust_4="36.43851" pt_clust_5="175.27689" pt_clust_6="14000.00000"></scales>
<clustering>
<clus scale="   36.439">  1  4  2 -1</clus>
<clus scale="  175.277">  2  5  1 -1</clus>
<clus scale="  205.232">  2  3  1 -1</clus>
<clus scale="  175.277">  2  3  1 -1</clus>
</clustering>
</event>
<event>
 6    0  0.2839294E+002  0.1202733E+03  0.7546771E-02  0.1242647E+00
         -2   -1    0    0    0  501 -0.00000000000E+00  0.00000000000E+00  0.11477725168E+04  0.11477725168E+04  0.00000000000E+00 0.  1.
         21   -1    0    0  505  502  0.00000000000E+00 -0.00000000000E+00 -0.33949641363E+03  0.33949641363E+03  0.00000000000E+00 0. -1.
         21    1    1    2  503  502 -0.11277270438E+03  0.64968216809E+02 -0.27836940626E+03  0.30729152020E+03  0.00000000000E+00 0. -1.
         21    1    1    2  504  503  0.68053217261E+02 -0.51276792171E+02  0.17341594804E+02  0.86955624920E+02  0.00000000000E+00 0.  1.
         21    1    1    2  505  501 -0.50236512333E+02 -0.51933886432E+02  0.13494411449E+03  0.15307106117E+03  0.00000000000E+00 0.  1.
         -2    1    1    2    0  504  0.94955999451E+02  0.38242461794E+02  0.93435980015E+03  0.93995072416E+03  0.00000000000E+00 0.  1.
<scales pt_clust_3="120.27333" pt_clust_4="14000.00000" pt_clust_5="72.25535" pt_clust_6="49.13318"></scales>
<clustering>
<clus scale="   72.255">  1  5  2 -1</clus>
<clus scale="   49.133">  1  6  2 -1</clus>
<clus scale="  120.273">  2  3  1 -1</clus>
<clus scale="  120.273">  2  3  1 -1</clus>
</clustering>
</event>
<event>
 6    0  0.2839294E+002  0.1107568E+03  0.7546771E-02  0.1259175E+00
         21   -1    0    0  504  502  0.00000000000E+00  0.00000000000E+00  0.68048270693E+02  0.68048270693E+02  0.00000000000E+00 0. -1.
          2   -1    0    0  503    0 -0.00000000000E+00 -0.00000000000E+00 -0.23208517661E+04  0.23208517661E+04  0.00000000000E+00 0. -1.
         21    1    1    2  503  502 -0.28640419192E+01 -0.46820190610E+02 -0.17373267291E+03  0.17995381247E+03  0.00000000000E+00 0.  1.
         21    1    1    2  504  505  0.32397009857E+02 -0.15188461142E+02  0.29001896593E+02  0.46058284874E+02  0.00000000000E+00 0. -1.
         21    1    1    2  505  501 -0.19520578486E+02 -0.51949017679E+02 -0.39264585231E+01  0.55634256523E+02  0.00000000000E+00 0. -1.
          2    1    1    2  501    0 -0.10012389451E+02  0.11395766943E+03 -0.21041462606E+04  0.21072536829E+04  0.00000000000E+00 0. -1.
<scales pt_clust_3="48.37026" pt_clust_4="35.78066" pt_clust_5="14000.00000" pt_clust_6="110.75677"></scales>
<clustering>
<clus scale="   35.781">  1  4  2 -1</clus>
<clus scale="   48.370">  1  3  2 -1</clus>
<clus scale="  110.757">  2  6  1 -1</clus>
<clus scale="   35.781">  1  3  2 -1</clus>
</clustering>
</event>
<event>
 6    0  0.2839294E+002  0.1550814E+03  0.7546771E-02  0.1194364E+00
          3   -1    0    0  505    0 -0.00000000000E+00  0.00000000000E+00  0.42852946700E+03  0.42852946700E+03  0.00000000000E+00 0. -1.
         21   -1    0    0  503  502  0.00000000000E+00 -0.00000000000E+00 -0.23307366724E+03  0.23307366724E+03  0.00000000000E+00 0. -1.
         21    1    1    2  503  501 -0.53350353898E+02  0.81764386649E+02  0.13614805360E+03  0.16753497451E+03  0.00000000000E+00 0. -1.
         21    1    1    2  504  502 -0.43173900369E+02 -0.23543757459E+01 -0.16231979364E+03  0.16797989215E+03  0.00000000000E+00 0. -1.
         21    1    1    2  505  504  0.99825320599E+02 -0.12412876343E+03  0.81433698411E+02  0.17889799266E+03  0.00000000000E+00 0. -1.
          3    1    1    2  501    0 -0.33010663316E+01  0.44718752522E+02  0.14019384139E+03  0.14719027492E+03  0.00000000000E+00 0. -1.
<scales pt_clust_3="39.97771" pt_clust_4="43.23805" pt_clust_5="143.42413" pt_clust_6="39.97771"></scales>
<clustering>
<clus scale="   39.978">  3  6 -1 -1</clus>
<clus scale="   43.238">  2  4  1 -1</clus>
<clus scale="  143.424">  2  5  1 -1</clus>
<clus scale="   43.238">  2  3  1 -1</clus>
</clustering>
</event>
<event>
 6    0  0.2839294E+002  0.1013073E+03  0.7546771E-02  0.1277571E+00
         21   -1    0    0  504  502  0.00000000000E+00  0.00000000000E+00  0.18621418641E+04  0.18621418641E+04  0.00000000000E+00 0.  1.
         -4   -1    0    0    0  501 -0.00000000000E+00 -0.00000000000E+00 -0.12910515505E+03  0.12910515505E+03  0.00000000000E+00 0. -1.
         21    1    1    2  503  505  0.33936113032E+02  0.26302468875E+02 -0.71618655000E+02  0.83502762713E+02  0.00000000000E+00 0. -1.
         21    1    1    2  504  501  0.55332222345E+02 -0.94746276730E+02  0.14196303088E+04  0.14238640123E+04  0.00000000000E+00 0.  1.
         21    1    1    2  505  502 -0.92214161018E+02  0.31407787657E+02  0.42102429115E+03  0.43214737573E+03  0.00000000000E+00 0.  1.
         -4    1    1    2    0  503  0.29458256410E+01  0.37036020197E+02 -0.35999235958E+02  0.51732868375E+02  0.00000000000E+00 0. -1.
<scales pt_clust_3="33.98849" pt_clust_4="101.30731" pt_clust_5="14000.00000" pt_clust_6="81.89668"></scales>
<clustering>
<clus scale="   33.988">  3  6 -1 -1</clus>
<clus scale="   81.897">  2  3  1 -1</clus>
<clus scale="  101.307">  1  4  2 -1</clus>
<clus scale="  101.307">  1  3  2 -1</clus>
</clustering>
</event>
<event>
 6    0  0.2839294E+002  0.1678239E+03  0.7546771E-02  0.1180136E+00
         21   -1    0    0  505  502  0.00000000000E+00  0.00000000000E+00  0.43155487905E+02  0.43155487905E+02  0.00000000000E+00 0.  1.
          2   -1    0    0  504    0 -0.00000000000E+00 -0.00000000000E+00 -0.21248222386E+04  0.21248222386E+04  0.00000000000E+00 0. -1.
         21    1    1    2  503  502 -0.20298233467E+02  0.32231239617E+02 -0.26047757614E+02  0.46144953850E+02  0.00000000000E+00 0.  1.
         21    1    1    2  504  503  0.26798165737E+00  0.42187277030E+02 -0.25724718121E+03  0.26068362127E+03  0.00000000000E+00 0. -1.
         21    1    1    2  505  501 -0.10677671913E+03 -0.14749764746E+03 -0.26926811998E+03  0.32505713989E+03  0.00000000000E+00 0.  1.
          2    1    1    2  501    0  0.12680697094E+03  0.73079130812E+02 -0.15291036919E+04  0.15360920115E+04  0.00000000000E+00 0. -1.
<scales pt_clust_3="38.09030" pt_clust_4="43.86708" pt_clust_5="14000.00000" pt_clust_6="167.82395"></scales>
<clustering>
<clus scale="   38.090">  1  3  2 -1</clus>
<clus scale="   43.867">  2  4  1 -1</clus>
<clus scale="  167.824">  2  6  1 -1</clus>
<clus scale="   38.090">  1  3  2 -1</clus>
</clustering>
</event>
<event>
 6    0  0.2839294E+002  0.1219136E+03  0.7546771E-02  0.1239973E+00
          2   -1    0    0  503    0 -0.00000000000E+00  0.00000000000E+00  0.14357689935E+04  0.14357689935E+04  0.00000000000E+00 0.  1.
         21   -1    0    0  504  502  0.00000000000E+00 -0.00000000000E+00 -0.25280243891E+02  0.25280243891E+02  0.00000000000E+00 0.  1.
         21    1    1    2  503  502  0.12805138327E+03  0.39751634405E+02  0.51960443879E+03  0.53662474971E+03  0.00000000000E+00 0.  1.
         21    1    1    2  504  505 -0.66898276406E+02 -0.10803005234E+03  0.30765832996E+03  0.33286561791E+03  0.00000000000E+00 0.  1.
         21    1    1    2  505  501 -0.29263455847E+02  0.24551055542E+02  0.14281989667E+03  0.14783986966E+03  0.00000000000E+00 0.  1.
          2    1    1    2  501    0 -0.31889651013E+02  0.43727362391E+02  0.44040608414E+03  0.44371900006E+03  0.00000000000E+00 0.  1.
<scales pt_clust_3="121.91358" pt_clust_4="14000.00000" pt_clust_5="31.29604" pt_clust_6="98.94115"></scales>
<clustering>
<clus scale="   31.296">  5  6 -1 -1</clus>
<clus scale="   98.941">  1  5  2 -1</clus>
<clus scale="  121.914">  1  3  2 -1</clus>
<clus scale="  121.914">  2  3  1 -1</clus>
</clustering>
</event>
<event>
 6    0  0.2839294E+002  0.1536037E+03  0.7546771E-02  0.1196113E+00
         21   -1    0    0  503  502  0.00000000000E+00  0.00000000000E+00  0.17666644811E+03  0.17666644811E+03  0.00000000000E+00 0.  1.
          2   -1    0    0  504    0 -0.00000000000E+00 -0.00000000000E+00 -0.76898075172E+03  0.76898075172E+03  0.00000000000E+00 0. -1.
         21    1    1    2  503  505  0.91382583470E+02 -0.11408993986E+01  0.84384251233E+02  0.12438963007E+03  0.00000000000E+00 0.  1.
         21    1    1    2  504  502 -0.26120810672E+02  0.30001449531E+02 -0.56580626764E+02  0.69164666190E+02  0.00000000000E+00 0.  1.
         21    1    1    2  505  501  0.41571042706E+02 -0.47814057234E+02  0.45299877794E+02  0.77887191431E+02  0.00000000000E+00 0. -1.
          2    1    1    2  501    0 -0.10683281550E+03  0.18953507102E+02 -0.66541780588E+03  0.67420571214E+03  0.00000000000E+00 0. -1.
<scales pt_clust_3="52.65420" pt_clust_4="39.77919" pt_clust_5="52.65420" pt_clust_6="139.89070"></scales>
<clustering>
<clus scale="   39.779">  2  4  1 -1</clus>
<clus scale="   52.654">  3  5 -1 -1</clus>
<clus scale="  139.891">  2  6  1 -1</clus>
<clus scale="  153.604">  1  3  2 -1</clus>
</clustering>
</event>
<event>
 6    0  0.2839294E+002  0.7077604E+02  0.7546771E-02  0.1357474E+00
         -2   -1    0    0    0  501 -0.00000000000E+00  0.00000000000E+00  0.63844697348E+03  0.63844697348E+03  0.00000000000E+00 0.  1.
         21   -1    0    0  505  502  0.00000000000E+00 -0.00000000000E+00 -0.42067533520E+03  0.42067533520E+03  0.00000000000E+00 0. -1.
         21    1    1    2  503  502  0.35127253526E+02 -0.80176022185E+02  0.16598362502E+03  0.18765042565E+03  0.00000000000E+00 0. -1.
         21    1    1    2  504  501  0.45902637951E+01  0.92021124787E+02  0.98876570996E+02  0.13515004336E+03  0.00000000000E+00 0. -1.
         21    1    1    2  505  504 -0.22028324670E+01 -0.70162589857E+02 -0.38501112447E+03  0.39135815751E+03  0.00000000000E+00 0. -1.
         -2    1    1    2    0  503 -0.37514684854E+02  0.58317487255E+02  0.33792256674E+03  0.34496368216E+03  0.00000000000E+00 0.  1.
<scales pt_clust_3="47.22350" pt_clust_4="70.77604" pt_clust_5="14000.00000" pt_clust_6="69.34177"></scales>
<clustering>
<clus scale="   69.342">  1  6  2 -1</clus>
<clus scale="   47.224">  1  3  2 -1</clus>
<clus scale="   70.776">  1  4  2 -1</clus>
<clus scale="   70.776">  2  3  1 -1</clus>
</clustering>
</event>
<event>
 6    0  0.2839294E+002  0.1053159E+03  0.7546771E-02  0.1269499E+00
          2   -1    0    0  505    0 -0.00000000000E+00  0.00000000000E+00  0.21070473342E+03  0.21070473342E+03  0.00000000000E+00 0.  1.
         21   -1    0    0  503  502  0.00000000000E+00 -0.00000000000E+00 -0.97729262203E+03  0.97729262203E+03  0.00000000000E+00 0. -1.
         21    1    1    2  503  501 -0.97474902008E+01 -0.74148547242E+02 -0.51116795199E+03  0.51660980998E+03  0.00000000000E+00 0. -1.
         21    1    1    2  504  502  0.60519139951E+02 -0.20433212530E+02 -0.41421184815E+03  0.41910802619E+03  0.00000000000E+00 0. -1.
         21    1    1    2  505  504  0.47256426891E+00 -0.39160469132E+02  0.99398522513E+00  0.39175932232E+02  0.00000000000E+00 0.  1.
          2    1    1    2  501    0 -0.51244214019E+02  0.13374222890E+03  0.15779792631E+03  0.21310358704E+03  0.00000000000E+00 0.  1.
<scales pt_clust_3="14000.00000" pt_clust_4="64.04391" pt_clust_5="39.16332" pt_clust_6="105.31586"></scales>
<clustering>
<clus scale="   39.163">  1  5  2 -1</clus>
<clus scale="   64.044">  2  4  1 -1</clus>
<clus scale="  105.316">  1  6  2 -1</clus>
<clus scale="   64.044">  2  3  1 -1</clus>
</clustering>
</event>
<event>
 6    0  0.2839294E+002  0.8171892E+02  0.7546771E-02  0.1324243E+00
         -2   -1    0    0    0  501 -0.00000000000E+00  0.00000000000E+00  0.52944163497E+03  0.52944163497E+03  0.00000000000E+00 0. -1.
         21   -1    0    0  505  502  0.00000000000E+00 -0.00000000000E+00 -0.10728131825E+04  0.10728131825E+04  0.00000000000E+00 0. -1.
         21    1    1    2  503  502 -0.12449437874E+02 -0.38130683237E+02 -0.17228315303E+03  0.17689098995E+03  0.00000000000E+00 0. -1.
         21    1    1    2  504  501 -0.40217340235E+02  0.12893018048E+02  0.73039338696E+02  0.84370666509E+02  0.00000000000E+00 0.  1.
         21    1    1    2  505  504  0.78339316763E+02  0.86398313974E+02 -0.88626621267E+03  0.89390688381E+03  0.00000000000E+00 0. -1.
         -2    1    1    2    0  503 -0.25672538654E+02 -0.61160648786E+02  0.44213847948E+03  0.44708627718E+03  0.00000000000E+00 0. -1.
<scales pt_clust_3="40.11156" pt_clust_4="42.23556" pt_clust_5="81.71892" pt_clust_6="14000.00000"></scales>
<clustering>
<clus scale="   40.112">  2  3  1 -1</clus>
<clus scale="   42.236">  1  4  2 -1</clus>
<clus scale="   81.719">  2  5  1 -1</clus>
<clus scale="   40.112">  2  3  1 -1</clus>
</clustering>
</event>
<event>
 6    0  0.2839294E+002  0.7425226E+02  0.7546771E-02  0.1346202E+00
         21   -1    0    0  504  502  0.00000000000E+00  0.00000000000E+00  0.22719102507E+02  0.22719102507E+02  0.00000000000E+00 0. -1.
          2   -1    0    0  503    0 -0.00000000000E+00 -0.00000000000E+00 -0.13168629862E+04  0.13168629862E+04  0.00000000000E+00 0. -1.
         21    1    1    2  503  505 -0.42150705430E+02 -0.69506803793E+02 -0.23989480583E+03  0.25329310216E+03  0.00000000000E+00 0. -1.
         21    1    1    2  504  501  0.22326594008E+02  0.78238781916E+02 -0.47634305982E+03  0.48324165221E+03  0.00000000000E+00 0. -1.
         21    1    1    2  505  502  0.63999224258E+02 -0.21806588320E+00 -0.76998043921E+02  0.10012315929E+03  0.00000000000E+00 0. -1.
          2    1    1    2  501    0 -0.44175112836E+02 -0.85139122394E+01 -0.50090797412E+03  0.50292417503E+03  0.00000000000E+00 0. -1.
<scales pt_clust_3="74.25226" pt_clust_4="14000.00000" pt_clust_5="59.20974" pt_clust_6="44.98808"></scales>
<clustering>
<clus scale="   44.988">  2  6  1 -1</clus>
<clus scale="   59.210">  1  5  2 -1</clus>
<clus scale="   74.252">  1  3  2 -1</clus>
<clus scale="   59.210">  1  3  2 -1</clus>
</clustering>
</event>
<event>
 6    0  0.2839294E+002  0.1388233E+03  0.7546771E-02  0.1214921E+00
         -1   -1    0    0    0  501 -0.00000000000E+00  0.00000000000E+00  0.41003756599E+03  0.41003756599E+03  0.00000000000E+00 0. -1.
         21   -1    0    0  505  502  0.00000000000E+00 -0.00000000000E+00 -0.13032653942E+03  0.13032653942E+03  0.00000000000E+00 0. -1.
         21    1    1    2  503  502  0.93145452441E+01  0.65419520438E+02 -0.61084158055E+02  0.89987492312E+02  0.00000000000E+00 0. -1.
         21    1    1    2  504  501 -0.45225701782E+02 -0.14354930928E+02  0.12661717755E+02  0.49109543270E+02  0.00000000000E+00 0. -1.
         21    1    1    2  505  504 -0.62073557291E+02  0.44144412203E+02  0.49218358197E+02  0.90687939811E+02  0.00000000000E+00 0.  1.
         -1    1    1    2    0  503  0.97984713829E+02 -0.95209001712E+02  0.27891510868E+03  0.31057913001E+03  0.00000000000E+00 0. -1.
<scales pt_clust_3="66.07930" pt_clust_4="45.43348" pt_clust_5="45.43348" pt_clust_6="126.32602"></scales>
<clustering>
<clus scale="   45.433">  4  5 -1 -1</clus>
<clus scale="   66.079">  2  3  1 -1</clus>
<clus scale="  126.326">  1  6  2 -1</clus>
<clus scale="   66.079">  2  3  1 -1</clus>
</clustering>
</event>
<event>
 6    0  0.2839294E+002  0.1001573E+03  0.7546771E-02  0.1279965E+00
         21   -1    0    0  504  502  0.00000000000E+00  0.00000000000E+00  0.34700884241E+02  0.34700884241E+02  0.00000000000E+00 0.  1.
          2   -1    0    0  503    0 -0.00000000000E+00 -0.00000000000E+00 -0.29448102902E+04  0.29448102902E+04  0.00000000000E+00 0.  1.
         21    1    1    2  503  502  0.34008902314E+02 -0.21259923500E+02 -0.48021957543E+02  0.62567549018E+02  0.00000000000E+00 0.  1.
         21    1    1    2  504  505 -0.76460974240E+02 -0.73698771479E+02 -0.82418944471E+02  0.13442719928E+03  0.00000000000E+00 0.  1.
         21    1    1    2  505  501  0.55830631469E+02  0.51282945917E+02 -0.13580604524E+04  0.13601746919E+04  0.00000000000E+00 0.  1.
          2    1    1    2  501    0 -0.13378559543E+02  0.43675749061E+02 -0.14216080515E+04  0.14223417343E+04  0.00000000000E+00 0.  1.
<scales pt_clust_3="40.10723" pt_clust_4="100.15734" pt_clust_5="14000.00000" pt_clust_6="45.27512"></scales>
<clustering>
<clus scale="   40.107">  1  3  2 -1</clus>
<clus scale="   45.275">  2  6  1 -1</clus>
<clus scale="  100.157">  1  4  2 -1</clus>
<clus scale="   40.107">  1  3  2 -1</clus>
</clustering>
</event>
<event>
 6    0  0.2839294E+002  0.1100010E+03  0.7546771E-02  0.1260568E+00
         21   -1    0    0  505  502  0.00000000000E+00  0.00000000000E+00  0.36268371337E+02  0.36268371337E+02  0.00000000000E+00 0. -1.
          1   -1    0    0  504    0 -0.00000000000E+00 -0.00000000000E+00 -0.13905891157E+04  0.13905891157E+04  0.00000000000E+00 0. -1.
         21    1    1    2  503  502 -0.95494489728E+02  0.44275813172E+02 -0.77572326212E+02  0.13075553906E+03  0.00000000000E+00 0. -1.
         21    1    1    2  504  503  0.34958458428E+02  0.60721846077E+01 -0.14689622539E+03  0.15112070101E+03  0.00000000000E+00 0.  1.
         21    1    1    2  505  501 -0.20504808285E+02 -0.31218537892E+02 -0.52580009380E+02  0.64495749142E+02  0.00000000000E+00 0.  1.
          1    1    1    2  501    0  0.81040839584E+02 -0.19129459887E+02 -0.10772721834E+04  0.10804854978E+04  0.00000000000E+00 0. -1.
<scales pt_clust_3="110.00103" pt_clust_4="35.48190" pt_clust_5="36.22672" pt_clust_6="14000.00000"></scales>
<clustering>
<clus scale="   35.482">  2  4  1 -1</clus>
<clus scale="   36.227">  1  5  2 -1</clus>
<clus scale="  110.001">  1  3  2 -1</clus>
<clus scale="   36.227">  1  3  2 -1</clus>
</clustering>
</event>
<event>
 6    0  0.2839294E+002  0.8524578E+02  0.7546771E-02  0.1314791E+00
          2   -1    0    0  505    0 -0.00000000000E+00  0.00000000000E+00  0.11428956391E+04  0.11428956391E+04  0.00000000000E+00 0. -1.
         21   -1    0    0  504  502  0.00000000000E+00 -0.00000000000E+00 -0.14947501873E+03  0.14947501873E+03  0.00000000000E+00 0. -1.
         21    1    1    2  503  502 -0.29147501736E+02 -0.28870102831E+02 -0.10186622017E+03  0.10981705927E+03  0.00000000000E+00 0. -1.
         21    1    1    2  504  501  0.11578037852E+03  0.42161474589E+02  0.55720147871E+02  0.13523099079E+03  0.00000000000E+00 0. -1.
         21    1    1    2  505  503 -0.55724168511E+02 -0.21094740503E+02  0.24589334116E+03  0.25300930074E+03  0.00000000000E+00 0. -1.
          2    1    1    2  501    0 -0.30908708278E+02  0.78033687451E+01  0.79367335150E+03  0.79431330701E+03  0.00000000000E+00 0. -1.
<scales pt_clust_3="41.21393" pt_clust_4="14000.00000" pt_clust_5="85.24578" pt_clust_6="31.87853"></scales>
<clustering>
<clus scale="   31.879">  1  6  2 -1</clus>
<clus scale="   41.214">  2  3  1 -1</clus>
<clus scale="   85.246">  1  5  2 -1</clus>
<clus scale="   41.214">  2  3  1 -1</clus>
</clustering>
</event>
<event>
 6    0  0.2839294E+002  0.7739316E+02  0.7546771E-02  0.1336616E+00
         21   -1    0    0  505  502  0.00000000000E+00  0.00000000000E+00  0.59872814965E+03  0.59872814965E+03  0.00000000000E+00 0.  1.
          2   -1    0    0  504    0 -0.00000000000E+00 -0.00000000000E+00 -0.13387156458E+04  0.13387156458E+04  0.00000000000E+00 0.  1.
         21    1    1    2  503  502  0.17841928320E+02  0.74066009215E+02  0.46268732537E+03  0.46891755052E+03  0.00000000000E+00 0.  1.
         21    1    1    2  504  503  0.74807748718E+01 -0.37988659529E+02 -0.53596365824E+02  0.66118610656E+02  0.00000000000E+00 0. -1.
         21    1    1    2  505  501 -0.63162714683E+02 -0.69279077439E+02  0.10874463860E+03  0.14357755926E+03  0.00000000000E+00 0. -1.
          2    1    1    2  501    0  0.37840011491E+02  0.33201727753E+02 -0.12578230943E+04  0.12588300750E+04  0.00000000000E+00 0.  1.
<scales pt_clust_3="77.39316" pt_clust_4="38.71822" pt_clust_5="14000.00000" pt_clust_6="45.39328"></scales>
<clustering>
<clus scale="   38.718">  2  4  1 -1</clus>
<clus scale="   45.393">  2  6  1 -1</clus>
<clus scale="   77.393">  1  3  2 -1</clus>
<clus scale="   77.393">  1  3  2 -1</clus>
</clustering>
</event>
<event>
 6    0  0.2839294E+002  0.1090954E+03  0.7546771E-02  0.1262254E+00
          1   -1    0    0  505    0 -0.00000000000E+00  0.00000000000E+00  0.23981251818E+04  0.23981251818E+04  0.00000000000E+00 0.  1.
         21   -1    0    0  504  502  0.00000000000E+00 -0.00000000000E+00 -0.34004501811E+02  0.34004501811E+02  0.00000000000E+00 0. -1.
         21    1    1    2  503  501  0.63178541958E+02 -0.27643311070E+02  0.99296413396E+02  0.12089441064E+03  0.00000000000E+00 0. -1.
         21    1    1    2  504  503  0.16056025040E+02 -0.47748367580E+02  0.20299977466E+02  0.54311984237E+02  0.00000000000E+00 0. -1.
         21    1    1    2  505  502  0.26252686495E+02  0.30235547606E+02  0.80987823323E+02  0.90346109014E+02  0.00000000000E+00 0. -1.
          1    1    1    2  501    0 -0.10548725349E+03  0.45156131043E+02  0.21635364658E+04  0.21665771797E+04  0.00000000000E+00 0.  1.
<scales pt_clust_3="109.09535" pt_clust_4="43.48985" pt_clust_5="40.04238" pt_clust_6="14000.00000"></scales>
<clustering>
<clus scale="   40.042">  2  5  1 -1</clus>
<clus scale="   43.490">  2  4  1 -1</clus>
<clus scale="  109.095">  2  3  1 -1</clus>
<clus scale="   40.042">  2  3  1 -1</clus>
</clustering>
</event>
<event>
 6    0  0.2839294E+002  0.2502284E+03  0.7546771E-02  0.1113161E+00
          2   -1    0    0  504    0 -0.00000000000E+00  0.00000000000E+00  0.20537793792E+04  0.20537793792E+04  0.00000000000E+00 0.  1.
         21   -1    0    0  505  502  0.00000000000E+00 -0.00000000000E+00 -0.14741434305E+03  0.14741434305E+03  0.00000000000E+00 0.  1.
         21    1    1    2  503  502 -0.15685940743E+03 -0.19087761235E+03  0.24546828775E+02  0.24827743232E+03  0.00000000000E+00 0.  1.
         21    1    1    2  504  503 -0.12356971552E+03  0.19192959862E+03  0.95885140720E+03  0.98564824684E+03  0.00000000000E+00 0.  1.
         21    1    1    2  505  501  0.44850616180E+02 -0.68003855878E+01  0.79818909732E+02  0.91808939471E+02  0.00000000000E+00 0.  1.
          2    1    1    2  501    0  0.23557850677E+03  0.57483993200E+01  0.84314789043E+03  0.87545910361E+03  0.00000000000E+00 0.  1.
<scales pt_clust_3="239.82519" pt_clust_4="228.26836" pt_clust_5="31.32752" pt_clust_6="31.32752"></scales>
<clustering>
<clus scale="   31.328">  5  6 -1 -1</clus>
<clus scale="  228.268">  1  4  2 -1</clus>
<clus scale="  239.825">  2  3  1 -1</clus>
<clus scale="  239.825">  2  3  1 -1</clus>
</clustering>
</event>
<event>
 6    0  0.2839294E+002  0.1040777E+03  0.7546771E-02  0.1271947E+00
         -1   -1    0    0    0  501 -0.00000000000E+00  0.00000000000E+00  0.95146061286E+02  0.95146061286E+02  0.00000000000E+00 0.  1.
         21   -1    0    0  505  502  0.00000000000E+00 -0.00000000000E+00 -0.25534870760E+03  0.25534870760E+03  0.00000000000E+00 0.  1.
         21    1    1    2  503  501 -0.70814341845E+02 -0.75330422064E+02 -0.11479333733E+03  0.15448900865E+03  0.00000000000E+00 0.  1.
         21    1    1    2  504  502  0.30482919308E+02 -0.32879094821E+01 -0.26925070146E+02  0.40804143425E+02  0.00000000000E+00 0. -1.
         21    1    1    2  505  503 -0.39393507802E+02  0.11071542769E+02 -0.29040530010E+02  0.50177483989E+02  0.00000000000E+00 0.  1.
         -1    1    1    2    0  504  0.79724930339E+02  0.67546788778E+02  0.10556291168E+02  0.10502413282E+03  0.00000000000E+00 0.  1.
<scales pt_clust_3="104.07772" pt_clust_4="30.65972" pt_clust_5="35.52424" pt_clust_6="14000.00000"></scales>
<clustering>
<clus scale="   30.660">  2  4  1 -1</clus>
<clus scale="   35.524">  2  5  1 -1</clus>
<clus scale="  104.078">  2  3  1 -1</clus>
<clus scale="   30.660">  2  3  1 -1</clus>
</clustering>
</event>
<event>
 6    0  0.2839294E+002  0.1430202E+03  0.7546771E-02  0.1209322E+00
         21   -1    0    0  504  502  0.00000000000E+00  0.00000000000E+00  0.24629656011E+03  0.24629656011E+03  0.00000000000E+00 0. -1.
          2   -1    0    0  503    0 -0.00000000000E+00 -0.00000000000E+00 -0.21911155364E+04  0.21911155364E+04  0.00000000000E+00 0.  1.
         21    1    1    2  503  505 -0.20255242127E+02  0.30813214101E+02 -0.20831691773E+03  0.21155535259E+03  0.00000000000E+00 0.  1.
         21    1    1    2  504  501  0.24156025597E+02 -0.49979990082E+02 -0.32681715081E+02  0.64417447030E+02  0.00000000000E+00 0. -1.
         21    1    1    2  505  502  0.64108520007E+02 -0.65206193666E+02  0.21808552249E+03  0.23648053863E+03  0.00000000000E+00 0. -1.
          2    1    1    2  501    0 -0.68009303477E+02  0.84372969647E+02 -0.19219058660E+04  0.19249587583E+04  0.00000000000E+00 0.  1.
<scales pt_clust_3="36.87450" pt_clust_4="54.61566" pt_clust_5="14000.00000" pt_clust_6="143.02016"></scales>
<clustering>
<clus scale="   36.875">  2  3  1 -1</clus>
<clus scale="   54.616">  1  4  2 -1</clus>
<clus scale="  143.020">  2  6  1 -1</clus>
<clus scale="   54.616">  1  3  2 -1</clus>
</clustering>
</event>
<event>
 6    0  0.2839294E+002  0.1094249E+03  0.7546771E-02  0.1261639E+00
          2   -1    0    0  504    0 -0.00000000000E+00  0.00000000000E+00  0.31158863644E+03  0.31158863644E+03  0.00000000000E+00 0.  1.
         21   -1    0    0  503  502  0.00000000000E+00 -0.00000000000E+00 -0.12457219411E+03  0.12457219411E+03  0.00000000000E+00 0.  1.
         21    1    1    2  503  505 -0.71420230815E+02 -0.31028371019E+02 -0.26025214602E+01  0.77912658123E+02  0.00000000000E+00 0. -1.
         21    1    1    2  504  502  0.21130963880E+02 -0.11273225908E+03  0.36222676449E+02  0.12027951680E+03  0.00000000000E+00 0.  1.
         21    1    1    2  505  501  0.80198736255E+02  0.91130300143E+02  0.10203163539E+03  0.15857813065E+03  0.00000000000E+00 0.  1.
          2    1    1    2  501    0 -0.29909469320E+02  0.52630329954E+02  0.51364651945E+02  0.79390524973E+02  0.00000000000E+00 0.  1.
<scales pt_clust_3="79.39277" pt_clust_4="14000.00000" pt_clust_5="109.42492" pt_clust_6="60.53534"></scales>
<clustering>
<clus scale="   60.535">  1  6  2 -1</clus>
<clus scale="   79.393">  2  3  1 -1</clus>
<clus scale="  109.425">  2  5  1 -1</clus>
<clus scale="   79.393">  2  3  1 -1</clus>
</clustering>
</event>
<event>
 6    0  0.2839294E+002  0.1962846E+03  0.7546771E-02  0.1152912E+00
         21   -1    0    0  505  502  0.00000000000E+00  0.00000000000E+00  0.36970811217E+03  0.36970811217E+03  0.00000000000E+00 0. -1.
         -1   -1    0    0    0  501 -0.00000000000E+00 -0.00000000000E+00 -0.37666522306E+03  0.37666522306E+03  0.00000000000E+00 0. -1.
         21    1    1    2  503  504 -0.14520804118E+02 -0.76751749065E+02 -0.52747472357E+02  0.94254870308E+02  0.00000000000E+00 0. -1.
         21    1    1    2  504  502 -0.26126931661E+02 -0.40753015762E+02  0.25236925051E+03  0.25697016063E+03  0.00000000000E+00 0. -1.
         21    1    1    2  505  501  0.49543029406E+02  0.21743623376E+03 -0.87803631615E+02  0.23967166132E+03  0.00000000000E+00 0. -1.
         -1    1    1    2    0  503 -0.88952936271E+01 -0.99931468934E+02 -0.11877525743E+03  0.15547664297E+03  0.00000000000E+00 0. -1.
<scales pt_clust_3="30.31720" pt_clust_4="48.40893" pt_clust_5="193.25410" pt_clust_6="30.31720"></scales>
<clustering>
<clus scale="   30.317">  3  6 -1 -1</clus>
<clus scale="   48.409">  1  4  2 -1</clus>
<clus scale="  193.254">  1  5  2 -1</clus>
<clus scale="   48.409">  1  3  2 -1</clus>
</clustering>
</event>
<event>
 6    0  0.2839294E+002  0.1029298E+03  0.7546771E-02  0.1274253E+00
         -1   -1    0    0    0  501 -0.00000000000E+00  0.00000000000E+00  0.23836965531E+04  0.23836965531E+04  0.00000000000E+00 0. -1.
         21   -1    0    0  504  502  0.00000000000E+00 -0.00000000000E+00 -0.34430173569E+02  0.34430173569E+02  0.00000000000E+00 0. -1.
         21    1    1    2  503  505 -0.62853238650E+02 -0.81799990845E+01  0.27494194910E+03  0.28215335789E+03  0.00000000000E+00 0. -1.
         21    1    1    2  504  501  0.19388356014E+03 -0.25103226428E+02  0.66233410209E+03  0.69058487506E+03  0.00000000000E+00 0. -1.
         21    1    1    2  505  502 -0.48943100181E+02 -0.12077827590E+02  0.26924345300E+02  0.57150864775E+02  0.00000000000E+00 0. -1.
         -1    1    1    2    0  503 -0.82087221309E+02  0.45361053103E+02  0.13850659830E+04  0.13882376289E+04  0.00000000000E+00 0. -1.
<scales pt_clust_3="72.74126" pt_clust_4="102.92976" pt_clust_5="50.41132" pt_clust_6="14000.00000"></scales>
<clustering>
<clus scale="   50.411">  2  5  1 -1</clus>
<clus scale="   72.741">  2  3  1 -1</clus>
<clus scale="  102.930">  2  4  1 -1</clus>
<clus scale="   50.411">  2  3  1 -1</clus>
</clustering>
</event>
<event>
 6    0  0.2839294E+002  0.1083603E+03  0.7546771E-02  0.1263637E+00
         21   -1    0    0  504  502  0.00000000000E+00  0.00000000000E+00  0.82383387509E+02  0.82383387509E+02  0.00000000000E+00 0. -1.
          1   -1    0    0  505    0 -0.00000000000E+00 -0.00000000000E+00 -0.16016446148E+04  0.16016446148E+04  0.00000000000E+00 0. -1.
         21    1    1    2  503  501 -0.10229278666E+03 -0.63455022123E+02 -0.31905710665E+03  0.34100995783E+03  0.00000000000E+00 0.  1.
         21    1    1    2  504  503  0.73029549205E+02  0.34568831779E+02  0.25633641697E+02  0.84766755124E+02  0.00000000000E+00 0. -1.
         21    1    1    2  505  502  0.47243499911E+02 -0.46054087486E+02 -0.57918987038E+02  0.87792575526E+02  0.00000000000E+00 0. -1.
          1    1    1    2  501    0 -0.17980262458E+02  0.74940277831E+02 -0.11679187753E+04  0.11704587138E+04  0.00000000000E+00 0. -1.
<scales pt_clust_3="14000.00000" pt_clust_4="108.36034" pt_clust_5="65.97672" pt_clust_6="76.01920"></scales>
<clustering>
<clus scale="   65.977">  1  5  2 -1</clus>
<clus scale="   76.019">  2  6  1 -1</clus>
<clus scale="  108.360">  1  4  2 -1</clus>
<clus scale="   65.977">  1  3  2 -1</clus>
</clustering>
</event>
<event>
 6    0  0.2839294E+002  0.6652885E+02  0.7546771E-02  0.1372311E+00
          2   -1    0    0  504    0 -0.00000000000E+00  0.00000000000E+00  0.38664335382E+04  0.38664335382E+04  0.00000000000E+00 0. -1.
         21   -1    0    0  503  502  0.00000000000E+00 -0.00000000000E+00 -0.60940120605E+02  0.60940120605E+02  0.00000000000E+00 0.  1.
         21    1    1    2  503  501  0.83855767231E+02  0.68117960750E+02  0.46504660077E+03  0.47743081924E+03  0.00000000000E+00 0. -1.
         21    1    1    2  504  505 -0.46075636317E+02 -0.11172368567E+02  0.75992306757E+03  0.76140058754E+03  0.00000000000E+00 0. -1.
         21    1    1    2  505  502 -0.63209318694E+02 -0.15928153852E+02 -0.34036637018E+02  0.73536499199E+02  0.00000000000E+00 0.  1.
          2    1    1    2  501    0  0.25429187781E+02 -0.41017438330E+02  0.26145603862E+04  0.26150057528E+04  0.00000000000E+00 0. -1.
<scales pt_clust_3="14000.00000" pt_clust_4="47.41082" pt_clust_5="66.52885" pt_clust_6="52.16407"></scales>
<clustering>
<clus scale="   47.411">  1  4  2 -1</clus>
<clus scale="   52.164">  1  6  2 -1</clus>
<clus scale="   66.529">  2  5  1 -1</clus>
<clus scale="   66.529">  2  3  1 -1</clus>
</clustering>
</event>
<event>
 6    0  0.2839294E+002  0.2316313E+03  0.7546771E-02  0.1125497E+00
         -2   -1    0    0    0  501 -0.00000000000E+00  0.00000000000E+00  0.26252668794E+03  0.26252668794E+03  0.00000000000E+00 0.  1.
         21   -1    0    0  504  502  0.00000000000E+00 -0.00000000000E+00 -0.29320680960E+03  0.29320680960E+03  0.00000000000E+00 0.  1.
         21    1    1    2  503  502  0.35404380994E+02 -0.43466591140E+01  0.30967263760E+02  0.47237009471E+02  0.00000000000E+00 0.  1.
         21    1    1    2  504  501 -0.22276460393E+03  0.50808102903E+02 -0.12065587646E+03  0.25838609213E+03  0.00000000000E+00 0.  1.
         21    1    1    2  505  503  0.15606776463E+03 -0.84603080217E+02  0.58997292682E+01  0.17762216963E+03  0.00000000000E+00 0.  1.
         -2    1    1    2    0  505  0.31292458302E+02  0.38141636428E+02  0.53108761769E+02  0.72488226303E+02  0.00000000000E+00 0.  1.
<scales pt_clust_3="30.49720" pt_clust_4="221.41416" pt_clust_5="30.49720" pt_clust_6="49.33561"></scales>
<clustering>
<clus scale="   30.497">  3  5 -1 -1</clus>
<clus scale="   49.336">  1  6  2 -1</clus>
<clus scale="  221.414">  2  4  1 -1</clus>
<clus scale="  221.414">  2  3  1 -1</clus>
</clustering>
</event>
<event>
 6    0  0.2839294E+002  0.8165151E+02  0.7546771E-02  0.1324429E+00
         21   -1    0    0  504  502  0.00000000000E+00  0.00000000000E+00  0.28711015491E+02  0.28711015491E+02  0.00000000000E+00 0.  1.
          1   -1    0    0  505    0 -0.00000000000E+00 -0.00000000000E+00 -0.14239205228E+04  0.14239205228E+04  0.00000000000E+00 0.  1.
         21    1    1    2  503  502  0.16139819019E+02  0.51213404037E+02 -0.40251370508E+02  0.67107967774E+02  0.00000000000E+00 0.  1.
         21    1    1    2  504  501  0.17094501444E+02 -0.12305473263E+03 -0.31807446021E+03  0.34147628240E+03  0.00000000000E+00 0.  1.
         21    1    1    2  505  503  0.25026139920E+02  0.39240996936E+02 -0.24695698649E+03  0.25130443031E+03  0.00000000000E+00 0.  1.
          1    1    1    2  501    0 -0.58260460383E+02  0.32600331655E+02 -0.78992669010E+03  0.79274285781E+03  0.00000000000E+00 0.  1.
<scales pt_clust_3="55.75300" pt_clust_4="14000.00000" pt_clust_5="46.54206" pt_clust_6="81.65151"></scales>
<clustering>
<clus scale="   46.542">  2  5  1 -1</clus>
<clus scale="   55.753">  1  3  2 -1</clus>
<clus scale="   81.652">  2  6  1 -1</clus>
<clus scale="   55.753">  1  3  2 -1</clus>
</clustering>
</event>
<event>
 6    0  0.2839294E+002  0.1829344E+03  0.7546771E-02  0.1164993E+00
          2   -1    0    0  505    0 -0.00000000000E+00  0.00000000000E+00  0.35431099048E+04  0.35431099048E+04  0.00000000000E+00 0.  1.
         21   -1    0    0  504  502  0.00000000000E+00 -0.00000000000E+00 -0.27508879388E+02  0.27508879388E+02  0.00000000000E+00 0. -1.
         21    1    1    2  503  502 -0.48101918413E+02 -0.17548215716E+03  0.37667899840E+03  0.41832385765E+03  0.00000000000E+00 0. -1.
         21    1    1    2  504  501 -0.26510616218E+02  0.19996296121E+03  0.22139021151E+04  0.22230723276E+04  0.00000000000E+00 0.  1.
         21    1    1    2  505  503  0.33277325198E+02 -0.18068524895E+02  0.24414825107E+03  0.24706723875E+03  0.00000000000E+00 0.  1.
          2    1    1    2  501    0  0.41335209433E+02 -0.64122791488E+01  0.68087166082E+03  0.68215536014E+03  0.00000000000E+00 0.  1.
<scales pt_clust_3="14000.00000" pt_clust_4="182.93440" pt_clust_5="37.86624" pt_clust_6="49.26895"></scales>
<clustering>
<clus scale="   37.866">  1  5  2 -1</clus>
<clus scale="   49.269">  1  6  2 -1</clus>
<clus scale="  182.934">  1  4  2 -1</clus>
<clus scale="  182.934">  2  3  1 -1</clus>
</clustering>
</event>
<event>
 6    0  0.2839294E+002  0.7844512E+02  0.7546771E-02  0.1333523E+00
         21   -1    0    0  503  502  0.00000000000E+00  0.00000000000E+00  0.17911786363E+03  0.17911786363E+03  0.00000000000E+00 0. -1.
          2   -1    0    0  505    0 -0.00000000000E+00 -0.00000000000E+00 -0.18592089008E+04  0.18592089008E+04  0.00000000000E+00 0.  1.
         21    1    1    2  503  501 -0.72189847435E+01 -0.45624105962E+02  0.58523386981E+02  0.74556418968E+02  0.00000000000E+00 0. -1.
         21    1    1    2  504  502  0.21281385870E+02  0.12159122029E+03  0.75383062280E+02  0.14463723005E+03  0.00000000000E+00 0. -1.
         21    1    1    2  505  504  0.41173961733E+02 -0.46885705262E-01 -0.43550976157E+03  0.43745176848E+03  0.00000000000E+00 0.  1.
          2    1    1    2  501    0 -0.55236362859E+02 -0.75920228625E+02 -0.13784877248E+04  0.13816813469E+04  0.00000000000E+00 0.  1.
<scales pt_clust_3="46.15627" pt_clust_4="14000.00000" pt_clust_5="41.17399" pt_clust_6="78.44512"></scales>
<clustering>
<clus scale="   41.174">  2  5  1 -1</clus>
<clus scale="   46.156">  1  3  2 -1</clus>
<clus scale="   78.445">  2  6  1 -1</clus>
<clus scale="   46.156">  1  3  2 -1</clus>
</clustering>
</event>
<event>
 6    0  0.2839294E+002  0.1196812E+03  0.7546771E-02  0.1243624E+00
         21   -1    0    0  504  502  0.00000000000E+00  0.00000000000E+00  0.34373283337E+03  0.34373283337E+03  0.00000000000E+00 0.  1.
          2   -1    0    0  503    0 -0.00000000000E+00 -0.00000000000E+00 -0.42456944806E+03  0.42456944806E+03  0.00000000000E+00 0. -1.
         21    1    1    2  503  505 -0.18177527255E+02  0.27599243018E+02 -0.23819448268E+02  0.40737044911E+02  0.00000000000E+00 0.  1.
         21    1    1    2  504  501 -0.74062759236E+02  0.12372864313E+02  0.25191421297E+02  0.79202195575E+02  0.00000000000E+00 0.  1.
         21    1    1    2  505  502  0.46162378571E+02 -0.13160982953E+03  0.25786043651E+03  0.29316227101E+03  0.00000000000E+00 0.  1.
          2    1    1    2  501    0  0.46077907919E+02  0.91637722195E+02 -0.34006902422E+03  0.35520076994E+03  0.00000000000E+00 0. -1.
<scales pt_clust_3="33.04755" pt_clust_4="76.65460" pt_clust_5="119.68117" pt_clust_6="14000.00000"></scales>
<clustering>
<clus scale="   33.048">  2  3  1 -1</clus>
<clus scale="   76.655">  1  4  2 -1</clus>
<clus scale="  119.681">  1  5  2 -1</clus>
<clus scale="   76.655">  1  3  2 -1</clus>
</clustering>
</event>
<event>
 6    0  0.2839294E+002  0.7686677E+02  0.7546771E-02  0.1338186E+00
          4   -1    0    0  504    0 -0.00000000000E+00  0.00000000000E+00  0.56942009703E+03  0.56942009703E+03  0.00000000000E+00 0. -1.
         21   -1    0    0  505  502  0.00000000000E+00 -0.00000000000E+00 -0.18732923289E+03  0.18732923289E+03  0.00000000000E+00 0. -1.
         21    1    1    2  503  502 -0.34560284940E+02  0.11613219840E+03 -0.10777856316E+03  0.16216448279E+03  0.00000000000E+00 0. -1.
         21    1    1    2  504  503 -0.25103320887E+02 -0.32886585354E+02  0.71008860842E+02  0.82182495301E+02  0.00000000000E+00 0. -1.
         21    1    1    2  505  501  0.10008081807E+02 -0.44545643459E+02 -0.32900771440E+02  0.56275543658E+02  0.00000000000E+00 0.  1.
          4    1    1    2  501    0  0.49655524020E+02 -0.38699969589E+02  0.45176133790E+03  0.45612680817E+03  0.00000000000E+00 0. -1.
<scales pt_clust_3="76.86677" pt_clust_4="41.37275" pt_clust_5="46.29261" pt_clust_6="14000.00000"></scales>
<clustering>
<clus scale="   41.373">  1  4  2 -1</clus>
<clus scale="   46.293">  2  5  1 -1</clus>
<clus scale="   76.867">  2  3  1 -1</clus>
<clus scale="   46.293">  2  3  1 -1</clus>
</clustering>
</event>
<event>
 6    0  0.2839294E+002  0.1922894E+03  0.7546771E-02  0.1156412E+00
         21   -1    0    0  501  502  0.00000000000E+00  0.00000000000E+00  0.23720633599E+03  0.23720633599E+03  0.00000000000E+00 0. -1.
          2   -1    0    0  505    0 -0.00000000000E+00 -0.00000000000E+00 -0.15525673720E+04  0.15525673720E+04  0.00000000000E+00 0.  1.
         21    1    1    2  503  504  0.16144517779E+03 -0.19368137299E+03 -0.39317921338E+03  0.46708341172E+03  0.00000000000E+00 0.  1.
         21    1    1    2  504  502 -0.12427763771E+03  0.13861057559E+03  0.15232326530E+03  0.24054147262E+03  0.00000000000E+00 0. -1.
         21    1    1    2  505  503  0.27273466058E+02  0.21467404768E+02 -0.12104506363E+03  0.12592298777E+03  0.00000000000E+00 0.  1.
          2    1    1    2  501    0 -0.64441006139E+02  0.33603392633E+02 -0.95346002432E+03  0.95622583590E+03  0.00000000000E+00 0.  1.
<scales pt_clust_3="192.28941" pt_clust_4="14000.00000" pt_clust_5="34.70866" pt_clust_6="66.59598"></scales>
<clustering>
<clus scale="   34.709">  2  5  1 -1</clus>
<clus scale="   66.596">  2  6  1 -1</clus>
<clus scale="  192.289">  2  3  1 -1</clus>
<clus scale="  192.289">  1  3  2 -1</clus>
</clustering>
</event>
<event>
 6    0  0.2839294E+002  0.4913955E+03  0.7546771E-02  0.1016050E+00
          2   -1    0    0  503    0 -0.00000000000E+00  0.00000000000E+00  0.25661608665E+04  0.25661608665E+04  0.00000000000E+00 0.  1.
         21   -1    0    0  505  502  0.00000000000E+00 -0.00000000000E+00 -0.30204321214E+03  0.30204321214E+03  0.00000000000E+00 0. -1.
         21    1    1    2  503  504  0.39032163252E+03 -0.45206201406E+02 -0.90744906488E+01  0.39303552491E+03  0.00000000000E+00 0. -1.
         21    1    1    2  504  502  0.20814598274E+02 -0.18794575618E+03  0.49978476543E+02  0.19558809495E+03  0.00000000000E+00 0. -1.
         21    1    1    2  505  501 -0.11878477335E+03 -0.11120851140E+02  0.65319735793E+03  0.66400322599E+03  0.00000000000E+00 0. -1.
          2    1    1    2  501    0 -0.29235145745E+03  0.24427280873E+03  0.15700163105E+04  0.16155772328E+04  0.00000000000E+00 0.  1.
<scales pt_clust_3="459.40650" pt_clust_4="189.09483" pt_clust_5="97.59501" pt_clust_6="97.59501"></scales>
<clustering>
<clus scale="   97.595">  5  6 -1 -1</clus>
<clus scale="  189.095">  2  4  1 -1</clus>
<clus scale="  459.407">  2  3  1 -1</clus>
<clus scale="  189.095">  2  3  1 -1</clus>
</clustering>
</event>
<event>
 6    0  0.2839294E+002  0.1174164E+03  0.7546771E-02  0.1247421E+00
          1   -1    0    0  504    0 -0.00000000000E+00  0.00000000000E+00  0.51778698395E+03  0.51778698395E+03  0.00000000000E+00 0. -1.
         21   -1    0    0  505  502  0.00000000000E+00 -0.00000000000E+00 -0.11291193045E+04  0.11291193045E+04  0.00000000000E+00 0.  1.
         21    1    1    2  503  501 -0.21717652734E+02 -0.39643706971E+02  0.15285452512E+03  0.15939819884E+03  0.00000000000E+00 0. -1.
         21    1    1    2  504  502 -0.79357759482E+02  0.79972956569E+02 -0.62294644897E+03  0.63305260924E+03  0.00000000000E+00 0.  1.
         21    1    1    2  505  503  0.14853062920E+03 -0.16267115620E+02 -0.48454100070E+03  0.50705615884E+03  0.00000000000E+00 0.  1.
          1    1    1    2  501    0 -0.47455216982E+02 -0.24062133978E+02  0.34330060399E+03  0.34739932154E+03  0.00000000000E+00 0. -1.
<scales pt_clust_3="39.43500" pt_clust_4="14000.00000" pt_clust_5="117.41644" pt_clust_6="103.31415"></scales>
<clustering>
<clus scale="   39.435">  3  6 -1 -1</clus>
<clus scale="  103.314">  1  3  2 -1</clus>
<clus scale="  117.416">  1  5  2 -1</clus>
<clus scale="  117.416">  2  3  1 -1</clus>
</clustering>
</event>
<event>
 6    0  0.2839294E+002  0.8800495E+02  0.7546771E-02  0.1307756E+00
         21   -1    0    0  501  502  0.00000000000E+00  0.00000000000E+00  0.32197973839E+04  0.32197973839E+04  0.00000000000E+00 0. -1.
         -1   -1    0    0    0  501 -0.00000000000E+00 -0.00000000000E+00 -0.12122569090E+02  0.12122569090E+02  0.00000000000E+00 0. -1.
         21    1    1    2  503  504 -0.27070886813E+01 -0.12164446438E+03  0.19863656405E+04  0.19900887321E+04  0.00000000000E+00 0. -1.
         21    1    1    2  504  502 -0.33887183466E+01  0.41524854974E+02  0.35346058143E+03  0.35590754364E+03  0.00000000000E+00 0. -1.
         21    1    1    2  505  503  0.81582199984E+02  0.53687089406E+02  0.50648130843E+03  0.51581127820E+03  0.00000000000E+00 0. -1.
         -1    1    1    2    0  505 -0.75486392956E+02  0.26432519995E+02  0.36136728445E+03  0.37011239901E+03  0.00000000000E+00 0. -1.
<scales pt_clust_3="88.00495" pt_clust_4="41.66290" pt_clust_5="14000.00000" pt_clust_6="82.28421"></scales>
<clustering>
<clus scale="   41.663">  1  4  2 -1</clus>
<clus scale="   82.284">  2  6  1 -1</clus>
<clus scale="   88.005">  1  3  2 -1</clus>
<clus scale="   41.663">  1  3  2 -1</clus>
</clustering>
</event>
<event>
 6    0  0.2839294E+002  0.1478658E+03  0.7546771E-02  0.1203120E+00
          2   -1    0    0  505    0 -0.00000000000E+00  0.00000000000E+00  0.27500551606E+04  0.27500551606E+04  0.00000000000E+00 0.  1.
         21   -1    0    0  504  502  0.00000000000E+00 -0.00000000000E+00 -0.11851735469E+02  0.11851735469E+02  0.00000000000E+00 0.  1.
         21    1    1    2  503  502  0.15876354698E+02 -0.64490426313E+02  0.32906819691E+03  0.33570366686E+03  0.00000000000E+00 0.  1.
         21    1    1    2  504  501 -0.30276867435E+02 -0.23148816690E+02  0.27582344866E+03  0.27844412590E+03  0.00000000000E+00 0.  1.
         21    1    1    2  505  503  0.57952165705E+02 -0.49890796664E+02  0.33257816321E+03  0.34125617905E+03  0.00000000000E+00 0.  1.
          2    1    1    2  501    0 -0.43551652967E+02  0.13753003967E+03  0.18007336163E+04  0.18065029243E+04  0.00000000000E+00 0.  1.
<scales pt_clust_3="43.49830" pt_clust_4="38.11242" pt_clust_5="43.49830" pt_clust_6="141.06484"></scales>
<clustering>
<clus scale="   38.112">  2  4  1 -1</clus>
<clus scale="   43.498">  3  5 -1 -1</clus>
<clus scale="  141.065">  1  6  2 -1</clus>
<clus scale="   38.112">  2  3  1 -1</clus>
</clustering>
</event>
<event>
 6    0  0.2839294E+002  0.1677942E+03  0.7546771E-02  0.1180168E+00
         21   -1    0    0  504  502  0.00000000000E+00  0.00000000000E+00  0.97595724726E+03  0.97595724726E+03  0.00000000000E+00 0.  1.
          2   -1    0    0  505    0 -0.00000000000E+00 -0.00000000000E+00 -0.10813150725E+04  0.10813150725E+04  0.00000000000E+00 0.  1.
         21    1    1    2  503  501  0.41000918342E+01 -0.51267682866E+02 -0.24718207691E+03  0.25247606858E+03  0.00000000000E+00 0.  1.
         21    1    1    2  504  503  0.29405093046E+02  0.75622082303E+01  0.53253468034E+02  0.61300720616E+02  0.00000000000E+00 0.  1.
         21    1    1    2  505  502 -0.10334995601E+03  0.13319789728E+03  0.90431207711E+03  0.91989305142E+03  0.00000000000E+00 0.  1.
          2    1    1    2  501    0  0.69844771126E+02 -0.89492422649E+02 -0.81574129351E+03  0.82360247918E+03  0.00000000000E+00 0.  1.
<scales pt_clust_3="35.96835" pt_clust_4="30.36193" pt_clust_5="159.05091" pt_clust_6="35.96835"></scales>
<clustering>
<clus scale="   30.362">  1  4  2 -1</clus>
<clus scale="   35.968">  3  6 -1 -1</clus>
<clus scale="  159.051">  1  5  2 -1</clus>
<clus scale="   30.362">  1  3  2 -1</clus>
</clustering>
</event>
<event>
 6    0  0.2839294E+002  0.8704947E+02  0.7546771E-02  0.1310158E+00
          1   -1    0    0  503    0 -0.00000000000E+00  0.00000000000E+00  0.23291665748E+03  0.23291665748E+03  0.00000000000E+00 0. -1.
         21   -1    0    0  505  502  0.00000000000E+00 -0.00000000000E+00 -0.43245383122E+03  0.43245383122E+03  0.00000000000E+00 0. -1.
         21    1    1    2  503  504 -0.70065750469E+02  0.15413596155E+02  0.13247988136E+03  0.15065758295E+03  0.00000000000E+00 0. -1.
         21    1    1    2  504  502 -0.42620678750E+02  0.21675007501E+02 -0.23845261576E+02  0.53431495458E+02  0.00000000000E+00 0. -1.
         21    1    1    2  505  501  0.13035579306E+03 -0.12194071908E+02 -0.36991643061E+03  0.39240220923E+03  0.00000000000E+00 0. -1.
          1    1    1    2  501    0 -0.17669363838E+02 -0.24894531748E+02  0.61744637082E+02  0.68879201054E+02  0.00000000000E+00 0. -1.
<scales pt_clust_3="14000.00000" pt_clust_4="48.28327" pt_clust_5="87.04947" pt_clust_6="30.52776"></scales>
<clustering>
<clus scale="   30.528">  1  6  2 -1</clus>
<clus scale="   48.283">  2  4  1 -1</clus>
<clus scale="   87.049">  2  5  1 -1</clus>
<clus scale="   48.283">  2  3  1 -1</clus>
</clustering>
</event>
<event>
 6    0  0.2839294E+002  0.1322937E+03  0.7546771E-02  0.1224091E+00
         21   -1    0    0  503  502  0.00000000000E+00  0.00000000000E+00  0.55421182872E+02  0.55421182872E+02  0.00000000000E+00 0.  1.
          2   -1    0    0  504    0 -0.00000000000E+00 -0.00000000000E+00 -0.59341892022E+03  0.59341892022E+03  0.00000000000E+00 0.  1.
         21    1    1    2  503  501 -0.99654430653E+01 -0.73940328137E+02 -0.69320610034E+02  0.10184217769E+03  0.00000000000E+00 0. -1.
         21    1    1    2  504  505 -0.79665230793E+02 -0.19444300723E+02 -0.12922399450E+03  0.15304728218E+03  0.00000000000E+00 0.  1.
         21    1    1    2  505  502  0.48464445631E+02  0.13039871435E+03 -0.28036354310E+03  0.31297978128E+03  0.00000000000E+00 0.  1.
          2    1    1    2  501    0  0.41166228227E+02 -0.37014085488E+02 -0.59089589723E+02  0.80970861948E+02  0.00000000000E+00 0.  1.
<scales pt_clust_3="52.02033" pt_clust_4="82.00384" pt_clust_5="117.70545" pt_clust_6="52.02033"></scales>
<clustering>
<clus scale="   52.020">  3  6 -1 -1</clus>
<clus scale="   82.004">  2  4  1 -1</clus>
<clus scale="  117.705">  2  5  1 -1</clus>
<clus scale="  132.294">  1  3  2 -1</clus>
</clustering>
</event>
<event>
 6    0  0.2839294E+002  0.1446325E+03  0.7546771E-02  0.1207228E+00
         21   -1    0    0  503  502  0.00000000000E+00  0.00000000000E+00  0.53109476050E+03  0.53109476050E+03  0.00000000000E+00 0.  1.
          2   -1    0    0  505    0 -0.00000000000E+00 -0.00000000000E+00 -0.22419831159E+03  0.22419831159E+03  0.00000000000E+00 0.  1.
         21    1    1    2  503  501  0.43578517838E+02 -0.41234298860E+02  0.36653559899E+02  0.70305320373E+02  0.00000000000E+00 0.  1.
         21    1    1    2  504  502  0.94800990928E+01 -0.14236096756E+03  0.34935729121E+03  0.37736856558E+03  0.00000000000E+00 0.  1.
         21    1    1    2  505  504 -0.92142886590E+02  0.87790595918E+02  0.54649955344E+02  0.13850674316E+03  0.00000000000E+00 0.  1.
          2    1    1    2  501    0  0.39084269659E+02  0.95804670504E+02 -0.13376435754E+03  0.16911244299E+03  0.00000000000E+00 0.  1.
<scales pt_clust_3="59.99462" pt_clust_4="144.63251" pt_clust_5="14000.00000" pt_clust_6="102.68753"></scales>
<clustering>
<clus scale="   59.995">  1  3  2 -1</clus>
<clus scale="  102.688">  2  6  1 -1</clus>
<clus scale="  144.633">  1  4  2 -1</clus>
<clus scale="   59.995">  1  3  2 -1</clus>
</clustering>
</event>
<event>
 6    0  0.2839294E+002  0.2014163E+03  0.7546771E-02  0.1148550E+00
          2   -1    0    0  503    0 -0.00000000000E+00  0.00000000000E+00  0.24599185092E+03  0.24599185092E+03  0.00000000000E+00 0.  1.
         21   -1    0    0  505  502  0.00000000000E+00 -0.00000000000E+00 -0.66186719576E+03  0.66186719576E+03  0.00000000000E+00 0. -1.
         21    1    1    2  503  504  0.27442014694E+02 -0.34232230475E+02 -0.10106047317E+02  0.45022682796E+02  0.00000000000E+00 0. -1.
         21    1    1    2  504  502 -0.97846994473E+02 -0.17676814942E+03 -0.48005467376E+03  0.52083922930E+03  0.00000000000E+00 0. -1.
         21    1    1    2  505  501 -0.62177746529E+02  0.51873669752E+02 -0.54953729349E+02  0.97861443615E+02  0.00000000000E+00 0. -1.
          2    1    1    2  501    0  0.13258272631E+03  0.15912671014E+03  0.12923910559E+03  0.24413569098E+03  0.00000000000E+00 0.  1.
<scales pt_clust_3="43.87379" pt_clust_4="201.41625" pt_clust_5="76.94253" pt_clust_6="14000.00000"></scales>
<clustering>
<clus scale="   43.874">  1  3  2 -1</clus>
<clus scale="   76.943">  2  5  1 -1</clus>
<clus scale="  201.416">  2  4  1 -1</clus>
<clus scale="   76.943">  2  3  1 -1</clus>
</clustering>
</event>
<event>
 6    0  0.2839294E+002  0.8330466E+02  0.7546771E-02  0.1319927E+00
         21   -1    0    0  504  502  0.00000000000E+00  0.00000000000E+00  0.27286892073E+03  0.27286892073E+03  0.00000000000E+00 0. -1.
          1   -1    0    0  503    0 -0.00000000000E+00 -0.00000000000E+00 -0.19043534163E+03  0.19043534163E+03  0.00000000000E+00 0.  1.
         21    1    1    2  503  502 -0.46598837754E+02 -0.44621925641E+01  0.21351439014E+02  0.51451402221E+02  0.00000000000E+00 0.  1.
         21    1    1    2  504  505  0.50096388819E+01  0.50909097201E+02  0.18611714763E+03  0.19301923558E+03  0.00000000000E+00 0. -1.
         21    1    1    2  505  501  0.26412055547E+02  0.56639462128E+02 -0.94332547938E+01  0.63202940156E+02  0.00000000000E+00 0.  1.
          1    1    1    2  501    0  0.15177143326E+02 -0.10308636676E+03 -0.11560175275E+03  0.15563068441E+03  0.00000000000E+00 0.  1.
<scales pt_clust_3="46.81199" pt_clust_4="57.32927" pt_clust_5="83.30466" pt_clust_6="14000.00000"></scales>
<clustering>
<clus scale="   46.812">  1  3  2 -1</clus>
<clus scale="   57.329">  1  4  2 -1</clus>
<clus scale="   83.305">  1  5  2 -1</clus>
<clus scale="   46.812">  1  3  2 -1</clus>
</clustering>
</event>
<event>
 6    0  0.2839294E+002  0.1644344E+03  0.7546771E-02  0.1183779E+00
          2   -1    0    0  505    0 -0.00000000000E+00  0.00000000000E+00  0.15249682444E+04  0.15249682444E+04  0.00000000000E+00 0.  1.
         21   -1    0    0  503  502  0.00000000000E+00 -0.00000000000E+00 -0.54632685127E+03  0.54632685127E+03  0.00000000000E+00 0. -1.
         21    1    1    2  503  504  0.10965161906E+03  0.20352885198E+03  0.18220536962E+03  0.29435738121E+03  0.00000000000E+00 0. -1.
         21    1    1    2  504  501 -0.47914312488E+02 -0.53731829404E+02  0.44243300370E+03  0.44825199787E+03  0.00000000000E+00 0.  1.
         21    1    1    2  505  502  0.17038215857E+02 -0.12126500871E+03 -0.47751029246E+03  0.49296204980E+03  0.00000000000E+00 0. -1.
          2    1    1    2  501    0 -0.78775522431E+02 -0.28532013873E+02  0.83151331232E+03  0.83572366684E+03  0.00000000000E+00 0.  1.
<scales pt_clust_3="155.57008" pt_clust_4="49.37032" pt_clust_5="122.45613" pt_clust_6="49.37032"></scales>
<clustering>
<clus scale="   49.370">  4  6 -1 -1</clus>
<clus scale="  122.456">  2  5  1 -1</clus>
<clus scale="  155.570">  2  3  1 -1</clus>
<clus scale="  122.456">  2  3  1 -1</clus>
</clustering>
</event>
<event>
 6    0  0.2839294E+002  0.4461809E+03  0.7546771E-02  0.1028867E+00
         21   -1    0    0  505  502  0.00000000000E+00  0.00000000000E+00  0.25517355819E+04  0.25517355819E+04  0.00000000000E+00 0.  1.
          2   -1    0    0  504    0 -0.00000000000E+00 -0.00000000000E+00 -0.37842913414E+03  0.37842913414E+03  0.00000000000E+00 0.  1.
         21    1    1    2  503  501 -0.13317105365E+03  0.15246748960E+03 -0.80250654467E+02  0.21776370785E+03  0.00000000000E+00 0.  1.
         21    1    1    2  504  502  0.36204227773E+03 -0.29958676077E+03  0.14707438988E+04  0.15439930226E+04  0.00000000000E+00 0.  1.
         21    1    1    2  505  503 -0.30444304782E+02  0.10747961365E+02  0.90003805647E+03  0.90061694269E+03  0.00000000000E+00 0.  1.
          2    1    1    2  501    0 -0.19842691930E+03  0.13637130981E+03 -0.11722485308E+03  0.26779104284E+03  0.00000000000E+00 0.  1.
<scales pt_clust_3="53.32011" pt_clust_4="442.37497" pt_clust_5="32.28582" pt_clust_6="53.32011"></scales>
<clustering>
<clus scale="   32.286">  1  5  2 -1</clus>
<clus scale="   53.320">  3  6 -1 -1</clus>
<clus scale="  442.375">  1  4  2 -1</clus>
<clus scale="   32.286">  1  3  2 -1</clus>
</clustering>
</event>
<event>
 6    0  0.2839294E+002  0.1620685E+03  0.7546771E-02  0.1186381E+00
         21   -1    0    0  505  502  0.00000000000E+00  0.00000000000E+00  0.33710542598E+03  0.33710542598E+03  0.00000000000E+00 0. -1.
          1   -1    0    0  503    0 -0.00000000000E+00 -0.00000000000E+00 -0.72310216704E+03  0.72310216704E+03  0.00000000000E+00 0. -1.
         21    1    1    2  503  504  0.53734794614E+02 -0.94364004881E+01  0.47113383732E+02  0.72084289086E+02  0.00000000000E+00 0. -1.
         21    1    1    2  504  502  0.97488286767E+02  0.55352300042E+01  0.25318747594E+03  0.27136415165E+03  0.00000000000E+00 0. -1.
         21    1    1    2  505  501 -0.10170684869E+03 -0.14622401520E+02 -0.17652679961E+03  0.20425427456E+03  0.00000000000E+00 0.  1.
          1    1    1    2  501    0 -0.49516232695E+02  0.18523572004E+02 -0.50977080112E+03  0.51250487773E+03  0.00000000000E+00 0. -1.
<scales pt_clust_3="52.28403" pt_clust_4="52.28403" pt_clust_5="146.19720" pt_clust_6="52.86757"></scales>
<clustering>
<clus scale="   52.284">  3  4 -1 -1</clus>
<clus scale="   52.868">  2  6  1 -1</clus>
<clus scale="  146.197">  2  5  1 -1</clus>
<clus scale="  162.069">  1  3  2 -1</clus>
</clustering>
</event>
<event>
 6    0  0.2839294E+002  0.1032231E+03  0.7546771E-02  0.1273661E+00
         21   -1    0    0  503  502  0.00000000000E+00  0.00000000000E+00  0.13917869649E+04  0.13917869649E+04  0.00000000000E+00 0.  1.
          1   -1    0    0  505    0 -0.00000000000E+00 -0.00000000000E+00 -0.15988623316E+04  0.15988623316E+04  0.00000000000E+00 0.  1.
         21    1    1    2  503  501 -0.29554130329E+02 -0.10318879870E+02  0.89828947297E+03  0.89883474741E+03  0.00000000000E+00 0.  1.
         21    1    1    2  504  502 -0.53109906927E+02 -0.52356383480E+02  0.48499502309E+03  0.49069545089E+03  0.00000000000E+00 0.  1.
         21    1    1    2  505  504 -0.57044906648E+01  0.71511483152E+02 -0.33365167933E+03  0.34127683272E+03  0.00000000000E+00 0. -1.
          1    1    1    2  501    0  0.88368527921E+02 -0.88362198016E+01 -0.12567081835E+04  0.12598422655E+04  0.00000000000E+00 0.  1.
<scales pt_clust_3="31.30377" pt_clust_4="14000.00000" pt_clust_5="71.67768" pt_clust_6="103.22314"></scales>
<clustering>
<clus scale="   31.304">  1  3  2 -1</clus>
<clus scale="   71.678">  2  5  1 -1</clus>
<clus scale="  103.223">  2  6  1 -1</clus>
<clus scale="   31.304">  1  3  2 -1</clus>
</clustering>
</event>
<event>
 6    0  0.2839294E+002  0.2768695E+03  0.7546771E-02  0.1097411E+00
         21   -1    0    0  504  502  0.00000000000E+00  0.00000000000E+00  0.69598750691E+03  0.69598750691E+03  0.00000000000E+00 0. -1.
          4   -1    0    0  505    0 -0.00000000000E+00 -0.00000000000E+00 -0.53407176269E+03  0.53407176269E+03  0.00000000000E+00 0.  1.
         21    1    1    2  503  501 -0.35928125039E+02 -0.23073613842E+02 -0.14498860998E+03  0.15114535669E+03  0.00000000000E+00 0. -1.
         21    1    1    2  504  503 -0.66146935269E+02 -0.14276675323E+03 -0.17863771067E+03  0.23805292384E+03  0.00000000000E+00 0. -1.
         21    1    1    2  505  502  0.11071205454E+03  0.21910629861E+03  0.63561869644E+03  0.68137791011E+03  0.00000000000E+00 0. -1.
          4    1    1    2  501    0 -0.86369942293E+01 -0.53265931541E+02 -0.15007663157E+03  0.15948307896E+03  0.00000000000E+00 0.  1.
<scales pt_clust_3="35.72327" pt_clust_4="87.30697" pt_clust_5="245.48876" pt_clust_6="87.30697"></scales>
<clustering>
<clus scale="   35.723">  3  6 -1 -1</clus>
<clus scale="   87.307">  3  4 -1 -1</clus>
<clus scale="  245.489">  1  5  2 -1</clus>
<clus scale="  245.489">  1  3  2 -1</clus>
</clustering>
</event>
<event>
 6    0  0.2839294E+002  0.3038861E+03  0.7546771E-02  0.1083314E+00
          2   -1    0    0  503    0 -0.00000000000E+00  0.00000000000E+00  0.14012935702E+04  0.14012935702E+04  0.00000000000E+00 0.  1.
         21   -1    0    0  501  502  0.00000000000E+00 -0.00000000000E+00 -0.18292855959E+03  0.18292855959E+03  0.00000000000E+00 0.  1.
         21    1    1    2  503  505 -0.27226710983E+03 -0.21175058991E+03  0.88690157825E+03  0.95161026735E+03  0.00000000000E+00 0.  1.
         21    1    1    2  504  502 -0.32052111725E+02  0.71787726993E+02 -0.45164317840E+02  0.90667696667E+02  0.00000000000E+00 0.  1.
         21    1    1    2  505  504  0.52738963781E+02  0.64461994421E+02  0.63433557533E+00  0.83289551608E+02  0.00000000000E+00 0.  1.
          2    1    1    2  501    0  0.25158025778E+03  0.75500868497E+02  0.37599341462E+03  0.45865461415E+03  0.00000000000E+00 0.  1.
<scales pt_clust_3="14000.00000" pt_clust_4="78.61816" pt_clust_5="99.22526" pt_clust_6="303.88611"></scales>
<clustering>
<clus scale="   78.618">  2  4  1 -1</clus>
<clus scale="   99.225">  2  5  1 -1</clus>
<clus scale="  303.886">  2  6  1 -1</clus>
<clus scale="   78.618">  2  3  1 -1</clus>
</clustering>
</event>
<event>
 6    0  0.2839294E+002  0.1158708E+03  0.7546771E-02  0.1250069E+00
          2   -1    0    0  503    0 -0.00000000000E+00  0.00000000000E+00  0.25872452846E+04  0.25872452846E+04  0.00000000000E+00 0. -1.
         21   -1    0    0  505  502  0.00000000000E+00 -0.00000000000E+00 -0.47905949148E+02  0.47905949148E+02  0.00000000000E+00 0. -1.
         21    1    1    2  503  504  0.14655595030E+03  0.90313392918E+01  0.18673539199E+04  0.18731179552E+04  0.00000000000E+00 0. -1.
         21    1    1    2  504  502 -0.30026156510E+02  0.10162228795E+02  0.56044962725E+02  0.64388499095E+02  0.00000000000E+00 0.  1.
         21    1    1    2  505  501 -0.30933554198E+02 -0.18802623508E+02 -0.29410948717E+02  0.46641476505E+02  0.00000000000E+00 0. -1.
          2    1    1    2  501    0 -0.85596239589E+02 -0.39094457872E+00  0.64535140154E+03  0.65100330302E+03  0.00000000000E+00 0. -1.
<scales pt_clust_3="14000.00000" pt_clust_4="31.69923" pt_clust_5="57.90504" pt_clust_6="115.87080"></scales>
<clustering>
<clus scale="   31.699">  2  4  1 -1</clus>
<clus scale="   57.905">  2  5  1 -1</clus>
<clus scale="  115.871">  1  6  2 -1</clus>
<clus scale="   31.699">  2  3  1 -1</clus>
</clustering>
</event>
<event>
 6    0  0.2839294E+002  0.1065119E+03  0.7546771E-02  0.1267169E+00
          2   -1    0    0  505    0 -0.00000000000E+00  0.00000000000E+00  0.94834959237E+03  0.94834959237E+03  0.00000000000E+00 0.  1.
         21   -1    0    0  504  502  0.00000000000E+00 -0.00000000000E+00 -0.47004105729E+02  0.47004105729E+02  0.00000000000E+00 0.  1.
         21    1    1    2  503  501  0.69954253665E+01  0.59880540221E+02  0.31782332480E+03  0.32349077400E+03  0.00000000000E+00 0.  1.
         21    1    1    2  504  503 -0.11021315974E+01  0.32074191839E+02  0.60499331574E+02  0.68484579265E+02  0.00000000000E+00 0.  1.
         21    1    1    2  505  502 -0.18497255154E+02 -0.12368684270E+03  0.59315564322E+02  0.13841574938E+03  0.00000000000E+00 0.  1.
          2    1    1    2  501    0  0.12603961385E+02  0.31732110638E+02  0.46370726594E+03  0.46496259546E+03  0.00000000000E+00 0.  1.
<scales pt_clust_3="34.04816" pt_clust_4="32.09312" pt_clust_5="96.19329" pt_clust_6="34.04816"></scales>
<clustering>
<clus scale="   32.093">  2  4  1 -1</clus>
<clus scale="   34.048">  3  6 -1 -1</clus>
<clus scale="   96.193">  2  5  1 -1</clus>
<clus scale="   32.093">  2  3  1 -1</clus>
</clustering>
</event>
<event>
 6    0  0.2839294E+002  0.1125863E+03  0.7546771E-02  0.1255854E+00
         21   -1    0    0  501  502  0.00000000000E+00  0.00000000000E+00  0.56663937126E+03  0.56663937126E+03  0.00000000000E+00 0. -1.
         -3   -1    0    0    0  501 -0.00000000000E+00 -0.00000000000E+00 -0.80898138186E+02  0.80898138186E+02  0.00000000000E+00 0.  1.
         21    1    1    2  503  504  0.26262693858E+02 -0.14195278363E+03  0.32237370575E+03  0.35322107529E+03  0.00000000000E+00 0. -1.
         21    1    1    2  504  502 -0.33288485420E+02 -0.10420828961E+02  0.90884413317E+02  0.97348310318E+02  0.00000000000E+00 0.  1.
         21    1    1    2  505  503  0.23007052433E+02  0.80550496332E+02  0.88291929789E+02  0.12170937428E+03  0.00000000000E+00 0. -1.
         -3    1    1    2    0  505 -0.15981260870E+02  0.71823116263E+02 -0.15808815784E+02  0.75258749559E+02  0.00000000000E+00 0.  1.
<scales pt_clust_3="112.58629" pt_clust_4="34.88147" pt_clust_5="14000.00000" pt_clust_6="73.42712"></scales>
<clustering>
<clus scale="   34.881">  1  4  2 -1</clus>
<clus scale="   73.427">  2  6  1 -1</clus>
<clus scale="  112.586">  1  3  2 -1</clus>
<clus scale="   34.881">  1  3  2 -1</clus>
</clustering>
</event>
<event>
 6    0  0.2839294E+002  0.1304178E+03  0.7546771E-02  0.1226837E+00
         21   -1    0    0  504  502  0.00000000000E+00  0.00000000000E+00  0.27243062577E+03  0.27243062577E+03  0.00000000000E+00 0.  1.
          2   -1    0    0  503    0 -0.00000000000E+00 -0.00000000000E+00 -0.10331620205E+04  0.10331620205E+04  0.00000000000E+00 0. -1.
         21    1    1    2  503  505  0.32760863121E+02  0.42063385993E+02 -0.24023486060E+03  0.24608004966E+03  0.00000000000E+00 0. -1.
         21    1    1    2  504  501 -0.10637534215E+03  0.29273055748E+02  0.36958857454E+02  0.11635541395E+03  0.00000000000E+00 0.  1.
         21    1    1    2  505  502 -0.25650377192E+02 -0.67985975908E+02  0.18256867136E+03  0.19649772144E+03  0.00000000000E+00 0.  1.
          2    1    1    2  501    0  0.99264856224E+02 -0.33504658331E+01 -0.74002406297E+03  0.74665946125E+03  0.00000000000E+00 0. -1.
<scales pt_clust_3="53.31606" pt_clust_4="130.41782" pt_clust_5="72.21508" pt_clust_6="14000.00000"></scales>
<clustering>
<clus scale="   53.316">  2  3  1 -1</clus>
<clus scale="   72.215">  1  5  2 -1</clus>
<clus scale="  130.418">  1  4  2 -1</clus>
<clus scale="   72.215">  1  3  2 -1</clus>
</clustering>
</event>
<event>
 6    0  0.2839294E+002  0.9043168E+02  0.7546771E-02  0.1301810E+00
         -3   -1    0    0    0  501 -0.00000000000E+00  0.00000000000E+00  0.16703666238E+04  0.16703666238E+04  0.00000000000E+00 0.  1.
         21   -1    0    0  505  502  0.00000000000E+00 -0.00000000000E+00 -0.25360464052E+03  0.25360464052E+03  0.00000000000E+00 0.  1.
         21    1    1    2  503  502  0.34565437583E+02 -0.70056059062E+00  0.35345459143E+02  0.49442509467E+02  0.00000000000E+00 0.  1.
         21    1    1    2  504  503 -0.51090055941E+02 -0.14988774576E+02  0.65491751914E+01  0.53644653742E+02  0.00000000000E+00 0.  1.
         21    1    1    2  505  501  0.10684511962E+03  0.17288486397E+02 -0.20851207255E+03  0.23492989539E+03  0.00000000000E+00 0.  1.
         -3    1    1    2    0  504 -0.90320501261E+02 -0.15991512307E+01  0.15833794215E+04  0.15859542057E+04  0.00000000000E+00 0.  1.
<scales pt_clust_3="34.57254" pt_clust_4="50.10435" pt_clust_5="14000.00000" pt_clust_6="90.43168"></scales>
<clustering>
<clus scale="   34.573">  2  3  1 -1</clus>
<clus scale="   50.104">  2  4  1 -1</clus>
<clus scale="   90.432">  1  6  2 -1</clus>
<clus scale="   34.573">  2  3  1 -1</clus>
</clustering>
</event>
<event>
 6    0  0.2839294E+002  0.1420233E+03  0.7546771E-02  0.1210632E+00
          1   -1    0    0  503    0 -0.00000000000E+00  0.00000000000E+00  0.16315622472E+04  0.16315622472E+04  0.00000000000E+00 0. -1.
         21   -1    0    0  504  502  0.00000000000E+00 -0.00000000000E+00 -0.62327715656E+03  0.62327715656E+03  0.00000000000E+00 0.  1.
         21    1    1    2  503  505  0.26068909783E+02 -0.10369058393E+03  0.21499901558E+03  0.24011643416E+03  0.00000000000E+00 0.  1.
         21    1    1    2  504  501  0.85206872208E+01  0.19116564329E+03 -0.30192823362E+03  0.35745987683E+03  0.00000000000E+00 0.  1.
         21    1    1    2  505  502  0.66745231170E+02 -0.63124512648E+02 -0.27147911816E+03  0.28660171245E+03  0.00000000000E+00 0.  1.
          1    1    1    2  501    0 -0.10133482817E+03 -0.24350546708E+02  0.13666934269E+04  0.13706613803E+04  0.00000000000E+00 0. -1.
<scales pt_clust_3="14000.00000" pt_clust_4="142.02329" pt_clust_5="91.86746" pt_clust_6="103.93138"></scales>
<clustering>
<clus scale="   91.867">  2  5  1 -1</clus>
<clus scale="  103.931">  1  6  2 -1</clus>
<clus scale="  142.023">  2  4  1 -1</clus>
<clus scale="   91.867">  2  3  1 -1</clus>
</clustering>
</event>
<event>
 6    0  0.2839294E+002  0.2037708E+03  0.7546771E-02  0.1146596E+00
         21   -1    0    0  505  502  0.00000000000E+00  0.00000000000E+00  0.28472164188E+03  0.28472164188E+03  0.00000000000E+00 0. -1.
          2   -1    0    0  504    0 -0.00000000000E+00 -0.00000000000E+00 -0.51163902632E+03  0.51163902632E+03  0.00000000000E+00 0.  1.
         21    1    1    2  503  502  0.83172719830E+02  0.11202181362E+02  0.15553718627E+03  0.17673428220E+03  0.00000000000E+00 0. -1.
         21    1    1    2  504  503  0.11554320847E+03 -0.98337853980E+02  0.27675880553E+02  0.15422879405E+03  0.00000000000E+00 0.  1.
         21    1    1    2  505  501 -0.89014347346E+02  0.56609853871E+02 -0.21461828430E+03  0.23914271376E+03  0.00000000000E+00 0.  1.
          2    1    1    2  501    0 -0.10970158096E+03  0.30525818747E+02 -0.19551216697E+03  0.22625487819E+03  0.00000000000E+00 0.  1.
<scales pt_clust_3="83.92372" pt_clust_4="200.53737" pt_clust_5="34.80071" pt_clust_6="34.80071"></scales>
<clustering>
<clus scale="   34.801">  5  6 -1 -1</clus>
<clus scale="   83.924">  1  3  2 -1</clus>
<clus scale="  200.537">  1  4  2 -1</clus>
<clus scale="   83.924">  1  3  2 -1</clus>
</clustering>
</event>
<event>
 6    0  0.2839294E+002  0.1062579E+03  0.7546771E-02  0.1267661E+00
          2   -1    0    0  505    0 -0.00000000000E+00  0.00000000000E+00  0.61613072358E+03  0.61613072358E+03  0.00000000000E+00 0.  1.
         21   -1    0    0  503  502  0.00000000000E+00 -0.00000000000E+00 -0.22811612263E+03  0.22811612263E+03  0.00000000000E+00 0.  1.
         21    1    1    2  503  504 -0.10266006671E+01  0.35618360698E+02 -0.15429408759E+02  0.38830248292E+02  0.00000000000E+00 0. -1.
         21    1    1    2  504  501 -0.10408375594E+03 -0.75238566087E+01 -0.17358572667E+03  0.20253898680E+03  0.00000000000E+00 0.  1.
         21    1    1    2  505  502  0.30399553991E+02 -0.39952584249E+02  0.51460854542E+02  0.71892707706E+02  0.00000000000E+00 0. -1.
          2    1    1    2  501    0  0.74710802620E+02  0.11858080160E+02  0.52556888184E+03  0.53098490341E+03  0.00000000000E+00 0.  1.
<scales pt_clust_3="35.63315" pt_clust_4="106.25792" pt_clust_5="48.74203" pt_clust_6="14000.00000"></scales>
<clustering>
<clus scale="   35.633">  2  3  1 -1</clus>
<clus scale="   48.742">  1  5  2 -1</clus>
<clus scale="  106.258">  2  4  1 -1</clus>
<clus scale="   35.633">  2  3  1 -1</clus>
</clustering>
</event>
<event>
 6    0  0.2839294E+002  0.9174374E+02  0.7546771E-02  0.1298683E+00
         21   -1    0    0  501  502  0.00000000000E+00  0.00000000000E+00  0.75654736761E+02  0.75654736761E+02  0.00000000000E+00 0.  1.
          2   -1    0    0  505    0 -0.00000000000E+00 -0.00000000000E+00 -0.12239380889E+04  0.12239380889E+04  0.00000000000E+00 0. -1.
         21    1    1    2  503  502 -0.36494324433E+02 -0.45434620931E+02  0.32812468219E+02  0.66878984484E+02  0.00000000000E+00 0.  1.
         21    1    1    2  504  503 -0.58371299998E+02  0.13757451709E+02 -0.31829593228E+02  0.67894028795E+02  0.00000000000E+00 0.  1.
         21    1    1    2  505  504 -0.41079690385E+02  0.50624563370E+01 -0.13690604434E+03  0.14302599206E+03  0.00000000000E+00 0.  1.
          2    1    1    2  501    0  0.13594531482E+03  0.26614712885E+02 -0.10123601828E+04  0.10217938204E+04  0.00000000000E+00 0. -1.
<scales pt_clust_3="58.62124" pt_clust_4="91.74374" pt_clust_5="41.39045" pt_clust_6="14000.00000"></scales>
<clustering>
<clus scale="   41.390">  2  5  1 -1</clus>
<clus scale="   58.621">  1  3  2 -1</clus>
<clus scale="   91.744">  1  4  2 -1</clus>
<clus scale="   58.621">  1  3  2 -1</clus>
</clustering>
</event>
<event>
 6    0  0.2839294E+002  0.9202792E+02  0.7546771E-02  0.1298014E+00
         21   -1    0    0  504  502  0.00000000000E+00  0.00000000000E+00  0.36044046712E+03  0.36044046712E+03  0.00000000000E+00 0. -1.
          2   -1    0    0  503    0 -0.00000000000E+00 -0.00000000000E+00 -0.15195933752E+04  0.15195933752E+04  0.00000000000E+00 0.  1.
         21    1    1    2  503  502 -0.62109928453E+01 -0.36391735072E+02 -0.94334413941E+03  0.94406625836E+03  0.00000000000E+00 0.  1.
         21    1    1    2  504  505 -0.40787671582E+01 -0.36170217077E+02  0.29428222481E+03  0.29652478612E+03  0.00000000000E+00 0. -1.
         21    1    1    2  505  501  0.55715232658E+02  0.11400088957E+03 -0.12430541665E+01  0.12689340076E+03  0.00000000000E+00 0.  1.
          2    1    1    2  501    0 -0.45425472655E+02 -0.41438937425E+02 -0.50884793929E+03  0.51254939705E+03  0.00000000000E+00 0.  1.
<scales pt_clust_3="37.11970" pt_clust_4="36.39946" pt_clust_5="14000.00000" pt_clust_6="92.02792"></scales>
<clustering>
<clus scale="   36.399">  1  4  2 -1</clus>
<clus scale="   37.120">  2  3  1 -1</clus>
<clus scale="   92.028">  2  6  1 -1</clus>
<clus scale="   36.399">  1  3  2 -1</clus>
</clustering>
</event>
<event>
 6    0  0.2839294E+002  0.1203721E+03  0.7546771E-02  0.1242485E+00
         -1   -1    0    0    0  501 -0.00000000000E+00  0.00000000000E+00  0.10134691926E+04  0.10134691926E+04  0.00000000000E+00 0.  1.
         21   -1    0    0  503  502  0.00000000000E+00 -0.00000000000E+00 -0.11964354380E+03  0.11964354380E+03  0.00000000000E+00 0. -1.
         21    1    1    2  503  505  0.29430549286E+02  0.35797601588E+02  0.16172831626E+02  0.49083459470E+02  0.00000000000E+00 0.  1.
         21    1    1    2  504  502 -0.10392257725E+03  0.62457822337E+02 -0.59969886459E+02  0.13526739783E+03  0.00000000000E+00 0. -1.
         21    1    1    2  505  501  0.15188521372E+02 -0.26869506989E+02  0.74167379424E+02  0.80333441094E+02  0.00000000000E+00 0. -1.
         -1    1    1    2    0  504  0.59303506595E+02 -0.71385916936E+02  0.86345532421E+03  0.86842843801E+03  0.00000000000E+00 0.  1.
<scales pt_clust_3="45.96625" pt_clust_4="14000.00000" pt_clust_5="30.86522" pt_clust_6="120.37207"></scales>
<clustering>
<clus scale="   30.865">  1  5  2 -1</clus>
<clus scale="   45.966">  2  3  1 -1</clus>
<clus scale="  120.372">  1  6  2 -1</clus>
<clus scale="   45.966">  2  3  1 -1</clus>
</clustering>
</event>
<event>
 6    0  0.2839294E+002  0.7837908E+02  0.7546771E-02  0.1333715E+00
         -1   -1    0    0    0  501 -0.00000000000E+00  0.00000000000E+00  0.44296871229E+03  0.44296871229E+03  0.00000000000E+00 0. -1.
         21   -1    0    0  504  502  0.00000000000E+00 -0.00000000000E+00 -0.14741017456E+03  0.14741017456E+03  0.00000000000E+00 0.  1.
         21    1    1    2  503  501 -0.79895922658E+02 -0.14027009161E+02  0.12533628271E+03  0.14929601203E+03  0.00000000000E+00 0. -1.
         21    1    1    2  504  505  0.26793449221E+02 -0.23234021319E+02 -0.11497902009E+03  0.12032407792E+03  0.00000000000E+00 0.  1.
         21    1    1    2  505  503 -0.23795477709E+02  0.57680352966E+02  0.85955897970E+02  0.10621517911E+03  0.00000000000E+00 0. -1.
         -1    1    1    2    0  502  0.76897951145E+02 -0.20419322486E+02  0.19924537714E+03  0.21454361778E+03  0.00000000000E+00 0. -1.
<scales pt_clust_3="14000.00000" pt_clust_4="35.46419" pt_clust_5="51.89005" pt_clust_6="78.37908"></scales>
<clustering>
<clus scale="   35.464">  2  4  1 -1</clus>
<clus scale="   51.890">  2  5  1 -1</clus>
<clus scale="   78.379">  1  6  2 -1</clus>
<clus scale="   35.464">  2  3  1 -1</clus>
</clustering>
</event>
<event>
 6    0  0.2839294E+002  0.8684411E+02  0.7546771E-02  0.1310679E+00
          1   -1    0    0  503    0 -0.00000000000E+00  0.00000000000E+00  0.68741234012E+03  0.68741234012E+03  0.00000000000E+00 0. -1.
         21   -1    0    0  505  502  0.00000000000E+00 -0.00000000000E+00 -0.56036332617E+03  0.56036332617E+03  0.00000000000E+00 0. -1.
         21    1    1    2  503  504 -0.32456864415E+02  0.14671147024E+01  0.34398122513E+02  0.47316290066E+02  0.00000000000E+00 0. -1.
         21    1    1    2  504  502  0.63147352867E+02 -0.84977478758E+02 -0.48294656100E+03  0.49441494804E+03  0.00000000000E+00 0. -1.
         21    1    1    2  505  501 -0.72625945955E+02 -0.14436483761E+01 -0.40186200131E+02  0.83015316824E+02  0.00000000000E+00 0. -1.
          1    1    1    2  501    0  0.41935457503E+02  0.84954012432E+02  0.61578365256E+03  0.62302911135E+03  0.00000000000E+00 0. -1.
<scales pt_clust_3="32.49001" pt_clust_4="86.84411" pt_clust_5="73.71415" pt_clust_6="14000.00000"></scales>
<clustering>
<clus scale="   32.490">  1  3  2 -1</clus>
<clus scale="   73.714">  2  5  1 -1</clus>
<clus scale="   86.844">  2  4  1 -1</clus>
<clus scale="   73.714">  2  3  1 -1</clus>
</clustering>
</event>
<event>
 6    0  0.2839294E+002  0.9466156E+02  0.7546771E-02  0.1291940E+00
         21   -1    0    0  504  502  0.00000000000E+00  0.00000000000E+00  0.54433108047E+02  0.54433108047E+02  0.00000000000E+00 0.  1.
          4   -1    0    0  503    0 -0.00000000000E+00 -0.00000000000E+00 -0.11505572118E+04  0.11505572118E+04  0.00000000000E+00 0.  1.
         21    1    1    2  503  502 -0.76243776471E+02 -0.84366211884E+02 -0.12641195871E+03  0.17003162783E+03  0.00000000000E+00 0.  1.
         21    1    1    2  504  505  0.88647225234E+02 -0.42057565323E+02 -0.65287256091E+02  0.11785412657E+03  0.00000000000E+00 0.  1.
         21    1    1    2  505  501 -0.15767741164E+02  0.69813447802E+02 -0.24484961026E+03  0.25509580710E+03  0.00000000000E+00 0.  1.
          4    1    1    2  501    0  0.33642924008E+01  0.56610329406E+02 -0.65957527869E+03  0.66200875834E+03  0.00000000000E+00 0.  1.
<scales pt_clust_3="88.95072" pt_clust_4="94.66156" pt_clust_5="14000.00000" pt_clust_6="56.71021"></scales>
<clustering>
<clus scale="   56.710">  2  6  1 -1</clus>
<clus scale="   94.662">  1  4  2 -1</clus>
<clus scale="   88.951">  1  3  2 -1</clus>
<clus scale="   94.662">  1  3  2 -1</clus>
</clustering>
</event>
<event>
 6    0  0.2839294E+002  0.2152783E+03  0.7546771E-02  0.1137453E+00
          2   -1    0    0  505    0 -0.00000000000E+00  0.00000000000E+00  0.19101984102E+04  0.19101984102E+04  0.00000000000E+00 0. -1.
         21   -1    0    0  504  502  0.00000000000E+00 -0.00000000000E+00 -0.17807474153E+04  0.17807474153E+04  0.00000000000E+00 0. -1.
         21    1    1    2  503  501  0.16234547213E+03 -0.10470679449E+03 -0.49301193430E+03  0.52950952069E+03  0.00000000000E+00 0. -1.
         21    1    1    2  504  503 -0.47857420400E+02  0.25799394160E+03 -0.12399275888E+04  0.12673877197E+04  0.00000000000E+00 0. -1.
         21    1    1    2  505  502 -0.41730642794E+02 -0.32209752861E+02  0.39953176559E+02  0.66145075739E+02  0.00000000000E+00 0.  1.
          2    1    1    2  501    0 -0.72757408932E+02 -0.12107739425E+03  0.18224373414E+04  0.18279035093E+04  0.00000000000E+00 0. -1.
<scales pt_clust_3="14000.00000" pt_clust_4="215.27832" pt_clust_5="52.71541" pt_clust_6="190.44872"></scales>
<clustering>
<clus scale="   52.715">  1  5  2 -1</clus>
<clus scale="  190.449">  1  6  2 -1</clus>
<clus scale="  215.278">  2  4  1 -1</clus>
<clus scale="  215.278">  2  3  1 -1</clus>
</clustering>
</event>
<event>
 6    0  0.2839294E+002  0.8486117E+02  0.7546771E-02  0.1315796E+00
         21   -1    0    0  503  502  0.00000000000E+00  0.00000000000E+00  0.98861927934E+03  0.98861927934E+03  0.00000000000E+00 0.  1.
          2   -1    0    0  504    0 -0.00000000000E+00 -0.00000000000E+00 -0.18445518790E+04  0.18445518790E+04  0.00000000000E+00 0.  1.
         21    1    1    2  503  505 -0.10873405403E+03  0.76602253742E+02  0.62738643495E+03  0.64133044411E+03  0.00000000000E+00 0.  1.
         21    1    1    2  504  502  0.41444080772E+02 -0.26053700246E+02  0.34591683732E+03  0.34936351479E+03  0.00000000000E+00 0.  1.
         21    1    1    2  505  501  0.12458337264E+03 -0.16485850644E+02 -0.69400618697E+03  0.70529241280E+03  0.00000000000E+00 0.  1.
          2    1    1    2  501    0 -0.57293399386E+02 -0.34062702853E+02 -0.11352296849E+04  0.11371847866E+04  0.00000000000E+00 0.  1.
<scales pt_clust_3="14000.00000" pt_clust_4="48.95311" pt_clust_5="84.86117" pt_clust_6="66.62035"></scales>
<clustering>
<clus scale="   48.953">  1  4  2 -1</clus>
<clus scale="   66.620">  2  6  1 -1</clus>
<clus scale="   84.861">  2  5  1 -1</clus>
<clus scale="   48.953">  1  3  2 -1</clus>
</clustering>
</event>
<event>
 6    0  0.2839294E+002  0.1372620E+03  0.7546771E-02  0.1217061E+00
          2   -1    0    0  504    0 -0.00000000000E+00  0.00000000000E+00  0.71133214112E+03  0.71133214112E+03  0.00000000000E+00 0.  1.
         21   -1    0    0  505  502  0.00000000000E+00 -0.00000000000E+00 -0.45185968885E+03  0.45185968885E+03  0.00000000000E+00 0.  1.
         21    1    1    2  503  501  0.33100294278E+02  0.29761988184E+02  0.23224590723E+03  0.23647318420E+03  0.00000000000E+00 0.  1.
         21    1    1    2  504  502  0.47225706256E+02  0.47114683722E+02 -0.16561682680E+03  0.17854689601E+03  0.00000000000E+00 0.  1.
         21    1    1    2  505  503 -0.17163200876E+03 -0.76033609238E+02 -0.24062707328E+03  0.30518853937E+03  0.00000000000E+00 0.  1.
          2    1    1    2  501    0  0.91306008230E+02 -0.84306266853E+00  0.43347044512E+03  0.44298321039E+03  0.00000000000E+00 0.  1.
<scales pt_clust_3="32.52101" pt_clust_4="66.70878" pt_clust_5="129.11763" pt_clust_6="32.52101"></scales>
<clustering>
<clus scale="   32.521">  3  6 -1 -1</clus>
<clus scale="   66.709">  2  4  1 -1</clus>
<clus scale="  129.118">  2  5  1 -1</clus>
<clus scale="   66.709">  2  3  1 -1</clus>
</clustering>
</event>
<event>
 6    0  0.2839294E+002  0.9563298E+02  0.7546771E-02  0.1289757E+00
         21   -1    0    0  501  502  0.00000000000E+00  0.00000000000E+00  0.58046297600E+03  0.58046297600E+03  0.00000000000E+00 0. -1.
          1   -1    0    0  503    0 -0.00000000000E+00 -0.00000000000E+00 -0.14973745491E+04  0.14973745491E+04  0.00000000000E+00 0.  1.
         21    1    1    2  503  505 -0.28562971858E+02 -0.21497081783E+02 -0.97956656954E+02  0.10427595374E+03  0.00000000000E+00 0. -1.
         21    1    1    2  504  502  0.43414699929E+02  0.31675554452E+01  0.38546615450E+03  0.38791626138E+03  0.00000000000E+00 0. -1.
         21    1    1    2  505  504 -0.28885728049E+02  0.91847518597E+02  0.17737574699E+03  0.20182296098E+03  0.00000000000E+00 0.  1.
          1    1    1    2  501    0  0.14033999978E+02 -0.73517992259E+02 -0.13817968176E+04  0.13838223490E+04  0.00000000000E+00 0.  1.
<scales pt_clust_3="35.74868" pt_clust_4="43.50374" pt_clust_5="95.63298" pt_clust_6="14000.00000"></scales>
<clustering>
<clus scale="   35.749">  2  3  1 -1</clus>
<clus scale="   43.504">  1  4  2 -1</clus>
<clus scale="   95.633">  1  5  2 -1</clus>
<clus scale="   43.504">  1  3  2 -1</clus>
</clustering>
</event>
<event>
 6    0  0.2839294E+002  0.1319672E+03  0.7546771E-02  0.1224566E+00
         -1   -1    0    0    0  501 -0.00000000000E+00  0.00000000000E+00  0.17154053257E+03  0.17154053257E+03  0.00000000000E+00 0.  1.
         21   -1    0    0  503  502  0.00000000000E+00 -0.00000000000E+00 -0.16002097130E+04  0.16002097130E+04  0.00000000000E+00 0. -1.
         21    1    1    2  503  504  0.49211479857E+02  0.22194465256E+02 -0.13469465608E+04  0.13480279677E+04  0.00000000000E+00 0. -1.
         21    1    1    2  504  501  0.51209630146E+02  0.57481152637E+02 -0.21735703632E+03  0.23058748961E+03  0.00000000000E+00 0. -1.
         21    1    1    2  505  502 -0.42577319031E+02 -0.50890480860E+01  0.47572217422E+02  0.64045627303E+02  0.00000000000E+00 0. -1.
         -1    1    1    2    0  505 -0.57843790971E+02 -0.74586569807E+02  0.88062199235E+02  0.12908916098E+03  0.00000000000E+00 0.  1.
<scales pt_clust_3="53.98485" pt_clust_4="122.24395" pt_clust_5="33.50992" pt_clust_6="33.50992"></scales>
<clustering>
<clus scale="   33.510">  5  6 -1 -1</clus>
<clus scale="   53.985">  2  3  1 -1</clus>
<clus scale="  122.244">  2  4  1 -1</clus>
<clus scale="   53.985">  2  3  1 -1</clus>
</clustering>
</event>
<event>
 6    0  0.2839294E+002  0.2498483E+03  0.7546771E-02  0.1113401E+00
         21   -1    0    0  505  502  0.00000000000E+00  0.00000000000E+00  0.14024078851E+03  0.14024078851E+03  0.00000000000E+00 0. -1.
          2   -1    0    0  503    0 -0.00000000000E+00 -0.00000000000E+00 -0.75195517644E+03  0.75195517644E+03  0.00000000000E+00 0.  1.
         21    1    1    2  503  502  0.97043205561E+02 -0.20389157806E+03 -0.48028831140E+02  0.23085910848E+03  0.00000000000E+00 0. -1.
         21    1    1    2  504  501 -0.10012022526E+03  0.12244985815E+03 -0.27016162636E+03  0.31305803236E+03  0.00000000000E+00 0.  1.
         21    1    1    2  505  504  0.32411957889E+02  0.84662854998E+01  0.98162832673E+01  0.34908056686E+02  0.00000000000E+00 0. -1.
          2    1    1    2  501    0 -0.29334938186E+02  0.72975434409E+02 -0.30334021370E+03  0.31337076742E+03  0.00000000000E+00 0.  1.
<scales pt_clust_3="232.08873" pt_clust_4="65.67735" pt_clust_5="33.49945" pt_clust_6="65.67735"></scales>
<clustering>
<clus scale="   33.499">  1  5  2 -1</clus>
<clus scale="   65.677">  4  6 -1 -1</clus>
<clus scale="  232.089">  1  3  2 -1</clus>
<clus scale="   33.499">  1  3  2 -1</clus>
</clustering>
</event>
<event>
 6    0  0.2839294E+002  0.1014116E+03  0.7546771E-02  0.1277355E+00
         21   -1    0    0  503  502  0.00000000000E+00  0.00000000000E+00  0.34182233528E+02  0.34182233528E+02  0.00000000000E+00 0. -1.
          2   -1    0    0  505    0 -0.00000000000E+00 -0.00000000000E+00 -0.14135307593E+04  0.14135307593E+04  0.00000000000E+00 0.  1.
         21    1    1    2  503  501  0.19811633126E+02 -0.37473791478E+02 -0.98441507820E+02  0.10717983167E+03  0.00000000000E+00 0.  1.
         21    1    1    2  504  502 -0.12282602359E+03  0.49101369628E+02 -0.13614224332E+03  0.18982067060E+03  0.00000000000E+00 0. -1.
         21    1    1    2  505  504  0.22904202980E+02 -0.22923822700E+02 -0.21417790731E+03  0.21661551224E+03  0.00000000000E+00 0. -1.
          2    1    1    2  501    0  0.80110187487E+02  0.11296244550E+02 -0.93058686732E+03  0.93409697833E+03  0.00000000000E+00 0.  1.
<scales pt_clust_3="45.05353" pt_clust_4="101.41165" pt_clust_5="32.40531" pt_clust_6="14000.00000"></scales>
<clustering>
<clus scale="   32.405">  2  5  1 -1</clus>
<clus scale="   45.054">  1  3  2 -1</clus>
<clus scale="  101.412">  1  4  2 -1</clus>
<clus scale="   45.054">  1  3  2 -1</clus>
</clustering>
</event>
<event>
 6    0  0.2839294E+002  0.1092510E+03  0.7546771E-02  0.1261963E+00
          1   -1    0    0  504    0 -0.00000000000E+00  0.00000000000E+00  0.25585709975E+04  0.25585709975E+04  0.00000000000E+00 0. -1.
         21   -1    0    0  505  502  0.00000000000E+00 -0.00000000000E+00 -0.72942991146E+03  0.72942991146E+03  0.00000000000E+00 0.  1.
         21    1    1    2  503  502  0.25479087817E+02  0.18464683104E+02 -0.63941929570E+03  0.64019306787E+03  0.00000000000E+00 0.  1.
         21    1    1    2  504  503  0.24340035750E+02  0.68257661076E+02  0.78514608652E+03  0.78848330535E+03  0.00000000000E+00 0.  1.
         21    1    1    2  505  501 -0.30945948636E+02 -0.12902771294E+03 -0.37423439847E+02  0.13786339723E+03  0.00000000000E+00 0. -1.
          1    1    1    2  501    0 -0.18873174931E+02  0.42305368764E+02  0.17208377351E+04  0.17214611385E+04  0.00000000000E+00 0. -1.
<scales pt_clust_3="31.46631" pt_clust_4="14000.00000" pt_clust_5="109.25098" pt_clust_6="46.34697"></scales>
<clustering>
<clus scale="   31.466">  2  3  1 -1</clus>
<clus scale="   46.347">  1  6  2 -1</clus>
<clus scale="  109.251">  2  5  1 -1</clus>
<clus scale="   31.466">  2  3  1 -1</clus>
</clustering>
</event>
<event>
 6    0  0.2839294E+002  0.1739052E+03  0.7546771E-02  0.1173836E+00
          1   -1    0    0  504    0 -0.00000000000E+00  0.00000000000E+00  0.80813166570E+03  0.80813166570E+03  0.00000000000E+00 0. -1.
         21   -1    0    0  503  502  0.00000000000E+00 -0.00000000000E+00 -0.15608364802E+03  0.15608364802E+03  0.00000000000E+00 0.  1.
         21    1    1    2  503  505 -0.67947781280E+02 -0.60644629902E+01 -0.10094739656E+03  0.12183618331E+03  0.00000000000E+00 0.  1.
         21    1    1    2  504  502 -0.80663938410E+02  0.10321427089E+03  0.10611699471E+03  0.16858432086E+03  0.00000000000E+00 0.  1.
         21    1    1    2  505  501  0.48812534383E+02  0.49898823125E+00  0.17740000985E+03  0.18399368467E+03  0.00000000000E+00 0. -1.
          1    1    1    2  501    0  0.99799185307E+02 -0.97648796127E+02  0.46947840968E+03  0.48980112488E+03  0.00000000000E+00 0. -1.
<scales pt_clust_3="68.21788" pt_clust_4="161.92213" pt_clust_5="37.50909" pt_clust_6="37.50909"></scales>
<clustering>
<clus scale="   37.509">  5  6 -1 -1</clus>
<clus scale="   68.218">  2  3  1 -1</clus>
<clus scale="  161.922">  2  4  1 -1</clus>
<clus scale="   68.218">  2  3  1 -1</clus>
</clustering>
</event>
<event>
 6    0  0.2839294E+002  0.9599900E+02  0.7546771E-02  0.1288942E+00
         21   -1    0    0  504  502  0.00000000000E+00  0.00000000000E+00  0.40853619883E+03  0.40853619883E+03  0.00000000000E+00 0. -1.
          2   -1    0    0  505    0 -0.00000000000E+00 -0.00000000000E+00 -0.56979625470E+03  0.56979625470E+03  0.00000000000E+00 0. -1.
         21    1    1    2  503  501 -0.37389990433E+02  0.25549902669E+02 -0.17913108498E+03  0.18476675706E+03  0.00000000000E+00 0.  1.
         21    1    1    2  504  503  0.89780615708E+02  0.44808387480E+02  0.77404376344E+02  0.12672721895E+03  0.00000000000E+00 0. -1.
         21    1    1    2  505  502 -0.65362494828E+01 -0.67092761630E+02  0.29842321364E+03  0.30594211161E+03  0.00000000000E+00 0. -1.
          2    1    1    2  501    0 -0.45854375793E+02 -0.32655285180E+01 -0.35795656087E+03  0.36089636591E+03  0.00000000000E+00 0. -1.
<scales pt_clust_3="42.79254" pt_clust_4="85.77250" pt_clust_5="67.41039" pt_clust_6="42.79254"></scales>
<clustering>
<clus scale="   42.793">  3  6 -1 -1</clus>
<clus scale="   67.410">  1  5  2 -1</clus>
<clus scale="   85.773">  1  4  2 -1</clus>
<clus scale="   67.410">  1  3  2 -1</clus>
</clustering>
</event>
<event>
 6    0  0.2839294E+002  0.1615566E+03  0.7546771E-02  0.1186951E+00
         21   -1    0    0  503  502  0.00000000000E+00  0.00000000000E+00  0.37205314399E+03  0.37205314399E+03  0.00000000000E+00 0.  1.
          2   -1    0    0  505    0 -0.00000000000E+00 -0.00000000000E+00 -0.97142481600E+02  0.97142481600E+02  0.00000000000E+00 0.  1.
         21    1    1    2  503  504 -0.21788694282E+02 -0.32047139356E+02  0.73723090637E+02  0.83287816832E+02  0.00000000000E+00 0.  1.
         21    1    1    2  504  501 -0.55086587575E+02 -0.17868944153E+00  0.44921631437E+02  0.71081059583E+02  0.00000000000E+00 0. -1.
         21    1    1    2  505  502  0.16030635233E+03 -0.96007500408E+01  0.15243479184E+03  0.22141966209E+03  0.00000000000E+00 0.  1.
          2    1    1    2  501    0 -0.83431070474E+02  0.41826578839E+02  0.38311484731E+01  0.93407087078E+02  0.00000000000E+00 0.  1.
<scales pt_clust_3="38.75263" pt_clust_4="48.77133" pt_clust_5="149.47472" pt_clust_6="48.77133"></scales>
<clustering>
<clus scale="   38.753">  1  3  2 -1</clus>
<clus scale="   48.771">  4  6 -1 -1</clus>
<clus scale="  149.475">  1  5  2 -1</clus>
<clus scale="   38.753">  1  3  2 -1</clus>
</clustering>
</event>
<event>
 6    0  0.2839294E+002  0.9249088E+02  0.7546771E-02  0.1296929E+00
         21   -1    0    0  501  502  0.00000000000E+00  0.00000000000E+00  0.23570903774E+04  0.23570903774E+04  0.00000000000E+00 0. -1.
          2   -1    0    0  504    0 -0.00000000000E+00 -0.00000000000E+00 -0.17401182245E+04  0.17401182245E+04  0.00000000000E+00 0.  1.
         21    1    1    2  503  502  0.25516559687E+02 -0.21943424663E+02  0.23366939576E+04  0.23369362978E+04  0.00000000000E+00 0. -1.
         21    1    1    2  504  505  0.75577644441E+01 -0.34595392568E+02 -0.21062083477E+03  0.21357691127E+03  0.00000000000E+00 0.  1.
         21    1    1    2  505  503 -0.10404698896E+03  0.67686936470E+02 -0.19841760968E+03  0.23404453660E+03  0.00000000000E+00 0. -1.
          2    1    1    2  501    0  0.70972664829E+02 -0.11148119238E+02 -0.13106833602E+04  0.13126508563E+04  0.00000000000E+00 0.  1.
<scales pt_clust_3="33.65425" pt_clust_4="37.40023" pt_clust_5="92.49088" pt_clust_6="14000.00000"></scales>
<clustering>
<clus scale="   33.654">  1  3  2 -1</clus>
<clus scale="   37.400">  2  4  1 -1</clus>
<clus scale="   92.491">  1  5  2 -1</clus>
<clus scale="   33.654">  1  3  2 -1</clus>
</clustering>
</event>
<event>
 6    0  0.2839294E+002  0.8989182E+02  0.7546771E-02  0.1303114E+00
          2   -1    0    0  504    0 -0.00000000000E+00  0.00000000000E+00  0.15148182389E+04  0.15148182389E+04  0.00000000000E+00 0. -1.
         21   -1    0    0  501  502  0.00000000000E+00 -0.00000000000E+00 -0.17350959492E+03  0.17350959492E+03  0.00000000000E+00 0.  1.
         21    1    1    2  503  502 -0.43917945877E+02  0.29781197582E+02 -0.14757784402E+03  0.15682769444E+03  0.00000000000E+00 0.  1.
         21    1    1    2  504  505 -0.30385507819E+02  0.68890499720E+02  0.27104409662E+03  0.28130780713E+03  0.00000000000E+00 0. -1.
         21    1    1    2  505  503 -0.21567898525E+02 -0.58986779631E+02  0.57288661558E+02  0.85009441600E+02  0.00000000000E+00 0. -1.
          2    1    1    2  501    0  0.95871352220E+02 -0.39684917672E+02  0.11605537299E+04  0.11651828907E+04  0.00000000000E+00 0. -1.
<scales pt_clust_3="53.06322" pt_clust_4="14000.00000" pt_clust_5="63.89818" pt_clust_6="89.89182"></scales>
<clustering>
<clus scale="   53.063">  2  3  1 -1</clus>
<clus scale="   63.898">  2  5  1 -1</clus>
<clus scale="   89.892">  1  6  2 -1</clus>
<clus scale="   53.063">  2  3  1 -1</clus>
</clustering>
</event>
<event>
 6    0  0.2839294E+002  0.7301858E+02  0.7546771E-02  0.1350119E+00
          2   -1    0    0  504    0 -0.00000000000E+00  0.00000000000E+00  0.41889557151E+04  0.41889557151E+04  0.00000000000E+00 0.  1.
         21   -1    0    0  501  502  0.00000000000E+00 -0.00000000000E+00 -0.24549985518E+02  0.24549985518E+02  0.00000000000E+00 0.  1.
         21    1    1    2  503  505  0.62438057515E+02  0.21788171753E+02  0.54975794418E+03  0.55372107838E+03  0.00000000000E+00 0.  1.
         21    1    1    2  504  503  0.21516761213E+02 -0.80208182667E+02  0.30659185102E+03  0.31763955467E+03  0.00000000000E+00 0.  1.
         21    1    1    2  505  502 -0.74057713477E+02  0.13058505766E+02  0.66884087572E+02  0.10064070086E+03  0.00000000000E+00 0.  1.
          2    1    1    2  501    0 -0.98971052513E+01  0.45361505148E+02  0.32411718468E+04  0.32415043667E+04  0.00000000000E+00 0.  1.
<scales pt_clust_3="73.01858" pt_clust_4="67.77290" pt_clust_5="14000.00000" pt_clust_6="46.42864"></scales>
<clustering>
<clus scale="   46.429">  1  6  2 -1</clus>
<clus scale="   67.773">  1  4  2 -1</clus>
<clus scale="   73.019">  1  3  2 -1</clus>
<clus scale="   73.019">  2  3  1 -1</clus>
</clustering>
</event>
<event>
 6    0  0.2839294E+002  0.1502383E+03  0.7546771E-02  0.1200180E+00
          2   -1    0    0  505    0 -0.00000000000E+00  0.00000000000E+00  0.10130076321E+04  0.10130076321E+04  0.00000000000E+00 0.  1.
         21   -1    0    0  504  502  0.00000000000E+00 -0.00000000000E+00 -0.15720558159E+03  0.15720558159E+03  0.00000000000E+00 0. -1.
         21    1    1    2  503  501 -0.54699504518E+02  0.20441973848E+01  0.41410933230E+03  0.41771132811E+03  0.00000000000E+00 0.  1.
         21    1    1    2  504  503  0.20630016783E+03  0.96085208049E+01 -0.57123475869E+02  0.21427826398E+03  0.00000000000E+00 0. -1.
         21    1    1    2  505  502 -0.67851028271E+02  0.19744465538E+02  0.67472331830E+02  0.97704255381E+02  0.00000000000E+00 0. -1.
          2    1    1    2  501    0 -0.83749635040E+02 -0.31397183727E+02  0.43134386224E+03  0.44051936621E+03  0.00000000000E+00 0.  1.
<scales pt_clust_3="32.62351" pt_clust_4="144.33466" pt_clust_5="70.66545" pt_clust_6="32.62351"></scales>
<clustering>
<clus scale="   32.624">  3  6 -1 -1</clus>
<clus scale="   70.665">  2  5  1 -1</clus>
<clus scale="  144.335">  2  4  1 -1</clus>
<clus scale="   70.665">  2  3  1 -1</clus>
</clustering>
</event>
<event>
 6    0  0.2839294E+002  0.1038635E+03  0.7546771E-02  0.1272375E+00
         21   -1    0    0  505  502  0.00000000000E+00  0.00000000000E+00  0.13368752610E+04  0.13368752610E+04  0.00000000000E+00 0.  1.
         -2   -1    0    0    0  501 -0.00000000000E+00 -0.00000000000E+00 -0.83278162593E+02  0.83278162593E+02  0.00000000000E+00 0.  1.
         21    1    1    2  503  501  0.11403288304E+03  0.72402976611E+00  0.62267675453E+03  0.63303267156E+03  0.00000000000E+00 0.  1.
         21    1    1    2  504  502 -0.44793104855E+02 -0.16425117520E+02  0.10279522630E+03  0.11332724861E+03  0.00000000000E+00 0. -1.
         21    1    1    2  505  503  0.32247457525E+02 -0.40376296016E+01  0.56356336028E+03  0.56449965635E+03  0.00000000000E+00 0.  1.
         -2    1    1    2    0  504 -0.10148723571E+03  0.19738717356E+02 -0.35438242655E+02  0.10929384712E+03  0.00000000000E+00 0.  1.
<scales pt_clust_3="14000.00000" pt_clust_4="43.72029" pt_clust_5="32.49925" pt_clust_6="103.86353"></scales>
<clustering>
<clus scale="   32.499">  1  5  2 -1</clus>
<clus scale="   43.720">  1  4  2 -1</clus>
<clus scale="  103.864">  2  6  1 -1</clus>
<clus scale="   32.499">  1  3  2 -1</clus>
</clustering>
</event>
<event>
 6    0  0.2839294E+002  0.6385136E+02  0.7546771E-02  0.1382345E+00
          1   -1    0    0  504    0 -0.00000000000E+00  0.00000000000E+00  0.10318202894E+03  0.10318202894E+03  0.00000000000E+00 0.  1.
         21   -1    0    0  503  502  0.00000000000E+00 -0.00000000000E+00 -0.87432213367E+03  0.87432213367E+03  0.00000000000E+00 0.  1.
         21    1    1    2  503  501 -0.29730809674E+02 -0.36495224702E+02 -0.62699334666E+02  0.78402991253E+02  0.00000000000E+00 0.  1.
         21    1    1    2  504  505  0.19966730215E+02  0.51049878466E+02  0.25394546504E+02  0.60412278545E+02  0.00000000000E+00 0. -1.
         21    1    1    2  505  502  0.18686434022E+02  0.67945541545E+02 -0.75070924129E+03  0.75400937951E+03  0.00000000000E+00 0.  1.
          1    1    1    2  501    0 -0.89223545628E+01 -0.82500195309E+02  0.16873924718E+02  0.84679513298E+02  0.00000000000E+00 0.  1.
<scales pt_clust_3="47.07252" pt_clust_4="63.85136" pt_clust_5="34.99989" pt_clust_6="14000.00000"></scales>
<clustering>
<clus scale="   47.073">  2  3  1 -1</clus>
<clus scale="   35.000">  2  5  1 -1</clus>
<clus scale="   63.851">  1  4  2 -1</clus>
<clus scale="   47.073">  2  3  1 -1</clus>
</clustering>
</event>
<event>
 6    0  0.2839294E+002  0.1028729E+03  0.7546771E-02  0.1274368E+00
         21   -1    0    0  503  502  0.00000000000E+00  0.00000000000E+00  0.37216442826E+03  0.37216442826E+03  0.00000000000E+00 0. -1.
          2   -1    0    0  504    0 -0.00000000000E+00 -0.00000000000E+00 -0.19432283880E+03  0.19432283880E+03  0.00000000000E+00 0. -1.
         21    1    1    2  503  501 -0.18425790514E+02  0.32968445357E+02  0.23690277031E+02  0.44583151202E+02  0.00000000000E+00 0.  1.
         21    1    1    2  504  505 -0.40368787773E+02 -0.99037748758E+01 -0.25063540312E+02  0.48537664097E+02  0.00000000000E+00 0.  1.
         21    1    1    2  505  502  0.74278209642E+02  0.59190712039E+02  0.30658309567E+03  0.32095792150E+03  0.00000000000E+00 0. -1.
          2    1    1    2  501    0 -0.15483631356E+02 -0.82255382521E+02 -0.12736824293E+03  0.15240853028E+03  0.00000000000E+00 0. -1.
<scales pt_clust_3="37.76808" pt_clust_4="41.93356" pt_clust_5="14000.00000" pt_clust_6="102.87286"></scales>
<clustering>
<clus scale="   37.768">  1  3  2 -1</clus>
<clus scale="   41.934">  2  4  1 -1</clus>
<clus scale="  102.873">  2  6  1 -1</clus>
<clus scale="   37.768">  1  3  2 -1</clus>
</clustering>
</event>
<event>
 6    0  0.2839294E+002  0.1110128E+03  0.7546771E-02  0.1258706E+00
         21   -1    0    0  503  502  0.00000000000E+00  0.00000000000E+00  0.13573491109E+04  0.13573491109E+04  0.00000000000E+00 0.  1.
         -2   -1    0    0    0  501 -0.00000000000E+00 -0.00000000000E+00 -0.53530252222E+03  0.53530252222E+03  0.00000000000E+00 0. -1.
         21    1    1    2  503  505 -0.60299410392E+02 -0.36845423500E+02  0.12665932811E+04  0.12685630232E+04  0.00000000000E+00 0.  1.
         21    1    1    2  504  502 -0.50986310209E+02  0.42989060635E+02  0.64152568209E+02  0.92537641913E+02  0.00000000000E+00 0. -1.
         21    1    1    2  505  501 -0.23028550510E+01 -0.36448957083E+02 -0.12874608041E+03  0.13382594231E+03  0.00000000000E+00 0. -1.
         -2    1    1    2    0  504  0.11358857565E+03  0.30305319948E+02 -0.37995318019E+03  0.39772502571E+03  0.00000000000E+00 0. -1.
<scales pt_clust_3="14000.00000" pt_clust_4="65.93536" pt_clust_5="36.52163" pt_clust_6="111.01285"></scales>
<clustering>
<clus scale="   36.522">  2  5  1 -1</clus>
<clus scale="   65.935">  1  4  2 -1</clus>
<clus scale="  111.013">  2  6  1 -1</clus>
<clus scale="   65.935">  1  3  2 -1</clus>
</clustering>
</event>
<event>
 6    0  0.2839294E+002  0.1151014E+03  0.7546771E-02  0.1251404E+00
         21   -1    0    0  504  502  0.00000000000E+00  0.00000000000E+00  0.87993146321E+02  0.87993146321E+02  0.00000000000E+00 0.  1.
          2   -1    0    0  503    0 -0.00000000000E+00 -0.00000000000E+00 -0.81452741565E+03  0.81452741565E+03  0.00000000000E+00 0.  1.
         21    1    1    2  503  505 -0.11968908958E+03 -0.37858493649E+02 -0.39343885966E+03  0.41298048380E+03  0.00000000000E+00 0.  1.
         21    1    1    2  504  501  0.15020020604E+03  0.23388566201E+02 -0.46215380678E+02  0.15888042150E+03  0.00000000000E+00 0.  1.
         21    1    1    2  505  502 -0.59928860727E+02  0.30066901354E+02 -0.33225879786E+02  0.74829446027E+02  0.00000000000E+00 0.  1.
          2    1    1    2  501    0  0.29417744271E+02 -0.15596973905E+02 -0.25365414921E+03  0.25583021065E+03  0.00000000000E+00 0.  1.
<scales pt_clust_3="115.10139" pt_clust_4="14000.00000" pt_clust_5="63.83562" pt_clust_6="33.29669"></scales>
<clustering>
<clus scale="   33.297">  2  6  1 -1</clus>
<clus scale="   63.836">  1  5  2 -1</clus>
<clus scale="  115.101">  2  3  1 -1</clus>
<clus scale="   63.836">  1  3  2 -1</clus>
</clustering>
</event>
<event>
 6    0  0.2839294E+002  0.1038504E+03  0.7546771E-02  0.1272401E+00
          4   -1    0    0  504    0 -0.00000000000E+00  0.00000000000E+00  0.44089535170E+03  0.44089535170E+03  0.00000000000E+00 0. -1.
         21   -1    0    0  503  502  0.00000000000E+00 -0.00000000000E+00 -0.38881493390E+03  0.38881493390E+03  0.00000000000E+00 0. -1.
         21    1    1    2  503  501 -0.36752852118E+02  0.32046160704E+02 -0.23932028622E+01  0.48820651108E+02  0.00000000000E+00 0. -1.
         21    1    1    2  504  505  0.29528428426E+02 -0.85246540520E+02 -0.83118863038E+02  0.12266884751E+03  0.00000000000E+00 0.  1.
         21    1    1    2  505  502 -0.22614520844E+02  0.10399390314E+03 -0.24710005858E+03  0.26904383917E+03  0.00000000000E+00 0. -1.
          4    1    1    2  501    0  0.29838944536E+02 -0.50793523320E+02  0.38469254228E+03  0.38917694781E+03  0.00000000000E+00 0. -1.
<scales pt_clust_3="48.76196" pt_clust_4="103.85035" pt_clust_5="14000.00000" pt_clust_6="58.62421"></scales>
<clustering>
<clus scale="   48.762">  2  3  1 -1</clus>
<clus scale="   58.624">  1  6  2 -1</clus>
<clus scale="  103.850">  1  4  2 -1</clus>
<clus scale="   48.762">  2  3  1 -1</clus>
</clustering>
</event>
<event>
 6    0  0.2839294E+002  0.1873481E+03  0.7546771E-02  0.1160875E+00
         -4   -1    0    0    0  501 -0.00000000000E+00  0.00000000000E+00  0.60314765561E+03  0.60314765561E+03  0.00000000000E+00 0.  1.
         21   -1    0    0  503  502  0.00000000000E+00 -0.00000000000E+00 -0.95549853355E+02  0.95549853355E+02  0.00000000000E+00 0.  1.
         21    1    1    2  503  505  0.13541335685E+02 -0.55412049041E+02  0.42072651330E+02  0.70879975600E+02  0.00000000000E+00 0. -1.
         21    1    1    2  504  502  0.64261366210E+02  0.84317970022E+01  0.12589329779E+03  0.14159710737E+03  0.00000000000E+00 0.  1.
         21    1    1    2  505  501 -0.18056073402E+03 -0.24079890724E+02  0.81736899197E+02  0.19965705722E+03  0.00000000000E+00 0.  1.
         -4    1    1    2    0  504  0.10275803213E+03  0.71060142763E+02  0.25789495394E+03  0.28656336878E+03  0.00000000000E+00 0.  1.
<scales pt_clust_3="57.04264" pt_clust_4="30.67240" pt_clust_5="182.44389" pt_clust_6="30.67240"></scales>
<clustering>
<clus scale="   30.672">  4  6 -1 -1</clus>
<clus scale="   57.043">  2  3  1 -1</clus>
<clus scale="  182.444">  2  5  1 -1</clus>
<clus scale="   57.043">  2  3  1 -1</clus>
</clustering>
</event>
<event>
 6    0  0.2839294E+002  0.1346131E+03  0.7546771E-02  0.1220767E+00
          2   -1    0    0  503    0 -0.00000000000E+00  0.00000000000E+00  0.24127665154E+04  0.24127665154E+04  0.00000000000E+00 0.  1.
         21   -1    0    0  504  502  0.00000000000E+00 -0.00000000000E+00 -0.64673696137E+02  0.64673696137E+02  0.00000000000E+00 0.  1.
         21    1    1    2  503  502  0.72008987730E+01 -0.40395855825E+02  0.18949040604E+03  0.19388216032E+03  0.00000000000E+00 0.  1.
         21    1    1    2  504  505 -0.30384653468E+02  0.75581021235E+02 -0.12830112232E+02  0.82464111693E+02  0.00000000000E+00 0.  1.
         21    1    1    2  505  501 -0.59219158899E+01  0.46955694722E+02  0.26206999203E+02  0.54099105001E+02  0.00000000000E+00 0. -1.
          2    1    1    2  501    0  0.29105670585E+02 -0.82140860132E+02  0.21452255263E+04  0.21469948345E+04  0.00000000000E+00 0.  1.
<scales pt_clust_3="41.03265" pt_clust_4="35.23739" pt_clust_5="35.23739" pt_clust_6="126.42595"></scales>
<clustering>
<clus scale="   35.237">  4  5 -1 -1</clus>
<clus scale="   41.033">  1  3  2 -1</clus>
<clus scale="  126.426">  1  6  2 -1</clus>
<clus scale="  134.613">  2  3  1 -1</clus>
</clustering>
</event>
<event>
 6    0  0.2839294E+002  0.1285908E+03  0.7546771E-02  0.1229562E+00
          1   -1    0    0  504    0 -0.00000000000E+00  0.00000000000E+00  0.21559881918E+04  0.21559881918E+04  0.00000000000E+00 0. -1.
         21   -1    0    0  503  502  0.00000000000E+00 -0.00000000000E+00 -0.81614404642E+02  0.81614404642E+02  0.00000000000E+00 0. -1.
         21    1    1    2  503  505 -0.69038591486E+00  0.49633428147E+02 -0.41131499872E+02  0.64465138672E+02  0.00000000000E+00 0. -1.
         21    1    1    2  504  502 -0.28495706745E+02  0.83876043598E+02  0.59709308451E+02  0.10682882340E+03  0.00000000000E+00 0. -1.
         21    1    1    2  505  501  0.61986131028E+02 -0.12916069886E+03  0.10230163544E+04  0.10329991422E+04  0.00000000000E+00 0. -1.
          1    1    1    2  501    0 -0.32800038367E+02 -0.43487728828E+01  0.10327796242E+04  0.10333094921E+04  0.00000000000E+00 0. -1.
<scales pt_clust_3="49.59897" pt_clust_4="128.59085" pt_clust_5="14000.00000" pt_clust_6="33.08707"></scales>
<clustering>
<clus scale="   33.087">  1  6  2 -1</clus>
<clus scale="   49.599">  2  3  1 -1</clus>
<clus scale="  128.591">  2  4  1 -1</clus>
<clus scale="   49.599">  2  3  1 -1</clus>
</clustering>
</event>
<event>
 6    0  0.2839294E+002  0.9170883E+02  0.7546771E-02  0.1298765E+00
          1   -1    0    0  503    0 -0.00000000000E+00  0.00000000000E+00  0.14882452065E+04  0.14882452065E+04  0.00000000000E+00 0. -1.
         21   -1    0    0  504  502  0.00000000000E+00 -0.00000000000E+00 -0.71967531610E+02  0.71967531610E+02  0.00000000000E+00 0. -1.
         21    1    1    2  503  505 -0.53337117627E+01  0.66069981345E+02  0.77181642542E+03  0.77465752785E+03  0.00000000000E+00 0. -1.
         21    1    1    2  504  501 -0.78217534079E+02 -0.45825371702E+02  0.10249622957E+02  0.91230488872E+02  0.00000000000E+00 0. -1.
         21    1    1    2  505  502  0.97750202873E+02  0.11465616765E+02  0.52444900348E+02  0.11152143337E+03  0.00000000000E+00 0. -1.
          1    1    1    2  501    0 -0.14198957031E+02 -0.31710226409E+02  0.58176672621E+03  0.58280328805E+03  0.00000000000E+00 0. -1.
<scales pt_clust_3="42.73177" pt_clust_4="91.70883" pt_clust_5="14000.00000" pt_clust_6="34.74405"></scales>
<clustering>
<clus scale="   34.744">  1  6  2 -1</clus>
<clus scale="   42.732">  1  3  2 -1</clus>
<clus scale="   91.709">  2  4  1 -1</clus>
<clus scale="   91.709">  2  3  1 -1</clus>
</clustering>
</event>
<event>
 6    0  0.2839294E+002  0.9640540E+02  0.7546771E-02  0.1288042E+00
          1   -1    0    0  505    0 -0.00000000000E+00  0.00000000000E+00  0.14449408289E+04  0.14449408289E+04  0.00000000000E+00 0. -1.
         21   -1    0    0  503  502  0.00000000000E+00 -0.00000000000E+00 -0.10612435400E+03  0.10612435400E+03  0.00000000000E+00 0.  1.
         21    1    1    2  503  504  0.35123409601E+01  0.62646585576E+02  0.48147524421E+02  0.79089287082E+02  0.00000000000E+00 0.  1.
         21    1    1    2  504  501 -0.52864576082E+02  0.34068600660E+02  0.34763735056E+03  0.35328042750E+03  0.00000000000E+00 0. -1.
         21    1    1    2  505  502  0.97083964899E+02 -0.93592580144E+02 -0.35140372509E+02  0.13935463063E+03  0.00000000000E+00 0.  1.
          1    1    1    2  501    0 -0.47731729777E+02 -0.31226060914E+01  0.97817197239E+03  0.97934083764E+03  0.00000000000E+00 0. -1.
<scales pt_clust_3="62.29281" pt_clust_4="96.40540" pt_clust_5="14000.00000" pt_clust_6="47.83376"></scales>
<clustering>
<clus scale="   47.834">  1  6  2 -1</clus>
<clus scale="   62.293">  2  3  1 -1</clus>
<clus scale="   96.405">  1  4  2 -1</clus>
<clus scale="   62.293">  2  3  1 -1</clus>
</clustering>
</event>
<event>
 6    0  0.2839294E+002  0.8608529E+02  0.7546771E-02  0.1312619E+00
         21   -1    0    0  505  502  0.00000000000E+00  0.00000000000E+00  0.60750892159E+02  0.60750892159E+02  0.00000000000E+00 0.  1.
          2   -1    0    0  503    0 -0.00000000000E+00 -0.00000000000E+00 -0.12105155647E+04  0.12105155647E+04  0.00000000000E+00 0. -1.
         21    1    1    2  503  504  0.80641933002E+02 -0.71460499642E+01 -0.36011883791E+03  0.36910671195E+03  0.00000000000E+00 0.  1.
         21    1    1    2  504  502 -0.38308807602E+02  0.10656487202E+02  0.86625929645E+01  0.40696019169E+02  0.00000000000E+00 0.  1.
         21    1    1    2  505  501  0.38892255821E+02  0.49575605107E+02 -0.60671393240E+01  0.63302119744E+02  0.00000000000E+00 0.  1.
          2    1    1    2  501    0 -0.81225381221E+02 -0.53086042345E+02 -0.79224128831E+03  0.79816160604E+03  0.00000000000E+00 0. -1.
<scales pt_clust_3="86.08529" pt_clust_4="39.76337" pt_clust_5="58.64916" pt_clust_6="14000.00000"></scales>
<clustering>
<clus scale="   39.763">  1  4  2 -1</clus>
<clus scale="   58.649">  1  5  2 -1</clus>
<clus scale="   86.085">  1  3  2 -1</clus>
<clus scale="   39.763">  1  3  2 -1</clus>
</clustering>
</event>
<event>
 6    0  0.2839294E+002  0.9222366E+02  0.7546771E-02  0.1297554E+00
          2   -1    0    0  505    0 -0.00000000000E+00  0.00000000000E+00  0.12982575566E+04  0.12982575566E+04  0.00000000000E+00 0.  1.
         21   -1    0    0  504  502  0.00000000000E+00 -0.00000000000E+00 -0.43713696688E+03  0.43713696688E+03  0.00000000000E+00 0. -1.
         21    1    1    2  503  501  0.21079351499E+02  0.75612049470E+02 -0.44649039615E+02  0.90305358774E+02  0.00000000000E+00 0. -1.
         21    1    1    2  504  503  0.40346459119E+02 -0.60297785128E+01 -0.36299262465E+03  0.36527775807E+03  0.00000000000E+00 0. -1.
         21    1    1    2  505  502  0.24105046096E+01  0.37926966385E+02  0.18518858870E+03  0.18904782119E+03  0.00000000000E+00 0. -1.
          2    1    1    2  501    0 -0.63836315227E+02 -0.10750923734E+03  0.10835736653E+04  0.10907635854E+04  0.00000000000E+00 0.  1.
<scales pt_clust_3="14000.00000" pt_clust_4="40.79125" pt_clust_5="38.00349" pt_clust_6="92.22366"></scales>
<clustering>
<clus scale="   38.003">  1  5  2 -1</clus>
<clus scale="   40.791">  2  4  1 -1</clus>
<clus scale="   92.224">  1  6  2 -1</clus>
<clus scale="   40.791">  2  3  1 -1</clus>
</clustering>
</event>
<event>
 6    0  0.2839294E+002  0.2120629E+03  0.7546771E-02  0.1139943E+00
         21   -1    0    0  501  502  0.00000000000E+00  0.00000000000E+00  0.30938985824E+02  0.30938985824E+02  0.00000000000E+00 0. -1.
          1   -1    0    0  505    0 -0.00000000000E+00 -0.00000000000E+00 -0.22431633589E+04  0.22431633589E+04  0.00000000000E+00 0. -1.
         21    1    1    2  503  504 -0.84489361601E+01  0.15842684951E+03 -0.36412695074E+03  0.39718873023E+03  0.00000000000E+00 0. -1.
         21    1    1    2  504  502  0.30798721954E+02  0.32101096920E+01 -0.33672760513E+02  0.45746266282E+02  0.00000000000E+00 0. -1.
         21    1    1    2  505  503  0.27913715928E+02  0.30685837196E+02 -0.18106672241E+03  0.18575778343E+03  0.00000000000E+00 0.  1.
          1    1    1    2  501    0 -0.50263501721E+02 -0.19232279639E+03 -0.16333579394E+04  0.16454095648E+04  0.00000000000E+00 0. -1.
<scales pt_clust_3="41.83505" pt_clust_4="30.96556" pt_clust_5="41.83505" pt_clust_6="196.27187"></scales>
<clustering>
<clus scale="   30.966">  1  4  2 -1</clus>
<clus scale="   41.835">  3  5 -1 -1</clus>
<clus scale="  196.272">  2  6  1 -1</clus>
<clus scale="   30.966">  1  3  2 -1</clus>
</clustering>
</event>
<event>
 6    0  0.2839294E+002  0.1024994E+03  0.7546771E-02  0.1275126E+00
          2   -1    0    0  503    0 -0.00000000000E+00  0.00000000000E+00  0.27126438030E+04  0.27126438030E+04  0.00000000000E+00 0. -1.
         21   -1    0    0  505  502  0.00000000000E+00 -0.00000000000E+00 -0.15380753135E+03  0.15380753135E+03  0.00000000000E+00 0. -1.
         21    1    1    2  503  504 -0.10222094891E+03  0.26342077381E+02  0.17190401049E+04  0.17222781163E+04  0.00000000000E+00 0. -1.
         21    1    1    2  504  502 -0.36512696146E+02 -0.58785826681E+02 -0.13623742216E+02  0.70530537715E+02  0.00000000000E+00 0. -1.
         21    1    1    2  505  501  0.11256495939E+03 -0.10756832593E+02 -0.80216674855E+02  0.13864088306E+03  0.00000000000E+00 0. -1.
          2    1    1    2  501    0  0.26168685670E+02  0.43200581893E+02  0.93363658377E+03  0.93500179729E+03  0.00000000000E+00 0. -1.
<scales pt_clust_3="102.49936" pt_clust_4="68.39415" pt_clust_5="14000.00000" pt_clust_6="50.50832"></scales>
<clustering>
<clus scale="   50.508">  1  6  2 -1</clus>
<clus scale="   68.394">  2  4  1 -1</clus>
<clus scale="  102.499">  1  3  2 -1</clus>
<clus scale="   68.394">  2  3  1 -1</clus>
</clustering>
</event>
<event>
 6    0  0.2839294E+002  0.6269402E+02  0.7546771E-02  0.1386862E+00
          1   -1    0    0  504    0 -0.00000000000E+00  0.00000000000E+00  0.68936384712E+03  0.68936384712E+03  0.00000000000E+00 0. -1.
         21   -1    0    0  503  502  0.00000000000E+00 -0.00000000000E+00 -0.46052733594E+03  0.46052733594E+03  0.00000000000E+00 0. -1.
         21    1    1    2  503  501  0.60006548336E+02  0.41280214971E+02 -0.40830728303E+03  0.41475255197E+03  0.00000000000E+00 0. -1.
         21    1    1    2  504  505  0.55197454889E+02 -0.30166512417E+02  0.56145051510E+03  0.56496323632E+03  0.00000000000E+00 0. -1.
         21    1    1    2  505  502 -0.44233916203E+02 -0.58319246276E+01 -0.21649914415E+02  0.49592030425E+02  0.00000000000E+00 0.  1.
          1    1    1    2  501    0 -0.70970087022E+02 -0.52817779267E+01  0.97343193530E+02  0.12058336434E+03  0.00000000000E+00 0. -1.
<scales pt_clust_3="39.55090" pt_clust_4="14000.00000" pt_clust_5="44.61671" pt_clust_6="62.69402"></scales>
<clustering>
<clus scale="   44.617">  2  5  1 -1</clus>
<clus scale="   39.551">  2  3  1 -1</clus>
<clus scale="   62.694">  2  6  1 -1</clus>
<clus scale="   44.617">  2  3  1 -1</clus>
</clustering>
</event>
<event>
 6    0  0.2839294E+002  0.6658245E+02  0.7546771E-02  0.1372116E+00
          1   -1    0    0  505    0 -0.00000000000E+00  0.00000000000E+00  0.29579050617E+04  0.29579050617E+04  0.00000000000E+00 0. -1.
         21   -1    0    0  504  502  0.00000000000E+00 -0.00000000000E+00 -0.33654040011E+03  0.33654040011E+03  0.00000000000E+00 0.  1.
         21    1    1    2  503  501  0.26884355981E+02  0.38574687585E+02  0.93871693895E+03  0.93989375282E+03  0.00000000000E+00 0. -1.
         21    1    1    2  504  503  0.58263560154E-01  0.48478393147E+02 -0.32800062829E+03  0.33156382516E+03  0.00000000000E+00 0.  1.
         21    1    1    2  505  502  0.35276594356E+01 -0.11501032181E+03  0.55745976406E+03  0.56921103911E+03  0.00000000000E+00 0. -1.
          1    1    1    2  501    0 -0.30470278977E+02  0.27957241079E+02  0.14531885868E+04  0.14537768447E+04  0.00000000000E+00 0. -1.
<scales pt_clust_3="66.58245" pt_clust_4="48.51151" pt_clust_5="14000.00000" pt_clust_6="41.35269"></scales>
<clustering>
<clus scale="   41.353">  1  6  2 -1</clus>
<clus scale="   48.512">  2  4  1 -1</clus>
<clus scale="   66.582">  1  3  2 -1</clus>
<clus scale="   48.512">  2  3  1 -1</clus>
</clustering>
</event>
<event>
 6    0  0.2839294E+002  0.2522232E+03  0.7546771E-02  0.1111908E+00
          2   -1    0    0  503    0 -0.00000000000E+00  0.00000000000E+00  0.23780940258E+04  0.23780940258E+04  0.00000000000E+00 0. -1.
         21   -1    0    0  504  502  0.00000000000E+00 -0.00000000000E+00 -0.61793429957E+03  0.61793429957E+03  0.00000000000E+00 0. -1.
         21    1    1    2  503  502 -0.90971440818E+02  0.22819068213E+03 -0.14621794610E+03  0.28587843259E+03  0.00000000000E+00 0. -1.
         21    1    1    2  504  505  0.83514101550E+02  0.75915491300E+01 -0.39052453385E+03  0.39942664948E+03  0.00000000000E+00 0. -1.
         21    1    1    2  505  501  0.30726955557E+02 -0.56242083457E+02  0.38824032528E+03  0.39349443188E+03  0.00000000000E+00 0. -1.
          2    1    1    2  501    0 -0.23269616289E+02 -0.17954014780E+03  0.19086618809E+04  0.19172288114E+04  0.00000000000E+00 0. -1.
<scales pt_clust_3="235.76106" pt_clust_4="83.85843" pt_clust_5="53.32696" pt_clust_6="53.32696"></scales>
<clustering>
<clus scale="   53.327">  5  6 -1 -1</clus>
<clus scale="   83.858">  2  4  1 -1</clus>
<clus scale="  235.761">  2  3  1 -1</clus>
<clus scale="   83.858">  2  3  1 -1</clus>
</clustering>
</event>
<event>
 6    0  0.2839294E+002  0.8362851E+02  0.7546771E-02  0.1319059E+00
          2   -1    0    0  503    0 -0.00000000000E+00  0.00000000000E+00  0.30355444725E+04  0.30355444725E+04  0.00000000000E+00 0. -1.
         21   -1    0    0  505  502  0.00000000000E+00 -0.00000000000E+00 -0.96990261347E+01  0.96990261347E+01  0.00000000000E+00 0. -1.
         21    1    1    2  503  504 -0.25762402854E+02 -0.71725542096E+02  0.10788597878E+04  0.10815482868E+04  0.00000000000E+00 0. -1.
         21    1    1    2  504  502  0.12571821013E+02 -0.66570599408E+02  0.33346740032E+03  0.34027959455E+03  0.00000000000E+00 0. -1.
         21    1    1    2  505  501  0.97878051886E+01  0.44294355818E+02  0.14597743761E+03  0.15286334871E+03  0.00000000000E+00 0. -1.
          2    1    1    2  501    0  0.34027766525E+01  0.94001785686E+02  0.14675408206E+04  0.14705522686E+04  0.00000000000E+00 0. -1.
<scales pt_clust_3="83.62851" pt_clust_4="46.07426" pt_clust_5="45.36288" pt_clust_6="14000.00000"></scales>
<clustering>
<clus scale="   45.363">  2  5  1 -1</clus>
<clus scale="   46.074">  2  4  1 -1</clus>
<clus scale="   83.629">  1  3  2 -1</clus>
<clus scale="   45.363">  2  3  1 -1</clus>
</clustering>
</event>
<event>
 6    0  0.2839294E+002  0.1059529E+03  0.7546771E-02  0.1268253E+00
         21   -1    0    0  504  502  0.00000000000E+00  0.00000000000E+00  0.18167888899E+02  0.18167888899E+02  0.00000000000E+00 0. -1.
         -1   -1    0    0    0  501 -0.00000000000E+00 -0.00000000000E+00 -0.98161449256E+03  0.98161449256E+03  0.00000000000E+00 0. -1.
         21    1    1    2  503  502  0.55962734116E+02  0.16674294218E+01 -0.19127328864E+03  0.19929896858E+03  0.00000000000E+00 0. -1.
         21    1    1    2  504  505 -0.28454601071E+02 -0.42874010885E+02 -0.13868822672E+03  0.14792656747E+03  0.00000000000E+00 0. -1.
         21    1    1    2  505  501 -0.84779978002E+02  0.29527328435E+02 -0.27349588886E+03  0.28785327689E+03  0.00000000000E+00 0. -1.
         -1    1    1    2    0  503  0.57271844958E+02  0.11679253028E+02 -0.35998919944E+03  0.36470356851E+03  0.00000000000E+00 0. -1.
<scales pt_clust_3="34.02074" pt_clust_4="51.45722" pt_clust_5="100.08845" pt_clust_6="34.02074"></scales>
<clustering>
<clus scale="   34.021">  3  6 -1 -1</clus>
<clus scale="   51.457">  1  4  2 -1</clus>
<clus scale="  100.088">  1  5  2 -1</clus>
<clus scale="   51.457">  1  3  2 -1</clus>
</clustering>
</event>
<event>
 6    0  0.2839294E+002  0.8884947E+02  0.7546771E-02  0.1305662E+00
          1   -1    0    0  503    0 -0.00000000000E+00  0.00000000000E+00  0.59465987022E+03  0.59465987022E+03  0.00000000000E+00 0. -1.
         21   -1    0    0  504  502  0.00000000000E+00 -0.00000000000E+00 -0.38283598251E+03  0.38283598251E+03  0.00000000000E+00 0. -1.
         21    1    1    2  503  505  0.32170745663E+02 -0.29454630747E+02  0.21058294651E+03  0.21505280633E+03  0.00000000000E+00 0.  1.
         21    1    1    2  504  501  0.38275483215E+02 -0.34482867694E+01 -0.42463368528E+00  0.38432845468E+02  0.00000000000E+00 0.  1.
         21    1    1    2  505  502  0.44125750869E+02  0.36088191759E+02 -0.34975547105E+03  0.35437032749E+03  0.00000000000E+00 0. -1.
          1    1    1    2  501    0 -0.11457197975E+03 -0.31852742428E+01  0.35142104594E+03  0.36963987345E+03  0.00000000000E+00 0. -1.
<scales pt_clust_3="43.80620" pt_clust_4="38.43050" pt_clust_5="88.84947" pt_clust_6="14000.00000"></scales>
<clustering>
<clus scale="   38.430">  2  4  1 -1</clus>
<clus scale="   43.806">  1  3  2 -1</clus>
<clus scale="   88.849">  2  5  1 -1</clus>
<clus scale="   38.430">  2  3  1 -1</clus>
</clustering>
</event>
<event>
 6    0  0.2839294E+002  0.7788377E+02  0.7546771E-02  0.1335167E+00
         21   -1    0    0  503  502  0.00000000000E+00  0.00000000000E+00  0.58307639078E+03  0.58307639078E+03  0.00000000000E+00 0. -1.
          2   -1    0    0  504    0 -0.00000000000E+00 -0.00000000000E+00 -0.15390258211E+04  0.15390258211E+04  0.00000000000E+00 0.  1.
         21    1    1    2  503  501  0.44006655471E+02 -0.41042222555E+02  0.31777758124E+03  0.32342486129E+03  0.00000000000E+00 0. -1.
         21    1    1    2  504  505  0.24620808148E+02 -0.24900109261E+02 -0.37202630737E+03  0.37367067454E+03  0.00000000000E+00 0.  1.
         21    1    1    2  505  502 -0.27580946386E+02  0.11716706338E+03  0.24682253829E+03  0.27460916727E+03  0.00000000000E+00 0. -1.
          2    1    1    2  501    0 -0.41046517233E+02 -0.51224731560E+02 -0.11485232425E+04  0.11503975088E+04  0.00000000000E+00 0.  1.
<scales pt_clust_3="60.25988" pt_clust_4="35.01713" pt_clust_5="14000.00000" pt_clust_6="77.88377"></scales>
<clustering>
<clus scale="   35.017">  2  4  1 -1</clus>
<clus scale="   60.260">  1  3  2 -1</clus>
<clus scale="   77.884">  2  6  1 -1</clus>
<clus scale="   60.260">  1  3  2 -1</clus>
</clustering>
</event>
<event>
 6    0  0.2839294E+002  0.9491816E+02  0.7546771E-02  0.1291361E+00
         21   -1    0    0  503  502  0.00000000000E+00  0.00000000000E+00  0.24971066562E+03  0.24971066562E+03  0.00000000000E+00 0.  1.
          2   -1    0    0  505    0 -0.00000000000E+00 -0.00000000000E+00 -0.34646471764E+03  0.34646471764E+03  0.00000000000E+00 0.  1.
         21    1    1    2  503  501  0.75930503761E+02  0.88918154829E+02  0.27437411574E+02  0.12010283599E+03  0.00000000000E+00 0.  1.
         21    1    1    2  504  502 -0.89630421461E+02  0.10899946387E+02  0.14084737424E+03  0.16730332966E+03  0.00000000000E+00 0.  1.
         21    1    1    2  505  504  0.43882754964E+02 -0.19291627173E+02 -0.25575179933E+02  0.54331877299E+02  0.00000000000E+00 0.  1.
          2    1    1    2  501    0 -0.30182837264E+02 -0.80526474043E+02 -0.23946365790E+03  0.25443734031E+03  0.00000000000E+00 0.  1.
<scales pt_clust_3="94.91816" pt_clust_4="88.31230" pt_clust_5="47.93603" pt_clust_6="14000.00000"></scales>
<clustering>
<clus scale="   47.936">  2  5  1 -1</clus>
<clus scale="   88.312">  1  4  2 -1</clus>
<clus scale="   94.918">  1  3  2 -1</clus>
<clus scale="   88.312">  1  3  2 -1</clus>
</clustering>
</event>
<event>
 6    0  0.2839294E+002  0.7874698E+02  0.7546771E-02  0.1332645E+00
         21   -1    0    0  504  502  0.00000000000E+00  0.00000000000E+00  0.10650748176E+03  0.10650748176E+03  0.00000000000E+00 0. -1.
          2   -1    0    0  503    0 -0.00000000000E+00 -0.00000000000E+00 -0.10499104470E+04  0.10499104470E+04  0.00000000000E+00 0. -1.
         21    1    1    2  503  502  0.24685197545E+02 -0.25742912871E+02 -0.24920511575E+03  0.25174440661E+03  0.00000000000E+00 0. -1.
         21    1    1    2  504  505  0.54336237783E+02 -0.40102970612E+00  0.74956327883E+02  0.92579904142E+02  0.00000000000E+00 0. -1.
         21    1    1    2  505  501 -0.13030419018E+03  0.18803703594E+02 -0.19307262072E+03  0.23368739401E+03  0.00000000000E+00 0.  1.
          2    1    1    2  501    0  0.51282754852E+02  0.73402389830E+01 -0.57608155667E+03  0.57840622402E+03  0.00000000000E+00 0. -1.
<scales pt_clust_3="35.66590" pt_clust_4="54.61262" pt_clust_5="78.74698" pt_clust_6="14000.00000"></scales>
<clustering>
<clus scale="   35.666">  2  3  1 -1</clus>
<clus scale="   54.613">  1  4  2 -1</clus>
<clus scale="   78.747">  1  5  2 -1</clus>
<clus scale="   54.613">  1  3  2 -1</clus>
</clustering>
</event>
<event>
 6    0  0.2839294E+002  0.8489418E+02  0.7546771E-02  0.1315709E+00
          1   -1    0    0  504    0 -0.00000000000E+00  0.00000000000E+00  0.12423313149E+04  0.12423313149E+04  0.00000000000E+00 0.  1.
         21   -1    0    0  501  502  0.00000000000E+00 -0.00000000000E+00 -0.40689068486E+02  0.40689068486E+02  0.00000000000E+00 0. -1.
         21    1    1    2  503  505  0.11137863810E+03  0.36397625994E+02  0.22081383788E+03  0.24997747739E+03  0.00000000000E+00 0. -1.
         21    1    1    2  504  503 -0.37198422062E+02 -0.21882991253E+02  0.68611973977E+03  0.68747573427E+03  0.00000000000E+00 0.  1.
         21    1    1    2  505  502 -0.37359466158E+02  0.31987716346E+02  0.45329158765E+01  0.49391204024E+02  0.00000000000E+00 0. -1.
          1    1    1    2  501    0 -0.36820749884E+02 -0.46502351087E+02  0.29017575290E+03  0.29617596771E+03  0.00000000000E+00 0.  1.
<scales pt_clust_3="14000.00000" pt_clust_4="43.15771" pt_clust_5="49.90271" pt_clust_6="84.89418"></scales>
<clustering>
<clus scale="   43.158">  1  4  2 -1</clus>
<clus scale="   49.903">  2  5  1 -1</clus>
<clus scale="   84.894">  1  6  2 -1</clus>
<clus scale="   49.903">  2  3  1 -1</clus>
</clustering>
</event>
<event>
 6    0  0.2839294E+002  0.1820517E+03  0.7546771E-02  0.1165832E+00
         21   -1    0    0  503  502  0.00000000000E+00  0.00000000000E+00  0.33384154574E+03  0.33384154574E+03  0.00000000000E+00 0. -1.
          1   -1    0    0  505    0 -0.00000000000E+00 -0.00000000000E+00 -0.50634254354E+03  0.50634254354E+03  0.00000000000E+00 0.  1.
         21    1    1    2  503  501  0.78485308139E+02 -0.91445767378E+01  0.58151625126E+02  0.98107993467E+02  0.00000000000E+00 0. -1.
         21    1    1    2  504  502  0.61118699809E+02  0.13328655249E+03  0.20456759608E+03  0.25169168025E+03  0.00000000000E+00 0. -1.
         21    1    1    2  505  504 -0.18174735454E+02  0.26031534551E+02 -0.46098918840E+02  0.55973852093E+02  0.00000000000E+00 0.  1.
          1    1    1    2  501    0 -0.12142927249E+03 -0.15017351031E+03 -0.38912130017E+03  0.43441056348E+03  0.00000000000E+00 0.  1.
<scales pt_clust_3="78.09889" pt_clust_4="182.05167" pt_clust_5="31.74841" pt_clust_6="14000.00000"></scales>
<clustering>
<clus scale="   31.748">  2  5  1 -1</clus>
<clus scale="   78.099">  1  3  2 -1</clus>
<clus scale="  182.052">  1  4  2 -1</clus>
<clus scale="   78.099">  1  3  2 -1</clus>
</clustering>
</event>
<event>
 6    0  0.2839294E+002  0.1547896E+03  0.7546771E-02  0.1194708E+00
          2   -1    0    0  504    0 -0.00000000000E+00  0.00000000000E+00  0.30425966904E+04  0.30425966904E+04  0.00000000000E+00 0.  1.
         21   -1    0    0  503  502  0.00000000000E+00 -0.00000000000E+00 -0.22326994039E+02  0.22326994039E+02  0.00000000000E+00 0.  1.
         21    1    1    2  503  501  0.15967650267E+02  0.40644135774E+02  0.57527078015E+03  0.57692580296E+03  0.00000000000E+00 0.  1.
         21    1    1    2  504  505 -0.16904082079E+03 -0.41402543077E+02  0.60256723543E+03  0.62719713240E+03  0.00000000000E+00 0.  1.
         21    1    1    2  505  502  0.52070708644E+02 -0.31125885174E+02  0.11408104635E+03  0.12920783476E+03  0.00000000000E+00 0. -1.
          2    1    1    2  501    0  0.10100246188E+03  0.31884292478E+02  0.17283506344E+04  0.17315929143E+04  0.00000000000E+00 0.  1.
<scales pt_clust_3="38.76427" pt_clust_4="142.53121" pt_clust_5="60.66448" pt_clust_6="38.76427"></scales>
<clustering>
<clus scale="   38.764">  3  6 -1 -1</clus>
<clus scale="   60.664">  2  5  1 -1</clus>
<clus scale="  142.531">  2  4  1 -1</clus>
<clus scale="   60.664">  2  3  1 -1</clus>
</clustering>
</event>
<event>
 6    0  0.2839294E+002  0.8162912E+02  0.7546771E-02  0.1324491E+00
          2   -1    0    0  505    0 -0.00000000000E+00  0.00000000000E+00  0.22108125964E+04  0.22108125964E+04  0.00000000000E+00 0. -1.
         21   -1    0    0  501  502  0.00000000000E+00 -0.00000000000E+00 -0.70703178082E+02  0.70703178082E+02  0.00000000000E+00 0. -1.
         21    1    1    2  503  502 -0.20444863170E+00  0.55012411390E+02  0.19486110488E+02  0.58361937152E+02  0.00000000000E+00 0. -1.
         21    1    1    2  504  503  0.20464557427E+02 -0.13421898051E+03  0.43322919043E+02  0.14251458927E+03  0.00000000000E+00 0. -1.
         21    1    1    2  505  504 -0.25881200487E+02  0.33688761805E+02  0.32825193681E+03  0.33098958175E+03  0.00000000000E+00 0. -1.
          2    1    1    2  501    0  0.56210916925E+01  0.45517807313E+02  0.17490484520E+04  0.17496496664E+04  0.00000000000E+00 0. -1.
<scales pt_clust_3="55.71438" pt_clust_4="14000.00000" pt_clust_5="42.48258" pt_clust_6="81.62912"></scales>
<clustering>
<clus scale="   42.483">  1  5  2 -1</clus>
<clus scale="   55.714">  2  3  1 -1</clus>
<clus scale="   81.629">  1  6  2 -1</clus>
<clus scale="   55.714">  2  3  1 -1</clus>
</clustering>
</event>
<event>
 6    0  0.2839294E+002  0.8231258E+02  0.7546771E-02  0.1322614E+00
          1   -1    0    0  504    0 -0.00000000000E+00  0.00000000000E+00  0.21796395493E+04  0.21796395493E+04  0.00000000000E+00 0. -1.
         21   -1    0    0  503  502  0.00000000000E+00 -0.00000000000E+00 -0.12431378110E+03  0.12431378110E+03  0.00000000000E+00 0.  1.
         21    1    1    2  503  501  0.48204509036E+00  0.38583097791E+02 -0.93431325340E+01  0.39701157768E+02  0.00000000000E+00 0.  1.
         21    1    1    2  504  505  0.25965158867E+02 -0.20082727660E+02  0.18079701871E+03  0.18375273440E+03  0.00000000000E+00 0. -1.
         21    1    1    2  505  502  0.76665674839E+02 -0.96801643797E+01 -0.81554830771E+02  0.11234999645E+03  0.00000000000E+00 0.  1.
          1    1    1    2  501    0 -0.10311287880E+03 -0.88202057505E+01  0.19654267128E+04  0.19681494418E+04  0.00000000000E+00 0. -1.
<scales pt_clust_3="38.43648" pt_clust_4="32.82538" pt_clust_5="14000.00000" pt_clust_6="82.31258"></scales>
<clustering>
<clus scale="   32.825">  1  4  2 -1</clus>
<clus scale="   38.436">  2  3  1 -1</clus>
<clus scale="   82.313">  1  6  2 -1</clus>
<clus scale="   38.436">  2  3  1 -1</clus>
</clustering>
</event>
<event>
 6    0  0.2839294E+002  0.7817111E+02  0.7546771E-02  0.1334323E+00
          1   -1    0    0  504    0 -0.00000000000E+00  0.00000000000E+00  0.22000845487E+04  0.22000845487E+04  0.00000000000E+00 0.  1.
         21   -1    0    0  505  502  0.00000000000E+00 -0.00000000000E+00 -0.38613662698E+02  0.38613662698E+02  0.00000000000E+00 0.  1.
         21    1    1    2  503  501  0.12615620373E+03 -0.12711112384E+02  0.52634842807E+03  0.54140523442E+03  0.00000000000E+00 0. -1.
         21    1    1    2  504  502 -0.32284716719E+02 -0.35753055944E+02  0.65974628531E+03  0.66150264166E+03  0.00000000000E+00 0.  1.
         21    1    1    2  505  503 -0.57437597905E+02  0.49153588657E+02  0.17988388074E+02  0.77709298263E+02  0.00000000000E+00 0.  1.
          1    1    1    2  501    0 -0.36433889109E+02 -0.68942032880E+00  0.95738778455E+03  0.95808103706E+03  0.00000000000E+00 0.  1.
<scales pt_clust_3="78.17111" pt_clust_4="63.03363" pt_clust_5="14000.00000" pt_clust_6="36.44041"></scales>
<clustering>
<clus scale="   36.440">  1  6  2 -1</clus>
<clus scale="   63.034">  1  4  2 -1</clus>
<clus scale="   78.171">  1  3  2 -1</clus>
<clus scale="   78.171">  2  3  1 -1</clus>
</clustering>
</event>
<event>
 6    0  0.2839294E+002  0.1766607E+03  0.7546771E-02  0.1171074E+00
         21   -1    0    0  503  502  0.00000000000E+00  0.00000000000E+00  0.16677230654E+04  0.16677230654E+04  0.00000000000E+00 0. -1.
          2   -1    0    0  504    0 -0.00000000000E+00 -0.00000000000E+00 -0.77995471421E+03  0.77995471421E+03  0.00000000000E+00 0. -1.
         21    1    1    2  503  505 -0.21178759842E+02 -0.39473378264E+02  0.24504475609E+03  0.24910564014E+03  0.00000000000E+00 0. -1.
         21    1    1    2  504  502  0.11376318869E+02 -0.69559425227E+02  0.54289228998E+02  0.88967716921E+02  0.00000000000E+00 0.  1.
         21    1    1    2  505  501  0.24466170240E+02 -0.67849972117E+02  0.13376799037E+04  0.13396229832E+04  0.00000000000E+00 0. -1.
          2    1    1    2  501    0 -0.14663729268E+02  0.17688277561E+03 -0.74924553765E+03  0.76998143936E+03  0.00000000000E+00 0. -1.
<scales pt_clust_3="44.79607" pt_clust_4="72.28844" pt_clust_5="14000.00000" pt_clust_6="176.66072"></scales>
<clustering>
<clus scale="   44.796">  1  3  2 -1</clus>
<clus scale="   72.288">  1  4  2 -1</clus>
<clus scale="  176.661">  2  6  1 -1</clus>
<clus scale="   44.796">  1  3  2 -1</clus>
</clustering>
</event>
<event>
 6    0  0.2839294E+002  0.2056577E+03  0.7546771E-02  0.1145051E+00
         21   -1    0    0  501  502  0.00000000000E+00  0.00000000000E+00  0.27452229142E+03  0.27452229142E+03  0.00000000000E+00 0.  1.
          2   -1    0    0  504    0 -0.00000000000E+00 -0.00000000000E+00 -0.44148729975E+04  0.44148729975E+04  0.00000000000E+00 0.  1.
         21    1    1    2  503  505  0.17427884506E+03  0.60443778636E+02 -0.11019751024E+04  0.11173073403E+04  0.00000000000E+00 0. -1.
         21    1    1    2  504  503 -0.15629905396E+02 -0.28064873013E+02 -0.23608797244E+03  0.23826342936E+03  0.00000000000E+00 0.  1.
         21    1    1    2  505  502 -0.20563755715E+03  0.24435214694E+02  0.22491183771E+03  0.30572736117E+03  0.00000000000E+00 0.  1.
          2    1    1    2  501    0  0.46988617482E+02 -0.56814120317E+02 -0.30271994689E+04  0.30280971581E+04  0.00000000000E+00 0.  1.
<scales pt_clust_3="14000.00000" pt_clust_4="32.12368" pt_clust_5="205.65773" pt_clust_6="84.99618"></scales>
<clustering>
<clus scale="   32.124">  2  4  1 -1</clus>
<clus scale="   84.996">  2  6  1 -1</clus>
<clus scale="  205.658">  1  5  2 -1</clus>
<clus scale="  205.658">  1  3  2 -1</clus>
</clustering>
</event>
<event>
 6    0  0.2839294E+002  0.9214393E+02  0.7546771E-02  0.1297741E+00
          2   -1    0    0  504    0 -0.00000000000E+00  0.00000000000E+00  0.12470111539E+04  0.12470111539E+04  0.00000000000E+00 0. -1.
         21   -1    0    0  501  502  0.00000000000E+00 -0.00000000000E+00 -0.38498516471E+02  0.38498516471E+02  0.00000000000E+00 0. -1.
         21    1    1    2  503  505  0.72612626592E+02 -0.22922282973E+02  0.99227933802E+02  0.12507680618E+03  0.00000000000E+00 0. -1.
         21    1    1    2  504  503 -0.44192017657E+02 -0.25128200474E+02  0.24148283727E+03  0.24677585291E+03  0.00000000000E+00 0.  1.
         21    1    1    2  505  502  0.18219173277E+02 -0.29233192588E+02 -0.62057801976E+01  0.35000421879E+02  0.00000000000E+00 0. -1.
          2    1    1    2  501    0 -0.46639782212E+02  0.77283676035E+02  0.87400764655E+03  0.87865658940E+03  0.00000000000E+00 0. -1.
<scales pt_clust_3="92.14393" pt_clust_4="50.88654" pt_clust_5="34.44587" pt_clust_6="14000.00000"></scales>
<clustering>
<clus scale="   34.446">  2  5  1 -1</clus>
<clus scale="   50.887">  1  4  2 -1</clus>
<clus scale="   92.144">  2  3  1 -1</clus>
<clus scale="   34.446">  2  3  1 -1</clus>
</clustering>
</event>
<event>
 6    0  0.2839294E+002  0.9555436E+02  0.7546771E-02  0.1289932E+00
          2   -1    0    0  503    0 -0.00000000000E+00  0.00000000000E+00  0.42418496362E+03  0.42418496362E+03  0.00000000000E+00 0.  1.
         21   -1    0    0  501  502  0.00000000000E+00 -0.00000000000E+00 -0.74866921419E+03  0.74866921419E+03  0.00000000000E+00 0.  1.
         21    1    1    2  503  504 -0.37860247517E+02 -0.11900687408E+02  0.30151343579E+02  0.49841029508E+02  0.00000000000E+00 0.  1.
         21    1    1    2  504  505  0.10413909941E+03  0.10494253143E+03 -0.26596096148E+03  0.30429117628E+03  0.00000000000E+00 0. -1.
         21    1    1    2  505  502 -0.84906233253E+02 -0.21046091711E+02 -0.44561359872E+03  0.45411836099E+03  0.00000000000E+00 0.  1.
          2    1    1    2  501    0  0.18627381359E+02 -0.71995752308E+02  0.35693896606E+03  0.36460361103E+03  0.00000000000E+00 0.  1.
<scales pt_clust_3="39.68658" pt_clust_4="14000.00000" pt_clust_5="95.55436" pt_clust_6="84.87571"></scales>
<clustering>
<clus scale="   39.687">  1  3  2 -1</clus>
<clus scale="   84.876">  1  6  2 -1</clus>
<clus scale="   95.554">  2  5  1 -1</clus>
<clus scale="   95.554">  2  3  1 -1</clus>
</clustering>
</event>
<event>
 6    0  0.2839294E+002  0.9370838E+02  0.7546771E-02  0.1294112E+00
          2   -1    0    0  504    0 -0.00000000000E+00  0.00000000000E+00  0.14823201422E+03  0.14823201422E+03  0.00000000000E+00 0.  1.
         21   -1    0    0  505  502  0.00000000000E+00 -0.00000000000E+00 -0.32177901627E+04  0.32177901627E+04  0.00000000000E+00 0. -1.
         21    1    1    2  503  501 -0.50181297261E+02 -0.35209068197E+00 -0.18793823907E+03  0.19452266775E+03  0.00000000000E+00 0. -1.
         21    1    1    2  504  502 -0.57110839843E+01  0.11095238027E+03 -0.27161991020E+04  0.27184702700E+04  0.00000000000E+00 0. -1.
         21    1    1    2  505  503 -0.10322889792E+02 -0.44203867191E+02 -0.29199633841E+03  0.29550364731E+03  0.00000000000E+00 0. -1.
          2    1    1    2  501    0  0.66215271037E+02 -0.66396422400E+02  0.12657553103E+03  0.15752559183E+03  0.00000000000E+00 0.  1.
<scales pt_clust_3="50.95970" pt_clust_4="14000.00000" pt_clust_5="45.39321" pt_clust_6="93.70838"></scales>
<clustering>
<clus scale="   45.393">  2  5  1 -1</clus>
<clus scale="   50.960">  2  3  1 -1</clus>
<clus scale="   93.708">  1  6  2 -1</clus>
<clus scale="   45.393">  2  3  1 -1</clus>
</clustering>
</event>
<event>
 6    0  0.2839294E+002  0.1112905E+03  0.7546771E-02  0.1258199E+00
         21   -1    0    0  503  502  0.00000000000E+00  0.00000000000E+00  0.93274500758E+02  0.93274500758E+02  0.00000000000E+00 0. -1.
          2   -1    0    0  504    0 -0.00000000000E+00 -0.00000000000E+00 -0.24221968222E+04  0.24221968222E+04  0.00000000000E+00 0. -1.
         21    1    1    2  503  505 -0.29955457462E+02  0.91048681606E+01  0.36817228089E+02  0.48329456237E+02  0.00000000000E+00 0. -1.
         21    1    1    2  504  502  0.27869461165E+02 -0.17047144539E+02 -0.42300996334E+03  0.42426965610E+03  0.00000000000E+00 0. -1.
         21    1    1    2  505  501  0.66777973338E+02  0.96097907084E+02 -0.22048177027E+02  0.11908076074E+03  0.00000000000E+00 0. -1.
          2    1    1    2  501    0 -0.64691977042E+02 -0.88155630705E+02 -0.19206814092E+04  0.19237914499E+04  0.00000000000E+00 0. -1.
<scales pt_clust_3="31.30859" pt_clust_4="32.29342" pt_clust_5="111.29049" pt_clust_6="14000.00000"></scales>
<clustering>
<clus scale="   31.309">  1  3  2 -1</clus>
<clus scale="   32.293">  2  4  1 -1</clus>
<clus scale="  111.290">  1  5  2 -1</clus>
<clus scale="   31.309">  1  3  2 -1</clus>
</clustering>
</event>
<event>
 6    0  0.2839294E+002  0.1185326E+03  0.7546771E-02  0.1245538E+00
          3   -1    0    0  503    0 -0.00000000000E+00  0.00000000000E+00  0.59513420981E+03  0.59513420981E+03  0.00000000000E+00 0.  1.
         21   -1    0    0  504  502  0.00000000000E+00 -0.00000000000E+00 -0.16630789893E+04  0.16630789893E+04  0.00000000000E+00 0.  1.
         21    1    1    2  503  502  0.11560681597E+03  0.57846937442E+02 -0.14169394405E+04  0.14228241571E+04  0.00000000000E+00 0.  1.
         21    1    1    2  504  505 -0.97252344796E+02  0.28087386576E+02 -0.22341112636E+03  0.24527423680E+03  0.00000000000E+00 0. -1.
         21    1    1    2  505  501 -0.57116519789E+02 -0.40328630835E+02  0.17880727807E+03  0.19199150499E+03  0.00000000000E+00 0. -1.
          3    1    1    2  501    0  0.38762048620E+02 -0.45605693183E+02  0.39359850928E+03  0.39812330021E+03  0.00000000000E+00 0.  1.
<scales pt_clust_3="118.53262" pt_clust_4="14000.00000" pt_clust_5="85.39503" pt_clust_6="59.85295"></scales>
<clustering>
<clus scale="   59.853">  1  6  2 -1</clus>
<clus scale="   85.395">  1  5  2 -1</clus>
<clus scale="  118.533">  2  3  1 -1</clus>
<clus scale="  118.533">  2  3  1 -1</clus>
</clustering>
</event>
<event>
 6    0  0.2839294E+002  0.9835580E+02  0.7546771E-02  0.1283792E+00
         21   -1    0    0  504  502  0.00000000000E+00  0.00000000000E+00  0.23319145459E+03  0.23319145459E+03  0.00000000000E+00 0. -1.
          3   -1    0    0  505    0 -0.00000000000E+00 -0.00000000000E+00 -0.13680714555E+03  0.13680714555E+03  0.00000000000E+00 0. -1.
         21    1    1    2  503  502 -0.44516678847E+02  0.13971317554E+01  0.55931824564E+02  0.71498641048E+02  0.00000000000E+00 0. -1.
         21    1    1    2  504  501  0.10905075633E+03  0.69610784407E+02  0.86421778178E+02  0.15558422962E+03  0.00000000000E+00 0. -1.
         21    1    1    2  505  503  0.15257506307E+02 -0.48282974666E+02 -0.65354375872E+01  0.51056332475E+02  0.00000000000E+00 0. -1.
          3    1    1    2  501    0 -0.79791583793E+02 -0.22724941496E+02 -0.39433856114E+02  0.91859397005E+02  0.00000000000E+00 0. -1.
<scales pt_clust_3="44.53860" pt_clust_4="14000.00000" pt_clust_5="49.01135" pt_clust_6="98.35580"></scales>
<clustering>
<clus scale="   44.539">  1  3  2 -1</clus>
<clus scale="   49.011">  2  5  1 -1</clus>
<clus scale="   98.356">  2  6  1 -1</clus>
<clus scale="   44.539">  1  3  2 -1</clus>
</clustering>
</event>
<event>
 6    0  0.2839294E+002  0.2639658E+03  0.7546771E-02  0.1104784E+00
          2   -1    0    0  505    0 -0.00000000000E+00  0.00000000000E+00  0.24292860759E+04  0.24292860759E+04  0.00000000000E+00 0.  1.
         21   -1    0    0  504  502  0.00000000000E+00 -0.00000000000E+00 -0.22522214320E+03  0.22522214320E+03  0.00000000000E+00 0. -1.
         21    1    1    2  503  501  0.10802585127E+02  0.12496399645E+03  0.97571050140E+02  0.15891131514E+03  0.00000000000E+00 0.  1.
         21    1    1    2  504  503  0.10457869955E+03 -0.64729120550E+02 -0.10112718194E+03  0.15922710314E+03  0.00000000000E+00 0. -1.
         21    1    1    2  505  502  0.15460224294E+03  0.22089607295E+02  0.55380604652E+02  0.16570098262E+03  0.00000000000E+00 0. -1.
          2    1    1    2  501    0 -0.26998352761E+03 -0.82324483193E+02  0.21522394598E+04  0.21706688182E+04  0.00000000000E+00 0.  1.
<scales pt_clust_3="113.21019" pt_clust_4="122.99009" pt_clust_5="14000.00000" pt_clust_6="263.96580"></scales>
<clustering>
<clus scale="  122.990">  2  4  1 -1</clus>
<clus scale="  113.210">  2  3  1 -1</clus>
<clus scale="  263.966">  1  6  2 -1</clus>
<clus scale="  122.990">  2  3  1 -1</clus>
</clustering>
</event>
<event>
 6    0  0.2839294E+002  0.1093093E+03  0.7546771E-02  0.1261854E+00
         21   -1    0    0  501  502  0.00000000000E+00  0.00000000000E+00  0.23484810209E+02  0.23484810209E+02  0.00000000000E+00 0. -1.
          1   -1    0    0  503    0 -0.00000000000E+00 -0.00000000000E+00 -0.23711152387E+04  0.23711152387E+04  0.00000000000E+00 0.  1.
         21    1    1    2  503  504  0.34962170651E+02  0.16083301574E+02 -0.41623006011E+03  0.41800536947E+03  0.00000000000E+00 0.  1.
         21    1    1    2  504  505 -0.46350635514E+01 -0.13800835323E+03 -0.29599571367E+03  0.32662096057E+03  0.00000000000E+00 0. -1.
         21    1    1    2  505  502 -0.18750632286E+02  0.31433479353E+02 -0.50096639701E+02  0.62042913735E+02  0.00000000000E+00 0. -1.
          1    1    1    2  501    0 -0.11576474813E+02  0.90491572303E+02 -0.15853080150E+04  0.15879308051E+04  0.00000000000E+00 0.  1.
<scales pt_clust_3="38.33093" pt_clust_4="109.30933" pt_clust_5="36.60123" pt_clust_6="14000.00000"></scales>
<clustering>
<clus scale="   36.601">  1  5  2 -1</clus>
<clus scale="   38.331">  2  3  1 -1</clus>
<clus scale="  109.309">  1  4  2 -1</clus>
<clus scale="   36.601">  1  3  2 -1</clus>
</clustering>
</event>
<event>
 6    0  0.2839294E+002  0.2260476E+03  0.7546771E-02  0.1129453E+00
          1   -1    0    0  505    0 -0.00000000000E+00  0.00000000000E+00  0.73412305571E+03  0.73412305571E+03  0.00000000000E+00 0. -1.
         21   -1    0    0  503  502  0.00000000000E+00 -0.00000000000E+00 -0.12128539707E+04  0.12128539707E+04  0.00000000000E+00 0.  1.
         21    1    1    2  503  504 -0.15055800151E+03  0.54921453092E+02 -0.22632333114E+03  0.27731990200E+03  0.00000000000E+00 0.  1.
         21    1    1    2  504  501 -0.17029252147E+03  0.39726525447E+02  0.55477388696E+03  0.58168015725E+03  0.00000000000E+00 0. -1.
         21    1    1    2  505  502  0.35538844531E+03 -0.15062608653E+03 -0.89707306977E+03  0.97659062944E+03  0.00000000000E+00 0.  1.
          1    1    1    2  501    0 -0.34537922334E+02  0.55978107986E+02  0.89891599001E+02  0.11138633769E+03  0.00000000000E+00 0. -1.
<scales pt_clust_3="162.34897" pt_clust_4="226.04764" pt_clust_5="14000.00000" pt_clust_6="65.77550"></scales>
<clustering>
<clus scale="   65.776">  1  6  2 -1</clus>
<clus scale="  162.349">  2  3  1 -1</clus>
<clus scale="  226.048">  1  4  2 -1</clus>
<clus scale="  162.349">  2  3  1 -1</clus>
</clustering>
</event>
<event>
 6    0  0.2839294E+002  0.1107416E+03  0.7546771E-02  0.1259203E+00
          2   -1    0    0  505    0 -0.00000000000E+00  0.00000000000E+00  0.30485233972E+04  0.30485233972E+04  0.00000000000E+00 0.  1.
         21   -1    0    0  501  502  0.00000000000E+00 -0.00000000000E+00 -0.19419157491E+02  0.19419157491E+02  0.00000000000E+00 0.  1.
         21    1    1    2  503  504  0.45146242102E+02 -0.53156491033E+01  0.78397499740E+02  0.90623436631E+02  0.00000000000E+00 0.  1.
         21    1    1    2  504  502  0.58319274377E+02  0.40052558425E+02  0.96742386404E+02  0.11985171892E+03  0.00000000000E+00 0.  1.
         21    1    1    2  505  503 -0.58333008407E+02  0.24228358767E+02  0.16557595099E+04  0.16569638825E+04  0.00000000000E+00 0. -1.
          2    1    1    2  501    0 -0.45132508072E+02 -0.58965268089E+02  0.11982048436E+04  0.12005035166E+04  0.00000000000E+00 0.  1.
<scales pt_clust_3="33.18626" pt_clust_4="33.18626" pt_clust_5="63.16449" pt_clust_6="102.71150"></scales>
<clustering>
<clus scale="   33.186">  3  4 -1 -1</clus>
<clus scale="   63.164">  1  5  2 -1</clus>
<clus scale="  102.711">  1  6  2 -1</clus>
<clus scale="  110.742">  2  3  1 -1</clus>
</clustering>
</event>
<event>
 6    0  0.2839294E+002  0.1390799E+03  0.7546771E-02  0.1214572E+00
         21   -1    0    0  503  502  0.00000000000E+00  0.00000000000E+00  0.48311713692E+03  0.48311713692E+03  0.00000000000E+00 0. -1.
          1   -1    0    0  504    0 -0.00000000000E+00 -0.00000000000E+00 -0.20912203701E+03  0.20912203701E+03  0.00000000000E+00 0.  1.
         21    1    1    2  503  505  0.37697101541E+02  0.48543878102E+02  0.67882192261E+02  0.91572766649E+02  0.00000000000E+00 0. -1.
         21    1    1    2  504  502  0.35819856741E+02 -0.17975848744E+03  0.33551530355E+03  0.38231753146E+03  0.00000000000E+00 0. -1.
         21    1    1    2  505  501 -0.72530698189E+02  0.72078257897E+02 -0.37207305876E+02  0.10881342312E+03  0.00000000000E+00 0.  1.
          1    1    1    2  501    0 -0.98626009249E+00  0.59136351440E+02 -0.92195090030E+02  0.10953545269E+03  0.00000000000E+00 0.  1.
<scales pt_clust_3="66.62988" pt_clust_4="139.07986" pt_clust_5="14000.00000" pt_clust_6="59.14458"></scales>
<clustering>
<clus scale="   59.145">  2  6  1 -1</clus>
<clus scale="   66.630">  1  3  2 -1</clus>
<clus scale="  139.080">  1  4  2 -1</clus>
<clus scale="   66.630">  1  3  2 -1</clus>
</clustering>
</event>
<event>
 6    0  0.2839294E+002  0.8217131E+02  0.7546771E-02  0.1323000E+00
          2   -1    0    0  504    0 -0.00000000000E+00  0.00000000000E+00  0.18575271914E+04  0.18575271914E+04  0.00000000000E+00 0. -1.
         21   -1    0    0  505  502  0.00000000000E+00 -0.00000000000E+00 -0.82849607894E+02  0.82849607894E+02  0.00000000000E+00 0.  1.
         21    1    1    2  503  502 -0.26520632242E+01 -0.65536415361E+02  0.16008033634E+02  0.67515274706E+02  0.00000000000E+00 0.  1.
         21    1    1    2  504  503 -0.59779828181E+02  0.27021626105E+02  0.52358123197E+03  0.52767518665E+03  0.00000000000E+00 0.  1.
         21    1    1    2  505  501  0.64451539740E+02  0.93840361263E+02  0.51037039252E+01  0.11395640469E+03  0.00000000000E+00 0.  1.
          2    1    1    2  501    0 -0.20196483345E+01 -0.55325572007E+02  0.12299846140E+04  0.12312299332E+04  0.00000000000E+00 0. -1.
<scales pt_clust_3="14000.00000" pt_clust_4="64.45116" pt_clust_5="82.17131" pt_clust_6="55.36242"></scales>
<clustering>
<clus scale="   55.362">  1  6  2 -1</clus>
<clus scale="   64.451">  1  4  2 -1</clus>
<clus scale="   82.171">  1  5  2 -1</clus>
<clus scale="   82.171">  2  3  1 -1</clus>
</clustering>
</event>
<event>
 6    0  0.2839294E+002  0.2288083E+03  0.7546771E-02  0.1127481E+00
         21   -1    0    0  504  502  0.00000000000E+00  0.00000000000E+00  0.16618214211E+03  0.16618214211E+03  0.00000000000E+00 0.  1.
          1   -1    0    0  505    0 -0.00000000000E+00 -0.00000000000E+00 -0.92204006388E+03  0.92204006388E+03  0.00000000000E+00 0. -1.
         21    1    1    2  503  502 -0.47291421831E+02  0.35762675496E+02  0.37493391132E+02  0.70151278791E+02  0.00000000000E+00 0.  1.
         21    1    1    2  504  501  0.17612985810E+03 -0.21784153082E+03 -0.12131780014E+03  0.30527801771E+03  0.00000000000E+00 0.  1.
         21    1    1    2  505  503 -0.32469397160E+02  0.19704786378E+01 -0.11388801872E+03  0.11844249806E+03  0.00000000000E+00 0.  1.
          1    1    1    2  501    0 -0.96369039108E+02  0.18010837668E+03 -0.55814549403E+03  0.59435041142E+03  0.00000000000E+00 0. -1.
<scales pt_clust_3="59.84116" pt_clust_4="228.80832" pt_clust_5="32.52913" pt_clust_6="14000.00000"></scales>
<clustering>
<clus scale="   32.529">  2  5  1 -1</clus>
<clus scale="   59.841">  1  3  2 -1</clus>
<clus scale="  228.808">  1  4  2 -1</clus>
<clus scale="   59.841">  1  3  2 -1</clus>
</clustering>
</event>
<event>
 6    0  0.2839294E+002  0.1157099E+03  0.7546771E-02  0.1250347E+00
          2   -1    0    0  503    0 -0.00000000000E+00  0.00000000000E+00  0.10299976929E+04  0.10299976929E+04  0.00000000000E+00 0. -1.
         21   -1    0    0  504  502  0.00000000000E+00 -0.00000000000E+00 -0.28205122210E+02  0.28205122210E+02  0.00000000000E+00 0. -1.
         21    1    1    2  503  505  0.83048792839E+02  0.97956717450E+02  0.31177120368E+03  0.33718526648E+03  0.00000000000E+00 0. -1.
         21    1    1    2  504  501  0.48099287645E+01 -0.45482873081E+02  0.66894228512E+02  0.81034961385E+02  0.00000000000E+00 0.  1.
         21    1    1    2  505  502 -0.12285773944E+02  0.27809819571E+02  0.75983076277E+02  0.81839808080E+02  0.00000000000E+00 0. -1.
          2    1    1    2  501    0 -0.75572947660E+02 -0.80283663940E+02  0.54714406222E+03  0.55814277917E+03  0.00000000000E+00 0. -1.
<scales pt_clust_3="14000.00000" pt_clust_4="37.72897" pt_clust_5="30.40274" pt_clust_6="115.70994"></scales>
<clustering>
<clus scale="   30.403">  2  5  1 -1</clus>
<clus scale="   37.729">  2  4  1 -1</clus>
<clus scale="  115.710">  1  6  2 -1</clus>
<clus scale="   30.403">  2  3  1 -1</clus>
</clustering>
</event>
<event>
 6    0  0.2839294E+002  0.1070319E+03  0.7546771E-02  0.1266167E+00
          2   -1    0    0  505    0 -0.00000000000E+00  0.00000000000E+00  0.34450181558E+04  0.34450181558E+04  0.00000000000E+00 0.  1.
         21   -1    0    0  504  502  0.00000000000E+00 -0.00000000000E+00 -0.27200602893E+02  0.27200602893E+02  0.00000000000E+00 0. -1.
         21    1    1    2  503  501  0.66757579115E+02  0.65579882117E+02  0.10719686493E+04  0.10760455754E+04  0.00000000000E+00 0. -1.
         21    1    1    2  504  503  0.57782750659E+02  0.76016547024E+02  0.16561021358E+03  0.19116512375E+03  0.00000000000E+00 0. -1.
         21    1    1    2  505  502 -0.87685989925E+02 -0.20047030910E+02  0.18476845689E+03  0.20549963245E+03  0.00000000000E+00 0. -1.
          2    1    1    2  501    0 -0.36854339849E+02 -0.12154939823E+03  0.19954702331E+04  0.19995084270E+04  0.00000000000E+00 0.  1.
<scales pt_clust_3="107.03188" pt_clust_4="61.43036" pt_clust_5="89.94841" pt_clust_6="14000.00000"></scales>
<clustering>
<clus scale="   89.948">  2  5  1 -1</clus>
<clus scale="   61.430">  2  4  1 -1</clus>
<clus scale="  107.032">  2  3  1 -1</clus>
<clus scale="   89.948">  2  3  1 -1</clus>
</clustering>
</event>
<event>
 6    0  0.2839294E+002  0.1614786E+03  0.7546771E-02  0.1187037E+00
         21   -1    0    0  505  502  0.00000000000E+00  0.00000000000E+00  0.90350023254E+02  0.90350023254E+02  0.00000000000E+00 0.  1.
         -1   -1    0    0    0  501 -0.00000000000E+00 -0.00000000000E+00 -0.59244467204E+03  0.59244467204E+03  0.00000000000E+00 0.  1.
         21    1    1    2  503  502  0.19178841141E+02 -0.48494765146E+02 -0.15060379228E+02  0.54280615477E+02  0.00000000000E+00 0. -1.
         21    1    1    2  504  503  0.91416011858E+02 -0.23680371288E+02 -0.21547423064E+03  0.23525898767E+03  0.00000000000E+00 0.  1.
         21    1    1    2  505  501 -0.16993166156E+03  0.57885316957E+02 -0.88225075978E+02  0.20002785694E+03  0.00000000000E+00 0.  1.
         -1    1    1    2    0  504  0.59336808564E+02  0.14289819477E+02 -0.18333496293E+03  0.19322723521E+03  0.00000000000E+00 0.  1.
<scales pt_clust_3="52.14950" pt_clust_4="33.50656" pt_clust_5="156.00723" pt_clust_6="33.50656"></scales>
<clustering>
<clus scale="   33.507">  4  6 -1 -1</clus>
<clus scale="   52.149">  1  3  2 -1</clus>
<clus scale="  156.007">  1  5  2 -1</clus>
<clus scale="   52.149">  1  3  2 -1</clus>
</clustering>
</event>
<event>
 6    0  0.2839294E+002  0.1143681E+03  0.7546771E-02  0.1252688E+00
          2   -1    0    0  504    0 -0.00000000000E+00  0.00000000000E+00  0.21188720956E+04  0.21188720956E+04  0.00000000000E+00 0.  1.
         21   -1    0    0  505  502  0.00000000000E+00 -0.00000000000E+00 -0.11775597227E+03  0.11775597227E+03  0.00000000000E+00 0. -1.
         21    1    1    2  503  502  0.32842659550E+02 -0.65304832146E+02  0.23162760394E+02  0.76680342051E+02  0.00000000000E+00 0. -1.
         21    1    1    2  504  503  0.58874390232E+02  0.75269269137E+01  0.33027330769E+03  0.33556416111E+03  0.00000000000E+00 0.  1.
         21    1    1    2  505  501 -0.94330519477E+02 -0.35474947237E+02 -0.57916922133E+02  0.11623720857E+03  0.00000000000E+00 0. -1.
          2    1    1    2  501    0  0.26134696943E+01  0.93252852470E+02  0.17055969774E+04  0.17081463561E+04  0.00000000000E+00 0.  1.
<scales pt_clust_3="73.66635" pt_clust_4="59.35359" pt_clust_5="114.36813" pt_clust_6="14000.00000"></scales>
<clustering>
<clus scale="   59.354">  1  4  2 -1</clus>
<clus scale="   73.666">  2  3  1 -1</clus>
<clus scale="  114.368">  2  5  1 -1</clus>
<clus scale="   73.666">  2  3  1 -1</clus>
</clustering>
</event>
<event>
 6    0  0.2839294E+002  0.1231064E+03  0.7546771E-02  0.1238059E+00
          2   -1    0    0  503    0 -0.00000000000E+00  0.00000000000E+00  0.22255131174E+04  0.22255131174E+04  0.00000000000E+00 0. -1.
         21   -1    0    0  501  502  0.00000000000E+00 -0.00000000000E+00 -0.18653978046E+02  0.18653978046E+02  0.00000000000E+00 0. -1.
         21    1    1    2  503  505 -0.42702050575E+01  0.43707267516E+02  0.75612435231E+03  0.75739857145E+03  0.00000000000E+00 0. -1.
         21    1    1    2  504  502  0.18251428243E+02 -0.33400161389E+02  0.55076065007E+02  0.66948176602E+02  0.00000000000E+00 0. -1.
         21    1    1    2  505  504 -0.87667579108E+02 -0.88185582080E+02  0.41254450399E+03  0.43087732486E+03  0.00000000000E+00 0. -1.
          2    1    1    2  501    0  0.73686355923E+02  0.77878475952E+02  0.98311421807E+03  0.98894302255E+03  0.00000000000E+00 0. -1.
<scales pt_clust_3="42.16782" pt_clust_4="38.06160" pt_clust_5="14000.00000" pt_clust_6="123.10643"></scales>
<clustering>
<clus scale="   38.062">  2  4  1 -1</clus>
<clus scale="   42.168">  1  3  2 -1</clus>
<clus scale="  123.106">  1  6  2 -1</clus>
<clus scale="   38.062">  2  3  1 -1</clus>
</clustering>
</event>
<event>
 6    0  0.2839294E+002  0.1125333E+03  0.7546771E-02  0.1255949E+00
          2   -1    0    0  505    0 -0.00000000000E+00  0.00000000000E+00  0.12865126958E+04  0.12865126958E+04  0.00000000000E+00 0.  1.
         21   -1    0    0  503  502  0.00000000000E+00 -0.00000000000E+00 -0.42472203683E+02  0.42472203683E+02  0.00000000000E+00 0.  1.
         21    1    1    2  503  501 -0.80440225757E+02  0.52495981412E+02  0.55038914942E+02  0.11070564639E+03  0.00000000000E+00 0.  1.
         21    1    1    2  504  502  0.92139292831E+01  0.40090661634E+02  0.48376951706E+02  0.63501866898E+02  0.00000000000E+00 0.  1.
         21    1    1    2  505  504  0.25297667839E+02  0.24464765097E+02  0.53930070632E+03  0.54044772972E+03  0.00000000000E+00 0.  1.
          2    1    1    2  501    0  0.45928628635E+02 -0.11705140814E+03  0.60132391914E+03  0.61432965646E+03  0.00000000000E+00 0.  1.
<scales pt_clust_3="112.53332" pt_clust_4="43.37055" pt_clust_5="35.19228" pt_clust_6="14000.00000"></scales>
<clustering>
<clus scale="   35.192">  1  5  2 -1</clus>
<clus scale="   43.371">  2  4  1 -1</clus>
<clus scale="  112.533">  2  3  1 -1</clus>
<clus scale="   43.371">  2  3  1 -1</clus>
</clustering>
</event>
<event>
 6    0  0.2839294E+002  0.8395335E+02  0.7546771E-02  0.1318193E+00
          2   -1    0    0  503    0 -0.00000000000E+00  0.00000000000E+00  0.42595676646E+03  0.42595676646E+03  0.00000000000E+00 0.  1.
         21   -1    0    0  505  502  0.00000000000E+00 -0.00000000000E+00 -0.51787661779E+03  0.51787661779E+03  0.00000000000E+00 0.  1.
         21    1    1    2  503  502  0.79754243732E+02 -0.46236598536E+02 -0.36923313346E+03  0.38056756205E+03  0.00000000000E+00 0.  1.
         21    1    1    2  504  501 -0.36169927574E+02  0.33683736236E+02  0.71959457944E+02  0.87298461241E+02  0.00000000000E+00 0.  1.
         21    1    1    2  505  504 -0.79909723861E+02 -0.18819345397E+02 -0.12093470595E+03  0.14616748897E+03  0.00000000000E+00 0.  1.
          2    1    1    2  501    0  0.36325407702E+02  0.31372207697E+02  0.32628853014E+03  0.32979987199E+03  0.00000000000E+00 0.  1.
<scales pt_clust_3="83.95335" pt_clust_4="59.56755" pt_clust_5="14000.00000" pt_clust_6="47.99740"></scales>
<clustering>
<clus scale="   47.997">  1  6  2 -1</clus>
<clus scale="   59.568">  1  4  2 -1</clus>
<clus scale="   83.953">  2  3  1 -1</clus>
<clus scale="   83.953">  2  3  1 -1</clus>
</clustering>
</event>
<event>
 6    0  0.2839294E+002  0.1602637E+03  0.7546771E-02  0.1188399E+00
         21   -1    0    0  501  502  0.00000000000E+00  0.00000000000E+00  0.50517151061E+03  0.50517151061E+03  0.00000000000E+00 0.  1.
          2   -1    0    0  505    0 -0.00000000000E+00 -0.00000000000E+00 -0.13619620392E+04  0.13619620392E+04  0.00000000000E+00 0.  1.
         21    1    1    2  503  502  0.33525780598E+02  0.16146011243E+03  0.46680996473E+03  0.49508068943E+03  0.00000000000E+00 0.  1.
         21    1    1    2  504  503  0.55668785257E+02 -0.10432698508E+03 -0.19123774564E+03  0.22484441026E+03  0.00000000000E+00 0.  1.
         21    1    1    2  505  504 -0.52310534930E+02 -0.90631370327E+02 -0.41049350948E+03  0.42362171648E+03  0.00000000000E+00 0.  1.
          2    1    1    2  501    0 -0.36884030925E+02  0.33498242976E+02 -0.72186923822E+03  0.72358673364E+03  0.00000000000E+00 0.  1.
<scales pt_clust_3="14000.00000" pt_clust_4="160.26374" pt_clust_5="102.77774" pt_clust_6="49.82534"></scales>
<clustering>
<clus scale="   49.825">  2  6  1 -1</clus>
<clus scale="  102.778">  2  5  1 -1</clus>
<clus scale="  160.264">  2  4  1 -1</clus>
<clus scale="  160.264">  1  3  2 -1</clus>
</clustering>
</event>
<event>
 6    0  0.2839294E+002  0.9913063E+02  0.7546771E-02  0.1282135E+00
          2   -1    0    0  504    0 -0.00000000000E+00  0.00000000000E+00  0.14242575141E+04  0.14242575141E+04  0.00000000000E+00 0. -1.
         21   -1    0    0  505  502  0.00000000000E+00 -0.00000000000E+00 -0.12809861143E+04  0.12809861143E+04  0.00000000000E+00 0. -1.
         21    1    1    2  503  501 -0.35917551765E+02 -0.96381340185E+02  0.93525031163E+02  0.13901929620E+03  0.00000000000E+00 0.  1.
         21    1    1    2  504  502  0.39022328357E+02  0.27823009924E+02 -0.87350763488E+02  0.99634421128E+02  0.00000000000E+00 0.  1.
         21    1    1    2  505  503 -0.10087413335E+03  0.38996531007E+02 -0.11602242349E+04  0.11652538759E+04  0.00000000000E+00 0. -1.
          2    1    1    2  501    0  0.97769356753E+02  0.29561799255E+02  0.12973213670E+04  0.13013360351E+04  0.00000000000E+00 0. -1.
<scales pt_clust_3="99.13063" pt_clust_4="47.92559" pt_clust_5="91.18450" pt_clust_6="14000.00000"></scales>
<clustering>
<clus scale="   47.926">  2  4  1 -1</clus>
<clus scale="   91.184">  2  5  1 -1</clus>
<clus scale="   99.131">  2  3  1 -1</clus>
<clus scale="   47.926">  2  3  1 -1</clus>
</clustering>
</event>
<event>
 6    0  0.2839294E+002  0.4636682E+03  0.7546771E-02  0.1023723E+00
         21   -1    0    0  505  502  0.00000000000E+00  0.00000000000E+00  0.70476565084E+03  0.70476565084E+03  0.00000000000E+00 0. -1.
          4   -1    0    0  503    0 -0.00000000000E+00 -0.00000000000E+00 -0.35779247843E+04  0.35779247843E+04  0.00000000000E+00 0.  1.
         21    1    1    2  503  502 -0.52753969534E+02 -0.18085149591E+02 -0.13273600533E+03  0.14397534875E+03  0.00000000000E+00 0.  1.
         21    1    1    2  504  501  0.33371108877E+03  0.24350237364E+03  0.14561727803E+02  0.41336248095E+03  0.00000000000E+00 0.  1.
         21    1    1    2  505  504 -0.57233729909E+02  0.14179713316E+03  0.45844837573E+03  0.48327739449E+03  0.00000000000E+00 0. -1.
          4    1    1    2  501    0 -0.22372338933E+03 -0.36721435721E+03 -0.32134332316E+04  0.32420752109E+04  0.00000000000E+00 0.  1.
<scales pt_clust_3="55.76786" pt_clust_4="463.66816" pt_clust_5="152.92302" pt_clust_6="14000.00000"></scales>
<clustering>
<clus scale="   55.768">  2  3  1 -1</clus>
<clus scale="  152.923">  1  5  2 -1</clus>
<clus scale="  463.668">  1  4  2 -1</clus>
<clus scale="  152.923">  1  3  2 -1</clus>
</clustering>
</event>
<event>
 6    0  0.2839294E+002  0.1074212E+03  0.7546771E-02  0.1265421E+00
         21   -1    0    0  504  502  0.00000000000E+00  0.00000000000E+00  0.27773499677E+02  0.27773499677E+02  0.00000000000E+00 0. -1.
          1   -1    0    0  503    0 -0.00000000000E+00 -0.00000000000E+00 -0.12880748379E+04  0.12880748379E+04  0.00000000000E+00 0. -1.
         21    1    1    2  503  502 -0.30267027793E+02 -0.13455927606E+03 -0.35291031137E+03  0.37890365479E+03  0.00000000000E+00 0. -1.
         21    1    1    2  504  505  0.29830452291E+02 -0.39759663135E+01 -0.23160220161E+02  0.37974464972E+02  0.00000000000E+00 0.  1.
         21    1    1    2  505  501 -0.30063838966E+02  0.43967384821E+02 -0.17845758575E+03  0.18623661093E+03  0.00000000000E+00 0.  1.
          1    1    1    2  501    0  0.30500414469E+02  0.94567857557E+02 -0.70577322097E+03  0.71273360690E+03  0.00000000000E+00 0. -1.
<scales pt_clust_3="107.42115" pt_clust_4="30.09426" pt_clust_5="49.60527" pt_clust_6="14000.00000"></scales>
<clustering>
<clus scale="   30.094">  1  4  2 -1</clus>
<clus scale="   49.605">  1  5  2 -1</clus>
<clus scale="  107.421">  1  3  2 -1</clus>
<clus scale="   30.094">  1  3  2 -1</clus>
</clustering>
</event>
<event>
 6    0  0.2839294E+002  0.8824278E+02  0.7546771E-02  0.1307164E+00
         -2   -1    0    0    0  501 -0.00000000000E+00  0.00000000000E+00  0.84936349822E+03  0.84936349822E+03  0.00000000000E+00 0. -1.
         21   -1    0    0  505  502  0.00000000000E+00 -0.00000000000E+00 -0.67177624216E+03  0.67177624216E+03  0.00000000000E+00 0.  1.
         21    1    1    2  503  501 -0.83104022066E+02 -0.21868234256E+02  0.38912136601E+03  0.39849709615E+03  0.00000000000E+00 0.  1.
         21    1    1    2  504  503  0.83132692154E+02  0.28536069264E+02 -0.10768162192E+02  0.88551143814E+02  0.00000000000E+00 0.  1.
         21    1    1    2  505  504 -0.45038484071E+02  0.61698014639E+02 -0.61100750792E+03  0.61576398465E+03  0.00000000000E+00 0.  1.
         -2    1    1    2    0  502  0.45009813983E+02 -0.68365849647E+02  0.41024156017E+03  0.41832751576E+03  0.00000000000E+00 0. -1.
<scales pt_clust_3="88.24278" pt_clust_4="14000.00000" pt_clust_5="76.38789" pt_clust_6="76.56962"></scales>
<clustering>
<clus scale="   76.388">  2  5  1 -1</clus>
<clus scale="   76.570">  1  6  2 -1</clus>
<clus scale="   88.243">  1  3  2 -1</clus>
<clus scale="   76.388">  2  3  1 -1</clus>
</clustering>
</event>
<event>
 6    0  0.2839294E+002  0.1450961E+03  0.7546771E-02  0.1206632E+00
          2   -1    0    0  505    0 -0.00000000000E+00  0.00000000000E+00  0.29963411827E+03  0.29963411827E+03  0.00000000000E+00 0. -1.
         21   -1    0    0  504  502  0.00000000000E+00 -0.00000000000E+00 -0.75346075125E+03  0.75346075125E+03  0.00000000000E+00 0. -1.
         21    1    1    2  503  501  0.40329875871E+02  0.33100976392E+02  0.67767483306E+02  0.85525465912E+02  0.00000000000E+00 0.  1.
         21    1    1    2  504  503 -0.20408984066E+02  0.28373138253E+02 -0.66327569094E+02  0.74972715216E+02  0.00000000000E+00 0. -1.
         21    1    1    2  505  502 -0.33080998138E+02 -0.14923387536E+03 -0.65576128227E+03  0.67334089533E+03  0.00000000000E+00 0. -1.
          2    1    1    2  501    0  0.13160106334E+02  0.87759760717E+02  0.20049473507E+03  0.21925579306E+03  0.00000000000E+00 0. -1.
<scales pt_clust_3="45.01922" pt_clust_4="34.95085" pt_clust_5="132.64384" pt_clust_6="45.01922"></scales>
<clustering>
<clus scale="   34.951">  2  4  1 -1</clus>
<clus scale="   45.019">  3  6 -1 -1</clus>
<clus scale="  132.644">  2  5  1 -1</clus>
<clus scale="   34.951">  2  3  1 -1</clus>
</clustering>
</event>
<event>
 6    0  0.2839294E+002  0.1726742E+03  0.7546771E-02  0.1175087E+00
          2   -1    0    0  503    0 -0.00000000000E+00  0.00000000000E+00  0.10598849141E+04  0.10598849141E+04  0.00000000000E+00 0. -1.
         21   -1    0    0  504  502  0.00000000000E+00 -0.00000000000E+00 -0.48526672059E+03  0.48526672059E+03  0.00000000000E+00 0.  1.
         21    1    1    2  503  505 -0.11714425925E+02 -0.37944673711E+02  0.28412779535E+02  0.48829418169E+02  0.00000000000E+00 0.  1.
         21    1    1    2  504  501  0.59567422575E+02  0.17781419140E+03 -0.18294426713E+03  0.26198238370E+03  0.00000000000E+00 0.  1.
         21    1    1    2  505  502 -0.43451673939E+02 -0.50182546620E+01 -0.24602121796E+03  0.24987931194E+03  0.00000000000E+00 0.  1.
          2    1    1    2  501    0 -0.44013227105E+01 -0.13485126303E+03  0.97517089903E+03  0.98446052084E+03  0.00000000000E+00 0. -1.
<scales pt_clust_3="39.71179" pt_clust_4="172.67423" pt_clust_5="43.77075" pt_clust_6="14000.00000"></scales>
<clustering>
<clus scale="   39.712">  1  3  2 -1</clus>
<clus scale="   43.771">  2  5  1 -1</clus>
<clus scale="  172.674">  2  4  1 -1</clus>
<clus scale="   43.771">  2  3  1 -1</clus>
</clustering>
</event>
<event>
 6    0  0.2839294E+002  0.1462777E+03  0.7546771E-02  0.1205123E+00
         21   -1    0    0  503  502  0.00000000000E+00  0.00000000000E+00  0.81371588384E+02  0.81371588384E+02  0.00000000000E+00 0. -1.
          2   -1    0    0  504    0 -0.00000000000E+00 -0.00000000000E+00 -0.17923163892E+04  0.17923163892E+04  0.00000000000E+00 0. -1.
         21    1    1    2  503  505 -0.12971596389E+03 -0.10850477361E+03 -0.63160405366E+02  0.18052355522E+03  0.00000000000E+00 0. -1.
         21    1    1    2  504  502  0.12082919676E+03 -0.27253320907E+02 -0.18282816253E+03  0.22083608243E+03  0.00000000000E+00 0. -1.
         21    1    1    2  505  501  0.19034512183E+02  0.27823982548E+02 -0.20893651187E+03  0.21163873145E+03  0.00000000000E+00 0.  1.
          2    1    1    2  501    0 -0.10147745052E+02  0.10793411197E+03 -0.12560197210E+04  0.12606896085E+04  0.00000000000E+00 0. -1.
<scales pt_clust_3="135.10149" pt_clust_4="123.86460" pt_clust_5="31.27150" pt_clust_6="31.27150"></scales>
<clustering>
<clus scale="   31.271">  5  6 -1 -1</clus>
<clus scale="  123.865">  1  4  2 -1</clus>
<clus scale="  135.101">  1  3  2 -1</clus>
<clus scale="  123.865">  1  3  2 -1</clus>
</clustering>
</event>
<event>
 6    0  0.2839294E+002  0.3306837E+03  0.7546771E-02  0.1070835E+00
          1   -1    0    0  503    0 -0.00000000000E+00  0.00000000000E+00  0.16556460122E+03  0.16556460122E+03  0.00000000000E+00 0.  1.
         21   -1    0    0  504  502  0.00000000000E+00 -0.00000000000E+00 -0.73109418540E+03  0.73109418540E+03  0.00000000000E+00 0.  1.
         21    1    1    2  503  505  0.17337914268E+03 -0.16001808765E+03 -0.28079212592E+03  0.36675650434E+03  0.00000000000E+00 0.  1.
         21    1    1    2  504  501 -0.78562274401E+02  0.27924675135E+02 -0.58227824936E+02  0.10169708962E+03  0.00000000000E+00 0. -1.
         21    1    1    2  505  502  0.86176330757E+02  0.95153698008E+01 -0.18692721773E+03  0.20605505812E+03  0.00000000000E+00 0.  1.
          1    1    1    2  501    0 -0.18099319904E+03  0.12257804272E+03 -0.39582415596E+02  0.22215013455E+03  0.00000000000E+00 0.  1.
<scales pt_clust_3="84.28412" pt_clust_4="44.91950" pt_clust_5="84.28412" pt_clust_6="308.72347"></scales>
<clustering>
<clus scale="   44.919">  4  6 -1 -1</clus>
<clus scale="   84.284">  3  5 -1 -1</clus>
<clus scale="  308.723">  1  4  2 -1</clus>
<clus scale="  330.684">  2  3  1 -1</clus>
</clustering>
</event>
<event>
 6    0  0.2839294E+002  0.1514072E+03  0.7546771E-02  0.1198754E+00
         21   -1    0    0  503  502  0.00000000000E+00  0.00000000000E+00  0.56356306056E+03  0.56356306056E+03  0.00000000000E+00 0. -1.
          2   -1    0    0  505    0 -0.00000000000E+00 -0.00000000000E+00 -0.80858491699E+02  0.80858491699E+02  0.00000000000E+00 0.  1.
         21    1    1    2  503  504 -0.27798722565E+02 -0.28114023239E+02  0.18039189163E+03  0.18467377140E+03  0.00000000000E+00 0. -1.
         21    1    1    2  504  501  0.38104775598E+01  0.34488141715E+02  0.90951713294E+01  0.35870235568E+02  0.00000000000E+00 0.  1.
         21    1    1    2  505  502  0.10966117972E+03 -0.87427396427E+02  0.26916559813E+03  0.30351152070E+03  0.00000000000E+00 0. -1.
          2    1    1    2  501    0 -0.85672934710E+02  0.81053277951E+02  0.24051907783E+02  0.12036602459E+03  0.00000000000E+00 0.  1.
<scales pt_clust_3="39.53691" pt_clust_4="30.96829" pt_clust_5="140.22974" pt_clust_6="30.96829"></scales>
<clustering>
<clus scale="   30.968">  4  6 -1 -1</clus>
<clus scale="   39.537">  1  3  2 -1</clus>
<clus scale="  140.230">  1  5  2 -1</clus>
<clus scale="   39.537">  1  3  2 -1</clus>
</clustering>
</event>
<event>
 6    0  0.2839294E+002  0.2986864E+03  0.7546771E-02  0.1085899E+00
          2   -1    0    0  505    0 -0.00000000000E+00  0.00000000000E+00  0.64882277205E+03  0.64882277205E+03  0.00000000000E+00 0. -1.
         21   -1    0    0  501  502  0.00000000000E+00 -0.00000000000E+00 -0.14981954387E+04  0.14981954387E+04  0.00000000000E+00 0. -1.
         21    1    1    2  503  502 -0.54469655781E+02  0.13267801939E+02 -0.25584213355E+03  0.26191253362E+03  0.00000000000E+00 0.  1.
         21    1    1    2  504  503 -0.19261334590E+03 -0.16653632936E+03 -0.11724794465E+04  0.11998092775E+04  0.00000000000E+00 0. -1.
         21    1    1    2  505  504  0.15987030039E+03  0.33876026774E+02  0.11896896170E+03  0.20213785391E+03  0.00000000000E+00 0.  1.
          2    1    1    2  501    0  0.87212701294E+02  0.11939250065E+03  0.45997995160E+03  0.48315854577E+03  0.00000000000E+00 0. -1.
<scales pt_clust_3="51.37325" pt_clust_4="51.37325" pt_clust_5="277.89689" pt_clust_6="147.85339"></scales>
<clustering>
<clus scale="   51.373">  3  4 -1 -1</clus>
<clus scale="  147.853">  1  6  2 -1</clus>
<clus scale="  277.897">  1  5  2 -1</clus>
<clus scale="  298.686">  2  3  1 -1</clus>
</clustering>
</event>
<event>
 6    0  0.2839294E+002  0.1010031E+03  0.7546771E-02  0.1278201E+00
         21   -1    0    0  503  502  0.00000000000E+00  0.00000000000E+00  0.58505970183E+03  0.58505970183E+03  0.00000000000E+00 0.  1.
          2   -1    0    0  505    0 -0.00000000000E+00 -0.00000000000E+00 -0.88624679181E+03  0.88624679181E+03  0.00000000000E+00 0.  1.
         21    1    1    2  503  504 -0.41957077218E+02 -0.11598985405E+02  0.22015851640E+03  0.22442082153E+03  0.00000000000E+00 0.  1.
         21    1    1    2  504  501 -0.27271712735E+02  0.11625889685E+03 -0.36827275684E+03  0.38714945544E+03  0.00000000000E+00 0.  1.
         21    1    1    2  505  502  0.88560275335E+02 -0.77254779474E+02  0.34297765617E+03  0.36255330084E+03  0.00000000000E+00 0.  1.
          2    1    1    2  501    0 -0.19331485382E+02 -0.27405131975E+02 -0.49605050570E+03  0.49718291583E+03  0.00000000000E+00 0.  1.
<scales pt_clust_3="43.67284" pt_clust_4="14000.00000" pt_clust_5="101.00311" pt_clust_6="33.53726"></scales>
<clustering>
<clus scale="   33.537">  2  6  1 -1</clus>
<clus scale="   43.673">  1  3  2 -1</clus>
<clus scale="  101.003">  1  5  2 -1</clus>
<clus scale="   43.673">  1  3  2 -1</clus>
</clustering>
</event>
<event>
 6    0  0.2839294E+002  0.6999159E+02  0.7546771E-02  0.1360122E+00
          2   -1    0    0  505    0 -0.00000000000E+00  0.00000000000E+00  0.25976427665E+03  0.25976427665E+03  0.00000000000E+00 0. -1.
         21   -1    0    0  503  502  0.00000000000E+00 -0.00000000000E+00 -0.16650316964E+03  0.16650316964E+03  0.00000000000E+00 0. -1.
         21    1    1    2  503  501 -0.42415403892E+02 -0.12651487012E+02  0.53553621373E+01  0.44584823815E+02  0.00000000000E+00 0. -1.
         21    1    1    2  504  502  0.41842464842E+02 -0.20847708015E+02 -0.74869214691E+02  0.88265611095E+02  0.00000000000E+00 0. -1.
         21    1    1    2  505  504  0.28769669466E+01  0.10035931465E+03 -0.16789830819E+02  0.10179473167E+03  0.00000000000E+00 0. -1.
          2    1    1    2  501    0 -0.23040278970E+01 -0.66860119624E+02  0.17956479038E+03  0.19162227972E+03  0.00000000000E+00 0. -1.
<scales pt_clust_3="44.26202" pt_clust_4="33.33769" pt_clust_5="14000.00000" pt_clust_6="69.99159"></scales>
<clustering>
<clus scale="   44.262">  2  3  1 -1</clus>
<clus scale="   33.338">  2  4  1 -1</clus>
<clus scale="   69.992">  1  6  2 -1</clus>
<clus scale="   44.262">  2  3  1 -1</clus>
</clustering>
</event>
<event>
 6    0  0.2839294E+002  0.1721951E+03  0.7546771E-02  0.1175578E+00
          2   -1    0    0  505    0 -0.00000000000E+00  0.00000000000E+00  0.16238352735E+04  0.16238352735E+04  0.00000000000E+00 0.  1.
         21   -1    0    0  504  502  0.00000000000E+00 -0.00000000000E+00 -0.14314367012E+03  0.14314367012E+03  0.00000000000E+00 0. -1.
         21    1    1    2  503  501 -0.69648841865E+02 -0.66421037597E+02  0.91725042174E+03  0.92228577545E+03  0.00000000000E+00 0.  1.
         21    1    1    2  504  503  0.19470110590E+03 -0.60540169729E+00  0.36991761421E+02  0.19818495797E+03  0.00000000000E+00 0. -1.
         21    1    1    2  505  502 -0.13091957143E+03  0.10958104399E+03  0.64405904185E+02  0.18247207972E+03  0.00000000000E+00 0. -1.
          2    1    1    2  501    0  0.58673073943E+01 -0.42554604691E+02  0.46204351600E+03  0.46403613044E+03  0.00000000000E+00 0.  1.
<scales pt_clust_3="39.48439" pt_clust_4="14000.00000" pt_clust_5="172.19509" pt_clust_6="139.41542"></scales>
<clustering>
<clus scale="   39.484">  3  6 -1 -1</clus>
<clus scale="  139.415">  1  3  2 -1</clus>
<clus scale="  172.195">  1  5  2 -1</clus>
<clus scale="  172.195">  2  3  1 -1</clus>
</clustering>
</event>
<event>
 6    0  0.2839294E+002  0.1780493E+03  0.7546771E-02  0.1169704E+00
          2   -1    0    0  503    0 -0.00000000000E+00  0.00000000000E+00  0.61712230683E+02  0.61712230683E+02  0.00000000000E+00 0. -1.
         21   -1    0    0  504  502  0.00000000000E+00 -0.00000000000E+00 -0.75228647697E+03  0.75228647697E+03  0.00000000000E+00 0. -1.
         21    1    1    2  503  502 -0.33654621479E+02 -0.14874959922E+02 -0.12947487975E+03  0.13460179221E+03  0.00000000000E+00 0.  1.
         21    1    1    2  504  505 -0.14192214053E+02  0.17477147338E+03 -0.41443253822E+03  0.45000090621E+03  0.00000000000E+00 0. -1.
         21    1    1    2  505  501  0.12271092271E+02 -0.41036496760E+02 -0.84423278661E+01  0.43656003845E+02  0.00000000000E+00 0.  1.
          2    1    1    2  501    0  0.35575743261E+02 -0.11886001670E+03 -0.13822450045E+03  0.18574000539E+03  0.00000000000E+00 0. -1.
<scales pt_clust_3="36.79535" pt_clust_4="168.66061" pt_clust_5="33.52251" pt_clust_6="33.52251"></scales>
<clustering>
<clus scale="   33.523">  5  6 -1 -1</clus>
<clus scale="   36.795">  2  3  1 -1</clus>
<clus scale="  168.661">  2  4  1 -1</clus>
<clus scale="   36.795">  2  3  1 -1</clus>
</clustering>
</event>
<event>
 6    0  0.2839294E+002  0.9465810E+02  0.7546771E-02  0.1291948E+00
          2   -1    0    0  503    0 -0.00000000000E+00  0.00000000000E+00  0.15047791345E+04  0.15047791345E+04  0.00000000000E+00 0.  1.
         21   -1    0    0  501  502  0.00000000000E+00 -0.00000000000E+00 -0.97126507449E+02  0.97126507449E+02  0.00000000000E+00 0.  1.
         21    1    1    2  503  505 -0.28580572311E+02  0.21105415450E+02  0.87094873985E+02  0.94062770262E+02  0.00000000000E+00 0. -1.
         21    1    1    2  504  502  0.42923987288E+02 -0.84662786543E+02 -0.64543699960E+02  0.11478739179E+03  0.00000000000E+00 0.  1.
         21    1    1    2  505  504  0.43774260930E+02  0.10384019903E+01  0.19312687503E+03  0.19802841730E+03  0.00000000000E+00 0.  1.
          2    1    1    2  501    0 -0.58117675907E+02  0.62518969102E+02  0.11919745780E+04  0.11950270626E+04  0.00000000000E+00 0.  1.
<scales pt_clust_3="35.52869" pt_clust_4="14000.00000" pt_clust_5="40.01783" pt_clust_6="94.65810"></scales>
<clustering>
<clus scale="   35.529">  1  3  2 -1</clus>
<clus scale="   40.018">  1  5  2 -1</clus>
<clus scale="   94.658">  1  6  2 -1</clus>
<clus scale="   94.658">  2  3  1 -1</clus>
</clustering>
</event>
<event>
 6    0  0.2839294E+002  0.6301105E+02  0.7546771E-02  0.1385613E+00
         21   -1    0    0  505  502  0.00000000000E+00  0.00000000000E+00  0.19333861086E+03  0.19333861086E+03  0.00000000000E+00 0. -1.
          2   -1    0    0  503    0 -0.00000000000E+00 -0.00000000000E+00 -0.14679589368E+04  0.14679589368E+04  0.00000000000E+00 0. -1.
         21    1    1    2  503  504  0.26986362783E+02  0.20492160804E+02 -0.21840826973E+03  0.22102118612E+03  0.00000000000E+00 0. -1.
         21    1    1    2  504  502 -0.60482165950E+02 -0.78310564956E+01  0.15114207456E+03  0.16298265106E+03  0.00000000000E+00 0. -1.
         21    1    1    2  505  501  0.92367814727E+02 -0.38577437197E+02 -0.39408574894E+02  0.10757819311E+03  0.00000000000E+00 0. -1.
          2    1    1    2  501    0 -0.58872011560E+02  0.25916332889E+02 -0.11679455559E+04  0.11697155173E+04  0.00000000000E+00 0. -1.
<scales pt_clust_3="33.88499" pt_clust_4="14000.00000" pt_clust_5="63.01105" pt_clust_6="56.24563"></scales>
<clustering>
<clus scale="   33.885">  2  3  1 -1</clus>
<clus scale="   56.246">  2  6  1 -1</clus>
<clus scale="   63.011">  2  5  1 -1</clus>
<clus scale="   63.011">  1  3  2 -1</clus>
</clustering>
</event>
<event>
 6    0  0.2839294E+002  0.1807181E+03  0.7546771E-02  0.1167110E+00
          1   -1    0    0  503    0 -0.00000000000E+00  0.00000000000E+00  0.13247136133E+04  0.13247136133E+04  0.00000000000E+00 0.  1.
         21   -1    0    0  505  502  0.00000000000E+00 -0.00000000000E+00 -0.42106429503E+03  0.42106429503E+03  0.00000000000E+00 0. -1.
         21    1    1    2  503  504 -0.48274710224E+02 -0.12691954626E+02  0.23270751389E+03  0.23800067307E+03  0.00000000000E+00 0.  1.
         21    1    1    2  504  502 -0.42805146725E+02 -0.17609477695E+03 -0.34049904169E+03  0.38572172410E+03  0.00000000000E+00 0. -1.
         21    1    1    2  505  501  0.66037030729E+02  0.16634813060E+03  0.90600939991E+02  0.20060189508E+03  0.00000000000E+00 0.  1.
          1    1    1    2  501    0  0.25042826219E+02  0.22438600975E+02  0.92083990610E+03  0.92145361610E+03  0.00000000000E+00 0.  1.
<scales pt_clust_3="33.67242" pt_clust_4="180.71814" pt_clust_5="14000.00000" pt_clust_6="33.62490"></scales>
<clustering>
<clus scale="   33.625">  1  6  2 -1</clus>
<clus scale="   33.672">  1  3  2 -1</clus>
<clus scale="  180.718">  2  4  1 -1</clus>
<clus scale="  180.718">  2  3  1 -1</clus>
</clustering>
</event>
<event>
 6    0  0.2839294E+002  0.1630898E+03  0.7546771E-02  0.1185252E+00
         21   -1    0    0  504  502  0.00000000000E+00  0.00000000000E+00  0.52700661206E+02  0.52700661206E+02  0.00000000000E+00 0.  1.
         -1   -1    0    0    0  501 -0.00000000000E+00 -0.00000000000E+00 -0.14691277767E+04  0.14691277767E+04  0.00000000000E+00 0.  1.
         21    1    1    2  503  505 -0.59507410012E+02  0.27593418302E+02 -0.39610107510E+03  0.40149544240E+03  0.00000000000E+00 0.  1.
         21    1    1    2  504  501  0.24389763827E+02  0.72749959134E+02 -0.86696756855E+02  0.11577454290E+03  0.00000000000E+00 0.  1.
         21    1    1    2  505  502  0.84080599937E+02 -0.17782904510E+03 -0.26687957686E+03  0.33153796934E+03  0.00000000000E+00 0.  1.
         -1    1    1    2    0  503 -0.48962953752E+02  0.77485667668E+02 -0.66674970670E+03  0.67302048328E+03  0.00000000000E+00 0.  1.
<scales pt_clust_3="38.99857" pt_clust_4="76.72951" pt_clust_5="156.43854" pt_clust_6="38.99857"></scales>
<clustering>
<clus scale="   38.999">  3  6 -1 -1</clus>
<clus scale="   76.730">  1  4  2 -1</clus>
<clus scale="  156.439">  1  5  2 -1</clus>
<clus scale="   76.730">  1  3  2 -1</clus>
</clustering>
</event>
<event>
 6    0  0.2839294E+002  0.8064404E+02  0.7546771E-02  0.1327234E+00
         21   -1    0    0  503  502  0.00000000000E+00  0.00000000000E+00  0.26013516682E+02  0.26013516682E+02  0.00000000000E+00 0.  1.
          1   -1    0    0  505    0 -0.00000000000E+00 -0.00000000000E+00 -0.19205512641E+04  0.19205512641E+04  0.00000000000E+00 0.  1.
         21    1    1    2  503  501  0.12128678740E+02 -0.33167301519E+02 -0.20694896703E+02  0.40932303717E+02  0.00000000000E+00 0.  1.
         21    1    1    2  504  502  0.75685276009E+02  0.12806781585E+02 -0.10976360498E+03  0.13394149333E+03  0.00000000000E+00 0.  1.
         21    1    1    2  505  504 -0.51942210725E+02 -0.48769787182E+02 -0.48080208115E+03  0.48605259657E+03  0.00000000000E+00 0. -1.
          1    1    1    2  501    0 -0.35871744023E+02  0.69130307116E+02 -0.12832771646E+04  0.12856383871E+04  0.00000000000E+00 0.  1.
<scales pt_clust_3="35.31536" pt_clust_4="14000.00000" pt_clust_5="73.73419" pt_clust_6="80.64404"></scales>
<clustering>
<clus scale="   35.315">  1  3  2 -1</clus>
<clus scale="   73.734">  2  5  1 -1</clus>
<clus scale="   80.644">  2  6  1 -1</clus>
<clus scale="   35.315">  1  3  2 -1</clus>
</clustering>
</event>
<event>
 6    0  0.2839294E+002  0.1344611E+03  0.7546771E-02  0.1220982E+00
          2   -1    0    0  505    0 -0.00000000000E+00  0.00000000000E+00  0.33488273686E+03  0.33488273686E+03  0.00000000000E+00 0. -1.
         21   -1    0    0  504  502  0.00000000000E+00 -0.00000000000E+00 -0.32157041302E+03  0.32157041302E+03  0.00000000000E+00 0. -1.
         21    1    1    2  503  502 -0.65141278014E+01 -0.42530450881E+02 -0.82163703281E+02  0.92747761429E+02  0.00000000000E+00 0.  1.
         21    1    1    2  504  501 -0.75658725874E+02  0.13903099984E+03 -0.12417464512E+03  0.20117953228E+03  0.00000000000E+00 0. -1.
         21    1    1    2  505  503 -0.80764474569E+02 -0.72099812916E+02  0.32176556800E+02  0.11294518220E+03  0.00000000000E+00 0. -1.
          2    1    1    2  501    0  0.16293732824E+03 -0.24400736044E+02  0.18747411545E+03  0.24958067397E+03  0.00000000000E+00 0. -1.
<scales pt_clust_3="43.02642" pt_clust_4="14000.00000" pt_clust_5="114.08674" pt_clust_6="134.46108"></scales>
<clustering>
<clus scale="   43.026">  2  3  1 -1</clus>
<clus scale="  114.087">  1  5  2 -1</clus>
<clus scale="  134.461">  1  6  2 -1</clus>
<clus scale="   43.026">  2  3  1 -1</clus>
</clustering>
</event>
<event>
 6    0  0.2839294E+002  0.1429365E+03  0.7546771E-02  0.1209431E+00
         -2   -1    0    0    0  501 -0.00000000000E+00  0.00000000000E+00  0.75464803052E+03  0.75464803052E+03  0.00000000000E+00 0. -1.
         21   -1    0    0  504  502  0.00000000000E+00 -0.00000000000E+00 -0.84941306282E+03  0.84941306282E+03  0.00000000000E+00 0.  1.
         21    1    1    2  503  501 -0.33099108341E+02 -0.19301330310E+02  0.13066055168E+03  0.13616266776E+03  0.00000000000E+00 0.  1.
         21    1    1    2  504  503  0.11048659625E+03  0.80674850580E+01 -0.10832918842E+03  0.15494381346E+03  0.00000000000E+00 0. -1.
         21    1    1    2  505  502 -0.14097639055E+03 -0.70059189373E+02 -0.70178577400E+03  0.71922590700E+03  0.00000000000E+00 0.  1.
         -2    1    1    2    0  505  0.63588902642E+02  0.81293034625E+02  0.58468937844E+03  0.59372870512E+03  0.00000000000E+00 0. -1.
<scales pt_clust_3="38.31569" pt_clust_4="14000.00000" pt_clust_5="142.93648" pt_clust_6="70.73845"></scales>
<clustering>
<clus scale="   38.316">  1  3  2 -1</clus>
<clus scale="   70.738">  1  6  2 -1</clus>
<clus scale="  142.936">  2  5  1 -1</clus>
<clus scale="  142.936">  2  3  1 -1</clus>
</clustering>
</event>
<event>
 6    0  0.2839294E+002  0.1101957E+03  0.7546771E-02  0.1260208E+00
          2   -1    0    0  503    0 -0.00000000000E+00  0.00000000000E+00  0.14989512949E+04  0.14989512949E+04  0.00000000000E+00 0.  1.
         21   -1    0    0  505  502  0.00000000000E+00 -0.00000000000E+00 -0.74916815276E+03  0.74916815276E+03  0.00000000000E+00 0.  1.
         21    1    1    2  503  504  0.16418396654E+02 -0.35663384154E+02  0.32565996348E+03  0.32801806738E+03  0.00000000000E+00 0.  1.
         21    1    1    2  504  502  0.18946331117E+02 -0.24948333913E+02 -0.10230963913E+03  0.10699834151E+03  0.00000000000E+00 0.  1.
         21    1    1    2  505  501  0.59537656741E+01  0.13241226544E+03 -0.63501704293E+03  0.64870262847E+03  0.00000000000E+00 0.  1.
          2    1    1    2  501    0 -0.41318493445E+02 -0.71800547375E+02  0.11614498607E+04  0.11644004103E+04  0.00000000000E+00 0.  1.
<scales pt_clust_3="39.31714" pt_clust_4="31.32703" pt_clust_5="110.19569" pt_clust_6="14000.00000"></scales>
<clustering>
<clus scale="   31.327">  2  4  1 -1</clus>
<clus scale="   39.317">  1  3  2 -1</clus>
<clus scale="  110.196">  2  5  1 -1</clus>
<clus scale="   31.327">  2  3  1 -1</clus>
</clustering>
</event>
<event>
 6    0  0.2839294E+002  0.1184548E+03  0.7546771E-02  0.1245668E+00
         21   -1    0    0  501  502  0.00000000000E+00  0.00000000000E+00  0.19945191063E+03  0.19945191063E+03  0.00000000000E+00 0. -1.
          1   -1    0    0  505    0 -0.00000000000E+00 -0.00000000000E+00 -0.15925785446E+04  0.15925785446E+04  0.00000000000E+00 0.  1.
         21    1    1    2  503  504  0.12422380153E+03 -0.14889210974E+03 -0.55972761043E+02  0.20182508067E+03  0.00000000000E+00 0. -1.
         21    1    1    2  504  502 -0.38566911097E+02  0.71808109115E+02  0.10895240321E+03  0.13606776742E+03  0.00000000000E+00 0. -1.
         21    1    1    2  505  503 -0.34710331250E+02 -0.21847892413E+02 -0.43308643865E+03  0.43502413823E+03  0.00000000000E+00 0.  1.
          1    1    1    2  501    0 -0.50946559185E+02  0.98931893034E+02 -0.10130198375E+04  0.10191134689E+04  0.00000000000E+00 0.  1.
<scales pt_clust_3="118.45485" pt_clust_4="81.47794" pt_clust_5="41.01387" pt_clust_6="14000.00000"></scales>
<clustering>
<clus scale="   41.014">  2  5  1 -1</clus>
<clus scale="   81.478">  1  4  2 -1</clus>
<clus scale="  118.455">  1  3  2 -1</clus>
<clus scale="   81.478">  1  3  2 -1</clus>
</clustering>
</event>
<event>
 6    0  0.2839294E+002  0.1210396E+03  0.7546771E-02  0.1241392E+00
         21   -1    0    0  505  502  0.00000000000E+00  0.00000000000E+00  0.33128799381E+03  0.33128799381E+03  0.00000000000E+00 0.  1.
          1   -1    0    0  504    0 -0.00000000000E+00 -0.00000000000E+00 -0.24282699147E+04  0.24282699147E+04  0.00000000000E+00 0.  1.
         21    1    1    2  503  501 -0.68810532144E+02  0.82472837954E+01 -0.26033190412E+03  0.26939860305E+03  0.00000000000E+00 0.  1.
         21    1    1    2  504  502  0.96111555730E+01  0.30942959358E+02  0.20193852037E+02  0.38178956316E+02  0.00000000000E+00 0.  1.
         21    1    1    2  505  503  0.11421356775E+03 -0.77620002748E+01  0.28607260022E+03  0.30812744166E+03  0.00000000000E+00 0.  1.
          1    1    1    2  501    0 -0.55014191176E+02 -0.31428242878E+02 -0.21429164691E+04  0.21438529075E+04  0.00000000000E+00 0.  1.
<scales pt_clust_3="121.03960" pt_clust_4="32.40125" pt_clust_5="14000.00000" pt_clust_6="63.32176"></scales>
<clustering>
<clus scale="   32.401">  1  4  2 -1</clus>
<clus scale="   63.322">  2  6  1 -1</clus>
<clus scale="  121.040">  2  3  1 -1</clus>
<clus scale="   32.401">  1  3  2 -1</clus>
</clustering>
</event>
<event>
 6    0  0.2839294E+002  0.8042151E+02  0.7546771E-02  0.1327859E+00
          2   -1    0    0  505    0 -0.00000000000E+00  0.00000000000E+00  0.18616371596E+04  0.18616371596E+04  0.00000000000E+00 0. -1.
         21   -1    0    0  503  502  0.00000000000E+00 -0.00000000000E+00 -0.23932914542E+02  0.23932914542E+02  0.00000000000E+00 0. -1.
         21    1    1    2  503  504 -0.19439181043E+01  0.57109086794E+02  0.15758906403E+03  0.16762917322E+03  0.00000000000E+00 0. -1.
         21    1    1    2  504  501  0.72595047430E+02  0.42827039493E+02  0.11721374464E+03  0.14437194379E+03  0.00000000000E+00 0. -1.
         21    1    1    2  505  502  0.43611999674E+01 -0.71663559245E+02  0.31426441153E+03  0.32236129753E+03  0.00000000000E+00 0. -1.
          2    1    1    2  501    0 -0.75012329293E+02 -0.28272567042E+02  0.12486370248E+04  0.12512076596E+04  0.00000000000E+00 0. -1.
<scales pt_clust_3="57.14216" pt_clust_4="14000.00000" pt_clust_5="59.56970" pt_clust_6="80.42151"></scales>
<clustering>
<clus scale="   57.142">  2  3  1 -1</clus>
<clus scale="   59.570">  2  5  1 -1</clus>
<clus scale="   80.422">  1  6  2 -1</clus>
<clus scale="   57.142">  2  3  1 -1</clus>
</clustering>
</event>
<event>
 6    0  0.2839294E+002  0.1615405E+03  0.7546771E-02  0.1186968E+00
          3   -1    0    0  503    0 -0.00000000000E+00  0.00000000000E+00  0.40382990972E+03  0.40382990972E+03  0.00000000000E+00 0. -1.
         21   -1    0    0  504  502  0.00000000000E+00 -0.00000000000E+00 -0.66682340753E+03  0.66682340753E+03  0.00000000000E+00 0. -1.
         21    1    1    2  503  502  0.17317618442E+03  0.41528555853E+02 -0.19426510467E+03  0.26354040050E+03  0.00000000000E+00 0. -1.
         21    1    1    2  504  505 -0.23937602692E+02 -0.24074753157E+02 -0.41991706823E+03  0.42128724970E+03  0.00000000000E+00 0. -1.
         21    1    1    2  505  501 -0.39391597569E+02  0.19213997736E+02  0.10380787292E+03  0.11268074436E+03  0.00000000000E+00 0. -1.
          3    1    1    2  501    0 -0.10984698416E+03 -0.36667800431E+02  0.24738080217E+03  0.27314492271E+03  0.00000000000E+00 0. -1.
<scales pt_clust_3="152.13201" pt_clust_4="33.95000" pt_clust_5="33.42009" pt_clust_6="33.42009"></scales>
<clustering>
<clus scale="   33.420">  5  6 -1 -1</clus>
<clus scale="   33.950">  2  4  1 -1</clus>
<clus scale="  152.132">  2  3  1 -1</clus>
<clus scale="   33.950">  2  3  1 -1</clus>
</clustering>
</event>
<event>
 6    0  0.2839294E+002  0.1163261E+03  0.7546771E-02  0.1249284E+00
          2   -1    0    0  503    0 -0.00000000000E+00  0.00000000000E+00  0.29864623515E+04  0.29864623515E+04  0.00000000000E+00 0.  1.
         21   -1    0    0  505  502  0.00000000000E+00 -0.00000000000E+00 -0.19876103521E+03  0.19876103521E+03  0.00000000000E+00 0.  1.
         21    1    1    2  503  504  0.35684172674E+02  0.19877474277E+02  0.22302629482E+03  0.22673597497E+03  0.00000000000E+00 0.  1.
         21    1    1    2  504  502 -0.40940418388E+02 -0.12722720859E+03 -0.10207176194E+03  0.16817111836E+03  0.00000000000E+00 0.  1.
         21    1    1    2  505  501 -0.78712709895E+02  0.95625650370E+02  0.16442231652E+01  0.12386548824E+03  0.00000000000E+00 0.  1.
          2    1    1    2  501    0  0.83968955610E+02  0.11724083942E+02  0.26651025603E+04  0.26664508052E+04  0.00000000000E+00 0.  1.
<scales pt_clust_3="40.84696" pt_clust_4="116.32611" pt_clust_5="14000.00000" pt_clust_6="122.38343"></scales>
<clustering>
<clus scale="   40.847">  1  3  2 -1</clus>
<clus scale="  122.383">  1  6  2 -1</clus>
<clus scale="  116.326">  2  4  1 -1</clus>
<clus scale="  116.326">  2  3  1 -1</clus>
</clustering>
</event>
<event>
 6    0  0.2839294E+002  0.2501137E+03  0.7546771E-02  0.1113233E+00
         21   -1    0    0  504  502  0.00000000000E+00  0.00000000000E+00  0.52435639202E+03  0.52435639202E+03  0.00000000000E+00 0.  1.
         -3   -1    0    0    0  501 -0.00000000000E+00 -0.00000000000E+00 -0.38570198521E+03  0.38570198521E+03  0.00000000000E+00 0. -1.
         21    1    1    2  503  501 -0.15490672741E+03  0.13732549967E+03 -0.26125778548E+03  0.33333169296E+03  0.00000000000E+00 0. -1.
         21    1    1    2  504  503  0.16761585403E+03 -0.22983326206E+03  0.36151523235E+03  0.46001268036E+03  0.00000000000E+00 0.  1.
         21    1    1    2  505  502  0.10611973910E+02  0.49393714706E+02  0.44491874228E+02  0.67319238819E+02  0.00000000000E+00 0.  1.
         -3    1    1    2    0  505 -0.23321100531E+02  0.43114047684E+02 -0.60949142904E+01  0.49394765086E+02  0.00000000000E+00 0. -1.
<scales pt_clust_3="250.11372" pt_clust_4="14000.00000" pt_clust_5="51.71865" pt_clust_6="49.01729"></scales>
<clustering>
<clus scale="   49.017">  2  6  1 -1</clus>
<clus scale="   51.719">  1  5  2 -1</clus>
<clus scale="  250.114">  2  3  1 -1</clus>
<clus scale="   51.719">  1  3  2 -1</clus>
</clustering>
</event>
<event>
 6    0  0.2839294E+002  0.1400679E+03  0.7546771E-02  0.1213238E+00
         21   -1    0    0  503  502  0.00000000000E+00  0.00000000000E+00  0.95468540339E+03  0.95468540339E+03  0.00000000000E+00 0.  1.
          1   -1    0    0  504    0 -0.00000000000E+00 -0.00000000000E+00 -0.32265234196E+04  0.32265234196E+04  0.00000000000E+00 0.  1.
         21    1    1    2  503  505  0.63553809971E+01  0.33780889787E+02  0.93007071989E+03  0.93070569107E+03  0.00000000000E+00 0.  1.
         21    1    1    2  504  502 -0.57792841469E+02  0.19455141734E+02 -0.93912051342E+03  0.94109821687E+03  0.00000000000E+00 0.  1.
         21    1    1    2  505  501  0.10301073722E+03  0.63686031688E+02 -0.15014657564E+03  0.19290183201E+03  0.00000000000E+00 0.  1.
          1    1    1    2  501    0 -0.51573276747E+02 -0.11692206321E+03 -0.21126416471E+04  0.21165030831E+04  0.00000000000E+00 0.  1.
<scales pt_clust_3="34.37353" pt_clust_4="61.18881" pt_clust_5="140.06795" pt_clust_6="14000.00000"></scales>
<clustering>
<clus scale="   34.374">  1  3  2 -1</clus>
<clus scale="   61.189">  2  4  1 -1</clus>
<clus scale="  140.068">  1  5  2 -1</clus>
<clus scale="   34.374">  1  3  2 -1</clus>
</clustering>
</event>
<event>
 6    0  0.2839294E+002  0.1612136E+03  0.7546771E-02  0.1187333E+00
          2   -1    0    0  505    0 -0.00000000000E+00  0.00000000000E+00  0.58188473751E+03  0.58188473751E+03  0.00000000000E+00 0.  1.
         21   -1    0    0  504  502  0.00000000000E+00 -0.00000000000E+00 -0.44597831834E+03  0.44597831834E+03  0.00000000000E+00 0.  1.
         21    1    1    2  503  502 -0.12674098033E+03 -0.13479328301E+03 -0.83831079551E+02  0.20312595880E+03  0.00000000000E+00 0.  1.
         21    1    1    2  504  501 -0.31519882573E+02  0.95810407881E+02 -0.27327140817E+03  0.29129091949E+03  0.00000000000E+00 0.  1.
         21    1    1    2  505  503  0.22293957070E+02 -0.33004426004E+02  0.46769047947E+02  0.61430094445E+02  0.00000000000E+00 0.  1.
          2    1    1    2  501    0  0.13596690584E+03  0.71987301137E+02  0.44623985895E+03  0.47201608311E+03  0.00000000000E+00 0.  1.
<scales pt_clust_3="14000.00000" pt_clust_4="100.20801" pt_clust_5="39.82854" pt_clust_6="161.21356"></scales>
<clustering>
<clus scale="   39.829">  1  5  2 -1</clus>
<clus scale="  100.208">  2  4  1 -1</clus>
<clus scale="  161.214">  1  6  2 -1</clus>
<clus scale="  100.208">  2  3  1 -1</clus>
</clustering>
</event>
<event>
 6    0  0.2839294E+002  0.8645795E+02  0.7546771E-02  0.1311663E+00
         21   -1    0    0  503  502  0.00000000000E+00  0.00000000000E+00  0.10743650660E+04  0.10743650660E+04  0.00000000000E+00 0.  1.
          4   -1    0    0  504    0 -0.00000000000E+00 -0.00000000000E+00 -0.15953819851E+03  0.15953819851E+03  0.00000000000E+00 0.  1.
         21    1    1    2  503  501 -0.70916292427E+02  0.12110214841E+03  0.83041252502E+03  0.84218751629E+03  0.00000000000E+00 0.  1.
         21    1    1    2  504  505  0.17804078349E+02 -0.49969855327E+02  0.15741991810E+02  0.55333371065E+02  0.00000000000E+00 0.  1.
         21    1    1    2  505  502  0.19551149949E+02 -0.43424497508E+02  0.19606244723E+03  0.20176327134E+03  0.00000000000E+00 0.  1.
          4    1    1    2  501    0  0.33561064129E+02 -0.27707795571E+02 -0.12739009655E+03  0.13461910585E+03  0.00000000000E+00 0.  1.
<scales pt_clust_3="14000.00000" pt_clust_4="86.45795" pt_clust_5="51.55892" pt_clust_6="43.52088"></scales>
<clustering>
<clus scale="   43.521">  2  6  1 -1</clus>
<clus scale="   51.559">  1  5  2 -1</clus>
<clus scale="   86.458">  2  4  1 -1</clus>
<clus scale="   51.559">  1  3  2 -1</clus>
</clustering>
</event>
<event>
 6    0  0.2839294E+002  0.8990038E+02  0.7546771E-02  0.1303093E+00
         21   -1    0    0  504  502  0.00000000000E+00  0.00000000000E+00  0.20539741148E+03  0.20539741148E+03  0.00000000000E+00 0.  1.
          2   -1    0    0  503    0 -0.00000000000E+00 -0.00000000000E+00 -0.10581886343E+04  0.10581886343E+04  0.00000000000E+00 0.  1.
         21    1    1    2  503  505  0.11319881836E+02  0.38780547029E+02 -0.43126040436E+02  0.59092519970E+02  0.00000000000E+00 0.  1.
         21    1    1    2  504  501 -0.33373379869E+02 -0.12161195734E+03  0.15498081570E+03  0.19980566530E+03  0.00000000000E+00 0.  1.
         21    1    1    2  505  502  0.31725337577E+01  0.37360405184E+02  0.12714421921E+01  0.37516415224E+02  0.00000000000E+00 0.  1.
          2    1    1    2  501    0  0.18880964275E+02  0.45471005124E+02 -0.96591744031E+03  0.96717144530E+03  0.00000000000E+00 0.  1.
<scales pt_clust_3="41.97752" pt_clust_4="14000.00000" pt_clust_5="37.49486" pt_clust_6="89.90038"></scales>
<clustering>
<clus scale="   37.495">  1  5  2 -1</clus>
<clus scale="   41.978">  2  3  1 -1</clus>
<clus scale="   89.900">  2  6  1 -1</clus>
<clus scale="   37.495">  1  3  2 -1</clus>
</clustering>
</event>
<event>
 6    0  0.2839294E+002  0.1259420E+03  0.7546771E-02  0.1233604E+00
          2   -1    0    0  505    0 -0.00000000000E+00  0.00000000000E+00  0.29419787761E+04  0.29419787761E+04  0.00000000000E+00 0.  1.
         21   -1    0    0  504  502  0.00000000000E+00 -0.00000000000E+00 -0.44159977214E+03  0.44159977214E+03  0.00000000000E+00 0. -1.
         21    1    1    2  503  502 -0.18673987153E+02  0.52908888027E+02 -0.41485312444E+03  0.41863012683E+03  0.00000000000E+00 0. -1.
         21    1    1    2  504  501 -0.52079254578E+02 -0.15836201330E+03  0.28625616029E+03  0.33126026824E+03  0.00000000000E+00 0. -1.
         21    1    1    2  505  503  0.42138314290E+02  0.29693178858E+02  0.40902978060E+03  0.41226530756E+03  0.00000000000E+00 0. -1.
          2    1    1    2  501    0  0.28614927441E+02  0.75759946418E+02  0.22199461876E+04  0.22214228457E+04  0.00000000000E+00 0.  1.
<scales pt_clust_3="56.11809" pt_clust_4="14000.00000" pt_clust_5="51.54922" pt_clust_6="125.94204"></scales>
<clustering>
<clus scale="   51.549">  1  5  2 -1</clus>
<clus scale="   56.118">  2  3  1 -1</clus>
<clus scale="  125.942">  1  6  2 -1</clus>
<clus scale="   56.118">  2  3  1 -1</clus>
</clustering>
</event>
<event>
 6    0  0.2839294E+002  0.6860678E+02  0.7546771E-02  0.1364896E+00
          2   -1    0    0  503    0 -0.00000000000E+00  0.00000000000E+00  0.76247533031E+03  0.76247533031E+03  0.00000000000E+00 0.  1.
         21   -1    0    0  505  502  0.00000000000E+00 -0.00000000000E+00 -0.32706015190E+02  0.32706015190E+02  0.00000000000E+00 0.  1.
         21    1    1    2  503  502  0.63341489337E+02 -0.10064219260E+02  0.27965481345E+03  0.28691505270E+03  0.00000000000E+00 0.  1.
         21    1    1    2  504  501 -0.55388192551E+02 -0.33467634768E+02  0.10786822925E+03  0.12579145175E+03  0.00000000000E+00 0.  1.
         21    1    1    2  505  504  0.14517806048E+02 -0.37320984097E+02  0.12104523194E+02  0.41834698853E+02  0.00000000000E+00 0.  1.
          2    1    1    2  501    0 -0.22471102834E+02  0.80852838125E+02  0.33014174922E+03  0.34064014219E+03  0.00000000000E+00 0.  1.
<scales pt_clust_3="68.60678" pt_clust_4="14000.00000" pt_clust_5="40.04526" pt_clust_6="63.19895"></scales>
<clustering>
<clus scale="   40.045">  2  5  1 -1</clus>
<clus scale="   68.607">  1  3  2 -1</clus>
<clus scale="   63.199">  1  6  2 -1</clus>
<clus scale="   40.045">  2  3  1 -1</clus>
</clustering>
</event>
<event>
 6    0  0.2839294E+002  0.1125382E+03  0.7546771E-02  0.1255940E+00
          1   -1    0    0  504    0 -0.00000000000E+00  0.00000000000E+00  0.11729941412E+04  0.11729941412E+04  0.00000000000E+00 0.  1.
         21   -1    0    0  505  502  0.00000000000E+00 -0.00000000000E+00 -0.23352337257E+03  0.23352337257E+03  0.00000000000E+00 0. -1.
         21    1    1    2  503  502 -0.89005453951E+01 -0.14407000474E+03 -0.78541874985E+02  0.16432958377E+03  0.00000000000E+00 0. -1.
         21    1    1    2  504  503  0.12768866613E+02  0.33054102823E+02  0.11300465626E+03  0.11843002155E+03  0.00000000000E+00 0. -1.
         21    1    1    2  505  501 -0.44267901070E+02  0.90792950950E+02 -0.85428545964E+02  0.13229150945E+03  0.00000000000E+00 0. -1.
          1    1    1    2  501    0  0.40399579852E+02  0.20222950970E+02  0.99043653328E+03  0.99146639895E+03  0.00000000000E+00 0.  1.
<scales pt_clust_3="14000.00000" pt_clust_4="35.43470" pt_clust_5="112.53820" pt_clust_6="73.24033"></scales>
<clustering>
<clus scale="   35.435">  1  4  2 -1</clus>
<clus scale="   73.240">  1  6  2 -1</clus>
<clus scale="  112.538">  2  5  1 -1</clus>
<clus scale="  112.538">  2  3  1 -1</clus>
</clustering>
</event>
<event>
 6    0  0.2839294E+002  0.1369084E+03  0.7546771E-02  0.1217551E+00
          2   -1    0    0  503    0 -0.00000000000E+00  0.00000000000E+00  0.24813672413E+03  0.24813672413E+03  0.00000000000E+00 0. -1.
         21   -1    0    0  504  502  0.00000000000E+00 -0.00000000000E+00 -0.18461962327E+04  0.18461962327E+04  0.00000000000E+00 0. -1.
         21    1    1    2  503  502  0.19835628805E+02  0.33811041118E+02 -0.98282622744E+02  0.10581168463E+03  0.00000000000E+00 0. -1.
         21    1    1    2  504  505  0.28755069155E+02  0.96554285183E+02 -0.17175492886E+04  0.17205014219E+04  0.00000000000E+00 0. -1.
         21    1    1    2  505  501 -0.54497033863E+02 -0.91739574930E+02  0.10941487334E+03  0.15283223095E+03  0.00000000000E+00 0. -1.
          2    1    1    2  501    0  0.59063359027E+01 -0.38625751372E+02  0.10835752942E+03  0.11518761937E+03  0.00000000000E+00 0. -1.
<scales pt_clust_3="38.36879" pt_clust_4="136.90840" pt_clust_5="14000.00000" pt_clust_6="39.07472"></scales>
<clustering>
<clus scale="   39.075">  1  6  2 -1</clus>
<clus scale="   38.369">  2  3  1 -1</clus>
<clus scale="  136.908">  2  4  1 -1</clus>
<clus scale="   38.369">  2  3  1 -1</clus>
</clustering>
</event>
<event>
 6    0  0.2839294E+002  0.1242663E+03  0.7546771E-02  0.1236220E+00
          2   -1    0    0  503    0 -0.00000000000E+00  0.00000000000E+00  0.31850040091E+04  0.31850040091E+04  0.00000000000E+00 0.  1.
         21   -1    0    0  504  502  0.00000000000E+00 -0.00000000000E+00 -0.81173018976E+03  0.81173018976E+03  0.00000000000E+00 0.  1.
         21    1    1    2  503  505 -0.49965889914E+01 -0.49357371342E+02  0.84833622555E+03  0.84978554211E+03  0.00000000000E+00 0. -1.
         21    1    1    2  504  501  0.12694379016E+02  0.46044645336E+02 -0.70454566535E+03  0.70616276536E+03  0.00000000000E+00 0.  1.
         21    1    1    2  505  502 -0.13425360960E+03 -0.67397847184E+02 -0.48758520712E+02  0.15793636326E+03  0.00000000000E+00 0.  1.
          2    1    1    2  501    0  0.12655581958E+03  0.70710573191E+02  0.22782417798E+04  0.22828495281E+04  0.00000000000E+00 0.  1.
<scales pt_clust_3="49.28888" pt_clust_4="47.76250" pt_clust_5="14000.00000" pt_clust_6="124.26630"></scales>
<clustering>
<clus scale="   47.763">  2  4  1 -1</clus>
<clus scale="   49.289">  1  3  2 -1</clus>
<clus scale="  124.266">  1  6  2 -1</clus>
<clus scale="   47.763">  2  3  1 -1</clus>
</clustering>
</event>
<event>
 6    0  0.2839294E+002  0.9995179E+02  0.7546771E-02  0.1280397E+00
         21   -1    0    0  505  502  0.00000000000E+00  0.00000000000E+00  0.35048912528E+02  0.35048912528E+02  0.00000000000E+00 0.  1.
          1   -1    0    0  503    0 -0.00000000000E+00 -0.00000000000E+00 -0.88897134228E+03  0.88897134228E+03  0.00000000000E+00 0.  1.
         21    1    1    2  503  502  0.10317261181E+03  0.75579682387E+02 -0.28348136402E+03  0.31099607709E+03  0.00000000000E+00 0.  1.
         21    1    1    2  504  501 -0.32034658462E+02 -0.41433427885E+02 -0.34938408358E+03  0.35328768185E+03  0.00000000000E+00 0.  1.
         21    1    1    2  505  504 -0.32787094832E+02 -0.31154249240E+02 -0.11485229267E+02  0.46663597424E+02  0.00000000000E+00 0.  1.
          1    1    1    2  501    0 -0.38350858514E+02 -0.29920052623E+01 -0.20957175288E+03  0.21307289844E+03  0.00000000000E+00 0.  1.
<scales pt_clust_3="92.65754" pt_clust_4="32.12335" pt_clust_5="45.22810" pt_clust_6="32.12335"></scales>
<clustering>
<clus scale="   32.123">  4  6 -1 -1</clus>
<clus scale="   45.228">  1  5  2 -1</clus>
<clus scale="   92.658">  1  3  2 -1</clus>
<clus scale="   45.228">  1  3  2 -1</clus>
</clustering>
</event>
<event>
 6    0  0.2839294E+002  0.7157144E+02  0.7546771E-02  0.1354829E+00
         21   -1    0    0  504  502  0.00000000000E+00  0.00000000000E+00  0.23837457083E+02  0.23837457083E+02  0.00000000000E+00 0.  1.
          1   -1    0    0  503    0 -0.00000000000E+00 -0.00000000000E+00 -0.16384963533E+04  0.16384963533E+04  0.00000000000E+00 0.  1.
         21    1    1    2  503  502  0.28989779627E+02 -0.51020975205E+02 -0.52006233888E+02  0.78410430409E+02  0.00000000000E+00 0.  1.
         21    1    1    2  504  505 -0.56164124060E+02  0.14608989358E+02 -0.16104960834E+03  0.17118647069E+03  0.00000000000E+00 0.  1.
         21    1    1    2  505  501  0.66877929179E+02 -0.26780156439E+02 -0.29686878059E+03  0.30548470842E+03  0.00000000000E+00 0.  1.
          1    1    1    2  501    0 -0.39703584746E+02  0.63192142286E+02 -0.11047342734E+04  0.11072522008E+04  0.00000000000E+00 0.  1.
<scales pt_clust_3="42.08021" pt_clust_4="58.03302" pt_clust_5="14000.00000" pt_clust_6="71.57144"></scales>
<clustering>
<clus scale="   58.033">  1  4  2 -1</clus>
<clus scale="   42.080">  1  3  2 -1</clus>
<clus scale="   71.571">  2  6  1 -1</clus>
<clus scale="   58.033">  1  3  2 -1</clus>
</clustering>
</event>
<event>
 6    0  0.2839294E+002  0.1030844E+03  0.7546771E-02  0.1273940E+00
         21   -1    0    0  504  502  0.00000000000E+00  0.00000000000E+00  0.45456097488E+03  0.45456097488E+03  0.00000000000E+00 0.  1.
          1   -1    0    0  505    0 -0.00000000000E+00 -0.00000000000E+00 -0.90935670011E+03  0.90935670011E+03  0.00000000000E+00 0.  1.
         21    1    1    2  503  501  0.47603430351E+02 -0.71363067855E+02  0.21369851477E+02  0.88405003178E+02  0.00000000000E+00 0.  1.
         21    1    1    2  504  503  0.29953574914E+02 -0.14056378727E+02  0.16543310307E+03  0.16870954337E+03  0.00000000000E+00 0.  1.
         21    1    1    2  505  502  0.16235334442E+02  0.38886303627E+02  0.22752563016E+03  0.23139499362E+03  0.00000000000E+00 0.  1.
          1    1    1    2  501    0 -0.93792339707E+02  0.46533142955E+02 -0.86912430994E+03  0.87540813482E+03  0.00000000000E+00 0.  1.
<scales pt_clust_3="14000.00000" pt_clust_4="33.08774" pt_clust_5="48.75366" pt_clust_6="103.08442"></scales>
<clustering>
<clus scale="   33.088">  1  4  2 -1</clus>
<clus scale="   48.754">  1  5  2 -1</clus>
<clus scale="  103.084">  2  6  1 -1</clus>
<clus scale="   33.088">  1  3  2 -1</clus>
</clustering>
</event>
<event>
 6    0  0.2839294E+002  0.1149877E+03  0.7546771E-02  0.1251603E+00
         21   -1    0    0  504  502  0.00000000000E+00  0.00000000000E+00  0.25855162442E+03  0.25855162442E+03  0.00000000000E+00 0.  1.
          2   -1    0    0  505    0 -0.00000000000E+00 -0.00000000000E+00 -0.10453595480E+04  0.10453595480E+04  0.00000000000E+00 0.  1.
         21    1    1    2  503  502  0.16427276397E+02  0.91439164853E+02 -0.90504844112E+02  0.12970005045E+03  0.00000000000E+00 0.  1.
         21    1    1    2  504  501 -0.97038876999E+02 -0.62405462621E+02  0.21455831318E+03  0.24361086833E+03  0.00000000000E+00 0.  1.
         21    1    1    2  505  503 -0.49468758006E+02 -0.12352372999E+00 -0.14432437025E+03  0.15256702502E+03  0.00000000000E+00 0. -1.
          2    1    1    2  501    0  0.13008035861E+03 -0.28910178501E+02 -0.76653702236E+03  0.77803322857E+03  0.00000000000E+00 0.  1.
<scales pt_clust_3="92.00851" pt_clust_4="14000.00000" pt_clust_5="49.46891" pt_clust_6="114.98771"></scales>
<clustering>
<clus scale="   49.469">  2  5  1 -1</clus>
<clus scale="   92.009">  2  3  1 -1</clus>
<clus scale="  114.988">  2  6  1 -1</clus>
<clus scale="  114.988">  1  3  2 -1</clus>
</clustering>
</event>
<event>
 6    0  0.2839294E+002  0.7149931E+02  0.7546771E-02  0.1355068E+00
          2   -1    0    0  505    0 -0.00000000000E+00  0.00000000000E+00  0.14771264904E+04  0.14771264904E+04  0.00000000000E+00 0.  1.
         21   -1    0    0  504  502  0.00000000000E+00 -0.00000000000E+00 -0.21496404751E+02  0.21496404751E+02  0.00000000000E+00 0. -1.
         21    1    1    2  503  501 -0.54637252245E+02 -0.11807679195E+02  0.11755016540E+03  0.13016409646E+03  0.00000000000E+00 0. -1.
         21    1    1    2  504  503 -0.25361057116E+02  0.70647318301E+02  0.17846102379E+03  0.19360414204E+03  0.00000000000E+00 0.  1.
         21    1    1    2  505  502  0.28120544529E+02 -0.62331603395E+02  0.16147302599E+03  0.17535544454E+03  0.00000000000E+00 0. -1.
          2    1    1    2  501    0  0.51877764833E+02  0.34919642901E+01  0.99814587045E+03  0.99949921210E+03  0.00000000000E+00 0.  1.
<scales pt_clust_3="42.62172" pt_clust_4="71.49931" pt_clust_5="14000.00000" pt_clust_6="51.99516"></scales>
<clustering>
<clus scale="   51.995">  1  6  2 -1</clus>
<clus scale="   42.622">  1  3  2 -1</clus>
<clus scale="   71.499">  1  4  2 -1</clus>
<clus scale="   71.499">  2  3  1 -1</clus>
</clustering>
</event>
<event>
 6    0  0.2839294E+002  0.8009320E+02  0.7546771E-02  0.1328787E+00
          1   -1    0    0  504    0 -0.00000000000E+00  0.00000000000E+00  0.32819172796E+03  0.32819172796E+03  0.00000000000E+00 0.  1.
         21   -1    0    0  503  502  0.00000000000E+00 -0.00000000000E+00 -0.49729669890E+03  0.49729669890E+03  0.00000000000E+00 0.  1.
         21    1    1    2  503  501 -0.61282607003E+02  0.56950140262E+02 -0.19599593698E+03  0.21310392702E+03  0.00000000000E+00 0.  1.
         21    1    1    2  504  505  0.15667275028E+02  0.37779405701E+02  0.11386429550E+03  0.12098687859E+03  0.00000000000E+00 0. -1.
         21    1    1    2  505  502  0.26849281210E+01 -0.89062295283E+02 -0.27986408631E+03  0.29370598919E+03  0.00000000000E+00 0.  1.
          1    1    1    2  501    0  0.42930403855E+02 -0.56672506789E+01  0.19289075686E+03  0.19769163206E+03  0.00000000000E+00 0.  1.
<scales pt_clust_3="14000.00000" pt_clust_4="40.89923" pt_clust_5="80.09320" pt_clust_6="64.50530"></scales>
<clustering>
<clus scale="   40.899">  1  4  2 -1</clus>
<clus scale="   64.505">  1  6  2 -1</clus>
<clus scale="   80.093">  2  5  1 -1</clus>
<clus scale="   80.093">  2  3  1 -1</clus>
</clustering>
</event>
<event>
 6    0  0.2839294E+002  0.1218288E+03  0.7546771E-02  0.1240110E+00
         -4   -1    0    0    0  501 -0.00000000000E+00  0.00000000000E+00  0.34978442537E+03  0.34978442537E+03  0.00000000000E+00 0.  1.
         21   -1    0    0  503  502  0.00000000000E+00 -0.00000000000E+00 -0.42106754044E+03  0.42106754044E+03  0.00000000000E+00 0. -1.
         21    1    1    2  503  504  0.76190509393E+01  0.86129510093E+02 -0.22074539659E+03  0.23707566843E+03  0.00000000000E+00 0. -1.
         21    1    1    2  504  501  0.36776928624E+02  0.50110559906E+02  0.11939255519E+02  0.63294206018E+02  0.00000000000E+00 0.  1.
         21    1    1    2  505  502 -0.11980364915E+03 -0.20460924378E+02 -0.12467032646E+03  0.17410989080E+03  0.00000000000E+00 0. -1.
         -4    1    1    2    0  505  0.75407669583E+02 -0.11577914562E+03  0.26219335245E+03  0.29637220056E+03  0.00000000000E+00 0.  1.
<scales pt_clust_3="87.86026" pt_clust_4="62.15795" pt_clust_5="121.82880" pt_clust_6="14000.00000"></scales>
<clustering>
<clus scale="   62.158">  1  4  2 -1</clus>
<clus scale="   87.860">  2  3  1 -1</clus>
<clus scale="  121.829">  2  5  1 -1</clus>
<clus scale="   87.860">  2  3  1 -1</clus>
</clustering>
</event>
<event>
 6    0  0.2839294E+002  0.6945796E+02  0.7546771E-02  0.1361946E+00
          2   -1    0    0  505    0 -0.00000000000E+00  0.00000000000E+00  0.14860487256E+04  0.14860487256E+04  0.00000000000E+00 0. -1.
         21   -1    0    0  504  502  0.00000000000E+00 -0.00000000000E+00 -0.30970596289E+02  0.30970596289E+02  0.00000000000E+00 0. -1.
         21    1    1    2  503  502 -0.78854418589E+02 -0.99690959146E+02  0.27905166023E+03  0.30663681407E+03  0.00000000000E+00 0. -1.
         21    1    1    2  504  501  0.25916107131E+02  0.15719557105E+02  0.25944868354E+01  0.30421710116E+02  0.00000000000E+00 0. -1.
         21    1    1    2  505  503  0.31958265574E+02  0.56947139089E+02  0.10453697335E+04  0.10474073644E+04  0.00000000000E+00 0. -1.
          2    1    1    2  501    0  0.20980045883E+02  0.27024262952E+02  0.12806224881E+03  0.13255343331E+03  0.00000000000E+00 0. -1.
<scales pt_clust_3="14000.00000" pt_clust_4="30.31087" pt_clust_5="69.45796" pt_clust_6="37.96598"></scales>
<clustering>
<clus scale="   30.311">  2  4  1 -1</clus>
<clus scale="   37.966">  2  6  1 -1</clus>
<clus scale="   69.458">  1  5  2 -1</clus>
<clus scale="   30.311">  2  3  1 -1</clus>
</clustering>
</event>
<event>
 6    0  0.2839294E+002  0.6911574E+02  0.7546771E-02  0.1363126E+00
         21   -1    0    0  505  502  0.00000000000E+00  0.00000000000E+00  0.29301354174E+04  0.29301354174E+04  0.00000000000E+00 0.  1.
         -2   -1    0    0    0  501 -0.00000000000E+00 -0.00000000000E+00 -0.12552549079E+04  0.12552549079E+04  0.00000000000E+00 0.  1.
         21    1    1    2  503  504  0.72007630852E+02  0.95796040617E+02 -0.13085108228E+03  0.17743727351E+03  0.00000000000E+00 0.  1.
         21    1    1    2  504  502  0.21119887855E+01  0.36559016459E+02  0.27110450243E+04  0.27112923387E+04  0.00000000000E+00 0.  1.
         21    1    1    2  505  501 -0.30963346154E+02 -0.92652789159E+02  0.18264179081E+03  0.20712627041E+03  0.00000000000E+00 0. -1.
         -2    1    1    2    0  503 -0.43156273483E+02 -0.39702267917E+02 -0.10879552232E+04  0.10895344427E+04  0.00000000000E+00 0.  1.
<scales pt_clust_3="14000.00000" pt_clust_4="36.61997" pt_clust_5="69.11574" pt_clust_6="58.54593"></scales>
<clustering>
<clus scale="   36.620">  1  4  2 -1</clus>
<clus scale="   58.546">  2  6  1 -1</clus>
<clus scale="   69.116">  1  5  2 -1</clus>
<clus scale="   36.620">  1  3  2 -1</clus>
</clustering>
</event>
<event>
 6    0  0.2839294E+002  0.7129317E+02  0.7546771E-02  0.1355750E+00
          2   -1    0    0  504    0 -0.00000000000E+00  0.00000000000E+00  0.83719246624E+03  0.83719246624E+03  0.00000000000E+00 0. -1.
         21   -1    0    0  501  502  0.00000000000E+00 -0.00000000000E+00 -0.11852728311E+03  0.11852728311E+03  0.00000000000E+00 0. -1.
         21    1    1    2  503  505 -0.25568761951E+02  0.77567114994E+02  0.80592117440E+01  0.82069298828E+02  0.00000000000E+00 0. -1.
         21    1    1    2  504  503 -0.33054467736E+02 -0.76059718971E+02  0.22416152043E+03  0.23901059795E+03  0.00000000000E+00 0. -1.
         21    1    1    2  505  502  0.21032993431E+02 -0.58441988223E+02 -0.58570199374E+02  0.85371664238E+02  0.00000000000E+00 0. -1.
          2    1    1    2  501    0  0.37590236257E+02  0.56934592200E+02  0.54501465033E+03  0.54926818834E+03  0.00000000000E+00 0. -1.
<scales pt_clust_3="32.34919" pt_clust_4="71.29317" pt_clust_5="62.11162" pt_clust_6="14000.00000"></scales>
<clustering>
<clus scale="   62.112">  2  5  1 -1</clus>
<clus scale="   32.349">  2  3  1 -1</clus>
<clus scale="   71.293">  2  4  1 -1</clus>
<clus scale="   62.112">  2  3  1 -1</clus>
</clustering>
</event>
<event>
 6    0  0.2839294E+002  0.7541471E+02  0.7546771E-02  0.1342592E+00
         -1   -1    0    0    0  501 -0.00000000000E+00  0.00000000000E+00  0.58249729867E+02  0.58249729867E+02  0.00000000000E+00 0.  1.
         21   -1    0    0  501  502  0.00000000000E+00 -0.00000000000E+00 -0.43445362895E+03  0.43445362895E+03  0.00000000000E+00 0.  1.
         21    1    1    2  503  504 -0.66930249024E+02 -0.30095876470E+02 -0.19921664843E+03  0.21230330433E+03  0.00000000000E+00 0.  1.
         21    1    1    2  504  502  0.19017419713E+02 -0.45849535106E+02 -0.10406007397E+03  0.11529241570E+03  0.00000000000E+00 0.  1.
         21    1    1    2  505  503  0.74865378353E+02  0.18523552038E+02 -0.65608250689E+02  0.10125408345E+03  0.00000000000E+00 0. -1.
         -1    1    1    2    0  505 -0.26952549042E+02  0.57421859538E+02 -0.73189259859E+01  0.63853555346E+02  0.00000000000E+00 0.  1.
<scales pt_clust_3="75.41471" pt_clust_4="49.63710" pt_clust_5="14000.00000" pt_clust_6="58.00013"></scales>
<clustering>
<clus scale="   49.637">  2  4  1 -1</clus>
<clus scale="   58.000">  1  6  2 -1</clus>
<clus scale="   75.415">  2  3  1 -1</clus>
<clus scale="   49.637">  2  3  1 -1</clus>
</clustering>
</event>
<event>
 6    0  0.2839294E+002  0.1799448E+03  0.7546771E-02  0.1167856E+00
         -2   -1    0    0    0  501 -0.00000000000E+00  0.00000000000E+00  0.80371207518E+03  0.80371207518E+03  0.00000000000E+00 0.  1.
         21   -1    0    0  505  502  0.00000000000E+00 -0.00000000000E+00 -0.25946709976E+03  0.25946709976E+03  0.00000000000E+00 0.  1.
         21    1    1    2  503  504 -0.17337552320E+02 -0.65750983513E+02  0.66555504376E+01  0.68323340851E+02  0.00000000000E+00 0.  1.
         21    1    1    2  504  502  0.56425145602E+02 -0.25159588889E+02 -0.17126718799E+03  0.18206935945E+03  0.00000000000E+00 0.  1.
         21    1    1    2  505  501 -0.43370356427E+02  0.24080296142E+03  0.38947604502E+03  0.45995504529E+03  0.00000000000E+00 0.  1.
         -2    1    1    2    0  503  0.42827631453E+01 -0.14989238901E+03  0.31938056795E+03  0.35283142934E+03  0.00000000000E+00 0.  1.
<scales pt_clust_3="75.21013" pt_clust_4="61.78027" pt_clust_5="14000.00000" pt_clust_6="179.94478"></scales>
<clustering>
<clus scale="   61.780">  2  4  1 -1</clus>
<clus scale="   75.210">  2  3  1 -1</clus>
<clus scale="  179.945">  1  6  2 -1</clus>
<clus scale="   61.780">  2  3  1 -1</clus>
</clustering>
</event>
<event>
 6    0  0.2839294E+002  0.5474612E+02  0.7546771E-02  0.1421303E+00
         21   -1    0    0  503  502  0.00000000000E+00  0.00000000000E+00  0.39142856616E+02  0.39142856616E+02  0.00000000000E+00 0. -1.
          2   -1    0    0  504    0 -0.00000000000E+00 -0.00000000000E+00 -0.11231871059E+04  0.11231871059E+04  0.00000000000E+00 0. -1.
         21    1    1    2  503  505  0.46562753986E+02  0.25933950976E+02 -0.56776668179E+02  0.77873294020E+02  0.00000000000E+00 0. -1.
         21    1    1    2  504  502  0.60614552237E-01 -0.50603514877E+02 -0.28527319890E+03  0.28972662529E+03  0.00000000000E+00 0. -1.
         21    1    1    2  505  501 -0.33862705665E+02 -0.69554992038E+02 -0.41455258719E+02  0.87767409827E+02  0.00000000000E+00 0. -1.
          2    1    1    2  501    0 -0.12760662873E+02  0.94224555939E+02 -0.70053912352E+03  0.70696263341E+03  0.00000000000E+00 0. -1.
<scales pt_clust_3="51.44203" pt_clust_4="50.60355" pt_clust_5="54.74612" pt_clust_6="14000.00000"></scales>
<clustering>
<clus scale="   50.604">  2  4  1 -1</clus>
<clus scale="   51.442">  1  3  2 -1</clus>
<clus scale="   54.746">  1  5  2 -1</clus>
<clus scale="   51.442">  1  3  2 -1</clus>
</clustering>
</event>
<event>
 6    0  0.2839294E+002  0.3923043E+03  0.7546771E-02  0.1046477E+00
         21   -1    0    0  505  502  0.00000000000E+00  0.00000000000E+00  0.21524582634E+03  0.21524582634E+03  0.00000000000E+00 0. -1.
          1   -1    0    0  504    0 -0.00000000000E+00 -0.00000000000E+00 -0.19217374601E+04  0.19217374601E+04  0.00000000000E+00 0. -1.
         21    1    1    2  503  501  0.28184604209E+02 -0.56672714189E+02 -0.13396688301E+03  0.14816644084E+03  0.00000000000E+00 0.  1.
         21    1    1    2  504  502 -0.23772676631E+02  0.24778929194E+02  0.38016341538E+02  0.51228680543E+02  0.00000000000E+00 0. -1.
         21    1    1    2  505  503 -0.80337338593E+02  0.33795845833E+03 -0.56579310163E+02  0.35195344275E+03  0.00000000000E+00 0. -1.
          1    1    1    2  501    0  0.75925411015E+02 -0.30606467333E+03 -0.15539617821E+04  0.15856347223E+04  0.00000000000E+00 0. -1.
<scales pt_clust_3="53.68431" pt_clust_4="34.33854" pt_clust_5="373.30510" pt_clust_6="53.68431"></scales>
<clustering>
<clus scale="   34.339">  1  4  2 -1</clus>
<clus scale="   53.684">  3  6 -1 -1</clus>
<clus scale="  373.305">  1  5  2 -1</clus>
<clus scale="   34.339">  1  3  2 -1</clus>
</clustering>
</event>
<event>
 6    0  0.2839294E+002  0.4471239E+03  0.7546771E-02  0.1028583E+00
          2   -1    0    0  504    0 -0.00000000000E+00  0.00000000000E+00  0.14619041714E+04  0.14619041714E+04  0.00000000000E+00 0.  1.
         21   -1    0    0  503  502  0.00000000000E+00 -0.00000000000E+00 -0.33409002717E+03  0.33409002717E+03  0.00000000000E+00 0. -1.
         21    1    1    2  503  505  0.41706616664E+03 -0.16129023371E+03 -0.11098635525E+03  0.46073495407E+03  0.00000000000E+00 0. -1.
         21    1    1    2  504  502 -0.22254355162E+02 -0.26099569406E+02  0.26007536893E+02  0.43044579474E+02  0.00000000000E+00 0. -1.
         21    1    1    2  505  501 -0.96016169756E+02  0.76432058179E+02  0.25965959262E+03  0.28720039765E+03  0.00000000000E+00 0. -1.
          2    1    1    2  501    0 -0.29879564173E+03  0.11095774494E+03  0.95313336998E+03  0.10050142674E+04  0.00000000000E+00 0.  1.
<scales pt_clust_3="438.13137" pt_clust_4="34.29933" pt_clust_5="55.29438" pt_clust_6="55.29438"></scales>
<clustering>
<clus scale="   34.299">  2  4  1 -1</clus>
<clus scale="   55.294">  5  6 -1 -1</clus>
<clus scale="  438.131">  2  3  1 -1</clus>
<clus scale="   34.299">  2  3  1 -1</clus>
</clustering>
</event>
<event>
 6    0  0.2839294E+002  0.9264515E+02  0.7546771E-02  0.1296570E+00
          2   -1    0    0  505    0 -0.00000000000E+00  0.00000000000E+00  0.61210542979E+03  0.61210542979E+03  0.00000000000E+00 0.  1.
         21   -1    0    0  504  502  0.00000000000E+00 -0.00000000000E+00 -0.52770199352E+02  0.52770199352E+02  0.00000000000E+00 0.  1.
         21    1    1    2  503  501  0.28938093700E+02  0.12973192321E+03  0.19913775892E+03  0.23942354143E+03  0.00000000000E+00 0.  1.
         21    1    1    2  504  503 -0.70693868878E+02 -0.48370247901E+02  0.70991991540E+02  0.11125271611E+03  0.00000000000E+00 0. -1.
         21    1    1    2  505  502  0.36769985083E+02 -0.15468548138E+02  0.40429933461E+02  0.56796895198E+02  0.00000000000E+00 0. -1.
          2    1    1    2  501    0  0.49857900949E+01 -0.65893127169E+02  0.24877554652E+03  0.25740247640E+03  0.00000000000E+00 0.  1.
<scales pt_clust_3="14000.00000" pt_clust_4="92.64515" pt_clust_5="39.89120" pt_clust_6="67.92895"></scales>
<clustering>
<clus scale="   39.891">  2  5  1 -1</clus>
<clus scale="   67.929">  1  6  2 -1</clus>
<clus scale="   92.645">  2  4  1 -1</clus>
<clus scale="   39.891">  2  3  1 -1</clus>
</clustering>
</event>
<event>
 6    0  0.2839294E+002  0.7767747E+02  0.7546771E-02  0.1335775E+00
          1   -1    0    0  504    0 -0.00000000000E+00  0.00000000000E+00  0.13766126561E+04  0.13766126561E+04  0.00000000000E+00 0.  1.
         21   -1    0    0  505  502  0.00000000000E+00 -0.00000000000E+00 -0.65175299418E+02  0.65175299418E+02  0.00000000000E+00 0.  1.
         21    1    1    2  503  502  0.70735857536E+02  0.10983449210E+03  0.73774882909E+02  0.15003303151E+03  0.00000000000E+00 0.  1.
         21    1    1    2  504  503 -0.55367675523E+02 -0.29646304002E+01  0.83521619199E+03  0.83705463136E+03  0.00000000000E+00 0. -1.
         21    1    1    2  505  501 -0.16441784792E+02 -0.53673137121E+02  0.80242767725E+01  0.56705616594E+02  0.00000000000E+00 0.  1.
          1    1    1    2  501    0  0.10736027797E+01 -0.53196724575E+02  0.39442200503E+03  0.39799467607E+03  0.00000000000E+00 0.  1.
<scales pt_clust_3="77.67747" pt_clust_4="14000.00000" pt_clust_5="57.80632" pt_clust_6="53.20756"></scales>
<clustering>
<clus scale="   53.208">  1  6  2 -1</clus>
<clus scale="   57.806">  2  5  1 -1</clus>
<clus scale="   77.677">  2  3  1 -1</clus>
<clus scale="   57.806">  2  3  1 -1</clus>
</clustering>
</event>
<event>
 6    0  0.2839294E+002  0.1241789E+03  0.7546771E-02  0.1236358E+00
         21   -1    0    0  504  502  0.00000000000E+00  0.00000000000E+00  0.61954482314E+03  0.61954482314E+03  0.00000000000E+00 0. -1.
          2   -1    0    0  505    0 -0.00000000000E+00 -0.00000000000E+00 -0.16441050526E+03  0.16441050526E+03  0.00000000000E+00 0. -1.
         21    1    1    2  503  502 -0.12505569635E+02 -0.15064968437E+03  0.38089409860E+03  0.40979510859E+03  0.00000000000E+00 0. -1.
         21    1    1    2  504  501 -0.21398419338E+02  0.31110108626E+02  0.17347951759E+03  0.17754119024E+03  0.00000000000E+00 0. -1.
         21    1    1    2  505  503  0.29818428370E+02  0.24963351068E+02  0.20514825259E+02  0.43967779366E+02  0.00000000000E+00 0. -1.
          2    1    1    2  501    0  0.40855606033E+01  0.94576224676E+02 -0.11975412357E+03  0.15265125021E+03  0.00000000000E+00 0. -1.
<scales pt_clust_3="14000.00000" pt_clust_4="37.75886" pt_clust_5="39.24212" pt_clust_6="124.17891"></scales>
<clustering>
<clus scale="   37.759">  1  4  2 -1</clus>
<clus scale="   39.242">  2  5  1 -1</clus>
<clus scale="  124.179">  2  6  1 -1</clus>
<clus scale="   37.759">  1  3  2 -1</clus>
</clustering>
</event>
<event>
 6    0  0.2839294E+002  0.9966363E+02  0.7546771E-02  0.1281005E+00
         21   -1    0    0  504  502  0.00000000000E+00  0.00000000000E+00  0.66092694698E+02  0.66092694698E+02  0.00000000000E+00 0.  1.
          1   -1    0    0  503    0 -0.00000000000E+00 -0.00000000000E+00 -0.26990609069E+04  0.26990609069E+04  0.00000000000E+00 0. -1.
         21    1    1    2  503  505  0.30236758479E+02  0.10736254798E+02 -0.17227502293E+03  0.17523758802E+03  0.00000000000E+00 0.  1.
         21    1    1    2  504  501 -0.11965755392E+02 -0.70224578664E+02 -0.61055779119E+03  0.61469950963E+03  0.00000000000E+00 0.  1.
         21    1    1    2  505  502 -0.58337661755E+02  0.84868611276E+02  0.19638637631E+02  0.10484102273E+03  0.00000000000E+00 0.  1.
          1    1    1    2  501    0  0.40066658667E+02 -0.25380287410E+02 -0.18697740357E+04  0.18703754812E+04  0.00000000000E+00 0. -1.
<scales pt_clust_3="32.08627" pt_clust_4="99.66363" pt_clust_5="14000.00000" pt_clust_6="64.84442"></scales>
<clustering>
<clus scale="   32.086">  2  3  1 -1</clus>
<clus scale="   64.844">  2  6  1 -1</clus>
<clus scale="   99.664">  2  4  1 -1</clus>
<clus scale="   99.664">  1  3  2 -1</clus>
</clustering>
</event>
<event>
 6    0  0.2839294E+002  0.1532696E+03  0.7546771E-02  0.1196512E+00
          2   -1    0    0  504    0 -0.00000000000E+00  0.00000000000E+00  0.11273910779E+04  0.11273910779E+04  0.00000000000E+00 0.  1.
         21   -1    0    0  505  502  0.00000000000E+00 -0.00000000000E+00 -0.14072010026E+03  0.14072010026E+03  0.00000000000E+00 0.  1.
         21    1    1    2  503  501  0.20477725014E+02  0.85953792153E+02  0.39893513492E+03  0.40860327150E+03  0.00000000000E+00 0.  1.
         21    1    1    2  504  502 -0.88318984005E+01  0.13009805375E+03  0.20721870301E+02  0.13203371511E+03  0.00000000000E+00 0.  1.
         21    1    1    2  505  503 -0.75101042951E+01 -0.26555366955E+03  0.14521102176E+03  0.30275632763E+03  0.00000000000E+00 0.  1.
          2    1    1    2  501    0 -0.41357223189E+01  0.49501823651E+02  0.42180295063E+03  0.42471786389E+03  0.00000000000E+00 0.  1.
<scales pt_clust_3="35.15085" pt_clust_4="130.39749" pt_clust_5="145.92377" pt_clust_6="35.15085"></scales>
<clustering>
<clus scale="   35.151">  3  6 -1 -1</clus>
<clus scale="  130.397">  2  4  1 -1</clus>
<clus scale="  145.924">  2  5  1 -1</clus>
<clus scale="  130.397">  2  3  1 -1</clus>
</clustering>
</event>
<event>
 6    0  0.2839294E+002  0.1096909E+03  0.7546771E-02  0.1261143E+00
         21   -1    0    0  505  502  0.00000000000E+00  0.00000000000E+00  0.83835902504E+02  0.83835902504E+02  0.00000000000E+00 0. -1.
          1   -1    0    0  504    0 -0.00000000000E+00 -0.00000000000E+00 -0.36717407983E+04  0.36717407983E+04  0.00000000000E+00 0. -1.
         21    1    1    2  503  502  0.10607468202E+03  0.37569447962E+02  0.38507864925E+02  0.11893761914E+03  0.00000000000E+00 0. -1.
         21    1    1    2  504  503  0.22342545975E+02 -0.21229191446E+02 -0.38904890179E+03  0.39026774901E+03  0.00000000000E+00 0.  1.
         21    1    1    2  505  501 -0.65368781867E+02 -0.51892002731E+02 -0.42726068023E+03  0.43533613043E+03  0.00000000000E+00 0. -1.
          1    1    1    2  501    0 -0.63048446125E+02  0.35551746216E+02 -0.28101031787E+04  0.28110352023E+04  0.00000000000E+00 0. -1.
<scales pt_clust_3="14000.00000" pt_clust_4="30.81993" pt_clust_5="109.69093" pt_clust_6="47.22699"></scales>
<clustering>
<clus scale="   30.820">  2  4  1 -1</clus>
<clus scale="   47.227">  2  6  1 -1</clus>
<clus scale="  109.691">  2  5  1 -1</clus>
<clus scale="  109.691">  1  3  2 -1</clus>
</clustering>
</event>
<event>
 6    0  0.2839294E+002  0.1532548E+03  0.7546771E-02  0.1196530E+00
         21   -1    0    0  504  502  0.00000000000E+00  0.00000000000E+00  0.29920771191E+03  0.29920771191E+03  0.00000000000E+00 0.  1.
          4   -1    0    0  503    0 -0.00000000000E+00 -0.00000000000E+00 -0.54870453002E+03  0.54870453002E+03  0.00000000000E+00 0. -1.
         21    1    1    2  503  502 -0.40802397675E+02 -0.75695982530E+02  0.12339778593E+03  0.15040522265E+03  0.00000000000E+00 0. -1.
         21    1    1    2  504  505  0.14918425609E+03  0.16109286322E+03  0.70128368974E+02  0.23048826647E+03  0.00000000000E+00 0.  1.
         21    1    1    2  505  501 -0.18256910808E+02 -0.38686311748E+02 -0.89283799763E+02  0.99002739401E+02  0.00000000000E+00 0. -1.
          4    1    1    2  501    0 -0.90124947610E+02 -0.46710568940E+02 -0.35373917325E+03  0.36801601340E+03  0.00000000000E+00 0. -1.
<scales pt_clust_3="85.99254" pt_clust_4="143.83721" pt_clust_5="34.33765" pt_clust_6="34.33765"></scales>
<clustering>
<clus scale="   34.338">  5  6 -1 -1</clus>
<clus scale="   85.993">  1  3  2 -1</clus>
<clus scale="  143.837">  1  4  2 -1</clus>
<clus scale="   85.993">  1  3  2 -1</clus>
</clustering>
</event>
<event>
 6    0  0.2839294E+002  0.9724790E+02  0.7546771E-02  0.1286192E+00
         21   -1    0    0  503  502  0.00000000000E+00  0.00000000000E+00  0.65102277106E+02  0.65102277106E+02  0.00000000000E+00 0.  1.
          2   -1    0    0  504    0 -0.00000000000E+00 -0.00000000000E+00 -0.21780953461E+04  0.21780953461E+04  0.00000000000E+00 0.  1.
         21    1    1    2  503  501  0.12599026136E+03 -0.19702896067E+02 -0.91629621223E+03  0.92512728779E+03  0.00000000000E+00 0.  1.
         21    1    1    2  504  505 -0.10187902493E+02  0.49202048643E+02 -0.19593981593E+03  0.20227962432E+03  0.00000000000E+00 0.  1.
         21    1    1    2  505  502 -0.44329719519E+02 -0.36307725492E+02  0.41697652832E+02  0.70866559213E+02  0.00000000000E+00 0.  1.
          2    1    1    2  501    0 -0.71472639345E+02  0.68085729160E+01 -0.10424546936E+04  0.10449241519E+04  0.00000000000E+00 0.  1.
<scales pt_clust_3="14000.00000" pt_clust_4="50.24575" pt_clust_5="57.13001" pt_clust_6="97.24790"></scales>
<clustering>
<clus scale="   50.246">  2  4  1 -1</clus>
<clus scale="   57.130">  1  5  2 -1</clus>
<clus scale="   97.248">  2  6  1 -1</clus>
<clus scale="   57.130">  1  3  2 -1</clus>
</clustering>
</event>
<event>
 6    0  0.2839294E+002  0.1365313E+03  0.7546771E-02  0.1218074E+00
          1   -1    0    0  505    0 -0.00000000000E+00  0.00000000000E+00  0.23352824345E+04  0.23352824345E+04  0.00000000000E+00 0. -1.
         21   -1    0    0  501  502  0.00000000000E+00 -0.00000000000E+00 -0.88236684359E+02  0.88236684359E+02  0.00000000000E+00 0.  1.
         21    1    1    2  503  502  0.46847970381E+02  0.27678302778E+01 -0.73712218981E+02  0.87383547881E+02  0.00000000000E+00 0.  1.
         21    1    1    2  504  503  0.50342831637E+02  0.27690169528E+02  0.23792563506E+03  0.24476469109E+03  0.00000000000E+00 0. -1.
         21    1    1    2  505  504  0.40308037106E+02 -0.25941736214E+02  0.38467622021E+03  0.38765126845E+03  0.00000000000E+00 0.  1.
          1    1    1    2  501    0 -0.13749883912E+03 -0.45162635918E+01  0.16981561138E+04  0.17037196114E+04  0.00000000000E+00 0. -1.
<scales pt_clust_3="46.92966" pt_clust_4="54.40933" pt_clust_5="54.40933" pt_clust_6="120.60084"></scales>
<clustering>
<clus scale="   46.930">  2  3  1 -1</clus>
<clus scale="   54.409">  4  5 -1 -1</clus>
<clus scale="  120.601">  1  6  2 -1</clus>
<clus scale="   46.930">  2  3  1 -1</clus>
</clustering>
</event>
<event>
 6    0  0.2839294E+002  0.1608837E+03  0.7546771E-02  0.1187703E+00
          2   -1    0    0  505    0 -0.00000000000E+00  0.00000000000E+00  0.20081127815E+04  0.20081127815E+04  0.00000000000E+00 0. -1.
         21   -1    0    0  504  502  0.00000000000E+00 -0.00000000000E+00 -0.36045770281E+03  0.36045770281E+03  0.00000000000E+00 0.  1.
         21    1    1    2  503  502 -0.21949039043E+03 -0.15027433925E+02 -0.65522769998E+02  0.22955410833E+03  0.00000000000E+00 0.  1.
         21    1    1    2  504  501  0.14051942783E+03  0.27443740922E+02 -0.17944294061E+03  0.22956183796E+03  0.00000000000E+00 0.  1.
         21    1    1    2  505  503 -0.48052476956E+02 -0.63684749295E+01  0.88897242178E+02  0.10125372922E+03  0.00000000000E+00 0.  1.
          2    1    1    2  501    0  0.12702343956E+03 -0.60478320672E+01  0.18037235471E+04  0.18082008088E+04  0.00000000000E+00 0. -1.
<scales pt_clust_3="160.88375" pt_clust_4="14000.00000" pt_clust_5="48.47265" pt_clust_6="82.54623"></scales>
<clustering>
<clus scale="   48.473">  1  5  2 -1</clus>
<clus scale="   82.546">  1  6  2 -1</clus>
<clus scale="  160.884">  1  3  2 -1</clus>
<clus scale="  160.884">  2  3  1 -1</clus>
</clustering>
</event>
<event>
 6    0  0.2839294E+002  0.8913842E+02  0.7546771E-02  0.1304952E+00
         21   -1    0    0  505  502  0.00000000000E+00  0.00000000000E+00  0.17049279858E+03  0.17049279858E+03  0.00000000000E+00 0. -1.
         -2   -1    0    0    0  501 -0.00000000000E+00 -0.00000000000E+00 -0.60749883914E+03  0.60749883914E+03  0.00000000000E+00 0.  1.
         21    1    1    2  503  504 -0.95182675499E+01  0.78205688561E+02  0.94962858970E+02  0.12338829654E+03  0.00000000000E+00 0. -1.
         21    1    1    2  504  501  0.31517844621E+02  0.65845943136E+02 -0.10180228945E+03  0.12527078229E+03  0.00000000000E+00 0.  1.
         21    1    1    2  505  503 -0.32622112982E+02 -0.44149699693E+02  0.27057848213E+02  0.61200697613E+02  0.00000000000E+00 0. -1.
         -2    1    1    2    0  502  0.10622535911E+02 -0.99901932003E+02 -0.45722445829E+03  0.46813186128E+03  0.00000000000E+00 0.  1.
<scales pt_clust_3="55.01297" pt_clust_4="89.13842" pt_clust_5="54.89443" pt_clust_6="14000.00000"></scales>
<clustering>
<clus scale="   54.894">  1  5  2 -1</clus>
<clus scale="   55.013">  1  3  2 -1</clus>
<clus scale="   89.138">  1  4  2 -1</clus>
<clus scale="   54.894">  1  3  2 -1</clus>
</clustering>
</event>
<event>
 6    0  0.2839294E+002  0.9023670E+02  0.7546771E-02  0.1302280E+00
         21   -1    0    0  505  502  0.00000000000E+00  0.00000000000E+00  0.11162777663E+04  0.11162777663E+04  0.00000000000E+00 0.  1.
          2   -1    0    0  504    0 -0.00000000000E+00 -0.00000000000E+00 -0.83009090348E+02  0.83009090348E+02  0.00000000000E+00 0.  1.
         21    1    1    2  503  501  0.22020485085E+02 -0.56936324305E+02  0.26168915514E+02  0.66418814562E+02  0.00000000000E+00 0. -1.
         21    1    1    2  504  502  0.31298375612E+02  0.15117542661E+02  0.80669748028E+03  0.80744594439E+03  0.00000000000E+00 0.  1.
         21    1    1    2  505  503 -0.31522897545E+02  0.99887523279E+02  0.23292184498E+03  0.25538949909E+03  0.00000000000E+00 0.  1.
          2    1    1    2  501    0 -0.21795963152E+02 -0.58068741635E+02 -0.32519564857E+02  0.70032598576E+02  0.00000000000E+00 0.  1.
<scales pt_clust_3="14000.00000" pt_clust_4="34.75814" pt_clust_5="90.23670" pt_clust_6="60.51631"></scales>
<clustering>
<clus scale="   34.758">  1  4  2 -1</clus>
<clus scale="   60.516">  2  6  1 -1</clus>
<clus scale="   90.237">  1  5  2 -1</clus>
<clus scale="   34.758">  1  3  2 -1</clus>
</clustering>
</event>
<event>
 6    0  0.2839294E+002  0.8693166E+02  0.7546771E-02  0.1310457E+00
          1   -1    0    0  504    0 -0.00000000000E+00  0.00000000000E+00  0.83469122799E+03  0.83469122799E+03  0.00000000000E+00 0. -1.
         21   -1    0    0  503  502  0.00000000000E+00 -0.00000000000E+00 -0.60945968152E+03  0.60945968152E+03  0.00000000000E+00 0.  1.
         21    1    1    2  503  501  0.50097000141E+02 -0.86375614116E+02 -0.42543069085E+03  0.43699168053E+03  0.00000000000E+00 0.  1.
         21    1    1    2  504  505  0.68708513472E+02  0.77870338883E+02  0.38602339153E+03  0.39974830620E+03  0.00000000000E+00 0. -1.
         21    1    1    2  505  502 -0.32619421014E+02  0.17033307168E+02 -0.16503890998E+03  0.16909169699E+03  0.00000000000E+00 0.  1.
          1    1    1    2  501    0 -0.86186092599E+02 -0.85280319342E+01  0.42967775578E+03  0.43831922579E+03  0.00000000000E+00 0. -1.
<scales pt_clust_3="72.13338" pt_clust_4="86.93166" pt_clust_5="36.79892" pt_clust_6="14000.00000"></scales>
<clustering>
<clus scale="   36.799">  2  5  1 -1</clus>
<clus scale="   72.133">  2  3  1 -1</clus>
<clus scale="   86.932">  2  4  1 -1</clus>
<clus scale="   36.799">  2  3  1 -1</clus>
</clustering>
</event>
<event>
 6    0  0.2839294E+002  0.8338205E+02  0.7546771E-02  0.1319719E+00
         21   -1    0    0  505  502  0.00000000000E+00  0.00000000000E+00  0.16706669904E+03  0.16706669904E+03  0.00000000000E+00 0.  1.
          2   -1    0    0  504    0 -0.00000000000E+00 -0.00000000000E+00 -0.46672391172E+03  0.46672391172E+03  0.00000000000E+00 0.  1.
         21    1    1    2  503  502  0.45930738117E+02 -0.56809145044E+02  0.27839340975E+02  0.78178901058E+02  0.00000000000E+00 0.  1.
         21    1    1    2  504  503 -0.58111504358E+02  0.78052715757E+02 -0.88039420281E+02  0.13122542779E+03  0.00000000000E+00 0.  1.
         21    1    1    2  505  501 -0.41844533724E+02 -0.34269596614E+02  0.81961287475E+02  0.98198894593E+02  0.00000000000E+00 0.  1.
          2    1    1    2  501    0  0.54025299965E+02  0.13026025902E+02 -0.32141842085E+03  0.32618738732E+03  0.00000000000E+00 0.  1.
<scales pt_clust_3="14000.00000" pt_clust_4="83.38205" pt_clust_5="54.08669" pt_clust_6="54.06965"></scales>
<clustering>
<clus scale="   54.087">  1  5  2 -1</clus>
<clus scale="   54.070">  2  6  1 -1</clus>
<clus scale="   83.382">  2  4  1 -1</clus>
<clus scale="   54.087">  1  3  2 -1</clus>
</clustering>
</event>
<event>
 6    0  0.2839294E+002  0.7309822E+02  0.7546771E-02  0.1349863E+00
          1   -1    0    0  503    0 -0.00000000000E+00  0.00000000000E+00  0.31798151409E+03  0.31798151409E+03  0.00000000000E+00 0. -1.
         21   -1    0    0  504  502  0.00000000000E+00 -0.00000000000E+00 -0.57749255302E+03  0.57749255302E+03  0.00000000000E+00 0.  1.
         21    1    1    2  503  505 -0.14965109393E+02 -0.33200753118E+02  0.24677940719E+01  0.36501157712E+02  0.00000000000E+00 0. -1.
         21    1    1    2  504  501  0.82052304119E+02 -0.60210811466E+02 -0.41418587884E+03  0.42650658219E+03  0.00000000000E+00 0.  1.
         21    1    1    2  505  502 -0.27904009534E+02  0.13798351205E+02 -0.13153757338E+03  0.13517086023E+03  0.00000000000E+00 0.  1.
          1    1    1    2  501    0 -0.39183185191E+02  0.79613213380E+02  0.28374461922E+03  0.29729546697E+03  0.00000000000E+00 0. -1.
<scales pt_clust_3="36.39452" pt_clust_4="14000.00000" pt_clust_5="31.12922" pt_clust_6="73.09822"></scales>
<clustering>
<clus scale="   31.129">  2  5  1 -1</clus>
<clus scale="   36.395">  1  3  2 -1</clus>
<clus scale="   73.098">  1  6  2 -1</clus>
<clus scale="   31.129">  2  3  1 -1</clus>
</clustering>
</event>
<event>
 6    0  0.2839294E+002  0.1390638E+03  0.7546771E-02  0.1214594E+00
          2   -1    0    0  503    0 -0.00000000000E+00  0.00000000000E+00  0.15635963624E+04  0.15635963624E+04  0.00000000000E+00 0.  1.
         21   -1    0    0  505  502  0.00000000000E+00 -0.00000000000E+00 -0.81690051525E+03  0.81690051525E+03  0.00000000000E+00 0.  1.
         21    1    1    2  503  504 -0.21347182185E+01 -0.32704116744E+02  0.32794757546E+02  0.46363912652E+02  0.00000000000E+00 0. -1.
         21    1    1    2  504  502 -0.79100963965E+02 -0.14937954742E+03 -0.35995179271E+03  0.39766380872E+03  0.00000000000E+00 0.  1.
         21    1    1    2  505  501  0.69298162973E+02  0.10392252102E+03 -0.42119802429E+03  0.43932892169E+03  0.00000000000E+00 0.  1.
          2    1    1    2  501    0  0.11937519211E+02  0.78161143143E+02  0.14950509066E+04  0.14971402346E+04  0.00000000000E+00 0.  1.
<scales pt_clust_3="32.77371" pt_clust_4="14000.00000" pt_clust_5="139.06382" pt_clust_6="47.09604"></scales>
<clustering>
<clus scale="   32.774">  1  3  2 -1</clus>
<clus scale="   47.096">  1  6  2 -1</clus>
<clus scale="  139.064">  2  5  1 -1</clus>
<clus scale="  139.064">  2  3  1 -1</clus>
</clustering>
</event>
<event>
 6    0  0.2839294E+002  0.9104333E+02  0.7546771E-02  0.1300345E+00
         -4   -1    0    0    0  501 -0.00000000000E+00  0.00000000000E+00  0.13427217000E+04  0.13427217000E+04  0.00000000000E+00 0. -1.
         21   -1    0    0  503  502  0.00000000000E+00 -0.00000000000E+00 -0.46864670113E+03  0.46864670113E+03  0.00000000000E+00 0.  1.
         21    1    1    2  503  505 -0.49582215149E+02  0.50427124302E+02  0.23689480482E+02  0.74582051527E+02  0.00000000000E+00 0. -1.
         21    1    1    2  504  502  0.10841868143E+03 -0.79273474128E+02 -0.42528767299E+03  0.44599159071E+03  0.00000000000E+00 0.  1.
         21    1    1    2  505  501 -0.75516712229E+02 -0.64372278196E+02  0.53879349999E+03  0.54785490749E+03  0.00000000000E+00 0. -1.
         -4    1    1    2    0  504  0.16680245950E+02  0.93218628022E+02  0.73687969137E+03  0.74293985138E+03  0.00000000000E+00 0. -1.
<scales pt_clust_3="70.71981" pt_clust_4="66.66679" pt_clust_5="14000.00000" pt_clust_6="91.04333"></scales>
<clustering>
<clus scale="   70.720">  2  3  1 -1</clus>
<clus scale="   66.667">  2  4  1 -1</clus>
<clus scale="   91.043">  1  6  2 -1</clus>
<clus scale="   70.720">  2  3  1 -1</clus>
</clustering>
</event>
<event>
 6    0  0.2839294E+002  0.1068655E+03  0.7546771E-02  0.1266487E+00
         21   -1    0    0  504  502  0.00000000000E+00  0.00000000000E+00  0.42915457007E+02  0.42915457007E+02  0.00000000000E+00 0. -1.
          1   -1    0    0  503    0 -0.00000000000E+00 -0.00000000000E+00 -0.17348121641E+04  0.17348121641E+04  0.00000000000E+00 0.  1.
         21    1    1    2  503  505  0.57585592529E+02  0.19170498955E+02 -0.45072815969E+03  0.45479608885E+03  0.00000000000E+00 0. -1.
         21    1    1    2  504  501 -0.78778325586E+02 -0.33779645479E+02 -0.93288490393E+02  0.12668792946E+03  0.00000000000E+00 0.  1.
         21    1    1    2  505  502 -0.13391557755E+02 -0.47855936328E+02 -0.36934300115E+01  0.49831374517E+02  0.00000000000E+00 0. -1.
          1    1    1    2  501    0  0.34584290812E+02  0.62465082852E+02 -0.11441866270E+04  0.11464122283E+04  0.00000000000E+00 0.  1.
<scales pt_clust_3="57.99515" pt_clust_4="14000.00000" pt_clust_5="49.69431" pt_clust_6="106.86549"></scales>
<clustering>
<clus scale="   49.694">  1  5  2 -1</clus>
<clus scale="   57.995">  2  3  1 -1</clus>
<clus scale="  106.865">  2  6  1 -1</clus>
<clus scale="   49.694">  1  3  2 -1</clus>
</clustering>
</event>
<event>
 6    0  0.2839294E+002  0.3001674E+03  0.7546771E-02  0.1085157E+00
         21   -1    0    0  501  502  0.00000000000E+00  0.00000000000E+00  0.16850215978E+04  0.16850215978E+04  0.00000000000E+00 0. -1.
          4   -1    0    0  503    0 -0.00000000000E+00 -0.00000000000E+00 -0.38253922586E+03  0.38253922586E+03  0.00000000000E+00 0. -1.
         21    1    1    2  503  504  0.33063000997E+02  0.31853920497E+00  0.25748812283E+02  0.41907813545E+02  0.00000000000E+00 0.  1.
         21    1    1    2  504  505 -0.61966082325E+02 -0.59073676193E+01 -0.45282705545E+01  0.62411518049E+02  0.00000000000E+00 0. -1.
         21    1    1    2  505  502  0.18393669417E+02 -0.29943845982E+03  0.15364136993E+04  0.15654292618E+04  0.00000000000E+00 0. -1.
          4    1    1    2  501    0  0.10509411911E+02  0.30502728823E+03 -0.25515186905E+03  0.39781223031E+03  0.00000000000E+00 0. -1.
<scales pt_clust_3="33.06454" pt_clust_4="59.30297" pt_clust_5="300.16737" pt_clust_6="14000.00000"></scales>
<clustering>
<clus scale="   33.065">  2  3  1 -1</clus>
<clus scale="   59.303">  2  4  1 -1</clus>
<clus scale="  300.167">  1  5  2 -1</clus>
<clus scale="  300.167">  1  3  2 -1</clus>
</clustering>
</event>
<event>
 6    0  0.2839294E+002  0.7801448E+02  0.7546771E-02  0.1334782E+00
         21   -1    0    0  505  502  0.00000000000E+00  0.00000000000E+00  0.14891028962E+03  0.14891028962E+03  0.00000000000E+00 0.  1.
          2   -1    0    0  504    0 -0.00000000000E+00 -0.00000000000E+00 -0.28228439158E+04  0.28228439158E+04  0.00000000000E+00 0.  1.
         21    1    1    2  503  502 -0.34787559639E+01 -0.10802536005E+03 -0.13611323947E+01  0.10808992940E+03  0.00000000000E+00 0.  1.
         21    1    1    2  504  503 -0.27885114131E+02  0.33576648353E+02 -0.28344733546E+03  0.28678801036E+03  0.00000000000E+00 0.  1.
         21    1    1    2  505  501  0.47311692072E+02  0.35719342998E+02  0.84321697412E+02  0.10307480936E+03  0.00000000000E+00 0.  1.
          2    1    1    2  501    0 -0.15947821977E+02  0.38729368700E+02 -0.24734468558E+04  0.24738014563E+04  0.00000000000E+00 0.  1.
<scales pt_clust_3="78.01448" pt_clust_4="14000.00000" pt_clust_5="59.57602" pt_clust_6="41.88433"></scales>
<clustering>
<clus scale="   41.884">  2  6  1 -1</clus>
<clus scale="   59.576">  1  5  2 -1</clus>
<clus scale="   78.014">  1  3  2 -1</clus>
<clus scale="   59.576">  1  3  2 -1</clus>
</clustering>
</event>
<event>
 6    0  0.2839294E+002  0.2038797E+03  0.7546771E-02  0.1146506E+00
         21   -1    0    0  504  502  0.00000000000E+00  0.00000000000E+00  0.96700691079E+03  0.96700691079E+03  0.00000000000E+00 0. -1.
         -2   -1    0    0    0  501 -0.00000000000E+00 -0.00000000000E+00 -0.12727034121E+04  0.12727034121E+04  0.00000000000E+00 0.  1.
         21    1    1    2  503  502 -0.35217847753E+02 -0.58655478990E+02  0.20896283802E+03  0.21987776079E+03  0.00000000000E+00 0. -1.
         21    1    1    2  504  501  0.32411803745E+02  0.69638700801E+02 -0.15741162958E+03  0.17515277559E+03  0.00000000000E+00 0.  1.
         21    1    1    2  505  503  0.84332246218E+02 -0.14132053920E+03  0.72913339979E+03  0.74747504121E+03  0.00000000000E+00 0. -1.
         -2    1    1    2    0  505 -0.81526202211E+02  0.13033731739E+03 -0.10863811096E+04  0.10972047453E+04  0.00000000000E+00 0.  1.
<scales pt_clust_3="68.41609" pt_clust_4="76.01003" pt_clust_5="14000.00000" pt_clust_6="203.87973"></scales>
<clustering>
<clus scale="   68.416">  1  3  2 -1</clus>
<clus scale="   76.010">  2  4  1 -1</clus>
<clus scale="  203.880">  2  6  1 -1</clus>
<clus scale="   68.416">  1  3  2 -1</clus>
</clustering>
</event>
<event>
 6    0  0.2839294E+002  0.1411652E+03  0.7546771E-02  0.1211770E+00
          2   -1    0    0  505    0 -0.00000000000E+00  0.00000000000E+00  0.30389810926E+04  0.30389810926E+04  0.00000000000E+00 0. -1.
         21   -1    0    0  504  502  0.00000000000E+00 -0.00000000000E+00 -0.13325063060E+03  0.13325063060E+03  0.00000000000E+00 0.  1.
         21    1    1    2  503  502 -0.71161498443E+01  0.18230525166E+03 -0.95198225568E+01  0.18269228608E+03  0.00000000000E+00 0.  1.
         21    1    1    2  504  501 -0.38389216897E+01 -0.43243423017E+02 -0.19085363501E+02  0.47423433595E+02  0.00000000000E+00 0.  1.
         21    1    1    2  505  503  0.35415108393E+02  0.37538933989E+01  0.15637422965E+03  0.16037836923E+03  0.00000000000E+00 0. -1.
          2    1    1    2  501    0 -0.24460036859E+02 -0.14281572204E+03  0.27779614184E+04  0.27817376343E+04  0.00000000000E+00 0. -1.
<scales pt_clust_3="141.16520" pt_clust_4="43.38003" pt_clust_5="35.61350" pt_clust_6="14000.00000"></scales>
<clustering>
<clus scale="   35.614">  1  5  2 -1</clus>
<clus scale="   43.380">  2  4  1 -1</clus>
<clus scale="  141.165">  2  3  1 -1</clus>
<clus scale="   43.380">  2  3  1 -1</clus>
</clustering>
</event>
<event>
 6    0  0.2839294E+002  0.1121355E+03  0.7546771E-02  0.1256666E+00
          2   -1    0    0  503    0 -0.00000000000E+00  0.00000000000E+00  0.27660129287E+03  0.27660129287E+03  0.00000000000E+00 0. -1.
         21   -1    0    0  501  502  0.00000000000E+00 -0.00000000000E+00 -0.93038143062E+03  0.93038143062E+03  0.00000000000E+00 0. -1.
         21    1    1    2  503  505  0.49489036691E+02  0.22489212647E+02  0.84282598666E+02  0.10029200305E+03  0.00000000000E+00 0. -1.
         21    1    1    2  504  502 -0.11233336951E+03  0.39578850668E+02 -0.55142033141E+03  0.56413620094E+03  0.00000000000E+00 0. -1.
         21    1    1    2  505  504  0.10900500567E+03  0.14634967115E+02 -0.34419769787E+03  0.36134239820E+03  0.00000000000E+00 0. -1.
          2    1    1    2  501    0 -0.46160672848E+02 -0.76703030430E+02  0.15755529285E+03  0.18121212129E+03  0.00000000000E+00 0. -1.
<scales pt_clust_3="54.35926" pt_clust_4="14000.00000" pt_clust_5="112.13545" pt_clust_6="56.03968"></scales>
<clustering>
<clus scale="   54.359">  1  3  2 -1</clus>
<clus scale="   56.040">  1  6  2 -1</clus>
<clus scale="  112.135">  1  5  2 -1</clus>
<clus scale="  112.135">  2  3  1 -1</clus>
</clustering>
</event>
<event>
 6    0  0.2839294E+002  0.8505380E+02  0.7546771E-02  0.1315292E+00
         21   -1    0    0  505  502  0.00000000000E+00  0.00000000000E+00  0.74541109367E+02  0.74541109367E+02  0.00000000000E+00 0. -1.
          2   -1    0    0  504    0 -0.00000000000E+00 -0.00000000000E+00 -0.32830615731E+04  0.32830615731E+04  0.00000000000E+00 0.  1.
         21    1    1    2  503  501  0.80721207979E+02 -0.19557384118E+02 -0.34882140013E+03  0.35857324758E+03  0.00000000000E+00 0. -1.
         21    1    1    2  504  502  0.24836323877E+02  0.31929534884E+02 -0.53467743598E+03  0.53620546316E+03  0.00000000000E+00 0. -1.
         21    1    1    2  505  503 -0.71711837276E+02 -0.49728414421E+02  0.40892632069E+02  0.96372766713E+02  0.00000000000E+00 0. -1.
          2    1    1    2  501    0 -0.33845694581E+02  0.37356263655E+02 -0.23659142597E+04  0.23664512050E+04  0.00000000000E+00 0.  1.
<scales pt_clust_3="85.05380" pt_clust_4="40.45168" pt_clust_5="14000.00000" pt_clust_6="66.03878"></scales>
<clustering>
<clus scale="   40.452">  2  4  1 -1</clus>
<clus scale="   66.039">  2  6  1 -1</clus>
<clus scale="   85.054">  2  3  1 -1</clus>
<clus scale="   85.054">  1  3  2 -1</clus>
</clustering>
</event>
<event>
 6    0  0.2839294E+002  0.1974615E+03  0.7546771E-02  0.1151899E+00
          1   -1    0    0  505    0 -0.00000000000E+00  0.00000000000E+00  0.23703323443E+04  0.23703323443E+04  0.00000000000E+00 0.  1.
         21   -1    0    0  503  502  0.00000000000E+00 -0.00000000000E+00 -0.64458614071E+03  0.64458614071E+03  0.00000000000E+00 0. -1.
         21    1    1    2  503  504  0.46516469400E+02 -0.11577623011E+03 -0.30449340718E+03  0.32906557462E+03  0.00000000000E+00 0. -1.
         21    1    1    2  504  501 -0.13710365893E+02 -0.62124468650E+02 -0.31157496284E+03  0.31800374401E+03  0.00000000000E+00 0. -1.
         21    1    1    2  505  502  0.12667577350E+02  0.70963138214E+02  0.10133680682E+03  0.12435989272E+03  0.00000000000E+00 0.  1.
          1    1    1    2  501    0 -0.45473680856E+02  0.10693756055E+03  0.22404777668E+04  0.22434892737E+04  0.00000000000E+00 0.  1.
<scales pt_clust_3="57.27472" pt_clust_4="57.27472" pt_clust_5="72.08491" pt_clust_6="180.43693"></scales>
<clustering>
<clus scale="   57.275">  3  4 -1 -1</clus>
<clus scale="   72.085">  1  5  2 -1</clus>
<clus scale="  180.437">  1  6  2 -1</clus>
<clus scale="  197.462">  2  3  1 -1</clus>
</clustering>
</event>
<event>
 6    0  0.2839294E+002  0.8110291E+02  0.7546771E-02  0.1325950E+00
         21   -1    0    0  504  502  0.00000000000E+00  0.00000000000E+00  0.23405058318E+04  0.23405058318E+04  0.00000000000E+00 0. -1.
         -3   -1    0    0    0  501 -0.00000000000E+00 -0.00000000000E+00 -0.74539622996E+02  0.74539622996E+02  0.00000000000E+00 0.  1.
         21    1    1    2  503  501  0.37729021562E+02  0.25744629875E+02  0.20865799860E+02  0.50215999833E+02  0.00000000000E+00 0.  1.
         21    1    1    2  504  503  0.74062015715E+02 -0.97104720075E+02  0.15477399980E+04  0.15525506788E+04  0.00000000000E+00 0. -1.
         21    1    1    2  505  502 -0.13548182659E+02  0.46831479431E+02  0.70871111557E+03  0.71038594162E+03  0.00000000000E+00 0. -1.
         -3    1    1    2    0  505 -0.98242854617E+02  0.24528610769E+02 -0.11350704654E+02  0.10189283452E+03  0.00000000000E+00 0.  1.
<scales pt_clust_3="45.67565" pt_clust_4="81.10291" pt_clust_5="48.95487" pt_clust_6="14000.00000"></scales>
<clustering>
<clus scale="   45.676">  2  3  1 -1</clus>
<clus scale="   48.955">  1  5  2 -1</clus>
<clus scale="   81.103">  1  4  2 -1</clus>
<clus scale="   48.955">  1  3  2 -1</clus>
</clustering>
</event>
<event>
 6    0  0.2839294E+002  0.1127159E+03  0.7546771E-02  0.1255622E+00
         21   -1    0    0  501  502  0.00000000000E+00  0.00000000000E+00  0.29782208600E+03  0.29782208600E+03  0.00000000000E+00 0. -1.
          2   -1    0    0  504    0 -0.00000000000E+00 -0.00000000000E+00 -0.86532355869E+02  0.86532355869E+02  0.00000000000E+00 0. -1.
         21    1    1    2  503  502 -0.14478888230E+02  0.39217923237E+02  0.62591054144E+02  0.75268345048E+02  0.00000000000E+00 0. -1.
         21    1    1    2  504  505  0.12493388336E+03  0.19625282307E+02  0.59850763053E+02  0.13991333301E+03  0.00000000000E+00 0. -1.
         21    1    1    2  505  503 -0.30617597789E+02  0.15960350531E+02  0.19847355308E+02  0.39825715262E+02  0.00000000000E+00 0.  1.
          2    1    1    2  501    0 -0.79837397337E+02 -0.74803556075E+02  0.69000557620E+02  0.12934704854E+03  0.00000000000E+00 0. -1.
<scales pt_clust_3="80.31532" pt_clust_4="14000.00000" pt_clust_5="33.66512" pt_clust_6="112.71592"></scales>
<clustering>
<clus scale="   33.665">  3  5 -1 -1</clus>
<clus scale="   80.315">  1  3  2 -1</clus>
<clus scale="  112.716">  2  6  1 -1</clus>
<clus scale="   80.315">  1  3  2 -1</clus>
</clustering>
</event>
<event>
 6    0  0.2839294E+002  0.1269441E+03  0.7546771E-02  0.1232062E+00
         21   -1    0    0  505  502  0.00000000000E+00  0.00000000000E+00  0.10865423162E+03  0.10865423162E+03  0.00000000000E+00 0. -1.
          2   -1    0    0  504    0 -0.00000000000E+00 -0.00000000000E+00 -0.82209571457E+03  0.82209571457E+03  0.00000000000E+00 0. -1.
         21    1    1    2  503  502  0.11069218964E+03 -0.65881876193E+01 -0.35920523856E+02  0.11656092440E+03  0.00000000000E+00 0. -1.
         21    1    1    2  504  503 -0.13678732827E+02  0.69869712189E+02 -0.98703947177E+02  0.12170190467E+03  0.00000000000E+00 0. -1.
         21    1    1    2  505  501 -0.14679231961E+03 -0.95886821315E+02 -0.84559223424E+02  0.19466003664E+03  0.00000000000E+00 0. -1.
          2    1    1    2  501    0  0.49778862801E+02  0.32605296745E+02 -0.49425778849E+03  0.49782708046E+03  0.00000000000E+00 0. -1.
<scales pt_clust_3="14000.00000" pt_clust_4="80.95115" pt_clust_5="126.94406" pt_clust_6="59.50664"></scales>
<clustering>
<clus scale="   59.507">  2  6  1 -1</clus>
<clus scale="   80.951">  2  4  1 -1</clus>
<clus scale="  126.944">  2  5  1 -1</clus>
<clus scale="  126.944">  1  3  2 -1</clus>
</clustering>
</event>
<event>
 6    0  0.2839294E+002  0.1097085E+03  0.7546771E-02  0.1261111E+00
         21   -1    0    0  501  502  0.00000000000E+00  0.00000000000E+00  0.10044714038E+04  0.10044714038E+04  0.00000000000E+00 0. -1.
          1   -1    0    0  505    0 -0.00000000000E+00 -0.00000000000E+00 -0.33773090141E+04  0.33773090141E+04  0.00000000000E+00 0. -1.
         21    1    1    2  503  504  0.63965325944E+02  0.12000777579E+03 -0.13122636464E+03  0.18898091954E+03  0.00000000000E+00 0. -1.
         21    1    1    2  504  502 -0.34506547398E+02 -0.18177357307E+02  0.97235144294E+03  0.97313331395E+03  0.00000000000E+00 0. -1.
         21    1    1    2  505  503  0.45801514228E+02  0.83453102761E+01 -0.14134243692E+04  0.14141908889E+04  0.00000000000E+00 0.  1.
          1    1    1    2  501    0 -0.75260292773E+02 -0.11017572876E+03 -0.18005383194E+04  0.18054752955E+04  0.00000000000E+00 0. -1.
<scales pt_clust_3="109.70851" pt_clust_4="39.00151" pt_clust_5="46.10639" pt_clust_6="14000.00000"></scales>
<clustering>
<clus scale="   39.002">  1  4  2 -1</clus>
<clus scale="   46.106">  2  5  1 -1</clus>
<clus scale="  109.709">  1  3  2 -1</clus>
<clus scale="   39.002">  1  3  2 -1</clus>
</clustering>
</event>
<event>
 6    0  0.2839294E+002  0.6732947E+02  0.7546771E-02  0.1369417E+00
         -1   -1    0    0    0  501 -0.00000000000E+00  0.00000000000E+00  0.69165260278E+03  0.69165260278E+03  0.00000000000E+00 0.  1.
         21   -1    0    0  505  502  0.00000000000E+00 -0.00000000000E+00 -0.39687796086E+03  0.39687796086E+03  0.00000000000E+00 0.  1.
         21    1    1    2  503  502 -0.96649845033E+02  0.79618575325E+01  0.50076878529E+01  0.97106439837E+02  0.00000000000E+00 0. -1.
         21    1    1    2  504  501  0.58307183456E+01  0.34005006569E+02  0.19206645401E+03  0.19514061725E+03  0.00000000000E+00 0.  1.
         21    1    1    2  505  504  0.40368803671E+02  0.22535629642E+02 -0.34398142085E+03  0.34707450613E+03  0.00000000000E+00 0.  1.
         -1    1    1    2    0  503  0.50450323016E+02 -0.64502493743E+02  0.44168192092E+03  0.44920900042E+03  0.00000000000E+00 0.  1.
<scales pt_clust_3="67.32947" pt_clust_4="34.50127" pt_clust_5="46.30040" pt_clust_6="14000.00000"></scales>
<clustering>
<clus scale="   34.501">  1  4  2 -1</clus>
<clus scale="   46.300">  2  5  1 -1</clus>
<clus scale="   67.329">  2  3  1 -1</clus>
<clus scale="   46.300">  2  3  1 -1</clus>
</clustering>
</event>
<event>
 6    0  0.2839294E+002  0.1032808E+03  0.7546771E-02  0.1273544E+00
         21   -1    0    0  503  502  0.00000000000E+00  0.00000000000E+00  0.30764425693E+02  0.30764425693E+02  0.00000000000E+00 0. -1.
          2   -1    0    0  504    0 -0.00000000000E+00 -0.00000000000E+00 -0.24164931176E+04  0.24164931176E+04  0.00000000000E+00 0.  1.
         21    1    1    2  503  505  0.13529766517E+02  0.45372044527E+02 -0.56484272942E+01  0.47682090322E+02  0.00000000000E+00 0. -1.
         21    1    1    2  504  502 -0.25318488494E+01 -0.33406979418E+02 -0.17232768882E+03  0.17555417644E+03  0.00000000000E+00 0.  1.
         21    1    1    2  505  501 -0.42235997772E+02  0.69986158880E+02 -0.22599712960E+03  0.24032612119E+03  0.00000000000E+00 0. -1.
          2    1    1    2  501    0  0.31238080105E+02 -0.81951223990E+02 -0.19817554462E+04  0.19836951553E+04  0.00000000000E+00 0.  1.
<scales pt_clust_3="46.95716" pt_clust_4="33.50278" pt_clust_5="14000.00000" pt_clust_6="103.28082"></scales>
<clustering>
<clus scale="   33.503">  2  4  1 -1</clus>
<clus scale="   46.957">  1  3  2 -1</clus>
<clus scale="  103.281">  2  6  1 -1</clus>
<clus scale="   46.957">  1  3  2 -1</clus>
</clustering>
</event>
<event>
 6    0  0.2839294E+002  0.1067509E+03  0.7546771E-02  0.1266708E+00
         21   -1    0    0  505  502  0.00000000000E+00  0.00000000000E+00  0.12476222374E+04  0.12476222374E+04  0.00000000000E+00 0.  1.
          2   -1    0    0  503    0 -0.00000000000E+00 -0.00000000000E+00 -0.16089694219E+03  0.16089694219E+03  0.00000000000E+00 0. -1.
         21    1    1    2  503  504  0.45299842410E+02  0.34636111107E+02  0.10745962475E+02  0.58027679813E+02  0.00000000000E+00 0. -1.
         21    1    1    2  504  502  0.11981981074E+03  0.34843925739E+01  0.88031919780E+03  0.88844291772E+03  0.00000000000E+00 0.  1.
         21    1    1    2  505  501 -0.80846588470E+02  0.46178493895E+02  0.29345227590E+03  0.30786825494E+03  0.00000000000E+00 0.  1.
          2    1    1    2  501    0 -0.84273064683E+02 -0.84298997575E+02 -0.97792140991E+02  0.15418032709E+03  0.00000000000E+00 0. -1.
<scales pt_clust_3="57.02399" pt_clust_4="106.75089" pt_clust_5="14000.00000" pt_clust_6="67.67297"></scales>
<clustering>
<clus scale="   57.024">  2  3  1 -1</clus>
<clus scale="   67.673">  2  6  1 -1</clus>
<clus scale="  106.751">  1  4  2 -1</clus>
<clus scale="  106.751">  1  3  2 -1</clus>
</clustering>
</event>
<event>
 6    0  0.2839294E+002  0.1573694E+03  0.7546771E-02  0.1191699E+00
         21   -1    0    0  503  502  0.00000000000E+00  0.00000000000E+00  0.10415876575E+03  0.10415876575E+03  0.00000000000E+00 0.  1.
          1   -1    0    0  505    0 -0.00000000000E+00 -0.00000000000E+00 -0.73872423558E+03  0.73872423558E+03  0.00000000000E+00 0. -1.
         21    1    1    2  503  501 -0.17245620061E+02  0.79810287713E+02 -0.77675937570E+02  0.11269713711E+03  0.00000000000E+00 0.  1.
         21    1    1    2  504  502  0.65890172951E+02 -0.27268338017E+01 -0.36611315604E+02  0.75427706741E+02  0.00000000000E+00 0.  1.
         21    1    1    2  505  504  0.59844780408E+02  0.61920161412E+02  0.18311579375E+02  0.88038730515E+02  0.00000000000E+00 0.  1.
          1    1    1    2  501    0 -0.10848933330E+03 -0.13900361532E+03 -0.53858979602E+03  0.56671942696E+03  0.00000000000E+00 0. -1.
<scales pt_clust_3="79.33007" pt_clust_4="65.94657" pt_clust_5="14000.00000" pt_clust_6="157.36939"></scales>
<clustering>
<clus scale="   65.947">  1  4  2 -1</clus>
<clus scale="   79.330">  1  3  2 -1</clus>
<clus scale="  157.369">  2  6  1 -1</clus>
<clus scale="   65.947">  1  3  2 -1</clus>
</clustering>
</event>
<event>
 6    0  0.2839294E+002  0.1377970E+03  0.7546771E-02  0.1216324E+00
         21   -1    0    0  501  502  0.00000000000E+00  0.00000000000E+00  0.72735837617E+03  0.72735837617E+03  0.00000000000E+00 0. -1.
         -4   -1    0    0    0  501 -0.00000000000E+00 -0.00000000000E+00 -0.15047618663E+03  0.15047618663E+03  0.00000000000E+00 0. -1.
         21    1    1    2  503  502  0.27591865817E+02 -0.49355449939E+02  0.43617386795E+03  0.43982373126E+03  0.00000000000E+00 0.  1.
         21    1    1    2  504  503 -0.22795724961E+01 -0.71891041343E+02  0.25487327478E+03  0.26482806587E+03  0.00000000000E+00 0. -1.
         21    1    1    2  505  504 -0.20844898364E+02  0.53998991271E+02 -0.29494172730E+02  0.64963890517E+02  0.00000000000E+00 0. -1.
         -4    1    1    2    0  505 -0.44673949563E+01  0.67247500011E+02 -0.84670780464E+02  0.10821887516E+03  0.00000000000E+00 0. -1.
<scales pt_clust_3="53.54157" pt_clust_4="53.54157" pt_clust_5="37.26844" pt_clust_6="130.22532"></scales>
<clustering>
<clus scale="   37.268">  5  6 -1 -1</clus>
<clus scale="   53.542">  3  4 -1 -1</clus>
<clus scale="  130.225">  2  5  1 -1</clus>
<clus scale="  137.797">  1  3  2 -1</clus>
</clustering>
</event>
<event>
 6    0  0.2839294E+002  0.1229161E+03  0.7546771E-02  0.1238363E+00
          2   -1    0    0  504    0 -0.00000000000E+00  0.00000000000E+00  0.12556911087E+04  0.12556911087E+04  0.00000000000E+00 0. -1.
         21   -1    0    0  503  502  0.00000000000E+00 -0.00000000000E+00 -0.23687908541E+03  0.23687908541E+03  0.00000000000E+00 0.  1.
         21    1    1    2  503  501 -0.57478457347E+02 -0.40239483215E+02  0.38246629204E+02  0.79911161385E+02  0.00000000000E+00 0. -1.
         21    1    1    2  504  505  0.45498797395E+02  0.42411017598E+01  0.25397076341E+03  0.25804898018E+03  0.00000000000E+00 0.  1.
         21    1    1    2  505  502 -0.52486099394E+02  0.10275386485E+03 -0.19595659049E+03  0.22740301829E+03  0.00000000000E+00 0.  1.
          2    1    1    2  501    0  0.64465759345E+02 -0.66755483395E+02  0.92255122121E+03  0.92720703429E+03  0.00000000000E+00 0. -1.
<scales pt_clust_3="67.83071" pt_clust_4="45.69603" pt_clust_5="122.91606" pt_clust_6="14000.00000"></scales>
<clustering>
<clus scale="   45.696">  1  4  2 -1</clus>
<clus scale="   67.831">  2  3  1 -1</clus>
<clus scale="  122.916">  2  5  1 -1</clus>
<clus scale="   67.831">  2  3  1 -1</clus>
</clustering>
</event>
<event>
 6    0  0.2839294E+002  0.1236428E+03  0.7546771E-02  0.1237206E+00
          2   -1    0    0  503    0 -0.00000000000E+00  0.00000000000E+00  0.12111994482E+03  0.12111994482E+03  0.00000000000E+00 0. -1.
         21   -1    0    0  501  502  0.00000000000E+00 -0.00000000000E+00 -0.59888800930E+03  0.59888800930E+03  0.00000000000E+00 0.  1.
         21    1    1    2  503  505 -0.72228398885E+02 -0.85584420744E+02  0.28228897937E+02  0.11549244719E+03  0.00000000000E+00 0. -1.
         21    1    1    2  504  502  0.54578140937E+02 -0.17485567679E+02 -0.17713956344E+03  0.18617986862E+03  0.00000000000E+00 0. -1.
         21    1    1    2  505  504  0.66654073118E+02  0.77066128367E+02 -0.34566494442E+03  0.36036954284E+03  0.00000000000E+00 0.  1.
          2    1    1    2  501    0 -0.49003815170E+02  0.26003860057E+02  0.16807545449E+02  0.57966095462E+02  0.00000000000E+00 0. -1.
<scales pt_clust_3="14000.00000" pt_clust_4="54.36578" pt_clust_5="123.64284" pt_clust_6="55.47589"></scales>
<clustering>
<clus scale="   55.476">  1  6  2 -1</clus>
<clus scale="   54.366">  2  4  1 -1</clus>
<clus scale="  123.643">  2  5  1 -1</clus>
<clus scale="   54.366">  2  3  1 -1</clus>
</clustering>
</event>
<event>
 6    0  0.2839294E+002  0.1258469E+03  0.7546771E-02  0.1233752E+00
         21   -1    0    0  501  502  0.00000000000E+00  0.00000000000E+00  0.19905258274E+03  0.19905258274E+03  0.00000000000E+00 0. -1.
          1   -1    0    0  505    0 -0.00000000000E+00 -0.00000000000E+00 -0.80955143356E+03  0.80955143356E+03  0.00000000000E+00 0. -1.
         21    1    1    2  503  504  0.95688174043E+02  0.41572869712E+02 -0.13492378652E+02  0.10519778719E+03  0.00000000000E+00 0. -1.
         21    1    1    2  504  502  0.37463883880E+02 -0.16598288185E+01  0.14087563346E+03  0.14578148624E+03  0.00000000000E+00 0. -1.
         21    1    1    2  505  503 -0.41696265991E+02  0.24155648221E+02 -0.37126859651E+03  0.37438275159E+03  0.00000000000E+00 0. -1.
          1    1    1    2  501    0 -0.91455791932E+02 -0.64068689114E+02 -0.36661350913E+03  0.38324199128E+03  0.00000000000E+00 0. -1.
<scales pt_clust_3="125.84694" pt_clust_4="37.50064" pt_clust_5="47.26132" pt_clust_6="14000.00000"></scales>
<clustering>
<clus scale="   37.501">  1  4  2 -1</clus>
<clus scale="   47.261">  2  5  1 -1</clus>
<clus scale="  125.847">  1  3  2 -1</clus>
<clus scale="   37.501">  1  3  2 -1</clus>
</clustering>
</event>
<event>
 6    0  0.2839294E+002  0.1272025E+03  0.7546771E-02  0.1231667E+00
          1   -1    0    0  503    0 -0.00000000000E+00  0.00000000000E+00  0.79879057662E+03  0.79879057662E+03  0.00000000000E+00 0.  1.
         21   -1    0    0  504  502  0.00000000000E+00 -0.00000000000E+00 -0.27756706885E+03  0.27756706885E+03  0.00000000000E+00 0. -1.
         21    1    1    2  503  505 -0.69876323207E+01  0.12940056453E+03  0.99856320097E+02  0.16359895406E+03  0.00000000000E+00 0. -1.
         21    1    1    2  504  501  0.20667339381E+02 -0.36604829684E+02  0.12414630096E+02  0.43831216201E+02  0.00000000000E+00 0. -1.
         21    1    1    2  505  502 -0.14136396650E+03  0.47410375978E+02 -0.18951289601E+03  0.24113617010E+03  0.00000000000E+00 0. -1.
          1    1    1    2  501    0  0.12768425944E+03 -0.14020611082E+03  0.59846545360E+03  0.62779130511E+03  0.00000000000E+00 0.  1.
<scales pt_clust_3="125.02533" pt_clust_4="42.03632" pt_clust_5="14000.00000" pt_clust_6="127.20247"></scales>
<clustering>
<clus scale="   42.036">  2  4  1 -1</clus>
<clus scale="  125.025">  1  3  2 -1</clus>
<clus scale="  127.202">  1  6  2 -1</clus>
<clus scale="   42.036">  2  3  1 -1</clus>
</clustering>
</event>
<event>
 6    0  0.2839294E+002  0.8800904E+02  0.7546771E-02  0.1307746E+00
          2   -1    0    0  504    0 -0.00000000000E+00  0.00000000000E+00  0.10624508521E+04  0.10624508521E+04  0.00000000000E+00 0.  1.
         21   -1    0    0  505  502  0.00000000000E+00 -0.00000000000E+00 -0.47018098570E+02  0.47018098570E+02  0.00000000000E+00 0. -1.
         21    1    1    2  503  501 -0.15524344606E+02  0.56005020072E+02  0.57620226754E+03  0.57912573822E+03  0.00000000000E+00 0.  1.
         21    1    1    2  504  502  0.72805606888E+02 -0.11173878608E+02  0.17325958638E+03  0.18826682190E+03  0.00000000000E+00 0.  1.
         21    1    1    2  505  503 -0.21524691305E+02 -0.74135052764E+02  0.53443703358E+01  0.77381397496E+02  0.00000000000E+00 0. -1.
          2    1    1    2  501    0 -0.35756570977E+02  0.29303911299E+02  0.26062652928E+03  0.26469499306E+03  0.00000000000E+00 0.  1.
<scales pt_clust_3="38.29584" pt_clust_4="73.65807" pt_clust_5="76.82412" pt_clust_6="38.29584"></scales>
<clustering>
<clus scale="   38.296">  3  6 -1 -1</clus>
<clus scale="   73.658">  1  4  2 -1</clus>
<clus scale="   76.824">  2  5  1 -1</clus>
<clus scale="   76.824">  2  3  1 -1</clus>
</clustering>
</event>
<event>
 6    0  0.3189908E+002  0.1374356E+03  0.7546771E-02  0.1216822E+00
         21   -1    0    0  504  502  0.00000000000E+00  0.00000000000E+00  0.45474757866E+03  0.45474757866E+03  0.00000000000E+00 0.  1.
          1   -1    0    0  505    0 -0.00000000000E+00 -0.00000000000E+00 -0.17726212721E+04  0.17726212721E+04  0.00000000000E+00 0.  1.
         21    1    1    2  503  501  0.36764956826E+02  0.10361611941E+03 -0.19756464151E+03  0.22609677094E+03  0.00000000000E+00 0.  1.
         21    1    1    2  504  503  0.44598994852E+01  0.43023320711E+02 -0.15325473106E+02  0.45888636440E+02  0.00000000000E+00 0. -1.
         21    1    1    2  505  502  0.16296863586E+02 -0.18465970824E+03  0.40417021228E+03  0.44465532282E+03  0.00000000000E+00 0.  1.
          1    1    1    2  501    0 -0.57521719897E+02  0.38020268126E+02 -0.15091537911E+04  0.15107281206E+04  0.00000000000E+00 0.  1.
<scales pt_clust_3="137.43558" pt_clust_4="43.25386" pt_clust_5="14000.00000" pt_clust_6="68.98722"></scales>
<clustering>
<clus scale="   43.254">  1  4  2 -1</clus>
<clus scale="   68.987">  2  6  1 -1</clus>
<clus scale="  137.436">  2  3  1 -1</clus>
<clus scale="   43.254">  1  3  2 -1</clus>
</clustering>
</event>
<event>
 6    0  0.2839294E+002  0.1291427E+03  0.7546771E-02  0.1228733E+00
          1   -1    0    0  503    0 -0.00000000000E+00  0.00000000000E+00  0.55607853586E+03  0.55607853586E+03  0.00000000000E+00 0. -1.
         21   -1    0    0  504  502  0.00000000000E+00 -0.00000000000E+00 -0.11983754267E+03  0.11983754267E+03  0.00000000000E+00 0. -1.
         21    1    1    2  503  502 -0.16505155770E+03  0.72770304486E+02  0.15949905621E+03  0.24078513834E+03  0.00000000000E+00 0. -1.
         21    1    1    2  504  505  0.11979017438E+03  0.12423126273E+02 -0.19027617492E+02  0.12192649495E+03  0.00000000000E+00 0. -1.
         21    1    1    2  505  501  0.57792232518E+01 -0.46611706297E+02  0.11593599472E+03  0.12508879030E+03  0.00000000000E+00 0. -1.
          1    1    1    2  501    0  0.39482160064E+02 -0.38581724462E+02  0.17983355973E+03  0.18811565494E+03  0.00000000000E+00 0. -1.
<scales pt_clust_3="129.14272" pt_clust_4="14000.00000" pt_clust_5="33.39670" pt_clust_6="103.04075"></scales>
<clustering>
<clus scale="   33.397">  5  6 -1 -1</clus>
<clus scale="  103.041">  1  5  2 -1</clus>
<clus scale="  129.143">  1  3  2 -1</clus>
<clus scale="  129.143">  2  3  1 -1</clus>
</clustering>
</event>
<event>
 6    0  0.2839294E+002  0.8579217E+02  0.7546771E-02  0.1313374E+00
         21   -1    0    0  505  502  0.00000000000E+00  0.00000000000E+00  0.68490639043E+03  0.68490639043E+03  0.00000000000E+00 0.  1.
          2   -1    0    0  503    0 -0.00000000000E+00 -0.00000000000E+00 -0.30080821512E+03  0.30080821512E+03  0.00000000000E+00 0.  1.
         21    1    1    2  503  502  0.32871592843E+02 -0.26346232554E+02 -0.29201336731E+02  0.51258010620E+02  0.00000000000E+00 0.  1.
         21    1    1    2  504  501 -0.61940213208E+02 -0.86726758819E+02  0.12028824279E+03  0.16070899807E+03  0.00000000000E+00 0.  1.
         21    1    1    2  505  504 -0.53953118863E+01  0.36082505200E+02  0.52532680666E+03  0.52659216702E+03  0.00000000000E+00 0.  1.
          2    1    1    2  501    0  0.34463932251E+02  0.76990486173E+02 -0.23231553739E+03  0.24715542984E+03  0.00000000000E+00 0.  1.
<scales pt_clust_3="40.30564" pt_clust_4="14000.00000" pt_clust_5="36.48365" pt_clust_6="85.79217"></scales>
<clustering>
<clus scale="   36.484">  1  5  2 -1</clus>
<clus scale="   40.306">  2  3  1 -1</clus>
<clus scale="   85.792">  2  6  1 -1</clus>
<clus scale="   36.484">  1  3  2 -1</clus>
</clustering>
</event>
<event>
 6    0  0.2839294E+002  0.1686579E+03  0.7546771E-02  0.1179255E+00
         -1   -1    0    0    0  501 -0.00000000000E+00  0.00000000000E+00  0.10007321098E+03  0.10007321098E+03  0.00000000000E+00 0.  1.
         21   -1    0    0  505  502  0.00000000000E+00 -0.00000000000E+00 -0.10294810215E+04  0.10294810215E+04  0.00000000000E+00 0.  1.
         21    1    1    2  503  504  0.83447619986E+02  0.14242809082E+03 -0.18915296303E+03  0.25105399769E+03  0.00000000000E+00 0.  1.
         21    1    1    2  504  501  0.42935495887E+02  0.34803062826E+02  0.86371065134E+01  0.55940232374E+02  0.00000000000E+00 0.  1.
         21    1    1    2  505  503 -0.13422732448E+03 -0.10831914234E+03 -0.73080493213E+03  0.75088338646E+03  0.00000000000E+00 0.  1.
         -1    1    1    2    0  502  0.78442086085E+01 -0.68912011303E+02 -0.18087021838E+02  0.71676615919E+02  0.00000000000E+00 0.  1.
<scales pt_clust_3="168.65795" pt_clust_4="55.26943" pt_clust_5="14000.00000" pt_clust_6="60.48040"></scales>
<clustering>
<clus scale="   55.269">  1  4  2 -1</clus>
<clus scale="   60.480">  1  6  2 -1</clus>
<clus scale="  168.658">  1  3  2 -1</clus>
<clus scale="  168.658">  2  3  1 -1</clus>
</clustering>
</event>
<event>
 6    0  0.2839294E+002  0.7898423E+02  0.7546771E-02  0.1331959E+00
          2   -1    0    0  505    0 -0.00000000000E+00  0.00000000000E+00  0.14737582391E+04  0.14737582391E+04  0.00000000000E+00 0. -1.
         21   -1    0    0  504  502  0.00000000000E+00 -0.00000000000E+00 -0.18638937115E+03  0.18638937115E+03  0.00000000000E+00 0.  1.
         21    1    1    2  503  501  0.67544809403E+02 -0.22464695164E+02  0.83692881719E+03  0.83995048000E+03  0.00000000000E+00 0. -1.
         21    1    1    2  504  503 -0.10984332465E+03  0.23278587837E+01  0.26882206730E+02  0.11310892067E+03  0.00000000000E+00 0.  1.
         21    1    1    2  505  502  0.32263620095E+02 -0.13064134639E+02 -0.13908642495E+03  0.14337589198E+03  0.00000000000E+00 0.  1.
          2    1    1    2  501    0  0.10034895156E+02  0.33200971019E+02  0.56264426901E+03  0.56371231763E+03  0.00000000000E+00 0. -1.
<scales pt_clust_3="78.98423" pt_clust_4="14000.00000" pt_clust_5="34.80088" pt_clust_6="34.68434"></scales>
<clustering>
<clus scale="   34.684">  1  6  2 -1</clus>
<clus scale="   34.801">  2  5  1 -1</clus>
<clus scale="   78.984">  1  3  2 -1</clus>
<clus scale="   34.801">  2  3  1 -1</clus>
</clustering>
</event>
<event>
 6    0  0.2839294E+002  0.3494343E+03  0.7546771E-02  0.1062847E+00
          1   -1    0    0  505    0 -0.00000000000E+00  0.00000000000E+00  0.22668198183E+04  0.22668198183E+04  0.00000000000E+00 0. -1.
         21   -1    0    0  503  502  0.00000000000E+00 -0.00000000000E+00 -0.14330012258E+03  0.14330012258E+03  0.00000000000E+00 0. -1.
         21    1    1    2  503  504 -0.51856229490E+02 -0.50530405640E+02 -0.77346471126E+02  0.10594747296E+03  0.00000000000E+00 0. -1.
         21    1    1    2  504  501  0.73945358683E+02 -0.99433772555E+02  0.32923629075E+03  0.35178335143E+03  0.00000000000E+00 0. -1.
         21    1    1    2  505  502  0.21155923278E+02  0.34143578312E+03  0.94022581634E+03  0.10005251385E+04  0.00000000000E+00 0. -1.
          1    1    1    2  501    0 -0.43245052472E+02 -0.19147160493E+03  0.93140405972E+03  0.95186397795E+03  0.00000000000E+00 0. -1.
<scales pt_clust_3="72.40435" pt_clust_4="122.69365" pt_clust_5="312.07453" pt_clust_6="122.69365"></scales>
<clustering>
<clus scale="   72.404">  2  3  1 -1</clus>
<clus scale="  122.694">  4  6 -1 -1</clus>
<clus scale="  312.075">  2  5  1 -1</clus>
<clus scale="   72.404">  2  3  1 -1</clus>
</clustering>
</event>
<event>
 6    0  0.2839294E+002  0.1044831E+03  0.7546771E-02  0.1271141E+00
         21   -1    0    0  504  502  0.00000000000E+00  0.00000000000E+00  0.89990044614E+02  0.89990044614E+02  0.00000000000E+00 0. -1.
          2   -1    0    0  505    0 -0.00000000000E+00 -0.00000000000E+00 -0.99073793921E+03  0.99073793921E+03  0.00000000000E+00 0.  1.
         21    1    1    2  503  501 -0.54314537717E+02 -0.82840806581E+02  0.22070072643E+02  0.10148771526E+03  0.00000000000E+00 0. -1.
         21    1    1    2  504  503  0.23672357192E+02 -0.20995365966E+02 -0.33419507199E+01  0.31817519100E+02  0.00000000000E+00 0.  1.
         21    1    1    2  505  502  0.93966635690E+02 -0.13265353512E+02 -0.41022300060E+03  0.42105653830E+03  0.00000000000E+00 0.  1.
          2    1    1    2  501    0 -0.63324455165E+02  0.11710152606E+03 -0.50925301592E+03  0.52636621116E+03  0.00000000000E+00 0.  1.
<scales pt_clust_3="104.48314" pt_clust_4="31.64152" pt_clust_5="96.79239" pt_clust_6="14000.00000"></scales>
<clustering>
<clus scale="   31.642">  1  4  2 -1</clus>
<clus scale="   96.792">  2  5  1 -1</clus>
<clus scale="  104.483">  1  3  2 -1</clus>
<clus scale="   31.642">  1  3  2 -1</clus>
</clustering>
</event>
<event>
 6    0  0.2839294E+002  0.8154684E+02  0.7546771E-02  0.1324718E+00
         -3   -1    0    0    0  501 -0.00000000000E+00  0.00000000000E+00  0.45674085362E+03  0.45674085362E+03  0.00000000000E+00 0.  1.
         21   -1    0    0  505  502  0.00000000000E+00 -0.00000000000E+00 -0.20209573640E+03  0.20209573640E+03  0.00000000000E+00 0.  1.
         21    1    1    2  503  504 -0.58747584067E+01  0.13364531466E+03 -0.36665313868E+02  0.13870806810E+03  0.00000000000E+00 0.  1.
         21    1    1    2  504  501  0.13609751269E+02  0.44715952827E+02  0.12612066349E+03  0.13450339597E+03  0.00000000000E+00 0.  1.
         21    1    1    2  505  503  0.27893436627E+00 -0.67107142063E+02 -0.86996730880E+02  0.10987209611E+03  0.00000000000E+00 0.  1.
         -3    1    1    2    0  502 -0.80139272285E+01 -0.11125412542E+03  0.25218649847E+03  0.27575302984E+03  0.00000000000E+00 0.  1.
<scales pt_clust_3="81.54684" pt_clust_4="46.74122" pt_clust_5="65.54471" pt_clust_6="14000.00000"></scales>
<clustering>
<clus scale="   46.741">  1  4  2 -1</clus>
<clus scale="   65.545">  2  5  1 -1</clus>
<clus scale="   81.547">  2  3  1 -1</clus>
<clus scale="   65.545">  2  3  1 -1</clus>
</clustering>
</event>
<event>
 6    0  0.2839294E+002  0.8882729E+02  0.7546771E-02  0.1305717E+00
         21   -1    0    0  504  502  0.00000000000E+00  0.00000000000E+00  0.22909621891E+03  0.22909621891E+03  0.00000000000E+00 0. -1.
          1   -1    0    0  505    0 -0.00000000000E+00 -0.00000000000E+00 -0.92288245544E+03  0.92288245544E+03  0.00000000000E+00 0. -1.
         21    1    1    2  503  502  0.74852776170E+02  0.67598966251E+02  0.19684708382E+03  0.22118167363E+03  0.00000000000E+00 0. -1.
         21    1    1    2  504  501 -0.29853176193E+02  0.71035378133E+01 -0.98276447785E+01  0.32221964250E+02  0.00000000000E+00 0.  1.
         21    1    1    2  505  503  0.23960362801E+02  0.25733511055E+02 -0.66666523202E+02  0.75370669976E+02  0.00000000000E+00 0.  1.
          1    1    1    2  501    0 -0.68959962778E+02 -0.10043601512E+03 -0.81413915238E+03  0.82320436650E+03  0.00000000000E+00 0. -1.
<scales pt_clust_3="14000.00000" pt_clust_4="30.68668" pt_clust_5="34.86284" pt_clust_6="88.82729"></scales>
<clustering>
<clus scale="   30.687">  1  4  2 -1</clus>
<clus scale="   34.863">  2  5  1 -1</clus>
<clus scale="   88.827">  2  6  1 -1</clus>
<clus scale="   30.687">  1  3  2 -1</clus>
</clustering>
</event>
<event>
 6    0  0.2839294E+002  0.2550803E+03  0.7546771E-02  0.1110136E+00
         21   -1    0    0  503  502  0.00000000000E+00  0.00000000000E+00  0.23820850256E+03  0.23820850256E+03  0.00000000000E+00 0.  1.
          1   -1    0    0  504    0 -0.00000000000E+00 -0.00000000000E+00 -0.64731240120E+03  0.64731240120E+03  0.00000000000E+00 0. -1.
         21    1    1    2  503  501 -0.26662848080E+03  0.27907006504E+02  0.38896999391E+02  0.27089208986E+03  0.00000000000E+00 0.  1.
         21    1    1    2  504  505  0.38296836104E+02 -0.55300561235E+02 -0.63531278137E+02  0.92525796566E+02  0.00000000000E+00 0.  1.
         21    1    1    2  505  502  0.58074517266E+01 -0.62183130195E+02  0.71451347692E+01  0.62861125724E+02  0.00000000000E+00 0.  1.
          1    1    1    2  501    0  0.22252419297E+03  0.89576684927E+02 -0.39161475467E+03  0.45924189161E+03  0.00000000000E+00 0. -1.
<scales pt_clust_3="14000.00000" pt_clust_4="71.18321" pt_clust_5="62.45373" pt_clust_6="255.08029"></scales>
<clustering>
<clus scale="   62.454">  1  5  2 -1</clus>
<clus scale="   71.183">  2  4  1 -1</clus>
<clus scale="  255.080">  2  6  1 -1</clus>
<clus scale="   62.454">  1  3  2 -1</clus>
</clustering>
</event>
<event>
 6    0  0.2839294E+002  0.9461325E+02  0.7546771E-02  0.1292050E+00
          2   -1    0    0  505    0 -0.00000000000E+00  0.00000000000E+00  0.52224517044E+03  0.52224517044E+03  0.00000000000E+00 0. -1.
         21   -1    0    0  503  502  0.00000000000E+00 -0.00000000000E+00 -0.16390227654E+03  0.16390227654E+03  0.00000000000E+00 0. -1.
         21    1    1    2  503  501 -0.91736018989E+02 -0.39977097271E+02  0.21177283138E+03  0.23422510027E+03  0.00000000000E+00 0.  1.
         21    1    1    2  504  502  0.41572330339E+02  0.43167622675E+01 -0.37314437809E+02  0.56029102753E+02  0.00000000000E+00 0. -1.
         21    1    1    2  505  504  0.28358167920E+02  0.65418786589E+02 -0.92649564076E+02  0.11690913159E+03  0.00000000000E+00 0. -1.
          2    1    1    2  501    0  0.21805520730E+02 -0.29758451586E+02  0.27653406441E+03  0.27898411237E+03  0.00000000000E+00 0. -1.
<scales pt_clust_3="14000.00000" pt_clust_4="42.52580" pt_clust_5="94.61325" pt_clust_6="36.89236"></scales>
<clustering>
<clus scale="   36.892">  1  6  2 -1</clus>
<clus scale="   42.526">  2  4  1 -1</clus>
<clus scale="   94.613">  2  5  1 -1</clus>
<clus scale="   42.526">  2  3  1 -1</clus>
</clustering>
</event>
<event>
 6    0  0.2839294E+002  0.1121672E+03  0.7546771E-02  0.1256608E+00
         21   -1    0    0  505  502  0.00000000000E+00  0.00000000000E+00  0.33375883182E+04  0.33375883182E+04  0.00000000000E+00 0. -1.
          3   -1    0    0  504    0 -0.00000000000E+00 -0.00000000000E+00 -0.13550203679E+02  0.13550203679E+02  0.00000000000E+00 0.  1.
         21    1    1    2  503  502  0.11498097557E+03 -0.48946519156E+02  0.10911264939E+04  0.10982592645E+04  0.00000000000E+00 0. -1.
         21    1    1    2  504  503 -0.99004719147E+02 -0.40886286967E+02  0.49111287021E+03  0.50265840703E+03  0.00000000000E+00 0.  1.
         21    1    1    2  505  501  0.22100798989E+02  0.49817344465E+02  0.15409943014E+04  0.15419577329E+04  0.00000000000E+00 0. -1.
          3    1    1    2  501    0 -0.38077055416E+02  0.40015461658E+02  0.20080444902E+03  0.20826311739E+03  0.00000000000E+00 0.  1.
<scales pt_clust_3="112.16724" pt_clust_4="14000.00000" pt_clust_5="54.49966" pt_clust_6="57.89620"></scales>
<clustering>
<clus scale="   54.500">  1  5  2 -1</clus>
<clus scale="   57.896">  2  6  1 -1</clus>
<clus scale="  112.167">  1  3  2 -1</clus>
<clus scale="   54.500">  1  3  2 -1</clus>
</clustering>
</event>
<event>
 6    0  0.2839294E+002  0.7095745E+02  0.7546771E-02  0.1356867E+00
         21   -1    0    0  503  502  0.00000000000E+00  0.00000000000E+00  0.32336590068E+02  0.32336590068E+02  0.00000000000E+00 0.  1.
          1   -1    0    0  504    0 -0.00000000000E+00 -0.00000000000E+00 -0.38689903584E+04  0.38689903584E+04  0.00000000000E+00 0.  1.
         21    1    1    2  503  505  0.38781087362E+02 -0.65895329443E+00 -0.69498796458E+02  0.79589507258E+02  0.00000000000E+00 0. -1.
         21    1    1    2  504  502 -0.92013868397E+02  0.45369082103E+02 -0.76806171676E+02  0.12815651991E+03  0.00000000000E+00 0.  1.
         21    1    1    2  505  501  0.75547071160E+02 -0.10087832112E+02 -0.99410290159E+03  0.99702041266E+03  0.00000000000E+00 0.  1.
          1    1    1    2  501    0 -0.22314290124E+02 -0.34622296696E+02 -0.26962458986E+04  0.26965605087E+04  0.00000000000E+00 0.  1.
<scales pt_clust_3="38.78669" pt_clust_4="14000.00000" pt_clust_5="70.95745" pt_clust_6="41.07272"></scales>
<clustering>
<clus scale="   38.787">  1  3  2 -1</clus>
<clus scale="   41.073">  2  6  1 -1</clus>
<clus scale="   70.957">  2  5  1 -1</clus>
<clus scale="   38.787">  1  3  2 -1</clus>
</clustering>
</event>
<event>
 6    0  0.2839294E+002  0.3023916E+03  0.7546771E-02  0.1084051E+00
         21   -1    0    0  504  502  0.00000000000E+00  0.00000000000E+00  0.25081424566E+04  0.25081424566E+04  0.00000000000E+00 0.  1.
          2   -1    0    0  505    0 -0.00000000000E+00 -0.00000000000E+00 -0.10241043793E+04  0.10241043793E+04  0.00000000000E+00 0.  1.
         21    1    1    2  503  501  0.30973181622E+03 -0.20561179873E+03 -0.17305294361E+03  0.41006990995E+03  0.00000000000E+00 0.  1.
         21    1    1    2  504  503 -0.31109220230E+02 -0.51014500511E+01  0.47050020326E+02  0.56634907863E+02  0.00000000000E+00 0.  1.
         21    1    1    2  505  502 -0.87171707513E+02 -0.43778426801E+01  0.23084502480E+04  0.23100996991E+04  0.00000000000E+00 0.  1.
          2    1    1    2  501    0 -0.19145088848E+03  0.21509109146E+03 -0.69840924744E+03  0.75544231893E+03  0.00000000000E+00 0.  1.
<scales pt_clust_3="14000.00000" pt_clust_4="31.52473" pt_clust_5="116.77974" pt_clust_6="302.39163"></scales>
<clustering>
<clus scale="   31.525">  1  4  2 -1</clus>
<clus scale="  116.780">  1  5  2 -1</clus>
<clus scale="  302.392">  2  6  1 -1</clus>
<clus scale="   31.525">  1  3  2 -1</clus>
</clustering>
</event>
<event>
 6    0  0.2839294E+002  0.9468431E+02  0.7546771E-02  0.1291889E+00
         21   -1    0    0  504  502  0.00000000000E+00  0.00000000000E+00  0.40388387686E+02  0.40388387686E+02  0.00000000000E+00 0. -1.
          1   -1    0    0  505    0 -0.00000000000E+00 -0.00000000000E+00 -0.33210590045E+04  0.33210590045E+04  0.00000000000E+00 0. -1.
         21    1    1    2  503  502  0.87770394133E+02  0.12369038071E+02 -0.12240691728E+03  0.15112937698E+03  0.00000000000E+00 0. -1.
         21    1    1    2  504  501 -0.82487470706E+02 -0.69111821231E+02 -0.10603677547E+03  0.15107754436E+03  0.00000000000E+00 0. -1.
         21    1    1    2  505  503  0.32846219260E+02  0.98052096747E+02 -0.84584700915E+03  0.85214450106E+03  0.00000000000E+00 0. -1.
          1    1    1    2  501    0 -0.38129142687E+02 -0.41309313587E+02 -0.22063799150E+04  0.22070959698E+04  0.00000000000E+00 0. -1.
<scales pt_clust_3="14000.00000" pt_clust_4="94.68431" pt_clust_5="66.68685" pt_clust_6="56.21646"></scales>
<clustering>
<clus scale="   56.216">  2  6  1 -1</clus>
<clus scale="   66.687">  2  5  1 -1</clus>
<clus scale="   94.684">  1  4  2 -1</clus>
<clus scale="   94.684">  1  3  2 -1</clus>
</clustering>
</event>
<event>
 6    0  0.2839294E+002  0.2228060E+03  0.7546771E-02  0.1131808E+00
         21   -1    0    0  503  502  0.00000000000E+00  0.00000000000E+00  0.17499907883E+03  0.17499907883E+03  0.00000000000E+00 0. -1.
          2   -1    0    0  504    0 -0.00000000000E+00 -0.00000000000E+00 -0.23016553348E+04  0.23016553348E+04  0.00000000000E+00 0. -1.
         21    1    1    2  503  501 -0.45657206073E+02  0.88345755840E+01 -0.52313585233E+02  0.69995295500E+02  0.00000000000E+00 0. -1.
         21    1    1    2  504  505  0.41574183750E+02 -0.73816822843E+02 -0.31392843152E+03  0.32515903217E+03  0.00000000000E+00 0.  1.
         21    1    1    2  505  502 -0.13622136957E+03  0.13277354681E+03  0.99770375759E+02  0.21480038207E+03  0.00000000000E+00 0. -1.
          2    1    1    2  501    0  0.14030439189E+03 -0.67791299549E+02 -0.18601846150E+04  0.18666997039E+04  0.00000000000E+00 0. -1.
<scales pt_clust_3="46.50409" pt_clust_4="83.71040" pt_clust_5="14000.00000" pt_clust_6="222.80602"></scales>
<clustering>
<clus scale="   46.504">  1  3  2 -1</clus>
<clus scale="   83.710">  2  4  1 -1</clus>
<clus scale="  222.806">  2  6  1 -1</clus>
<clus scale="   46.504">  1  3  2 -1</clus>
</clustering>
</event>
<event>
 6    0  0.2839294E+002  0.9805573E+02  0.7546771E-02  0.1284438E+00
         21   -1    0    0  503  502  0.00000000000E+00  0.00000000000E+00  0.35509640747E+03  0.35509640747E+03  0.00000000000E+00 0.  1.
         -1   -1    0    0    0  501 -0.00000000000E+00 -0.00000000000E+00 -0.71536725211E+02  0.71536725211E+02  0.00000000000E+00 0. -1.
         21    1    1    2  503  501 -0.96230290651E+02  0.90974844622E+02  0.16897502477E+03  0.21468407065E+03  0.00000000000E+00 0.  1.
         21    1    1    2  504  505  0.35940131047E+02 -0.71481641103E+01  0.27178296254E+02  0.45622900577E+02  0.00000000000E+00 0. -1.
         21    1    1    2  505  502  0.31902411240E+02 -0.15820970372E+02  0.85488209445E+02  0.92608319824E+02  0.00000000000E+00 0.  1.
         -1    1    1    2    0  504  0.28387748364E+02 -0.68005710140E+02  0.19181517880E+01  0.73717841633E+02  0.00000000000E+00 0. -1.
<scales pt_clust_3="91.27425" pt_clust_4="35.32283" pt_clust_5="35.32283" pt_clust_6="73.69288"></scales>
<clustering>
<clus scale="   35.323">  4  5 -1 -1</clus>
<clus scale="   73.693">  2  6  1 -1</clus>
<clus scale="   91.274">  2  3  1 -1</clus>
<clus scale="   98.056">  1  3  2 -1</clus>
</clustering>
</event>
<event>
 6    0  0.2839294E+002  0.7955924E+03  0.7546771E-02  0.9566419E-01
         21   -1    0    0  503  502  0.00000000000E+00  0.00000000000E+00  0.43180728358E+03  0.43180728358E+03  0.00000000000E+00 0. -1.
          1   -1    0    0  504    0 -0.00000000000E+00 -0.00000000000E+00 -0.25512601045E+04  0.25512601045E+04  0.00000000000E+00 0. -1.
         21    1    1    2  503  505 -0.37088800281E+03 -0.69954707736E+03 -0.17678409552E+03  0.81128086413E+03  0.00000000000E+00 0. -1.
         21    1    1    2  504  502 -0.64094725390E+02  0.35935654660E+02 -0.14132667697E+01  0.73494914257E+02  0.00000000000E+00 0. -1.
         21    1    1    2  505  501  0.89182193296E+02  0.17057204822E+03 -0.53229915520E+03  0.56603063332E+03  0.00000000000E+00 0.  1.
          1    1    1    2  501    0  0.34580053491E+03  0.49303937448E+03 -0.14089563034E+04  0.15322609764E+04  0.00000000000E+00 0. -1.
<scales pt_clust_3="792.59224" pt_clust_4="73.48132" pt_clust_5="39.02465" pt_clust_6="39.02465"></scales>
<clustering>
<clus scale="   39.025">  5  6 -1 -1</clus>
<clus scale="   73.481">  1  4  2 -1</clus>
<clus scale="  792.592">  1  3  2 -1</clus>
<clus scale="   73.481">  1  3  2 -1</clus>
</clustering>
</event>
<event>
 6    0  0.2839294E+002  0.1844423E+03  0.7546771E-02  0.1163572E+00
         21   -1    0    0  505  502  0.00000000000E+00  0.00000000000E+00  0.14623134905E+03  0.14623134905E+03  0.00000000000E+00 0.  1.
          2   -1    0    0  504    0 -0.00000000000E+00 -0.00000000000E+00 -0.10881037626E+04  0.10881037626E+04  0.00000000000E+00 0.  1.
         21    1    1    2  503  502 -0.10548385724E+03 -0.15378345032E+03  0.46969425934E+02  0.19230787998E+03  0.00000000000E+00 0.  1.
         21    1    1    2  504  503  0.63822948044E+02  0.16655578830E+03 -0.34154625955E+03  0.38531551581E+03  0.00000000000E+00 0.  1.
         21    1    1    2  505  501  0.24862648042E+02 -0.42453712624E+02 -0.14228124465E+03  0.15054707424E+03  0.00000000000E+00 0.  1.
          2    1    1    2  501    0  0.16798261157E+02  0.29681374641E+02 -0.50501433527E+03  0.50616464160E+03  0.00000000000E+00 0.  1.
<scales pt_clust_3="14000.00000" pt_clust_4="184.44226" pt_clust_5="45.50234" pt_clust_6="34.10521"></scales>
<clustering>
<clus scale="   34.105">  2  6  1 -1</clus>
<clus scale="   45.502">  2  5  1 -1</clus>
<clus scale="  184.442">  2  4  1 -1</clus>
<clus scale="  184.442">  1  3  2 -1</clus>
</clustering>
</event>
<event>
 6    0  0.2839294E+002  0.1231229E+03  0.7546771E-02  0.1238032E+00
          2   -1    0    0  504    0 -0.00000000000E+00  0.00000000000E+00  0.14825555418E+04  0.14825555418E+04  0.00000000000E+00 0. -1.
         21   -1    0    0  505  502  0.00000000000E+00 -0.00000000000E+00 -0.27997264903E+02  0.27997264903E+02  0.00000000000E+00 0. -1.
         21    1    1    2  503  501  0.32148268921E+02 -0.34422786691E+02  0.69938075503E+03  0.70096496342E+03  0.00000000000E+00 0.  1.
         21    1    1    2  504  502 -0.10815933977E+03  0.77540716001E+02  0.18741730502E+03  0.22986137483E+03  0.00000000000E+00 0. -1.
         21    1    1    2  505  503  0.10157927247E+02 -0.31230206318E+02  0.68098392795E+02  0.75603573817E+02  0.00000000000E+00 0.  1.
          2    1    1    2  501    0  0.65853143603E+02 -0.11887722992E+02  0.49966182408E+03  0.50412289467E+03  0.00000000000E+00 0. -1.
<scales pt_clust_3="44.24061" pt_clust_4="111.24094" pt_clust_5="32.84066" pt_clust_6="44.24061"></scales>
<clustering>
<clus scale="   32.841">  2  5  1 -1</clus>
<clus scale="   44.241">  3  6 -1 -1</clus>
<clus scale="  111.241">  2  4  1 -1</clus>
<clus scale="   32.841">  2  3  1 -1</clus>
</clustering>
</event>
<event>
 6    0  0.2839294E+002  0.6369550E+02  0.7546771E-02  0.1382947E+00
         21   -1    0    0  505  502  0.00000000000E+00  0.00000000000E+00  0.42248013525E+02  0.42248013525E+02  0.00000000000E+00 0.  1.
          1   -1    0    0  504    0 -0.00000000000E+00 -0.00000000000E+00 -0.19757354736E+04  0.19757354736E+04  0.00000000000E+00 0.  1.
         21    1    1    2  503  502  0.45746562025E+02  0.32659382234E+02 -0.23345519725E+02  0.60863753386E+02  0.00000000000E+00 0.  1.
         21    1    1    2  504  503  0.68305987031E+02 -0.55629921750E+02 -0.85010619285E+02  0.12242222612E+03  0.00000000000E+00 0.  1.
         21    1    1    2  505  501 -0.53780840813E+02  0.42656078922E+01 -0.16981936146E+03  0.17818302326E+03  0.00000000000E+00 0.  1.
          1    1    1    2  501    0 -0.60271708243E+02  0.18704931623E+02 -0.16553119596E+04  0.16565144843E+04  0.00000000000E+00 0.  1.
<scales pt_clust_3="39.73238" pt_clust_4="63.69550" pt_clust_5="53.94974" pt_clust_6="14000.00000"></scales>
<clustering>
<clus scale="   53.950">  1  5  2 -1</clus>
<clus scale="   39.732">  1  3  2 -1</clus>
<clus scale="   63.696">  1  4  2 -1</clus>
<clus scale="   53.950">  1  3  2 -1</clus>
</clustering>
</event>
<event>
 6    0  0.2839294E+002  0.8706013E+02  0.7546771E-02  0.1310131E+00
          2   -1    0    0  505    0 -0.00000000000E+00  0.00000000000E+00  0.43412940010E+03  0.43412940010E+03  0.00000000000E+00 0. -1.
         21   -1    0    0  503  502  0.00000000000E+00 -0.00000000000E+00 -0.19190728895E+03  0.19190728895E+03  0.00000000000E+00 0. -1.
         21    1    1    2  503  501  0.39995224040E+02  0.71966174066E+01  0.15784151236E+02  0.43595282753E+02  0.00000000000E+00 0. -1.
         21    1    1    2  504  502 -0.32466161751E+02  0.21850122242E+02 -0.29196153803E+02  0.48825146162E+02  0.00000000000E+00 0. -1.
         21    1    1    2  505  504 -0.56344882973E+02 -0.99903940580E+02 -0.10944380372E+03  0.15853545141E+03  0.00000000000E+00 0. -1.
          2    1    1    2  501    0  0.48815820684E+02  0.70857200932E+02  0.36507791744E+03  0.37508080873E+03  0.00000000000E+00 0. -1.
<scales pt_clust_3="38.16399" pt_clust_4="39.13412" pt_clust_5="14000.00000" pt_clust_6="87.06013"></scales>
<clustering>
<clus scale="   39.134">  2  4  1 -1</clus>
<clus scale="   38.164">  2  3  1 -1</clus>
<clus scale="   87.060">  1  6  2 -1</clus>
<clus scale="   39.134">  2  3  1 -1</clus>
</clustering>
</event>
<event>
 6    0  0.2839294E+002  0.7158520E+02  0.7546771E-02  0.1354784E+00
         21   -1    0    0  503  502  0.00000000000E+00  0.00000000000E+00  0.52167867883E+03  0.52167867883E+03  0.00000000000E+00 0. -1.
          2   -1    0    0  504    0 -0.00000000000E+00 -0.00000000000E+00 -0.21015049240E+04  0.21015049240E+04  0.00000000000E+00 0.  1.
         21    1    1    2  503  501 -0.11275501572E+02  0.73115836866E+02  0.45106279637E+03  0.45708938820E+03  0.00000000000E+00 0. -1.
         21    1    1    2  504  505  0.23259202850E+02  0.24414663452E+02 -0.46565402913E+03  0.46687336736E+03  0.00000000000E+00 0. -1.
         21    1    1    2  505  502 -0.59918068357E+02 -0.57409948201E+02  0.40452347654E+02  0.92317222114E+02  0.00000000000E+00 0.  1.
          2    1    1    2  501    0  0.47934367079E+02 -0.40120552118E+02 -0.16056873601E+04  0.16069036252E+04  0.00000000000E+00 0.  1.
<scales pt_clust_3="14000.00000" pt_clust_4="33.72041" pt_clust_5="71.58520" pt_clust_6="72.59826"></scales>
<clustering>
<clus scale="   33.720">  2  4  1 -1</clus>
<clus scale="   72.598">  2  6  1 -1</clus>
<clus scale="   71.585">  2  5  1 -1</clus>
<clus scale="   71.585">  1  3  2 -1</clus>
</clustering>
</event>
<event>
 6    0  0.2839294E+002  0.7705674E+02  0.7546771E-02  0.1337618E+00
         21   -1    0    0  504  502  0.00000000000E+00  0.00000000000E+00  0.56552685517E+02  0.56552685517E+02  0.00000000000E+00 0. -1.
          1   -1    0    0  502    0 -0.00000000000E+00 -0.00000000000E+00 -0.21222232589E+04  0.21222232589E+04  0.00000000000E+00 0.  1.
         21    1    1    2  503  501 -0.81824710800E+02  0.64263629239E+02 -0.80092846000E+03  0.80765803121E+03  0.00000000000E+00 0.  1.
         21    1    1    2  504  505 -0.14613393076E+02  0.30257564272E+02  0.32750855452E+02  0.46922169448E+02  0.00000000000E+00 0. -1.
         21    1    1    2  505  503  0.76553433623E+02 -0.55896798057E+02 -0.16069775444E+03  0.18657076007E+03  0.00000000000E+00 0.  1.
          1    1    1    2  501    0  0.19884670253E+02 -0.38624395454E+02 -0.11367952144E+04  0.11376249837E+04  0.00000000000E+00 0.  1.
<scales pt_clust_3="14000.00000" pt_clust_4="33.60166" pt_clust_5="77.05674" pt_clust_6="42.60873"></scales>
<clustering>
<clus scale="   33.602">  1  4  2 -1</clus>
<clus scale="   42.609">  2  6  1 -1</clus>
<clus scale="   77.057">  1  5  2 -1</clus>
<clus scale="   33.602">  1  3  2 -1</clus>
</clustering>
</event>
<event>
 6    0  0.2839294E+002  0.1182243E+03  0.7546771E-02  0.1246055E+00
          2   -1    0    0  505    0 -0.00000000000E+00  0.00000000000E+00  0.15488937569E+04  0.15488937569E+04  0.00000000000E+00 0. -1.
         21   -1    0    0  504  502  0.00000000000E+00 -0.00000000000E+00 -0.11363255418E+03  0.11363255418E+03  0.00000000000E+00 0. -1.
         21    1    1    2  503  502  0.34018892026E+01 -0.90070777967E+02  0.30739359076E+01  0.90187399207E+02  0.00000000000E+00 0. -1.
         21    1    1    2  504  501  0.37947094346E+02 -0.11587749061E+02 -0.46188827217E+02  0.60890604015E+02  0.00000000000E+00 0. -1.
         21    1    1    2  505  503 -0.12246997915E+03 -0.10334523283E+02  0.11294650422E+04  0.11361324658E+04  0.00000000000E+00 0. -1.
          2    1    1    2  501    0  0.81120995603E+02  0.11199305031E+03  0.34891105179E+03  0.37531584206E+03  0.00000000000E+00 0. -1.
<scales pt_clust_3="103.20633" pt_clust_4="39.67692" pt_clust_5="118.22432" pt_clust_6="14000.00000"></scales>
<clustering>
<clus scale="   39.677">  2  4  1 -1</clus>
<clus scale="  103.206">  2  3  1 -1</clus>
<clus scale="  118.224">  1  5  2 -1</clus>
<clus scale="   39.677">  2  3  1 -1</clus>
</clustering>
</event>
<event>
 6    0  0.2839294E+002  0.1062279E+03  0.7546771E-02  0.1267719E+00
         21   -1    0    0  503  502  0.00000000000E+00  0.00000000000E+00  0.18740890933E+03  0.18740890933E+03  0.00000000000E+00 0. -1.
          4   -1    0    0  504    0 -0.00000000000E+00 -0.00000000000E+00 -0.90324459178E+03  0.90324459178E+03  0.00000000000E+00 0. -1.
         21    1    1    2  503  505 -0.35565499164E+02  0.50159439481E+02  0.38960609249E+02  0.72792878586E+02  0.00000000000E+00 0.  1.
         21    1    1    2  504  502 -0.15234734695E+02  0.69199039215E+02 -0.31700845172E+03  0.32483066763E+03  0.00000000000E+00 0.  1.
         21    1    1    2  505  501 -0.58071438478E+02 -0.10470090438E+03  0.92616853266E+02  0.15136859930E+03  0.00000000000E+00 0. -1.
          4    1    1    2  501    0  0.10887167234E+03 -0.14657574314E+02 -0.53040469325E+03  0.54166135559E+03  0.00000000000E+00 0. -1.
<scales pt_clust_3="61.48881" pt_clust_4="72.54371" pt_clust_5="14000.00000" pt_clust_6="106.22792"></scales>
<clustering>
<clus scale="   61.489">  1  3  2 -1</clus>
<clus scale="   72.544">  2  4  1 -1</clus>
<clus scale="  106.228">  2  6  1 -1</clus>
<clus scale="   61.489">  1  3  2 -1</clus>
</clustering>
</event>
<event>
 6    0  0.2839294E+002  0.2373796E+03  0.7546771E-02  0.1121551E+00
          2   -1    0    0  503    0 -0.00000000000E+00  0.00000000000E+00  0.16938277025E+04  0.16938277025E+04  0.00000000000E+00 0. -1.
         21   -1    0    0  504  502  0.00000000000E+00 -0.00000000000E+00 -0.12194995292E+03  0.12194995292E+03  0.00000000000E+00 0. -1.
         21    1    1    2  503  502  0.28812156923E+02 -0.53246020344E+02  0.76818307160E+02  0.97807624365E+02  0.00000000000E+00 0. -1.
         21    1    1    2  504  505  0.10394829001E+03  0.23889636325E+02  0.46877229004E+02  0.11650509139E+03  0.00000000000E+00 0. -1.
         21    1    1    2  505  501 -0.18714131897E+03  0.25061348113E+03  0.30881625613E+03  0.43954120426E+03  0.00000000000E+00 0. -1.
          2    1    1    2  501    0  0.54380872036E+02 -0.22125709711E+03  0.11393659573E+04  0.11619237354E+04  0.00000000000E+00 0. -1.
<scales pt_clust_3="60.54155" pt_clust_4="113.18094" pt_clust_5="237.37959" pt_clust_6="14000.00000"></scales>
<clustering>
<clus scale="   60.542">  2  3  1 -1</clus>
<clus scale="  113.181">  2  4  1 -1</clus>
<clus scale="  237.380">  2  5  1 -1</clus>
<clus scale="   60.542">  2  3  1 -1</clus>
</clustering>
</event>
<event>
 6    0  0.2839294E+002  0.2231925E+03  0.7546771E-02  0.1131525E+00
          4   -1    0    0  505    0 -0.00000000000E+00  0.00000000000E+00  0.14058646784E+04  0.14058646784E+04  0.00000000000E+00 0.  1.
         21   -1    0    0  503  502  0.00000000000E+00 -0.00000000000E+00 -0.26693432554E+03  0.26693432554E+03  0.00000000000E+00 0.  1.
         21    1    1    2  503  501  0.13630617826E+03 -0.10487879653E+03 -0.15478915129E+03  0.23138413418E+03  0.00000000000E+00 0.  1.
         21    1    1    2  504  502 -0.81741705104E+02 -0.12013459412E+03  0.33883607981E+02  0.14920497963E+03  0.00000000000E+00 0.  1.
         21    1    1    2  505  504  0.54076690253E+02  0.24785575734E+02  0.24444636769E+03  0.25158028514E+03  0.00000000000E+00 0. -1.
          4    1    1    2  501    0 -0.10864116341E+03  0.20022781491E+03  0.10153895284E+04  0.10406296049E+04  0.00000000000E+00 0.  1.
<scales pt_clust_3="14000.00000" pt_clust_4="141.30226" pt_clust_5="59.48624" pt_clust_6="223.19248"></scales>
<clustering>
<clus scale="   59.486">  1  5  2 -1</clus>
<clus scale="  141.302">  2  4  1 -1</clus>
<clus scale="  223.192">  1  6  2 -1</clus>
<clus scale="  141.302">  2  3  1 -1</clus>
</clustering>
</event>
<event>
 6    0  0.2839294E+002  0.8386151E+02  0.7546771E-02  0.1318437E+00
         -2   -1    0    0    0  501 -0.00000000000E+00  0.00000000000E+00  0.86962789604E+03  0.86962789604E+03  0.00000000000E+00 0. -1.
         21   -1    0    0  503  502  0.00000000000E+00 -0.00000000000E+00 -0.10370419064E+03  0.10370419064E+03  0.00000000000E+00 0.  1.
         21    1    1    2  503  501  0.70797838533E+02 -0.67031065022E+02 -0.36690668804E+01  0.97565156028E+02  0.00000000000E+00 0.  1.
         21    1    1    2  504  505 -0.49577226501E+02  0.54633763334E+02 -0.16278934759E+02  0.75549673729E+02  0.00000000000E+00 0. -1.
         21    1    1    2  505  502 -0.19567736324E+02 -0.31954614130E+02  0.47439477699E+02  0.60452441749E+02  0.00000000000E+00 0.  1.
         -2    1    1    2    0  504 -0.16528757083E+01  0.44351915818E+02  0.73843222934E+03  0.73976481517E+03  0.00000000000E+00 0. -1.
<scales pt_clust_3="14000.00000" pt_clust_4="83.86151" pt_clust_5="37.46990" pt_clust_6="44.16903"></scales>
<clustering>
<clus scale="   37.470">  2  5  1 -1</clus>
<clus scale="   44.169">  1  6  2 -1</clus>
<clus scale="   83.862">  2  4  1 -1</clus>
<clus scale="   37.470">  2  3  1 -1</clus>
</clustering>
</event>
<event>
 6    0  0.2839294E+002  0.9514986E+02  0.7546771E-02  0.1290839E+00
         21   -1    0    0  501  502  0.00000000000E+00  0.00000000000E+00  0.28797548597E+03  0.28797548597E+03  0.00000000000E+00 0. -1.
          2   -1    0    0  504    0 -0.00000000000E+00 -0.00000000000E+00 -0.67590671480E+03  0.67590671480E+03  0.00000000000E+00 0.  1.
         21    1    1    2  503  502 -0.62881529647E+02 -0.19970816885E+02  0.24446772141E+03  0.25321411318E+03  0.00000000000E+00 0. -1.
         21    1    1    2  504  505 -0.43969034609E+02  0.63591291817E+02 -0.19220567481E+03  0.20717178821E+03  0.00000000000E+00 0.  1.
         21    1    1    2  505  503  0.45587042503E+02  0.51655495636E+02 -0.25259634992E+02  0.73379273869E+02  0.00000000000E+00 0.  1.
          2    1    1    2  501    0  0.61263521754E+02 -0.95275970568E+02 -0.41493364044E+03  0.43011702551E+03  0.00000000000E+00 0.  1.
<scales pt_clust_3="65.97666" pt_clust_4="14000.00000" pt_clust_5="39.98224" pt_clust_6="95.14986"></scales>
<clustering>
<clus scale="   65.977">  1  3  2 -1</clus>
<clus scale="   39.982">  1  5  2 -1</clus>
<clus scale="   95.150">  1  6  2 -1</clus>
<clus scale="   65.977">  1  3  2 -1</clus>
</clustering>
</event>
<event>
 6    0  0.2839294E+002  0.1290526E+03  0.7546771E-02  0.1228868E+00
         21   -1    0    0  503  502  0.00000000000E+00  0.00000000000E+00  0.21206239917E+03  0.21206239917E+03  0.00000000000E+00 0.  1.
          2   -1    0    0  504    0 -0.00000000000E+00 -0.00000000000E+00 -0.64916027530E+03  0.64916027530E+03  0.00000000000E+00 0.  1.
         21    1    1    2  503  505 -0.38544507038E+02  0.20707622004E+02  0.65779452998E+02  0.79002664946E+02  0.00000000000E+00 0.  1.
         21    1    1    2  504  502  0.40206265071E+02  0.86322328680E+01 -0.71206044947E+02  0.82227489517E+02  0.00000000000E+00 0. -1.
         21    1    1    2  505  501 -0.76474739365E+02 -0.88275035606E+02  0.10371733046E+03  0.15619907909E+03  0.00000000000E+00 0.  1.
          2    1    1    2  501    0  0.74812981332E+02  0.58935180735E+02 -0.53538861463E+03  0.54379344091E+03  0.00000000000E+00 0.  1.
<scales pt_clust_3="43.39402" pt_clust_4="41.12249" pt_clust_5="14000.00000" pt_clust_6="129.05264"></scales>
<clustering>
<clus scale="   41.122">  2  4  1 -1</clus>
<clus scale="   43.394">  1  3  2 -1</clus>
<clus scale="  129.053">  2  6  1 -1</clus>
<clus scale="   43.394">  1  3  2 -1</clus>
</clustering>
</event>
<event>
 6    0  0.2839294E+002  0.1317712E+03  0.7546771E-02  0.1224851E+00
         21   -1    0    0  503  502  0.00000000000E+00  0.00000000000E+00  0.80167905789E+03  0.80167905789E+03  0.00000000000E+00 0.  1.
          2   -1    0    0  505    0 -0.00000000000E+00 -0.00000000000E+00 -0.62341480235E+03  0.62341480235E+03  0.00000000000E+00 0.  1.
         21    1    1    2  503  501 -0.18736852992E+02  0.50758680398E+02 -0.13944681046E+03  0.14957582105E+03  0.00000000000E+00 0. -1.
         21    1    1    2  504  502  0.20962485685E+02 -0.11854899217E+03  0.78277255929E+03  0.79197611638E+03  0.00000000000E+00 0.  1.
         21    1    1    2  505  504  0.31586830951E+02  0.54900598307E+01 -0.34157704915E+02  0.46846744300E+02  0.00000000000E+00 0.  1.
          2    1    1    2  501    0 -0.33812463644E+02  0.62300251943E+02 -0.43090378837E+03  0.43669517850E+03  0.00000000000E+00 0.  1.
<scales pt_clust_3="47.69589" pt_clust_4="120.38908" pt_clust_5="32.06039" pt_clust_6="47.69589"></scales>
<clustering>
<clus scale="   32.060">  2  5  1 -1</clus>
<clus scale="   47.696">  3  6 -1 -1</clus>
<clus scale="  120.389">  1  4  2 -1</clus>
<clus scale="  120.389">  1  3  2 -1</clus>
</clustering>
</event>
<event>
 6    0  0.2839294E+002  0.8151946E+02  0.7546771E-02  0.1324794E+00
          1   -1    0    0  504    0 -0.00000000000E+00  0.00000000000E+00  0.32157652974E+04  0.32157652974E+04  0.00000000000E+00 0.  1.
         21   -1    0    0  505  502  0.00000000000E+00 -0.00000000000E+00 -0.95782973340E+01  0.95782973340E+01  0.00000000000E+00 0. -1.
         21    1    1    2  503  501  0.27373064142E+02 -0.88077463835E+02  0.36781900417E+03  0.37920673004E+03  0.00000000000E+00 0. -1.
         21    1    1    2  504  502 -0.35514040226E+02  0.31725136996E+02  0.72967775603E+03  0.73123003153E+03  0.00000000000E+00 0. -1.
         21    1    1    2  505  503 -0.41849665690E+02  0.11168649233E+01  0.18103591858E+03  0.18581347024E+03  0.00000000000E+00 0. -1.
          1    1    1    2  501    0  0.49990641774E+02  0.55235461916E+02  0.19276543213E+04  0.19290933630E+04  0.00000000000E+00 0.  1.
<scales pt_clust_3="14000.00000" pt_clust_4="51.15369" pt_clust_5="41.86457" pt_clust_6="81.51946"></scales>
<clustering>
<clus scale="   41.865">  2  5  1 -1</clus>
<clus scale="   51.154">  1  4  2 -1</clus>
<clus scale="   81.519">  1  6  2 -1</clus>
<clus scale="   41.865">  2  3  1 -1</clus>
</clustering>
</event>
<event>
 6    0  0.2839294E+002  0.1799212E+03  0.7546771E-02  0.1167879E+00
          1   -1    0    0  502    0 -0.00000000000E+00  0.00000000000E+00  0.51381676414E+03  0.51381676414E+03  0.00000000000E+00 0.  1.
         21   -1    0    0  505  502  0.00000000000E+00 -0.00000000000E+00 -0.18257692329E+03  0.18257692329E+03  0.00000000000E+00 0.  1.
         21    1    1    2  503  501  0.10324839174E+03 -0.37735706045E+01  0.15956156246E+03  0.19009040598E+03  0.00000000000E+00 0.  1.
         21    1    1    2  504  503 -0.20957878616E+03 -0.82105999343E+02  0.10845403502E+03  0.24985383817E+03  0.00000000000E+00 0.  1.
         21    1    1    2  505  504  0.48588462233E+02  0.64766502097E+02 -0.71717733680E+02  0.10816178521E+03  0.00000000000E+00 0.  1.
          1    1    1    2  501    0  0.57741932178E+02  0.21113067851E+02  0.13494197706E+03  0.14828765808E+03  0.00000000000E+00 0.  1.
<scales pt_clust_3="30.35891" pt_clust_4="175.56425" pt_clust_5="80.96628" pt_clust_6="30.35891"></scales>
<clustering>
<clus scale="   30.359">  3  6 -1 -1</clus>
<clus scale="   80.966">  2  5  1 -1</clus>
<clus scale="  175.564">  2  4  1 -1</clus>
<clus scale="   80.966">  2  3  1 -1</clus>
</clustering>
</event>
<event>
 6    0  0.2839294E+002  0.8671788E+02  0.7546771E-02  0.1311000E+00
          1   -1    0    0  503    0 -0.00000000000E+00  0.00000000000E+00  0.12874784724E+03  0.12874784724E+03  0.00000000000E+00 0.  1.
         21   -1    0    0  505  502  0.00000000000E+00 -0.00000000000E+00 -0.41469905801E+03  0.41469905801E+03  0.00000000000E+00 0.  1.
         21    1    1    2  503  504 -0.14420734350E+02  0.28422405893E+02  0.21484391925E+02  0.38436568946E+02  0.00000000000E+00 0.  1.
         21    1    1    2  504  502 -0.52811026295E+02 -0.11247988294E+03 -0.27041114705E+03  0.29759522344E+03  0.00000000000E+00 0.  1.
         21    1    1    2  505  501  0.49129435325E+02  0.42265810352E+02 -0.10630672351E+03  0.12450389393E+03  0.00000000000E+00 0.  1.
          1    1    1    2  501    0  0.18102325320E+02  0.41791666696E+02  0.69282267859E+02  0.82911218945E+02  0.00000000000E+00 0.  1.
<scales pt_clust_3="31.87147" pt_clust_4="86.71788" pt_clust_5="14000.00000" pt_clust_6="64.06857"></scales>
<clustering>
<clus scale="   31.871">  1  3  2 -1</clus>
<clus scale="   64.069">  1  6  2 -1</clus>
<clus scale="   86.718">  1  4  2 -1</clus>
<clus scale="   86.718">  2  3  1 -1</clus>
</clustering>
</event>
<event>
 6    0  0.2839294E+002  0.7461885E+02  0.7546771E-02  0.1345055E+00
         21   -1    0    0  503  502  0.00000000000E+00  0.00000000000E+00  0.20999679413E+03  0.20999679413E+03  0.00000000000E+00 0.  1.
          1   -1    0    0  505    0 -0.00000000000E+00 -0.00000000000E+00 -0.58379533211E+03  0.58379533211E+03  0.00000000000E+00 0. -1.
         21    1    1    2  503  501 -0.16894357399E+02  0.61597545260E+02  0.88089188359E+02  0.10880892426E+03  0.00000000000E+00 0.  1.
         21    1    1    2  504  502  0.52324034108E+02 -0.87599335076E+02  0.82865168832E+02  0.13144612682E+03  0.00000000000E+00 0.  1.
         21    1    1    2  505  504  0.29360214367E+02  0.12403400411E+02 -0.19154667483E+03  0.19418031612E+03  0.00000000000E+00 0. -1.
          1    1    1    2  501    0 -0.64789891075E+02  0.13598389405E+02 -0.35320622034E+03  0.35935675904E+03  0.00000000000E+00 0. -1.
<scales pt_clust_3="74.61885" pt_clust_4="14000.00000" pt_clust_5="31.87266" pt_clust_6="45.45949"></scales>
<clustering>
<clus scale="   31.873">  2  5  1 -1</clus>
<clus scale="   45.459">  2  6  1 -1</clus>
<clus scale="   74.619">  1  3  2 -1</clus>
<clus scale="   74.619">  1  3  2 -1</clus>
</clustering>
</event>
<event>
 6    0  0.2839294E+002  0.1061641E+03  0.7546771E-02  0.1267843E+00
         21   -1    0    0  505  502  0.00000000000E+00  0.00000000000E+00  0.70516055286E+03  0.70516055286E+03  0.00000000000E+00 0.  1.
          2   -1    0    0  503    0 -0.00000000000E+00 -0.00000000000E+00 -0.98541521778E+03  0.98541521778E+03  0.00000000000E+00 0. -1.
         21    1    1    2  503  504 -0.15245632717E+02 -0.28372020337E+02 -0.34056832428E+03  0.34208797751E+03  0.00000000000E+00 0.  1.
         21    1    1    2  504  502 -0.76720443947E+02 -0.70396972994E+02  0.63569763255E+03  0.64416864279E+03  0.00000000000E+00 0.  1.
         21    1    1    2  505  501  0.13260553362E+03  0.79022701746E+02 -0.30232524342E+02  0.15729850751E+03  0.00000000000E+00 0.  1.
          2    1    1    2  501    0 -0.40639456953E+02  0.19746291585E+02 -0.54515144885E+03  0.54702064283E+03  0.00000000000E+00 0. -1.
<scales pt_clust_3="32.20871" pt_clust_4="14000.00000" pt_clust_5="106.16414" pt_clust_6="53.73841"></scales>
<clustering>
<clus scale="   32.209">  2  3  1 -1</clus>
<clus scale="   53.738">  2  6  1 -1</clus>
<clus scale="  106.164">  2  5  1 -1</clus>
<clus scale="  106.164">  1  3  2 -1</clus>
</clustering>
</event>
<event>
 6    0  0.2839294E+002  0.1574077E+03  0.7546771E-02  0.1191655E+00
          2   -1    0    0  505    0 -0.00000000000E+00  0.00000000000E+00  0.10396790040E+03  0.10396790040E+03  0.00000000000E+00 0. -1.
         21   -1    0    0  504  502  0.00000000000E+00 -0.00000000000E+00 -0.47439554437E+03  0.47439554437E+03  0.00000000000E+00 0. -1.
         21    1    1    2  503  502  0.10145515735E+03 -0.20100498037E+02 -0.17807067072E+03  0.20592800379E+03  0.00000000000E+00 0. -1.
         21    1    1    2  504  501 -0.60327578478E+02  0.70414342531E+02 -0.92616778771E+02  0.13105519474E+03  0.00000000000E+00 0. -1.
         21    1    1    2  505  503 -0.26057941717E+02 -0.13243942654E+03 -0.74388434388E+02  0.15411961978E+03  0.00000000000E+00 0. -1.
          2    1    1    2  501    0 -0.15069637159E+02  0.82125582046E+02 -0.25351760090E+02  0.87260626460E+02  0.00000000000E+00 0. -1.
<scales pt_clust_3="103.42717" pt_clust_4="65.69031" pt_clust_5="141.36877" pt_clust_6="65.69031"></scales>
<clustering>
<clus scale="   65.690">  4  6 -1 -1</clus>
<clus scale="  103.427">  2  3  1 -1</clus>
<clus scale="  141.369">  1  5  2 -1</clus>
<clus scale="  103.427">  2  3  1 -1</clus>
</clustering>
</event>
<event>
 6    0  0.2839294E+002  0.6269411E+02  0.7546771E-02  0.1386861E+00
         21   -1    0    0  503  502  0.00000000000E+00  0.00000000000E+00  0.16394588719E+03  0.16394588719E+03  0.00000000000E+00 0. -1.
          2   -1    0    0  504    0 -0.00000000000E+00 -0.00000000000E+00 -0.30181156428E+04  0.30181156428E+04  0.00000000000E+00 0. -1.
         21    1    1    2  503  501 -0.62095262451E+02  0.63003274938E+01  0.15039039172E+03  0.16282747209E+03  0.00000000000E+00 0. -1.
         21    1    1    2  504  505 -0.44669107183E+01  0.36577381591E+02 -0.16186637979E+04  0.16190831816E+04  0.00000000000E+00 0. -1.
         21    1    1    2  505  502 -0.48886760980E+02 -0.31203403415E+01 -0.14072942957E+03  0.14901149039E+03  0.00000000000E+00 0.  1.
          2    1    1    2  501    0  0.11544893415E+03 -0.39757368744E+02 -0.12451669199E+04  0.12511393860E+04  0.00000000000E+00 0. -1.
<scales pt_clust_3="14000.00000" pt_clust_4="36.84913" pt_clust_5="49.35375" pt_clust_6="62.69411"></scales>
<clustering>
<clus scale="   36.849">  2  4  1 -1</clus>
<clus scale="   49.354">  2  5  1 -1</clus>
<clus scale="   62.694">  2  6  1 -1</clus>
<clus scale="   62.694">  1  3  2 -1</clus>
</clustering>
</event>
<event>
 6    0  0.2839294E+002  0.2536730E+03  0.7546771E-02  0.1111005E+00
          1   -1    0    0  503    0 -0.00000000000E+00  0.00000000000E+00  0.76013090118E+03  0.76013090118E+03  0.00000000000E+00 0. -1.
         21   -1    0    0  505  502  0.00000000000E+00 -0.00000000000E+00 -0.10677153790E+04  0.10677153790E+04  0.00000000000E+00 0. -1.
         21    1    1    2  503  504 -0.18814345702E+03  0.12436746757E+03  0.40421303857E+03  0.46287515375E+03  0.00000000000E+00 0. -1.
         21    1    1    2  504  502 -0.14255256164E+03  0.19636841941E+02 -0.89318571551E+03  0.90470302353E+03  0.00000000000E+00 0. -1.
         21    1    1    2  505  501 -0.14490431008E+02 -0.29221162672E+02 -0.25840631934E+02  0.41612344292E+02  0.00000000000E+00 0. -1.
          1    1    1    2  501    0  0.34518644966E+03 -0.11478314684E+03  0.20722883104E+03  0.41865575864E+03  0.00000000000E+00 0. -1.
<scales pt_clust_3="253.67298" pt_clust_4="155.25764" pt_clust_5="32.61670" pt_clust_6="14000.00000"></scales>
<clustering>
<clus scale="   32.617">  2  5  1 -1</clus>
<clus scale="  155.258">  2  4  1 -1</clus>
<clus scale="  253.673">  1  3  2 -1</clus>
<clus scale="   32.617">  2  3  1 -1</clus>
</clustering>
</event>
<event>
 6    0  0.2839294E+002  0.1291587E+03  0.7546771E-02  0.1228709E+00
         21   -1    0    0  501  502  0.00000000000E+00  0.00000000000E+00  0.10177100638E+04  0.10177100638E+04  0.00000000000E+00 0. -1.
          2   -1    0    0  505    0 -0.00000000000E+00 -0.00000000000E+00 -0.62453752043E+03  0.62453752043E+03  0.00000000000E+00 0. -1.
         21    1    1    2  503  504  0.96021637386E+02 -0.85595091555E+02  0.16584749782E+03  0.20988584297E+03  0.00000000000E+00 0. -1.
         21    1    1    2  504  502 -0.42168630641E+02 -0.30266612595E+02  0.80724318202E+03  0.80891026460E+03  0.00000000000E+00 0. -1.
         21    1    1    2  505  503  0.17292538528E+02 -0.45381961767E+02 -0.82490669874E+02  0.95724944287E+02  0.00000000000E+00 0. -1.
          2    1    1    2  501    0 -0.71145545273E+02  0.16124366592E+03 -0.49742746662E+03  0.52772653236E+03  0.00000000000E+00 0. -1.
<scales pt_clust_3="14000.00000" pt_clust_4="51.92565" pt_clust_5="48.56495" pt_clust_6="129.15866"></scales>
<clustering>
<clus scale="   48.565">  2  5  1 -1</clus>
<clus scale="   51.926">  1  4  2 -1</clus>
<clus scale="  129.159">  2  6  1 -1</clus>
<clus scale="   51.926">  1  3  2 -1</clus>
</clustering>
</event>
<event>
 6    0  0.2839294E+002  0.1401503E+03  0.7546771E-02  0.1213127E+00
          1   -1    0    0  503    0 -0.00000000000E+00  0.00000000000E+00  0.24976026321E+04  0.24976026321E+04  0.00000000000E+00 0.  1.
         21   -1    0    0  505  502  0.00000000000E+00 -0.00000000000E+00 -0.94857841444E+02  0.94857841444E+02  0.00000000000E+00 0. -1.
         21    1    1    2  503  504  0.37866801932E+02  0.95508659483E+02  0.35118522603E+03  0.36590553658E+03  0.00000000000E+00 0. -1.
         21    1    1    2  504  502 -0.22970657809E+02  0.44450845722E+02 -0.77473443836E+02  0.92226153045E+02  0.00000000000E+00 0. -1.
         21    1    1    2  505  501 -0.28791458517E+02 -0.52707441557E+02  0.70262342857E+03  0.70518558186E+03  0.00000000000E+00 0.  1.
          1    1    1    2  501    0  0.13895314394E+02 -0.87252063649E+02  0.14264095799E+04  0.14291432020E+04  0.00000000000E+00 0.  1.
<scales pt_clust_3="129.90322" pt_clust_4="50.03528" pt_clust_5="43.37147" pt_clust_6="43.37147"></scales>
<clustering>
<clus scale="   43.371">  5  6 -1 -1</clus>
<clus scale="   50.035">  2  4  1 -1</clus>
<clus scale="  129.903">  2  3  1 -1</clus>
<clus scale="   50.035">  2  3  1 -1</clus>
</clustering>
</event>
<event>
 6    0  0.2839294E+002  0.1566910E+03  0.7546771E-02  0.1192484E+00
          2   -1    0    0  503    0 -0.00000000000E+00  0.00000000000E+00  0.96316467702E+03  0.96316467702E+03  0.00000000000E+00 0. -1.
         21   -1    0    0  504  502  0.00000000000E+00 -0.00000000000E+00 -0.21658326429E+04  0.21658326429E+04  0.00000000000E+00 0.  1.
         21    1    1    2  503  505 -0.19579981119E+02 -0.23445875679E+02  0.19238534823E+03  0.19479529501E+03  0.00000000000E+00 0.  1.
         21    1    1    2  504  501 -0.14435539270E+03  0.61807709980E+02 -0.20147241495E+04  0.20208344987E+04  0.00000000000E+00 0.  1.
         21    1    1    2  505  502  0.16500738851E+03  0.27137801151E+01 -0.99710712674E+02  0.19281345671E+03  0.00000000000E+00 0.  1.
          2    1    1    2  501    0 -0.10720146928E+01 -0.41075614417E+02  0.71938154811E+03  0.72055406950E+03  0.00000000000E+00 0. -1.
<scales pt_clust_3="30.54644" pt_clust_4="14000.00000" pt_clust_5="156.69103" pt_clust_6="65.92609"></scales>
<clustering>
<clus scale="   30.546">  1  3  2 -1</clus>
<clus scale="   65.926">  1  6  2 -1</clus>
<clus scale="  156.691">  1  5  2 -1</clus>
<clus scale="  156.691">  2  3  1 -1</clus>
</clustering>
</event>
<event>
 6    0  0.2839294E+002  0.2401379E+03  0.7546771E-02  0.1119701E+00
          1   -1    0    0  504    0 -0.00000000000E+00  0.00000000000E+00  0.11757717551E+04  0.11757717551E+04  0.00000000000E+00 0. -1.
         21   -1    0    0  503  502  0.00000000000E+00 -0.00000000000E+00 -0.88606175170E+02  0.88606175170E+02  0.00000000000E+00 0. -1.
         21    1    1    2  503  505  0.27375527302E+02  0.14427513825E+02 -0.22958053065E+02  0.38531089405E+02  0.00000000000E+00 0. -1.
         21    1    1    2  504  502  0.16642026581E+03  0.13787952289E+03  0.25075289783E+03  0.33103396121E+03  0.00000000000E+00 0. -1.
         21    1    1    2  505  501 -0.87348957968E+02 -0.88991958406E+02  0.46677204514E+03  0.48314133671E+03  0.00000000000E+00 0.  1.
          1    1    1    2  501    0 -0.10644683515E+03 -0.63315078314E+02  0.39259869008E+03  0.41167154299E+03  0.00000000000E+00 0. -1.
<scales pt_clust_3="30.94467" pt_clust_4="237.16751" pt_clust_5="37.37522" pt_clust_6="37.37522"></scales>
<clustering>
<clus scale="   30.945">  2  3  1 -1</clus>
<clus scale="   37.375">  5  6 -1 -1</clus>
<clus scale="  237.168">  2  4  1 -1</clus>
<clus scale="   30.945">  2  3  1 -1</clus>
</clustering>
</event>
<event>
 6    0  0.2839294E+002  0.1038630E+03  0.7546771E-02  0.1272376E+00
         -4   -1    0    0    0  501 -0.00000000000E+00  0.00000000000E+00  0.25626967698E+03  0.25626967698E+03  0.00000000000E+00 0. -1.
         21   -1    0    0  505  502  0.00000000000E+00 -0.00000000000E+00 -0.20274112415E+04  0.20274112415E+04  0.00000000000E+00 0.  1.
         21    1    1    2  503  501  0.28859191399E+02  0.45375584323E+02  0.74381968787E+01  0.54287414322E+02  0.00000000000E+00 0.  1.
         21    1    1    2  504  502 -0.55947876785E+02  0.11097405630E+02 -0.59595978751E+03  0.59868304274E+03  0.00000000000E+00 0.  1.
         21    1    1    2  505  503  0.25150309504E+02 -0.11131492062E+03 -0.14009495871E+04  0.14055900167E+04  0.00000000000E+00 0.  1.
         -4    1    1    2    0  504  0.19383758822E+01  0.54841930666E+02  0.21832961315E+03  0.22512044473E+03  0.00000000000E+00 0. -1.
<scales pt_clust_3="53.77543" pt_clust_4="56.92099" pt_clust_5="103.86303" pt_clust_6="14000.00000"></scales>
<clustering>
<clus scale="   53.775">  1  3  2 -1</clus>
<clus scale="   56.921">  2  4  1 -1</clus>
<clus scale="  103.863">  2  5  1 -1</clus>
<clus scale="   56.921">  2  3  1 -1</clus>
</clustering>
</event>
<event>
 6    0  0.2839294E+002  0.1509076E+03  0.7546771E-02  0.1199362E+00
         -2   -1    0    0    0  501 -0.00000000000E+00  0.00000000000E+00  0.47220491652E+03  0.47220491652E+03  0.00000000000E+00 0.  1.
         21   -1    0    0  505  502  0.00000000000E+00 -0.00000000000E+00 -0.27613540569E+03  0.27613540569E+03  0.00000000000E+00 0.  1.
         21    1    1    2  503  502 -0.24551942120E+02  0.38066925663E+02 -0.49650397699E+01  0.45569071871E+02  0.00000000000E+00 0. -1.
         21    1    1    2  504  501  0.11691006357E+03 -0.11808526383E+03  0.24069163536E+03  0.29248000929E+03  0.00000000000E+00 0.  1.
         21    1    1    2  505  504 -0.13043865198E+03 -0.55439176979E+01 -0.19157117994E+03  0.23182858740E+03  0.00000000000E+00 0.  1.
         -2    1    1    2    0  503  0.38080530531E+02  0.85562255864E+02  0.15191409518E+03  0.17846265365E+03  0.00000000000E+00 0.  1.
<scales pt_clust_3="45.29778" pt_clust_4="14000.00000" pt_clust_5="150.90762" pt_clust_6="94.98692"></scales>
<clustering>
<clus scale="   45.298">  2  3  1 -1</clus>
<clus scale="   94.987">  1  6  2 -1</clus>
<clus scale="  150.908">  2  5  1 -1</clus>
<clus scale="   45.298">  2  3  1 -1</clus>
</clustering>
</event>
<event>
 6    0  0.2839294E+002  0.1764117E+03  0.7546771E-02  0.1171322E+00
         21   -1    0    0  505  502  0.00000000000E+00  0.00000000000E+00  0.10239353666E+03  0.10239353666E+03  0.00000000000E+00 0. -1.
          2   -1    0    0  503    0 -0.00000000000E+00 -0.00000000000E+00 -0.19630298146E+04  0.19630298146E+04  0.00000000000E+00 0.  1.
         21    1    1    2  503  504 -0.41951352459E+02 -0.21261519840E+03 -0.75876092341E+02  0.22961341414E+03  0.00000000000E+00 0. -1.
         21    1    1    2  504  502 -0.30853003377E+02  0.22879397917E+02 -0.11628667825E+02  0.40132288519E+02  0.00000000000E+00 0.  1.
         21    1    1    2  505  501  0.27608254914E+02  0.21549337477E+02 -0.37426144265E+02  0.51257252751E+02  0.00000000000E+00 0.  1.
          2    1    1    2  501    0  0.45196100922E+02  0.16818646300E+03 -0.17357053735E+04  0.17444203959E+04  0.00000000000E+00 0.  1.
<scales pt_clust_3="176.41168" pt_clust_4="37.35774" pt_clust_5="35.02270" pt_clust_6="14000.00000"></scales>
<clustering>
<clus scale="   35.023">  1  5  2 -1</clus>
<clus scale="   37.358">  1  4  2 -1</clus>
<clus scale="  176.412">  1  3  2 -1</clus>
<clus scale="   35.023">  1  3  2 -1</clus>
</clustering>
</event>
<event>
 6    0  0.2839294E+002  0.9883775E+02  0.7546771E-02  0.1282759E+00
          2   -1    0    0  503    0 -0.00000000000E+00  0.00000000000E+00  0.79945649038E+03  0.79945649038E+03  0.00000000000E+00 0.  1.
         21   -1    0    0  504  502  0.00000000000E+00 -0.00000000000E+00 -0.38216207222E+03  0.38216207222E+03  0.00000000000E+00 0.  1.
         21    1    1    2  503  505 -0.31915985922E+02  0.42015730333E+01  0.31557435042E+02  0.45079430784E+02  0.00000000000E+00 0. -1.
         21    1    1    2  504  501  0.26729070410E+02 -0.86076577677E+02 -0.23379775348E+03  0.25056937156E+03  0.00000000000E+00 0.  1.
         21    1    1    2  505  502 -0.21187280928E+02  0.13492824221E+03 -0.96662214903E+02  0.16732637332E+03  0.00000000000E+00 0.  1.
          2    1    1    2  501    0  0.26374196440E+02 -0.53053237565E+02  0.71619695150E+03  0.71864338694E+03  0.00000000000E+00 0.  1.
<scales pt_clust_3="32.19136" pt_clust_4="14000.00000" pt_clust_5="98.83775" pt_clust_6="49.23287"></scales>
<clustering>
<clus scale="   32.191">  1  3  2 -1</clus>
<clus scale="   49.233">  1  6  2 -1</clus>
<clus scale="   98.838">  1  5  2 -1</clus>
<clus scale="   98.838">  2  3  1 -1</clus>
</clustering>
</event>
<event>
 6    0  0.2839294E+002  0.1341043E+03  0.7546771E-02  0.1221490E+00
         21   -1    0    0  505  502  0.00000000000E+00  0.00000000000E+00  0.26975408435E+03  0.26975408435E+03  0.00000000000E+00 0.  1.
          1   -1    0    0  504    0 -0.00000000000E+00 -0.00000000000E+00 -0.82782111510E+03  0.82782111510E+03  0.00000000000E+00 0. -1.
         21    1    1    2  503  502 -0.28199760167E+02  0.73631801279E+02 -0.14229320267E+03  0.16267828423E+03  0.00000000000E+00 0. -1.
         21    1    1    2  504  503  0.62037018092E+02  0.56738588616E+01 -0.54477142727E+02  0.82755926481E+02  0.00000000000E+00 0.  1.
         21    1    1    2  505  501 -0.54928958705E+02 -0.13387653114E+03  0.22250149982E+03  0.26541860055E+03  0.00000000000E+00 0.  1.
          1    1    1    2  501    0  0.21091700780E+02  0.54570871003E+02 -0.58379818517E+03  0.58672238819E+03  0.00000000000E+00 0. -1.
<scales pt_clust_3="134.10427" pt_clust_4="71.20503" pt_clust_5="14000.00000" pt_clust_6="58.50504"></scales>
<clustering>
<clus scale="   58.505">  2  6  1 -1</clus>
<clus scale="   71.205">  2  4  1 -1</clus>
<clus scale="  134.104">  2  3  1 -1</clus>
<clus scale="  134.104">  1  3  2 -1</clus>
</clustering>
</event>
<event>
 6    0  0.2839294E+002  0.1198524E+03  0.7546771E-02  0.1243341E+00
         -1   -1    0    0    0  501 -0.00000000000E+00  0.00000000000E+00  0.15161643842E+04  0.15161643842E+04  0.00000000000E+00 0.  1.
         21   -1    0    0  503  502  0.00000000000E+00 -0.00000000000E+00 -0.21974231087E+02  0.21974231087E+02  0.00000000000E+00 0.  1.
         21    1    1    2  503  504 -0.31937794609E+02 -0.23862186458E+02  0.24295785444E+02  0.46687384349E+02  0.00000000000E+00 0.  1.
         21    1    1    2  504  501 -0.78148703307E+02  0.49868744781E+02  0.28228149497E+03  0.29711437854E+03  0.00000000000E+00 0.  1.
         21    1    1    2  505  502  0.41080757202E+02 -0.35364383693E+02  0.40090766546E+03  0.40455558885E+03  0.00000000000E+00 0.  1.
         -1    1    1    2    0  505  0.69005740714E+02  0.93578253699E+01  0.78670520723E+03  0.78978126354E+03  0.00000000000E+00 0.  1.
<scales pt_clust_3="39.86761" pt_clust_4="105.56418" pt_clust_5="51.43057" pt_clust_6="51.43057"></scales>
<clustering>
<clus scale="   39.868">  2  3  1 -1</clus>
<clus scale="   51.431">  5  6 -1 -1</clus>
<clus scale="  105.564">  2  4  1 -1</clus>
<clus scale="   39.868">  2  3  1 -1</clus>
</clustering>
</event>
<event>
 6    0  0.2839294E+002  0.8785481E+02  0.7546771E-02  0.1308131E+00
         -4   -1    0    0    0  501 -0.00000000000E+00  0.00000000000E+00  0.38753424271E+03  0.38753424271E+03  0.00000000000E+00 0.  1.
         21   -1    0    0  505  502  0.00000000000E+00 -0.00000000000E+00 -0.76814834662E+02  0.76814834662E+02  0.00000000000E+00 0.  1.
         21    1    1    2  503  501 -0.54920213439E+01 -0.63926578858E+02  0.91555075773E+02  0.11179938141E+03  0.00000000000E+00 0.  1.
         21    1    1    2  504  503  0.51727108174E+02 -0.26490200574E+02  0.64446914560E+02  0.86780350557E+02  0.00000000000E+00 0.  1.
         21    1    1    2  505  504  0.50297007925E+02 -0.62338163796E+01 -0.10125054523E+02  0.51683326150E+02  0.00000000000E+00 0.  1.
         -4    1    1    2    0  502 -0.96532094755E+02  0.96650595811E+02  0.16484247224E+03  0.21408601926E+03  0.00000000000E+00 0.  1.
<scales pt_clust_3="65.54042" pt_clust_4="87.85481" pt_clust_5="50.68185" pt_clust_6="14000.00000"></scales>
<clustering>
<clus scale="   50.682">  2  5  1 -1</clus>
<clus scale="   65.540">  1  3  2 -1</clus>
<clus scale="   87.855">  2  4  1 -1</clus>
<clus scale="   50.682">  2  3  1 -1</clus>
</clustering>
</event>
<event>
 6    0  0.2839294E+002  0.6782869E+02  0.7546771E-02  0.1367636E+00
         21   -1    0    0  505  502  0.00000000000E+00  0.00000000000E+00  0.24357803351E+04  0.24357803351E+04  0.00000000000E+00 0.  1.
          2   -1    0    0  503    0 -0.00000000000E+00 -0.00000000000E+00 -0.19648709998E+03  0.19648709998E+03  0.00000000000E+00 0. -1.
         21    1    1    2  503  504  0.11922484242E+02  0.74691146475E+02 -0.77149389830E+01  0.76029160693E+02  0.00000000000E+00 0. -1.
         21    1    1    2  504  502  0.79304563584E+02 -0.41845478083E+02  0.21695717387E+04  0.21714239078E+04  0.00000000000E+00 0.  1.
         21    1    1    2  505  501 -0.31354064894E+02 -0.69996790372E+01  0.22300427859E+03  0.22530641616E+03  0.00000000000E+00 0.  1.
          2    1    1    2  501    0 -0.59872982931E+02 -0.25845989354E+02 -0.14556784326E+03  0.15950795040E+03  0.00000000000E+00 0. -1.
<scales pt_clust_3="67.82869" pt_clust_4="14000.00000" pt_clust_5="32.12589" pt_clust_6="65.31288"></scales>
<clustering>
<clus scale="   32.126">  1  5  2 -1</clus>
<clus scale="   65.313">  2  6  1 -1</clus>
<clus scale="   67.829">  2  3  1 -1</clus>
<clus scale="   32.126">  1  3  2 -1</clus>
</clustering>
</event>
<event>
 6    0  0.2839294E+002  0.2995174E+03  0.7546771E-02  0.1085482E+00
         21   -1    0    0  505  502  0.00000000000E+00  0.00000000000E+00  0.17954912304E+04  0.17954912304E+04  0.00000000000E+00 0.  1.
          1   -1    0    0  503    0 -0.00000000000E+00 -0.00000000000E+00 -0.88028265536E+03  0.88028265536E+03  0.00000000000E+00 0.  1.
         21    1    1    2  503  502 -0.17113629278E+03  0.67427011177E+02  0.15403790453E+04  0.15513225441E+04  0.00000000000E+00 0.  1.
         21    1    1    2  504  501  0.54400550227E+02 -0.41783530625E+02 -0.13165454948E+03  0.14845269851E+03  0.00000000000E+00 0. -1.
         21    1    1    2  505  504 -0.10616294789E+03 -0.71719492232E+02  0.20477340349E+03  0.24155000279E+03  0.00000000000E+00 0. -1.
          1    1    1    2  501    0  0.22289869044E+03  0.46076011680E+02 -0.69828932425E+03  0.73444864042E+03  0.00000000000E+00 0.  1.
<scales pt_clust_3="275.52868" pt_clust_4="64.47702" pt_clust_5="128.11814" pt_clust_6="64.47702"></scales>
<clustering>
<clus scale="   64.477">  4  6 -1 -1</clus>
<clus scale="  128.118">  1  5  2 -1</clus>
<clus scale="  275.529">  1  3  2 -1</clus>
<clus scale="  128.118">  1  3  2 -1</clus>
</clustering>
</event>
<event>
 6    0  0.2839294E+002  0.1305889E+03  0.7546771E-02  0.1226585E+00
          2   -1    0    0  503    0 -0.00000000000E+00  0.00000000000E+00  0.20621598285E+04  0.20621598285E+04  0.00000000000E+00 0. -1.
         21   -1    0    0  504  502  0.00000000000E+00 -0.00000000000E+00 -0.28756539910E+03  0.28756539910E+03  0.00000000000E+00 0. -1.
         21    1    1    2  503  505  0.59410380952E+02  0.10250146691E+03  0.29022420538E+03  0.31347445426E+03  0.00000000000E+00 0. -1.
         21    1    1    2  504  501  0.31453738683E+02  0.27547865181E+02  0.13054650434E+02  0.43802356685E+02  0.00000000000E+00 0. -1.
         21    1    1    2  505  502  0.94688175289E+01 -0.40591239553E+02 -0.25627180130E+03  0.25963925623E+03  0.00000000000E+00 0. -1.
          2    1    1    2  501    0 -0.10033293716E+03 -0.89458092543E+02  0.17275873749E+04  0.17328091605E+04  0.00000000000E+00 0. -1.
<scales pt_clust_3="130.58888" pt_clust_4="36.94149" pt_clust_5="41.68102" pt_clust_6="14000.00000"></scales>
<clustering>
<clus scale="   41.681">  2  5  1 -1</clus>
<clus scale="   36.941">  2  4  1 -1</clus>
<clus scale="  130.589">  2  3  1 -1</clus>
<clus scale="   41.681">  2  3  1 -1</clus>
</clustering>
</event>
<event>
 6    0  0.2839294E+002  0.1625822E+03  0.7546771E-02  0.1185812E+00
          1   -1    0    0  502    0 -0.00000000000E+00  0.00000000000E+00  0.38909579304E+04  0.38909579304E+04  0.00000000000E+00 0. -1.
         21   -1    0    0  505  502  0.00000000000E+00 -0.00000000000E+00 -0.14883620418E+02  0.14883620418E+02  0.00000000000E+00 0. -1.
         21    1    1    2  503  504  0.73572836935E+02  0.12097725039E+03  0.90469395988E+03  0.91570716852E+03  0.00000000000E+00 0. -1.
         21    1    1    2  504  501 -0.52778002807E+02 -0.62181059291E+02  0.95462713603E+03  0.95810488495E+03  0.00000000000E+00 0. -1.
         21    1    1    2  505  503  0.36122601794E+02 -0.18928942542E+02  0.52172791938E+02  0.66220445821E+02  0.00000000000E+00 0. -1.
          1    1    1    2  501    0 -0.56917435922E+02 -0.39867248557E+02  0.19645804222E+04  0.19658090516E+04  0.00000000000E+00 0. -1.
<scales pt_clust_3="146.21898" pt_clust_4="65.55087" pt_clust_5="40.78170" pt_clust_6="65.55087"></scales>
<clustering>
<clus scale="   40.782">  2  5  1 -1</clus>
<clus scale="   65.551">  4  6 -1 -1</clus>
<clus scale="  146.219">  2  3  1 -1</clus>
<clus scale="   40.782">  2  3  1 -1</clus>
</clustering>
</event>
<event>
 6    0  0.2839294E+002  0.1241225E+03  0.7546771E-02  0.1236447E+00
         21   -1    0    0  505  502  0.00000000000E+00  0.00000000000E+00  0.21171935494E+03  0.21171935494E+03  0.00000000000E+00 0. -1.
         -3   -1    0    0    0  501 -0.00000000000E+00 -0.00000000000E+00 -0.85050878993E+03  0.85050878993E+03  0.00000000000E+00 0. -1.
         21    1    1    2  503  501 -0.28383086766E+02 -0.85559675294E+02 -0.15590446645E+03  0.18008958968E+03  0.00000000000E+00 0.  1.
         21    1    1    2  504  502 -0.36636312503E+02 -0.29180815654E+02  0.12985463129E+03  0.13804334342E+03  0.00000000000E+00 0. -1.
         21    1    1    2  505  503 -0.65788936977E+02  0.19498768256E+02  0.34594236758E+02  0.76844956952E+02  0.00000000000E+00 0. -1.
         -3    1    1    2    0  504  0.13080833625E+03  0.95241722692E+02 -0.64733383658E+03  0.66725025482E+03  0.00000000000E+00 0. -1.
<scales pt_clust_3="14000.00000" pt_clust_4="46.83737" pt_clust_5="92.04827" pt_clust_6="124.12247"></scales>
<clustering>
<clus scale="   46.837">  1  4  2 -1</clus>
<clus scale="   92.048">  1  5  2 -1</clus>
<clus scale="  124.122">  2  6  1 -1</clus>
<clus scale="   46.837">  1  3  2 -1</clus>
</clustering>
</event>
<event>
 6    0  0.2839294E+002  0.1766673E+03  0.7546771E-02  0.1171068E+00
         21   -1    0    0  503  502  0.00000000000E+00  0.00000000000E+00  0.26800087927E+03  0.26800087927E+03  0.00000000000E+00 0.  1.
          1   -1    0    0  505    0 -0.00000000000E+00 -0.00000000000E+00 -0.35213267395E+03  0.35213267395E+03  0.00000000000E+00 0.  1.
         21    1    1    2  503  501  0.81633954404E+01 -0.15387199953E+03  0.10343838762E+03  0.18558753540E+03  0.00000000000E+00 0.  1.
         21    1    1    2  504  502  0.13329262837E+02 -0.32273579275E+02  0.83199332931E+02  0.90229608040E+02  0.00000000000E+00 0.  1.
         21    1    1    2  505  504  0.18766008992E+02  0.26378090452E+02 -0.66939329862E+01  0.33057154871E+02  0.00000000000E+00 0.  1.
          1    1    1    2  501    0 -0.40258667269E+02  0.15976748835E+03 -0.26407558225E+03  0.31125925491E+03  0.00000000000E+00 0.  1.
<scales pt_clust_3="176.66729" pt_clust_4="34.73687" pt_clust_5="32.37231" pt_clust_6="14000.00000"></scales>
<clustering>
<clus scale="   32.372">  2  5  1 -1</clus>
<clus scale="   34.737">  1  4  2 -1</clus>
<clus scale="  176.667">  1  3  2 -1</clus>
<clus scale="   34.737">  1  3  2 -1</clus>
</clustering>
</event>
<event>
 6    0  0.2839294E+002  0.8643762E+02  0.7546771E-02  0.1311715E+00
          1   -1    0    0  504    0 -0.00000000000E+00  0.00000000000E+00  0.34819190933E+04  0.34819190933E+04  0.00000000000E+00 0. -1.
         21   -1    0    0  503  502  0.00000000000E+00 -0.00000000000E+00 -0.36637309112E+02  0.36637309112E+02  0.00000000000E+00 0.  1.
         21    1    1    2  503  501 -0.10217884532E+02  0.12437760509E+03  0.23981013422E+04  0.24013463393E+04  0.00000000000E+00 0. -1.
         21    1    1    2  504  505  0.62576921664E+01 -0.38038835362E+02  0.49316436297E+03  0.49466877869E+03  0.00000000000E+00 0. -1.
         21    1    1    2  505  502  0.43746739409E+02 -0.73852718846E+02  0.21624382748E+02  0.88519010495E+02  0.00000000000E+00 0.  1.
          1    1    1    2  501    0 -0.39786547043E+02 -0.12486050881E+02  0.53239169631E+03  0.53402227397E+03  0.00000000000E+00 0. -1.
<scales pt_clust_3="14000.00000" pt_clust_4="38.55012" pt_clust_5="86.43762" pt_clust_6="43.20703"></scales>
<clustering>
<clus scale="   38.550">  1  4  2 -1</clus>
<clus scale="   43.207">  1  6  2 -1</clus>
<clus scale="   86.438">  2  5  1 -1</clus>
<clus scale="   86.438">  2  3  1 -1</clus>
</clustering>
</event>
<event>
 6    0  0.2839294E+002  0.1365922E+03  0.7546771E-02  0.1217989E+00
         21   -1    0    0  504  502  0.00000000000E+00  0.00000000000E+00  0.99937358326E+03  0.99937358326E+03  0.00000000000E+00 0.  1.
         -2   -1    0    0    0  501 -0.00000000000E+00 -0.00000000000E+00 -0.10948596804E+03  0.10948596804E+03  0.00000000000E+00 0.  1.
         21    1    1    2  503  501  0.22689476631E+01 -0.72698761984E+02 -0.30819152509E+02  0.78994166106E+02  0.00000000000E+00 0. -1.
         21    1    1    2  504  503 -0.14592148292E+03  0.68115385578E+02  0.75843097390E+03  0.77533884664E+03  0.00000000000E+00 0.  1.
         21    1    1    2  505  502  0.29330389819E+02  0.10348235792E+02  0.13270528655E+03  0.13630132366E+03  0.00000000000E+00 0.  1.
         -2    1    1    2    0  505  0.11432214543E+03 -0.57648593860E+01  0.29570507273E+02  0.11822521491E+03  0.00000000000E+00 0.  1.
<scales pt_clust_3="72.47628" pt_clust_4="136.59221" pt_clust_5="31.10238" pt_clust_6="14000.00000"></scales>
<clustering>
<clus scale="   31.102">  1  5  2 -1</clus>
<clus scale="   72.476">  2  3  1 -1</clus>
<clus scale="  136.592">  1  4  2 -1</clus>
<clus scale="   31.102">  1  3  2 -1</clus>
</clustering>
</event>
<event>
 6    0  0.2839294E+002  0.1199619E+03  0.7546771E-02  0.1243160E+00
         21   -1    0    0  503  502  0.00000000000E+00  0.00000000000E+00  0.11636669677E+04  0.11636669677E+04  0.00000000000E+00 0. -1.
         -2   -1    0    0    0  501 -0.00000000000E+00 -0.00000000000E+00 -0.14921479936E+03  0.14921479936E+03  0.00000000000E+00 0. -1.
         21    1    1    2  503  504 -0.39470075695E+02 -0.37216843961E+02  0.79422273733E+03  0.79607332379E+03  0.00000000000E+00 0. -1.
         21    1    1    2  504  501  0.76863329146E+02  0.14211515668E+03  0.26676874270E+03  0.31188179044E+03  0.00000000000E+00 0. -1.
         21    1    1    2  505  502 -0.53630871363E+02  0.12391490461E+02  0.31207709204E+02  0.63275117643E+02  0.00000000000E+00 0.  1.
         -2    1    1    2    0  505  0.16237617911E+02 -0.11728980318E+03 -0.77747020884E+02  0.14165153519E+03  0.00000000000E+00 0. -1.
<scales pt_clust_3="54.24924" pt_clust_4="14000.00000" pt_clust_5="59.18331" pt_clust_6="119.96192"></scales>
<clustering>
<clus scale="   54.249">  1  3  2 -1</clus>
<clus scale="   59.183">  1  5  2 -1</clus>
<clus scale="  119.962">  2  6  1 -1</clus>
<clus scale="   54.249">  1  3  2 -1</clus>
</clustering>
</event>
<event>
 6    0  0.2839294E+002  0.1392584E+03  0.7546771E-02  0.1214330E+00
         -2   -1    0    0    0  501 -0.00000000000E+00  0.00000000000E+00  0.15094188963E+04  0.15094188963E+04  0.00000000000E+00 0. -1.
         21   -1    0    0  501  502  0.00000000000E+00 -0.00000000000E+00 -0.37762595150E+02  0.37762595150E+02  0.00000000000E+00 0.  1.
         21    1    1    2  503  505 -0.72223042675E+02  0.31280353527E+02  0.10043090009E+03  0.12759699880E+03  0.00000000000E+00 0.  1.
         21    1    1    2  504  503  0.54464719583E+02 -0.31470318077E+02  0.86811811091E+03  0.87039407229E+03  0.00000000000E+00 0.  1.
         21    1    1    2  505  502 -0.44491893643E+02  0.14837197626E+02  0.51942498339E+01  0.47187405785E+02  0.00000000000E+00 0.  1.
         -2    1    1    2    0  504  0.62250216735E+02 -0.14647233076E+02  0.49791304036E+03  0.50200301461E+03  0.00000000000E+00 0. -1.
<scales pt_clust_3="46.59696" pt_clust_4="40.69257" pt_clust_5="46.59696" pt_clust_6="132.03279"></scales>
<clustering>
<clus scale="   40.693">  4  6 -1 -1</clus>
<clus scale="   46.597">  3  5 -1 -1</clus>
<clus scale="  132.033">  1  4  2 -1</clus>
<clus scale="  139.258">  2  3  1 -1</clus>
</clustering>
</event>
<event>
 6    0  0.2839294E+002  0.1255260E+03  0.7546771E-02  0.1234250E+00
         21   -1    0    0  501  502  0.00000000000E+00  0.00000000000E+00  0.14663429255E+03  0.14663429255E+03  0.00000000000E+00 0. -1.
          2   -1    0    0  503    0 -0.00000000000E+00 -0.00000000000E+00 -0.60227133436E+03  0.60227133436E+03  0.00000000000E+00 0.  1.
         21    1    1    2  503  505 -0.86587768010E+02 -0.10166185193E+02 -0.24352723804E+03  0.25866253799E+03  0.00000000000E+00 0.  1.
         21    1    1    2  504  502  0.54107541603E+02 -0.71718646057E+02  0.73104328134E+02  0.11582501044E+03  0.00000000000E+00 0. -1.
         21    1    1    2  505  504  0.41181048684E+02 -0.34670423540E+00  0.28439103809E+02  0.50047793158E+02  0.00000000000E+00 0. -1.
          2    1    1    2  501    0 -0.87008222772E+01  0.82231535486E+02 -0.31365323571E+03  0.32437028533E+03  0.00000000000E+00 0.  1.
<scales pt_clust_3="113.25802" pt_clust_4="36.64464" pt_clust_5="36.64464" pt_clust_6="82.69057"></scales>
<clustering>
<clus scale="   36.645">  4  5 -1 -1</clus>
<clus scale="   82.691">  2  6  1 -1</clus>
<clus scale="  113.258">  2  3  1 -1</clus>
<clus scale="  125.526">  1  3  2 -1</clus>
</clustering>
</event>
<event>
 6    0  0.2839294E+002  0.1397889E+03  0.7546771E-02  0.1213613E+00
         21   -1    0    0  503  502  0.00000000000E+00  0.00000000000E+00  0.11991838502E+03  0.11991838502E+03  0.00000000000E+00 0. -1.
          1   -1    0    0  504    0 -0.00000000000E+00 -0.00000000000E+00 -0.18172170656E+04  0.18172170656E+04  0.00000000000E+00 0.  1.
         21    1    1    2  503  501 -0.47117048243E+02  0.32633870522E+02 -0.62935983144E+03  0.63196422618E+03  0.00000000000E+00 0.  1.
         21    1    1    2  504  505  0.47705404624E+02 -0.14800446329E+03 -0.22013641768E+03  0.26952025744E+03  0.00000000000E+00 0.  1.
         21    1    1    2  505  502  0.33537774237E+02  0.41972571213E+02  0.84341169820E+02  0.99999559808E+02  0.00000000000E+00 0. -1.
          1    1    1    2  501    0 -0.34126130619E+02  0.73398021556E+02 -0.93214360128E+03  0.93565140718E+03  0.00000000000E+00 0.  1.
<scales pt_clust_3="30.13600" pt_clust_4="135.12351" pt_clust_5="53.72596" pt_clust_6="30.13600"></scales>
<clustering>
<clus scale="   30.136">  3  6 -1 -1</clus>
<clus scale="   53.726">  1  5  2 -1</clus>
<clus scale="  135.124">  1  4  2 -1</clus>
<clus scale="   53.726">  1  3  2 -1</clus>
</clustering>
</event>
<event>
 6    0  0.2839294E+002  0.7709761E+02  0.7546771E-02  0.1337496E+00
          4   -1    0    0  504    0 -0.00000000000E+00  0.00000000000E+00  0.86208752267E+02  0.86208752267E+02  0.00000000000E+00 0. -1.
         21   -1    0    0  505  502  0.00000000000E+00 -0.00000000000E+00 -0.75867883267E+03  0.75867883267E+03  0.00000000000E+00 0.  1.
         21    1    1    2  503  502  0.28665289759E+02 -0.22424140435E+02 -0.45156351516E+03  0.45302775758E+03  0.00000000000E+00 0.  1.
         21    1    1    2  504  503 -0.10271961435E+03 -0.38540923659E+02 -0.21592658003E+03  0.24220035081E+03  0.00000000000E+00 0.  1.
         21    1    1    2  505  501  0.54063127218E+01  0.32809235757E+02 -0.52069015682E+02  0.61780713514E+02  0.00000000000E+00 0. -1.
          4    1    1    2  501    0  0.68648011866E+02  0.28155828336E+02  0.47089030470E+02  0.87878763038E+02  0.00000000000E+00 0. -1.
<scales pt_clust_3="32.17516" pt_clust_4="14000.00000" pt_clust_5="33.25168" pt_clust_6="77.09761"></scales>
<clustering>
<clus scale="   33.252">  2  5  1 -1</clus>
<clus scale="   32.175">  2  3  1 -1</clus>
<clus scale="   77.098">  1  6  2 -1</clus>
<clus scale="   33.252">  2  3  1 -1</clus>
</clustering>
</event>
<event>
 6    0  0.2839294E+002  0.1054356E+03  0.7546771E-02  0.1269264E+00
          2   -1    0    0  505    0 -0.00000000000E+00  0.00000000000E+00  0.29982561128E+04  0.29982561128E+04  0.00000000000E+00 0. -1.
         21   -1    0    0  503  502  0.00000000000E+00 -0.00000000000E+00 -0.89746840369E+03  0.89746840369E+03  0.00000000000E+00 0. -1.
         21    1    1    2  503  501  0.26627795882E+02 -0.14602262301E+03  0.68798590823E+03  0.70381549846E+03  0.00000000000E+00 0. -1.
         21    1    1    2  504  502  0.52789288491E+02  0.91228021109E+02 -0.88474563094E+03  0.89100173528E+03  0.00000000000E+00 0. -1.
         21    1    1    2  505  504 -0.45400524177E+00  0.33107713048E+02  0.33009091049E+03  0.33174739784E+03  0.00000000000E+00 0.  1.
          2    1    1    2  501    0 -0.78963079130E+02  0.21686888848E+02  0.19674565213E+04  0.19691598849E+04  0.00000000000E+00 0. -1.
<scales pt_clust_3="14000.00000" pt_clust_4="105.43559" pt_clust_5="33.11083" pt_clust_6="91.73366"></scales>
<clustering>
<clus scale="   33.111">  1  5  2 -1</clus>
<clus scale="   91.734">  1  6  2 -1</clus>
<clus scale="  105.436">  2  4  1 -1</clus>
<clus scale="  105.436">  2  3  1 -1</clus>
</clustering>
</event>
<event>
 6    0  0.2839294E+002  0.9519483E+02  0.7546771E-02  0.1290738E+00
         21   -1    0    0  504  502  0.00000000000E+00  0.00000000000E+00  0.88926469648E+02  0.88926469648E+02  0.00000000000E+00 0. -1.
         -3   -1    0    0    0  501 -0.00000000000E+00 -0.00000000000E+00 -0.69024003182E+03  0.69024003182E+03  0.00000000000E+00 0.  1.
         21    1    1    2  503  501  0.65455423896E+02  0.29676040287E+01 -0.78535023587E+02  0.10227887915E+03  0.00000000000E+00 0. -1.
         21    1    1    2  504  503  0.29745077415E+02  0.86264567449E+01  0.44092267560E+02  0.53882403853E+02  0.00000000000E+00 0. -1.
         21    1    1    2  505  502 -0.13359054236E+03 -0.50485751330E+02 -0.16839141427E+03  0.22079608804E+03  0.00000000000E+00 0. -1.
         -3    1    1    2    0  505  0.38390041046E+02  0.38891690556E+02 -0.39847939187E+03  0.40220913042E+03  0.00000000000E+00 0.  1.
<scales pt_clust_3="14000.00000" pt_clust_4="30.97072" pt_clust_5="95.19483" pt_clust_6="55.91439"></scales>
<clustering>
<clus scale="   30.971">  1  4  2 -1</clus>
<clus scale="   55.914">  2  6  1 -1</clus>
<clus scale="   95.195">  2  5  1 -1</clus>
<clus scale="   30.971">  1  3  2 -1</clus>
</clustering>
</event>
<event>
 6    0  0.2839294E+002  0.8326749E+02  0.7546771E-02  0.1320026E+00
         -2   -1    0    0    0  501 -0.00000000000E+00  0.00000000000E+00  0.25047238429E+02  0.25047238429E+02  0.00000000000E+00 0. -1.
         21   -1    0    0  503  502  0.00000000000E+00 -0.00000000000E+00 -0.15368733642E+04  0.15368733642E+04  0.00000000000E+00 0.  1.
         21    1    1    2  503  505  0.32403935618E+02 -0.69717981280E+02 -0.82782400955E+03  0.83138631378E+03  0.00000000000E+00 0.  1.
         21    1    1    2  504  502 -0.63802474820E+02 -0.20708342498E+02 -0.53089403095E+03  0.53511500011E+03  0.00000000000E+00 0.  1.
         21    1    1    2  505  501  0.37484856212E+02  0.22317664933E+02 -0.99119358590E+02  0.10829515160E+03  0.00000000000E+00 0.  1.
         -2    1    1    2    0  504 -0.60863170098E+01  0.68108658845E+02 -0.53988726703E+02  0.87124137158E+02  0.00000000000E+00 0. -1.
<scales pt_clust_3="14000.00000" pt_clust_4="62.69831" pt_clust_5="43.62560" pt_clust_6="83.26749"></scales>
<clustering>
<clus scale="   43.626">  1  5  2 -1</clus>
<clus scale="   62.698">  2  4  1 -1</clus>
<clus scale="   83.267">  1  6  2 -1</clus>
<clus scale="   62.698">  2  3  1 -1</clus>
</clustering>
</event>
<event>
 6    0  0.2839294E+002  0.1301499E+03  0.7546771E-02  0.1227234E+00
          3   -1    0    0  504    0 -0.00000000000E+00  0.00000000000E+00  0.10349988859E+03  0.10349988859E+03  0.00000000000E+00 0.  1.
         21   -1    0    0  503  502  0.00000000000E+00 -0.00000000000E+00 -0.62710559185E+03  0.62710559185E+03  0.00000000000E+00 0. -1.
         21    1    1    2  503  501 -0.58051099780E+01 -0.99101733412E+02 -0.88459175839E+02  0.13296570482E+03  0.00000000000E+00 0. -1.
         21    1    1    2  504  505  0.77407513415E+01  0.10196886347E+03  0.60726728860E+01  0.10244240188E+03  0.00000000000E+00 0. -1.
         21    1    1    2  505  502 -0.44402514469E+02  0.63310539682E+02 -0.39805655522E+03  0.40549824769E+03  0.00000000000E+00 0. -1.
          3    1    1    2  501    0  0.42466873106E+02 -0.66177669736E+02 -0.43162645078E+02  0.89699126045E+02  0.00000000000E+00 0.  1.
<scales pt_clust_3="53.35465" pt_clust_4="115.52070" pt_clust_5="77.32922" pt_clust_6="53.35465"></scales>
<clustering>
<clus scale="   53.355">  3  6 -1 -1</clus>
<clus scale="   77.329">  2  5  1 -1</clus>
<clus scale="  115.521">  1  4  2 -1</clus>
<clus scale="   77.329">  2  3  1 -1</clus>
</clustering>
</event>
<event>
 6    0  0.2839294E+002  0.6853232E+02  0.7546771E-02  0.1365156E+00
         21   -1    0    0  503  502  0.00000000000E+00  0.00000000000E+00  0.30256611964E+02  0.30256611964E+02  0.00000000000E+00 0.  1.
          2   -1    0    0  505    0 -0.00000000000E+00 -0.00000000000E+00 -0.21438884617E+04  0.21438884617E+04  0.00000000000E+00 0. -1.
         21    1    1    2  503  504 -0.49552725110E+01  0.64444790446E+02 -0.23654789485E+02  0.68827573013E+02  0.00000000000E+00 0.  1.
         21    1    1    2  504  501  0.71761036780E+01 -0.13763164047E+03 -0.81585418488E+03  0.82741284491E+03  0.00000000000E+00 0. -1.
         21    1    1    2  505  502  0.26742225390E+02  0.51199381360E+02 -0.94859920188E+03  0.95035623272E+03  0.00000000000E+00 0. -1.
          2    1    1    2  501    0 -0.28963056557E+02  0.21987468667E+02 -0.32552367351E+03  0.32754842305E+03  0.00000000000E+00 0. -1.
<scales pt_clust_3="14000.00000" pt_clust_4="68.53232" pt_clust_5="63.75290" pt_clust_6="36.36355"></scales>
<clustering>
<clus scale="   36.364">  2  6  1 -1</clus>
<clus scale="   63.753">  2  5  1 -1</clus>
<clus scale="   68.532">  2  4  1 -1</clus>
<clus scale="   68.532">  1  3  2 -1</clus>
</clustering>
</event>
<event>
 6    0  0.2839294E+002  0.2330578E+03  0.7546771E-02  0.1124506E+00
         21   -1    0    0  504  502  0.00000000000E+00  0.00000000000E+00  0.72444106412E+03  0.72444106412E+03  0.00000000000E+00 0.  1.
          2   -1    0    0  503    0 -0.00000000000E+00 -0.00000000000E+00 -0.90191215896E+03  0.90191215896E+03  0.00000000000E+00 0.  1.
         21    1    1    2  503  505 -0.20438054167E+01  0.44320193219E+02 -0.52866366003E+02  0.69016732188E+02  0.00000000000E+00 0. -1.
         21    1    1    2  504  501  0.14517124436E+03 -0.24018097917E+03  0.28644773156E+03  0.40101607930E+03  0.00000000000E+00 0.  1.
         21    1    1    2  505  502 -0.76650525925E+02  0.17032344317E+02  0.35668880344E+03  0.36522911491E+03  0.00000000000E+00 0.  1.
          2    1    1    2  501    0 -0.66476913023E+02  0.17882844163E+03 -0.76774126383E+03  0.79109129668E+03  0.00000000000E+00 0.  1.
<scales pt_clust_3="44.36729" pt_clust_4="14000.00000" pt_clust_5="78.57933" pt_clust_6="233.05780"></scales>
<clustering>
<clus scale="   44.367">  2  3  1 -1</clus>
<clus scale="   78.579">  1  5  2 -1</clus>
<clus scale="  233.058">  2  6  1 -1</clus>
<clus scale="   78.579">  1  3  2 -1</clus>
</clustering>
</event>
<event>
 6    0  0.2839294E+002  0.9891239E+02  0.7546771E-02  0.1282600E+00
         21   -1    0    0  504  502  0.00000000000E+00  0.00000000000E+00  0.18986593572E+03  0.18986593572E+03  0.00000000000E+00 0.  1.
          2   -1    0    0  503    0 -0.00000000000E+00 -0.00000000000E+00 -0.72332838040E+03  0.72332838040E+03  0.00000000000E+00 0. -1.
         21    1    1    2  503  502 -0.52824752284E+02 -0.26376906840E+01 -0.44082450623E+02  0.68852554919E+02  0.00000000000E+00 0. -1.
         21    1    1    2  504  505 -0.12419114775E+02 -0.91723480792E+02  0.15954915436E+03  0.18445423279E+03  0.00000000000E+00 0.  1.
         21    1    1    2  505  501  0.33312523794E+02  0.55946231334E+02 -0.45466037689E+03  0.45929920897E+03  0.00000000000E+00 0. -1.
          2    1    1    2  501    0  0.31931343265E+02  0.38414940142E+02 -0.19426877152E+03  0.20058831944E+03  0.00000000000E+00 0. -1.
<scales pt_clust_3="52.89056" pt_clust_4="92.74666" pt_clust_5="30.10956" pt_clust_6="30.10956"></scales>
<clustering>
<clus scale="   30.110">  5  6 -1 -1</clus>
<clus scale="   52.891">  2  3  1 -1</clus>
<clus scale="   92.747">  1  4  2 -1</clus>
<clus scale="   92.747">  1  3  2 -1</clus>
</clustering>
</event>
<event>
 6    0  0.2839294E+002  0.9701920E+02  0.7546771E-02  0.1286692E+00
         -2   -1    0    0    0  501 -0.00000000000E+00  0.00000000000E+00  0.10526973546E+04  0.10526973546E+04  0.00000000000E+00 0.  1.
         21   -1    0    0  503  502  0.00000000000E+00 -0.00000000000E+00 -0.52840388035E+02  0.52840388035E+02  0.00000000000E+00 0.  1.
         21    1    1    2  503  501  0.24905750765E+02 -0.68681641564E+02  0.21444014445E+02  0.76140068720E+02  0.00000000000E+00 0. -1.
         21    1    1    2  504  505  0.28817361660E+02 -0.62519175569E+02  0.34822024468E+03  0.35495975329E+03  0.00000000000E+00 0.  1.
         21    1    1    2  505  502 -0.40759782639E+02  0.16127496167E+03  0.30340913993E+03  0.34601745525E+03  0.00000000000E+00 0.  1.
         -2    1    1    2    0  504 -0.12963329786E+02 -0.30074144536E+02  0.32678356755E+03  0.32842046542E+03  0.00000000000E+00 0.  1.
<scales pt_clust_3="74.67833" pt_clust_4="97.01920" pt_clust_5="14000.00000" pt_clust_6="32.74908"></scales>
<clustering>
<clus scale="   32.749">  1  6  2 -1</clus>
<clus scale="   74.678">  2  3  1 -1</clus>
<clus scale="   97.019">  1  4  2 -1</clus>
<clus scale="   74.678">  2  3  1 -1</clus>
</clustering>
</event>
<event>
 6    0  0.2839294E+002  0.1762740E+03  0.7546771E-02  0.1171459E+00
         21   -1    0    0  501  502  0.00000000000E+00  0.00000000000E+00  0.19386336983E+03  0.19386336983E+03  0.00000000000E+00 0.  1.
          2   -1    0    0  505    0 -0.00000000000E+00 -0.00000000000E+00 -0.18410690274E+04  0.18410690274E+04  0.00000000000E+00 0.  1.
         21    1    1    2  503  502 -0.42339558126E+02 -0.32701888234E+02  0.11312812428E+03  0.12514001830E+03  0.00000000000E+00 0.  1.
         21    1    1    2  504  503 -0.61738173269E+02 -0.13607030455E+02  0.32676033689E+02  0.71165135382E+02  0.00000000000E+00 0.  1.
         21    1    1    2  505  504 -0.71770728578E+02  0.15738128455E+03 -0.11467624435E+04  0.11597344558E+04  0.00000000000E+00 0.  1.
          2    1    1    2  501    0  0.17584845997E+03 -0.11107236586E+03 -0.64624737201E+03  0.67889278768E+03  0.00000000000E+00 0.  1.
<scales pt_clust_3="53.49815" pt_clust_4="98.12710" pt_clust_5="176.27398" pt_clust_6="14000.00000"></scales>
<clustering>
<clus scale="   53.498">  1  3  2 -1</clus>
<clus scale="   98.127">  1  4  2 -1</clus>
<clus scale="  176.274">  2  5  1 -1</clus>
<clus scale="   53.498">  1  3  2 -1</clus>
</clustering>
</event>
<event>
 6    0  0.2839294E+002  0.1661806E+03  0.7546771E-02  0.1181890E+00
         21   -1    0    0  505  502  0.00000000000E+00  0.00000000000E+00  0.34146322783E+03  0.34146322783E+03  0.00000000000E+00 0. -1.
         -3   -1    0    0    0  501 -0.00000000000E+00 -0.00000000000E+00 -0.18075177446E+04  0.18075177446E+04  0.00000000000E+00 0. -1.
         21    1    1    2  503  504 -0.63769880581E+02 -0.10464247156E+03  0.10910687100E+03  0.16407606109E+03  0.00000000000E+00 0. -1.
         21    1    1    2  504  502  0.54883900245E+02 -0.65693708975E+02  0.19027411952E+03  0.20864358716E+03  0.00000000000E+00 0. -1.
         21    1    1    2  505  501  0.26939635559E+02  0.43152453553E+02 -0.23494590680E+03  0.24039021888E+03  0.00000000000E+00 0. -1.
         -3    1    1    2    0  503 -0.18053655223E+02  0.12718372698E+03 -0.15304896005E+04  0.15358711053E+04  0.00000000000E+00 0. -1.
<scales pt_clust_3="166.18057" pt_clust_4="85.51096" pt_clust_5="50.87119" pt_clust_6="14000.00000"></scales>
<clustering>
<clus scale="   50.871">  2  5  1 -1</clus>
<clus scale="   85.511">  1  4  2 -1</clus>
<clus scale="  166.181">  1  3  2 -1</clus>
<clus scale="   85.511">  1  3  2 -1</clus>
</clustering>
</event>
<event>
 6    0  0.2839294E+002  0.1290003E+03  0.7546771E-02  0.1228947E+00
         21   -1    0    0  503  502  0.00000000000E+00  0.00000000000E+00  0.77966408315E+02  0.77966408315E+02  0.00000000000E+00 0. -1.
          2   -1    0    0  505    0 -0.00000000000E+00 -0.00000000000E+00 -0.41526858224E+03  0.41526858224E+03  0.00000000000E+00 0. -1.
         21    1    1    2  503  501 -0.28180931396E+02  0.54400711951E+02 -0.12944422301E+03  0.14321106530E+03  0.00000000000E+00 0. -1.
         21    1    1    2  504  502 -0.30016217049E+02 -0.21826146324E+02  0.34786864050E+00  0.37114349811E+02  0.00000000000E+00 0.  1.
         21    1    1    2  505  504  0.47590149690E+02 -0.10239300422E+03 -0.23730122027E+02  0.11537880374E+03  0.00000000000E+00 0. -1.
          2    1    1    2  501    0  0.10606998755E+02  0.69818438593E+02 -0.18447569753E+03  0.19753077170E+03  0.00000000000E+00 0. -1.
<scales pt_clust_3="40.38710" pt_clust_4="37.11272" pt_clust_5="121.74171" pt_clust_6="40.38710"></scales>
<clustering>
<clus scale="   37.113">  1  4  2 -1</clus>
<clus scale="   40.387">  3  6 -1 -1</clus>
<clus scale="  121.742">  1  5  2 -1</clus>
<clus scale="   37.113">  1  3  2 -1</clus>
</clustering>
</event>
<event>
 6    0  0.2839294E+002  0.2510711E+03  0.7546771E-02  0.1112630E+00
         21   -1    0    0  504  502  0.00000000000E+00  0.00000000000E+00  0.13956855763E+03  0.13956855763E+03  0.00000000000E+00 0.  1.
          1   -1    0    0  505    0 -0.00000000000E+00 -0.00000000000E+00 -0.10736348150E+04  0.10736348150E+04  0.00000000000E+00 0. -1.
         21    1    1    2  503  501  0.66147566588E+02  0.23622385470E+02 -0.18378171167E+03  0.19674662692E+03  0.00000000000E+00 0.  1.
         21    1    1    2  504  503 -0.26405878481E+03 -0.58196765570E+01 -0.86596420865E+02  0.27795656239E+03  0.00000000000E+00 0.  1.
         21    1    1    2  505  502  0.33495919700E+02  0.36723337014E+02  0.28839049778E+01  0.49788523034E+02  0.00000000000E+00 0.  1.
          1    1    1    2  501    0  0.16441529852E+03 -0.54526045926E+02 -0.66657202983E+03  0.68871166029E+03  0.00000000000E+00 0. -1.
<scales pt_clust_3="53.21518" pt_clust_4="237.09929" pt_clust_5="49.70493" pt_clust_6="53.21518"></scales>
<clustering>
<clus scale="   49.705">  1  5  2 -1</clus>
<clus scale="   53.215">  3  6 -1 -1</clus>
<clus scale="  237.099">  1  4  2 -1</clus>
<clus scale="   49.705">  1  3  2 -1</clus>
</clustering>
</event>
<event>
 6    0  0.2839294E+002  0.1152370E+03  0.7546771E-02  0.1251168E+00
         21   -1    0    0  503  502  0.00000000000E+00  0.00000000000E+00  0.18793858191E+04  0.18793858191E+04  0.00000000000E+00 0.  1.
         -2   -1    0    0    0  501 -0.00000000000E+00 -0.00000000000E+00 -0.25968177416E+03  0.25968177416E+03  0.00000000000E+00 0. -1.
         21    1    1    2  503  505 -0.39511885664E+02 -0.11780953418E+03  0.47770199278E+03  0.49359849003E+03  0.00000000000E+00 0. -1.
         21    1    1    2  504  502 -0.24945126692E+02  0.22105607598E+02  0.13631579825E+04  0.13635654009E+04  0.00000000000E+00 0.  1.
         21    1    1    2  505  501 -0.17249595900E+02  0.27454794515E+02  0.41724680036E+01  0.32691341205E+02  0.00000000000E+00 0. -1.
         -2    1    1    2    0  504  0.81706608257E+02  0.68249132064E+02 -0.22532839833E+03  0.24921236116E+03  0.00000000000E+00 0. -1.
<scales pt_clust_3="14000.00000" pt_clust_4="33.35626" pt_clust_5="32.42398" pt_clust_6="115.23699"></scales>
<clustering>
<clus scale="   32.424">  2  5  1 -1</clus>
<clus scale="   33.356">  1  4  2 -1</clus>
<clus scale="  115.237">  2  6  1 -1</clus>
<clus scale="   33.356">  1  3  2 -1</clus>
</clustering>
</event>
<event>
 6    0  0.2839294E+002  0.8241136E+02  0.7546771E-02  0.1322344E+00
         21   -1    0    0  504  502  0.00000000000E+00  0.00000000000E+00  0.39604051187E+02  0.39604051187E+02  0.00000000000E+00 0.  1.
         -1   -1    0    0    0  501 -0.00000000000E+00 -0.00000000000E+00 -0.62673184724E+03  0.62673184724E+03  0.00000000000E+00 0.  1.
         21    1    1    2  503  501 -0.64871206596E+01  0.74007451926E+02 -0.33841135005E+03  0.34646995183E+03  0.00000000000E+00 0. -1.
         21    1    1    2  504  505  0.55550710770E+02 -0.39445753924E+02 -0.78730307914E+02  0.10411681110E+03  0.00000000000E+00 0.  1.
         21    1    1    2  505  503 -0.56262439480E+01 -0.60843741844E+02 -0.32543231871E+02  0.69229166420E+02  0.00000000000E+00 0.  1.
         -1    1    1    2    0  502 -0.43437346162E+02  0.26282043841E+02 -0.13744290621E+03  0.14651996907E+03  0.00000000000E+00 0.  1.
<scales pt_clust_3="82.41136" pt_clust_4="58.58595" pt_clust_5="14000.00000" pt_clust_6="50.76957"></scales>
<clustering>
<clus scale="   50.770">  2  6  1 -1</clus>
<clus scale="   58.586">  1  4  2 -1</clus>
<clus scale="   82.411">  2  3  1 -1</clus>
<clus scale="   58.586">  1  3  2 -1</clus>
</clustering>
</event>
<event>
 6    0  0.2839294E+002  0.1922734E+03  0.7546771E-02  0.1156427E+00
         21   -1    0    0  503  502  0.00000000000E+00  0.00000000000E+00  0.89870822666E+02  0.89870822666E+02  0.00000000000E+00 0.  1.
          2   -1    0    0  505    0 -0.00000000000E+00 -0.00000000000E+00 -0.24918387087E+04  0.24918387087E+04  0.00000000000E+00 0.  1.
         21    1    1    2  503  504 -0.29027260001E+02  0.12994888703E+02  0.22249327692E+02  0.38813419565E+02  0.00000000000E+00 0.  1.
         21    1    1    2  504  501 -0.52571392724E+02 -0.23297977781E+02 -0.16912382768E+03  0.17863206932E+03  0.00000000000E+00 0.  1.
         21    1    1    2  505  502  0.26221781251E+03  0.53281247808E+02 -0.30658071712E+03  0.40692604817E+03  0.00000000000E+00 0.  1.
          2    1    1    2  501    0 -0.18061915979E+03 -0.42978158730E+02 -0.19485126690E+04  0.19573379943E+04  0.00000000000E+00 0.  1.
<scales pt_clust_3="31.80329" pt_clust_4="59.23720" pt_clust_5="192.27345" pt_clust_6="14000.00000"></scales>
<clustering>
<clus scale="   31.803">  1  3  2 -1</clus>
<clus scale="   59.237">  1  4  2 -1</clus>
<clus scale="  192.273">  1  5  2 -1</clus>
<clus scale="   31.803">  1  3  2 -1</clus>
</clustering>
</event>
<event>
 6    0  0.2839294E+002  0.1236785E+03  0.7546771E-02  0.1237149E+00
          2   -1    0    0  503    0 -0.00000000000E+00  0.00000000000E+00  0.10149824300E+03  0.10149824300E+03  0.00000000000E+00 0.  1.
         21   -1    0    0  505  502  0.00000000000E+00 -0.00000000000E+00 -0.70842575488E+03  0.70842575488E+03  0.00000000000E+00 0.  1.
         21    1    1    2  503  502  0.17744089548E+03 -0.13611537358E+02 -0.26152045886E+03  0.31632814567E+03  0.00000000000E+00 0.  1.
         21    1    1    2  504  501 -0.72549729368E+02  0.53267248837E+02 -0.32286506620E+02  0.95620507945E+02  0.00000000000E+00 0.  1.
         21    1    1    2  505  504 -0.54529154763E+02 -0.38020731861E+02 -0.33608811851E+03  0.34259922383E+03  0.00000000000E+00 0.  1.
          2    1    1    2  501    0 -0.50362011345E+02 -0.16349796181E+01  0.22967572112E+02  0.55376120429E+02  0.00000000000E+00 0.  1.
<scales pt_clust_3="123.67853" pt_clust_4="14000.00000" pt_clust_5="68.69728" pt_clust_6="50.38854"></scales>
<clustering>
<clus scale="   50.389">  1  6  2 -1</clus>
<clus scale="   68.697">  2  5  1 -1</clus>
<clus scale="  123.679">  2  3  1 -1</clus>
<clus scale="   68.697">  2  3  1 -1</clus>
</clustering>
</event>
<event>
 6    0  0.2839294E+002  0.9125065E+02  0.7546771E-02  0.1299851E+00
         21   -1    0    0  505  502  0.00000000000E+00  0.00000000000E+00  0.72838700679E+02  0.72838700679E+02  0.00000000000E+00 0. -1.
         -1   -1    0    0    0  501 -0.00000000000E+00 -0.00000000000E+00 -0.31105792170E+03  0.31105792170E+03  0.00000000000E+00 0. -1.
         21    1    1    2  503  501  0.36972382404E+02  0.12885673229E+02 -0.70352520164E+02  0.80513817004E+02  0.00000000000E+00 0. -1.
         21    1    1    2  504  502 -0.70019921536E+02  0.55765855800E+02 -0.16544789710E+02  0.91029391691E+02  0.00000000000E+00 0. -1.
         21    1    1    2  505  503  0.28043745098E+02 -0.10594836841E+03 -0.97555043910E+02  0.14672591796E+03  0.00000000000E+00 0. -1.
         -1    1    1    2    0  504  0.50037940335E+01  0.37296839382E+02 -0.53766867234E+02  0.65627495722E+02  0.00000000000E+00 0. -1.
<scales pt_clust_3="45.38745" pt_clust_4="91.25065" pt_clust_5="14000.00000" pt_clust_6="37.63100"></scales>
<clustering>
<clus scale="   37.631">  2  6  1 -1</clus>
<clus scale="   45.387">  2  3  1 -1</clus>
<clus scale="   91.251">  1  4  2 -1</clus>
<clus scale="   91.251">  1  3  2 -1</clus>
</clustering>
</event>
<event>
 6    0  0.2839294E+002  0.2302935E+03  0.7546771E-02  0.1126433E+00
          2   -1    0    0  503    0 -0.00000000000E+00  0.00000000000E+00  0.12591004680E+04  0.12591004680E+04  0.00000000000E+00 0.  1.
         21   -1    0    0  505  502  0.00000000000E+00 -0.00000000000E+00 -0.64523800868E+03  0.64523800868E+03  0.00000000000E+00 0.  1.
         21    1    1    2  503  504 -0.26583565634E+02  0.27280402703E+02  0.28430679418E+03  0.28684710135E+03  0.00000000000E+00 0.  1.
         21    1    1    2  504  502  0.18803373733E+03 -0.14243006589E+03 -0.59042910684E+03  0.63580621281E+03  0.00000000000E+00 0.  1.
         21    1    1    2  505  501 -0.86100534330E+02  0.15383635207E+03  0.24738620125E+03  0.30377435343E+03  0.00000000000E+00 0. -1.
          2    1    1    2  501    0 -0.75349637366E+02 -0.38686688885E+02  0.67259857069E+03  0.67791080906E+03  0.00000000000E+00 0.  1.
<scales pt_clust_3="38.09076" pt_clust_4="14000.00000" pt_clust_5="230.29349" pt_clust_6="95.84842"></scales>
<clustering>
<clus scale="   38.091">  1  3  2 -1</clus>
<clus scale="   95.848">  1  6  2 -1</clus>
<clus scale="  230.293">  1  5  2 -1</clus>
<clus scale="  230.293">  2  3  1 -1</clus>
</clustering>
</event>
<event>
 6    0  0.2839294E+002  0.6445464E+02  0.7546771E-02  0.1380035E+00
          2   -1    0    0  504    0 -0.00000000000E+00  0.00000000000E+00  0.16601612472E+04  0.16601612472E+04  0.00000000000E+00 0. -1.
         21   -1    0    0  503  502  0.00000000000E+00 -0.00000000000E+00 -0.37437830264E+03  0.37437830264E+03  0.00000000000E+00 0. -1.
         21    1    1    2  503  505  0.52425453195E+02 -0.10928954648E+01 -0.79111055354E+02  0.94911441051E+02  0.00000000000E+00 0. -1.
         21    1    1    2  504  502 -0.34518104098E+02 -0.45290949556E+02 -0.27509261697E+03  0.28092475422E+03  0.00000000000E+00 0. -1.
         21    1    1    2  505  501 -0.80728656905E+02  0.36916901170E+02  0.21913421498E+03  0.23643133847E+03  0.00000000000E+00 0. -1.
          2    1    1    2  501    0  0.62821307808E+02  0.94669438504E+01  0.14208524019E+04  0.14222720160E+04  0.00000000000E+00 0. -1.
<scales pt_clust_3="52.43684" pt_clust_4="49.09789" pt_clust_5="64.45464" pt_clust_6="14000.00000"></scales>
<clustering>
<clus scale="   52.437">  2  3  1 -1</clus>
<clus scale="   49.098">  2  4  1 -1</clus>
<clus scale="   64.455">  2  5  1 -1</clus>
<clus scale="   52.437">  2  3  1 -1</clus>
</clustering>
</event>
<event>
 6    0  0.2839294E+002  0.1208333E+03  0.7546771E-02  0.1241729E+00
         21   -1    0    0  503  502  0.00000000000E+00  0.00000000000E+00  0.22560018166E+03  0.22560018166E+03  0.00000000000E+00 0. -1.
         -2   -1    0    0    0  501 -0.00000000000E+00 -0.00000000000E+00 -0.24674581437E+03  0.24674581437E+03  0.00000000000E+00 0.  1.
         21    1    1    2  503  501 -0.10506807132E+03 -0.55334045150E+02 -0.92781726143E+02  0.15069706324E+03  0.00000000000E+00 0.  1.
         21    1    1    2  504  505  0.97140108521E+02  0.48647978316E+02  0.14621707959E+02  0.10962034857E+03  0.00000000000E+00 0. -1.
         21    1    1    2  505  502  0.39018579930E+02 -0.11865836368E+02  0.12691585014E+03  0.13330746667E+03  0.00000000000E+00 0. -1.
         -2    1    1    2    0  504 -0.31090617131E+02  0.18551903202E+02 -0.69901464665E+02  0.78721117550E+02  0.00000000000E+00 0.  1.
<scales pt_clust_3="120.83329" pt_clust_4="14000.00000" pt_clust_5="40.13193" pt_clust_6="36.20497"></scales>
<clustering>
<clus scale="   36.205">  2  6  1 -1</clus>
<clus scale="   40.132">  1  5  2 -1</clus>
<clus scale="  120.833">  2  3  1 -1</clus>
<clus scale="   40.132">  1  3  2 -1</clus>
</clustering>
</event>
<event>
 6    0  0.2839294E+002  0.1730027E+03  0.7546771E-02  0.1174752E+00
         21   -1    0    0  503  502  0.00000000000E+00  0.00000000000E+00  0.17929852038E+03  0.17929852038E+03  0.00000000000E+00 0.  1.
          1   -1    0    0  504    0 -0.00000000000E+00 -0.00000000000E+00 -0.59186251394E+03  0.59186251394E+03  0.00000000000E+00 0.  1.
         21    1    1    2  503  505 -0.30153107409E+02 -0.17440167669E+02  0.12253943035E+02  0.36925986170E+02  0.00000000000E+00 0.  1.
         21    1    1    2  504  502  0.13677354566E+03 -0.10046982341E+03  0.89457668791E+02  0.19184332856E+03  0.00000000000E+00 0.  1.
         21    1    1    2  505  501 -0.57095099253E+02  0.16563851928E+02 -0.16818100291E+03  0.17837898219E+03  0.00000000000E+00 0.  1.
          1    1    1    2  501    0 -0.49525338994E+02  0.10134613915E+03 -0.34609460248E+03  0.36401273740E+03  0.00000000000E+00 0.  1.
<scales pt_clust_3="34.83345" pt_clust_4="159.65981" pt_clust_5="48.71758" pt_clust_6="48.71758"></scales>
<clustering>
<clus scale="   34.833">  1  3  2 -1</clus>
<clus scale="   48.718">  5  6 -1 -1</clus>
<clus scale="  159.660">  1  4  2 -1</clus>
<clus scale="   34.833">  1  3  2 -1</clus>
</clustering>
</event>
<event>
 6    0  0.2839294E+002  0.9953929E+02  0.7546771E-02  0.1281268E+00
          1   -1    0    0  504    0 -0.00000000000E+00  0.00000000000E+00  0.17783426889E+04  0.17783426889E+04  0.00000000000E+00 0.  1.
         21   -1    0    0  503  502  0.00000000000E+00 -0.00000000000E+00 -0.37363350672E+03  0.37363350672E+03  0.00000000000E+00 0.  1.
         21    1    1    2  503  501 -0.10162142501E+03 -0.95658233513E+00 -0.15935349153E+03  0.18900096385E+03  0.00000000000E+00 0.  1.
         21    1    1    2  504  505 -0.24133927205E+02  0.30472790526E+02  0.28849094283E+03  0.29109802730E+03  0.00000000000E+00 0. -1.
         21    1    1    2  505  502  0.88293873540E+02 -0.60429562919E+02 -0.18327625082E+03  0.21222093274E+03  0.00000000000E+00 0.  1.
          1    1    1    2  501    0  0.37461478679E+02  0.30913354728E+02  0.14588479817E+04  0.14596562717E+04  0.00000000000E+00 0.  1.
<scales pt_clust_3="14000.00000" pt_clust_4="38.87206" pt_clust_5="99.53929" pt_clust_6="62.33376"></scales>
<clustering>
<clus scale="   38.872">  1  4  2 -1</clus>
<clus scale="   62.334">  1  6  2 -1</clus>
<clus scale="   99.539">  2  5  1 -1</clus>
<clus scale="   99.539">  2  3  1 -1</clus>
</clustering>
</event>
<event>
 6    0  0.2839294E+002  0.1438093E+03  0.7546771E-02  0.1208293E+00
         21   -1    0    0  503  502  0.00000000000E+00  0.00000000000E+00  0.86212661345E+02  0.86212661345E+02  0.00000000000E+00 0. -1.
          1   -1    0    0  504    0 -0.00000000000E+00 -0.00000000000E+00 -0.79890521714E+03  0.79890521714E+03  0.00000000000E+00 0. -1.
         21    1    1    2  503  501 -0.43304018429E+01 -0.48131161034E+02 -0.27613554779E+02  0.55658507438E+02  0.00000000000E+00 0. -1.
         21    1    1    2  504  505 -0.11091137329E+03  0.76238668471E+02 -0.15051781913E+03  0.20191404401E+03  0.00000000000E+00 0. -1.
         21    1    1    2  505  502 -0.17351693016E+02  0.36836285744E+02  0.25703966877E+02  0.48152747702E+02  0.00000000000E+00 0.  1.
          1    1    1    2  501    0  0.13259346814E+03 -0.64943793181E+02 -0.56026514877E+03  0.57939257934E+03  0.00000000000E+00 0. -1.
<scales pt_clust_3="38.77419" pt_clust_4="143.80933" pt_clust_5="40.71846" pt_clust_6="14000.00000"></scales>
<clustering>
<clus scale="   40.718">  1  5  2 -1</clus>
<clus scale="   38.774">  1  3  2 -1</clus>
<clus scale="  143.809">  1  4  2 -1</clus>
<clus scale="   40.718">  1  3  2 -1</clus>
</clustering>
</event>
<event>
 6    0  0.2839294E+002  0.1021631E+03  0.7546771E-02  0.1275812E+00
         21   -1    0    0  504  502  0.00000000000E+00  0.00000000000E+00  0.61055519833E+02  0.61055519833E+02  0.00000000000E+00 0.  1.
          2   -1    0    0  503    0 -0.00000000000E+00 -0.00000000000E+00 -0.24840401897E+04  0.24840401897E+04  0.00000000000E+00 0.  1.
         21    1    1    2  503  505  0.22529456505E+02  0.25575978011E+02 -0.45121479804E+03  0.45250027739E+03  0.00000000000E+00 0.  1.
         21    1    1    2  504  501 -0.66636050268E+02 -0.57973698923E+02 -0.69165991258E+02  0.11218398865E+03  0.00000000000E+00 0. -1.
         21    1    1    2  505  502  0.74300932509E+02  0.89412012698E+02 -0.49779175413E+02  0.12646384025E+03  0.00000000000E+00 0.  1.
          2    1    1    2  501    0 -0.30194338745E+02 -0.57014291786E+02 -0.18528247051E+04  0.18539476032E+04  0.00000000000E+00 0.  1.
<scales pt_clust_3="34.08382" pt_clust_4="102.16310" pt_clust_5="14000.00000" pt_clust_6="35.04261"></scales>
<clustering>
<clus scale="   34.084">  2  3  1 -1</clus>
<clus scale="   35.043">  2  6  1 -1</clus>
<clus scale="  102.163">  2  4  1 -1</clus>
<clus scale="  102.163">  1  3  2 -1</clus>
</clustering>
</event>
<event>
 6    0  0.2839294E+002  0.1109402E+03  0.7546771E-02  0.1258839E+00
         -3   -1    0    0    0  501 -0.00000000000E+00  0.00000000000E+00  0.23624569055E+03  0.23624569055E+03  0.00000000000E+00 0. -1.
         21   -1    0    0  503  502  0.00000000000E+00 -0.00000000000E+00 -0.11493542151E+04  0.11493542151E+04  0.00000000000E+00 0. -1.
         21    1    1    2  503  501  0.24438754536E+02  0.68560897434E+02 -0.95063756649E+03  0.95341996633E+03  0.00000000000E+00 0. -1.
         21    1    1    2  504  502 -0.98692939662E+02 -0.18225554267E+02 -0.43973669435E+02  0.10957258220E+03  0.00000000000E+00 0. -1.
         21    1    1    2  505  504  0.12969393619E+03 -0.11595190637E+03 -0.35402646202E+02  0.17753509240E+03  0.00000000000E+00 0. -1.
         -3    1    1    2    0  505 -0.55439751063E+02  0.65616563207E+02  0.11690535757E+03  0.14507226473E+03  0.00000000000E+00 0. -1.
<scales pt_clust_3="72.78633" pt_clust_4="14000.00000" pt_clust_5="110.94025" pt_clust_6="88.62759"></scales>
<clustering>
<clus scale="   72.786">  2  3  1 -1</clus>
<clus scale="   88.628">  1  6  2 -1</clus>
<clus scale="  110.940">  1  5  2 -1</clus>
<clus scale="   72.786">  2  3  1 -1</clus>
</clustering>
</event>
<event>
 6    0  0.2839294E+002  0.9525077E+02  0.7546771E-02  0.1290612E+00
          1   -1    0    0  504    0 -0.00000000000E+00  0.00000000000E+00  0.22390735332E+04  0.22390735332E+04  0.00000000000E+00 0. -1.
         21   -1    0    0  505  502  0.00000000000E+00 -0.00000000000E+00 -0.21697111521E+02  0.21697111521E+02  0.00000000000E+00 0. -1.
         21    1    1    2  503  502  0.29948631590E+02  0.30896474698E+02  0.18684324600E+02  0.46910730847E+02  0.00000000000E+00 0. -1.
         21    1    1    2  504  503  0.68780089474E+02 -0.48863082619E+02  0.11353172356E+04  0.11384478587E+04  0.00000000000E+00 0. -1.
         21    1    1    2  505  501 -0.12071054961E+03 -0.12789541461E+02  0.86393300684E+03  0.87241896441E+03  0.00000000000E+00 0. -1.
          1    1    1    2  501    0  0.21981828548E+02  0.30756149382E+02  0.19944185462E+03  0.20299309074E+03  0.00000000000E+00 0. -1.
<scales pt_clust_3="43.63096" pt_clust_4="95.25077" pt_clust_5="14000.00000" pt_clust_6="37.80399"></scales>
<clustering>
<clus scale="   37.804">  1  6  2 -1</clus>
<clus scale="   43.631">  2  3  1 -1</clus>
<clus scale="   95.251">  1  4  2 -1</clus>
<clus scale="   43.631">  2  3  1 -1</clus>
</clustering>
</event>
<event>
 6    0  0.2839294E+002  0.9009506E+02  0.7546771E-02  0.1302622E+00
          1   -1    0    0  503    0 -0.00000000000E+00  0.00000000000E+00  0.77344804853E+03  0.77344804853E+03  0.00000000000E+00 0. -1.
         21   -1    0    0  504  502  0.00000000000E+00 -0.00000000000E+00 -0.11849270660E+04  0.11849270660E+04  0.00000000000E+00 0.  1.
         21    1    1    2  503  505  0.68441490765E+02 -0.31598327332E+02  0.10101315481E+03  0.12604106233E+03  0.00000000000E+00 0. -1.
         21    1    1    2  504  501  0.22365451883E+01  0.14348377780E+03 -0.27644522253E+03  0.31147160013E+03  0.00000000000E+00 0.  1.
         21    1    1    2  505  502  0.10886441499E+02 -0.83376989382E+02 -0.87352144127E+03  0.87755908367E+03  0.00000000000E+00 0.  1.
          1    1    1    2  501    0 -0.81564477453E+02 -0.28508461086E+02  0.63747449157E+03  0.64330336836E+03  0.00000000000E+00 0. -1.
<scales pt_clust_3="75.38363" pt_clust_4="14000.00000" pt_clust_5="90.09506" pt_clust_6="61.07991"></scales>
<clustering>
<clus scale="   75.384">  1  3  2 -1</clus>
<clus scale="   61.080">  1  6  2 -1</clus>
<clus scale="   90.095">  2  5  1 -1</clus>
<clus scale="   90.095">  2  3  1 -1</clus>
</clustering>
</event>
<event>
 6    0  0.2839294E+002  0.1051186E+03  0.7546771E-02  0.1269886E+00
          2   -1    0    0  505    0 -0.00000000000E+00  0.00000000000E+00  0.17367031283E+04  0.17367031283E+04  0.00000000000E+00 0. -1.
         21   -1    0    0  504  502  0.00000000000E+00 -0.00000000000E+00 -0.14006690997E+03  0.14006690997E+03  0.00000000000E+00 0. -1.
         21    1    1    2  503  502  0.11391807423E+03  0.20481903194E+02 -0.93862927459E+02  0.14902041855E+03  0.00000000000E+00 0. -1.
         21    1    1    2  504  501 -0.50849950716E+02 -0.59036439038E+02  0.96009458975E+02  0.12364802803E+03  0.00000000000E+00 0. -1.
         21    1    1    2  505  503 -0.29851755717E+02 -0.62302011229E+02  0.65095998648E+03  0.65461559096E+03  0.00000000000E+00 0. -1.
          2    1    1    2  501    0 -0.33216367798E+02  0.10085654707E+03  0.94352970028E+03  0.94948600068E+03  0.00000000000E+00 0. -1.
<scales pt_clust_3="105.11862" pt_clust_4="14000.00000" pt_clust_5="69.08450" pt_clust_6="75.31541"></scales>
<clustering>
<clus scale="   69.084">  1  5  2 -1</clus>
<clus scale="   75.315">  1  6  2 -1</clus>
<clus scale="  105.119">  2  3  1 -1</clus>
<clus scale="  105.119">  2  3  1 -1</clus>
</clustering>
</event>
<event>
 6    0  0.2839294E+002  0.6876431E+02  0.7546771E-02  0.1364346E+00
         21   -1    0    0  501  502  0.00000000000E+00  0.00000000000E+00  0.46155086793E+03  0.46155086793E+03  0.00000000000E+00 0.  1.
          2   -1    0    0  503    0 -0.00000000000E+00 -0.00000000000E+00 -0.14103185361E+04  0.14103185361E+04  0.00000000000E+00 0.  1.
         21    1    1    2  503  504 -0.71710777277E+02  0.93153189777E+02 -0.54935521058E+03  0.56179275515E+03  0.00000000000E+00 0.  1.
         21    1    1    2  504  505 -0.38076737378E+02 -0.49217824912E+02 -0.24394900336E+03  0.25176049821E+03  0.00000000000E+00 0.  1.
         21    1    1    2  505  502  0.54772778643E+02 -0.20728458706E+02  0.44804749206E+03  0.45185869630E+03  0.00000000000E+00 0.  1.
          2    1    1    2  501    0  0.55014736013E+02 -0.23206906158E+02 -0.60351094629E+03  0.60645745437E+03  0.00000000000E+00 0.  1.
<scales pt_clust_3="14000.00000" pt_clust_4="59.52855" pt_clust_5="58.56386" pt_clust_6="68.76431"></scales>
<clustering>
<clus scale="   58.564">  1  5  2 -1</clus>
<clus scale="   59.529">  1  4  2 -1</clus>
<clus scale="   68.764">  2  6  1 -1</clus>
<clus scale="   58.564">  1  3  2 -1</clus>
</clustering>
</event>
<event>
 6    0  0.2839294E+002  0.3330044E+03  0.7546771E-02  0.1069815E+00
         21   -1    0    0  503  502  0.00000000000E+00  0.00000000000E+00  0.72711454816E+03  0.72711454816E+03  0.00000000000E+00 0. -1.
          2   -1    0    0  504    0 -0.00000000000E+00 -0.00000000000E+00 -0.28793913332E+04  0.28793913332E+04  0.00000000000E+00 0.  1.
         21    1    1    2  503  505 -0.16041494869E+03 -0.86384775165E+02  0.36099107691E+03  0.40436350324E+03  0.00000000000E+00 0. -1.
         21    1    1    2  504  502  0.33737241339E+02 -0.89524126893E+02 -0.52627907450E+03  0.53490413628E+03  0.00000000000E+00 0.  1.
         21    1    1    2  505  501  0.34015773286E+03  0.36286767536E+03  0.14371532241E+03  0.51772031729E+03  0.00000000000E+00 0. -1.
          2    1    1    2  501    0 -0.21348002551E+03 -0.18695877330E+03 -0.21307041098E+04  0.21495179245E+04  0.00000000000E+00 0.  1.
<scales pt_clust_3="182.31548" pt_clust_4="95.67011" pt_clust_5="333.00439" pt_clust_6="14000.00000"></scales>
<clustering>
<clus scale="   95.670">  2  4  1 -1</clus>
<clus scale="  182.315">  1  3  2 -1</clus>
<clus scale="  333.004">  1  5  2 -1</clus>
<clus scale="  182.315">  1  3  2 -1</clus>
</clustering>
</event>
<event>
 6    0  0.2839294E+002  0.1495044E+03  0.7546771E-02  0.1201083E+00
          2   -1    0    0  505    0 -0.00000000000E+00  0.00000000000E+00  0.11701893361E+04  0.11701893361E+04  0.00000000000E+00 0.  1.
         21   -1    0    0  503  502  0.00000000000E+00 -0.00000000000E+00 -0.35087457828E+03  0.35087457828E+03  0.00000000000E+00 0. -1.
         21    1    1    2  503  504 -0.22224566660E+03  0.79392395555E+02  0.25162161836E+03  0.34497786540E+03  0.00000000000E+00 0. -1.
         21    1    1    2  504  501  0.51539288316E+02 -0.17632816824E+02  0.22888708343E+03  0.23527964516E+03  0.00000000000E+00 0.  1.
         21    1    1    2  505  502  0.13223946826E+03 -0.58244653007E+02 -0.28302434241E+03  0.31777742992E+03  0.00000000000E+00 0. -1.
          2    1    1    2  501    0  0.38466910025E+02 -0.35149257239E+01  0.62183039846E+03  0.62302897390E+03  0.00000000000E+00 0.  1.
<scales pt_clust_3="149.50440" pt_clust_4="70.48111" pt_clust_5="14000.00000" pt_clust_6="38.62716"></scales>
<clustering>
<clus scale="   38.627">  1  6  2 -1</clus>
<clus scale="   70.481">  1  4  2 -1</clus>
<clus scale="  149.504">  1  3  2 -1</clus>
<clus scale="  149.504">  2  3  1 -1</clus>
</clustering>
</event>
<event>
 6    0  0.2839294E+002  0.1730273E+03  0.7546771E-02  0.1174727E+00
         21   -1    0    0  503  502  0.00000000000E+00  0.00000000000E+00  0.15487996878E+04  0.15487996878E+04  0.00000000000E+00 0.  1.
         -1   -1    0    0    0  501 -0.00000000000E+00 -0.00000000000E+00 -0.68311609893E+03  0.68311609893E+03  0.00000000000E+00 0.  1.
         21    1    1    2  503  505 -0.17162922328E+03  0.31378303826E+02  0.15049271624E+04  0.15150072450E+04  0.00000000000E+00 0.  1.
         21    1    1    2  504  501  0.65752133477E+02  0.12808019348E+02 -0.35136252768E+03  0.35769122757E+03  0.00000000000E+00 0.  1.
         21    1    1    2  505  504  0.76835909020E+02 -0.10121879730E+03 -0.26002613152E+03  0.28941767554E+03  0.00000000000E+00 0.  1.
         -1    1    1    2    0  502  0.29041180780E+02  0.57032474121E+02 -0.27854914399E+02  0.69799638550E+02  0.00000000000E+00 0.  1.
<scales pt_clust_3="173.02731" pt_clust_4="93.37141" pt_clust_5="14000.00000" pt_clust_6="64.00073"></scales>
<clustering>
<clus scale="   64.001">  2  6  1 -1</clus>
<clus scale="   93.371">  2  4  1 -1</clus>
<clus scale="  173.027">  1  3  2 -1</clus>
<clus scale="  173.027">  1  3  2 -1</clus>
</clustering>
</event>
<event>
 6    0  0.2839294E+002  0.1611837E+03  0.7546771E-02  0.1187367E+00
         21   -1    0    0  504  502  0.00000000000E+00  0.00000000000E+00  0.19373238182E+03  0.19373238182E+03  0.00000000000E+00 0.  1.
         -2   -1    0    0    0  501 -0.00000000000E+00 -0.00000000000E+00 -0.75193414735E+03  0.75193414735E+03  0.00000000000E+00 0.  1.
         21    1    1    2  503  502 -0.22377208019E+02 -0.34967012491E+02  0.58376316887E+02  0.71632574815E+02  0.00000000000E+00 0. -1.
         21    1    1    2  504  501  0.17572212821E+03  0.22617975986E+02  0.53574218515E+02  0.18509466786E+03  0.00000000000E+00 0.  1.
         21    1    1    2  505  503 -0.68795887838E+02  0.13479338592E+02 -0.21950875448E+03  0.23043146497E+03  0.00000000000E+00 0.  1.
         -2    1    1    2    0  505 -0.84549032352E+02 -0.11303020873E+01 -0.45064354645E+03  0.45850782154E+03  0.00000000000E+00 0.  1.
<scales pt_clust_3="41.51423" pt_clust_4="155.28720" pt_clust_5="39.33341" pt_clust_6="39.33341"></scales>
<clustering>
<clus scale="   39.333">  5  6 -1 -1</clus>
<clus scale="   41.514">  1  3  2 -1</clus>
<clus scale="  155.287">  1  4  2 -1</clus>
<clus scale="   41.514">  1  3  2 -1</clus>
</clustering>
</event>
<event>
 6    0  0.2839294E+002  0.1529455E+03  0.7546771E-02  0.1196900E+00
         -1   -1    0    0    0  501 -0.00000000000E+00  0.00000000000E+00  0.35423914990E+03  0.35423914990E+03  0.00000000000E+00 0. -1.
         21   -1    0    0  503  502  0.00000000000E+00 -0.00000000000E+00 -0.10872306790E+04  0.10872306790E+04  0.00000000000E+00 0.  1.
         21    1    1    2  503  501  0.82212125679E+01  0.13162262412E+03  0.50767256489E+02  0.14131319063E+03  0.00000000000E+00 0.  1.
         21    1    1    2  504  502 -0.32680760909E+02  0.17157948286E+02 -0.10168082410E+04  0.10174779734E+04  0.00000000000E+00 0.  1.
         21    1    1    2  505  504  0.34639639837E+02 -0.73123367412E+02  0.93797632902E+02  0.12387464409E+03  0.00000000000E+00 0.  1.
         -1    1    1    2    0  505 -0.10180091496E+02 -0.75657204991E+02  0.13925182255E+03  0.15880402077E+03  0.00000000000E+00 0. -1.
<scales pt_clust_3="143.28664" pt_clust_4="36.91107" pt_clust_5="53.48919" pt_clust_6="53.48919"></scales>
<clustering>
<clus scale="   36.911">  2  4  1 -1</clus>
<clus scale="   53.489">  5  6 -1 -1</clus>
<clus scale="  143.287">  2  3  1 -1</clus>
<clus scale="   36.911">  2  3  1 -1</clus>
</clustering>
</event>
<event>
 6    0  0.2839294E+002  0.7653016E+02  0.7546771E-02  0.1339197E+00
         21   -1    0    0  501  502  0.00000000000E+00  0.00000000000E+00  0.42912431750E+02  0.42912431750E+02  0.00000000000E+00 0.  1.
          2   -1    0    0  503    0 -0.00000000000E+00 -0.00000000000E+00 -0.10627939251E+04  0.10627939251E+04  0.00000000000E+00 0.  1.
         21    1    1    2  503  505 -0.58460059193E+02 -0.10369147619E+03 -0.14875341070E+03  0.19051792029E+03  0.00000000000E+00 0.  1.
         21    1    1    2  504  502  0.14263578509E+02  0.27467345201E+02 -0.64274488991E+02  0.71338030946E+02  0.00000000000E+00 0.  1.
         21    1    1    2  505  504 -0.74711313506E+01  0.51796639583E+02 -0.21755011789E+02  0.56674422923E+02  0.00000000000E+00 0.  1.
          2    1    1    2  501    0  0.51667612035E+02  0.24427491411E+02 -0.78509858185E+03  0.78717598267E+03  0.00000000000E+00 0.  1.
<scales pt_clust_3="76.53016" pt_clust_4="30.95004" pt_clust_5="14000.00000" pt_clust_6="57.80295"></scales>
<clustering>
<clus scale="   30.950">  1  4  2 -1</clus>
<clus scale="   57.803">  2  6  1 -1</clus>
<clus scale="   76.530">  2  3  1 -1</clus>
<clus scale="   30.950">  1  3  2 -1</clus>
</clustering>
</event>
<event>
 6    0  0.2839294E+002  0.9681400E+02  0.7546771E-02  0.1287142E+00
         21   -1    0    0  504  502  0.00000000000E+00  0.00000000000E+00  0.34987967657E+03  0.34987967657E+03  0.00000000000E+00 0. -1.
          2   -1    0    0  503    0 -0.00000000000E+00 -0.00000000000E+00 -0.25898857240E+04  0.25898857240E+04  0.00000000000E+00 0.  1.
         21    1    1    2  503  502  0.41377817582E+02  0.10425993506E+02 -0.17172925859E+03  0.17695130230E+03  0.00000000000E+00 0.  1.
         21    1    1    2  504  505  0.31763925536E+02  0.19591403915E+02  0.30466264999E+03  0.30693989701E+03  0.00000000000E+00 0. -1.
         21    1    1    2  505  501 -0.81341532532E+01  0.76308976048E+02  0.28733284986E+01  0.76795053821E+02  0.00000000000E+00 0. -1.
          2    1    1    2  501    0 -0.65007589865E+02 -0.10632637347E+03 -0.23758127673E+04  0.23790791475E+04  0.00000000000E+00 0.  1.
<scales pt_clust_3="44.78416" pt_clust_4="37.31983" pt_clust_5="14000.00000" pt_clust_6="96.81400"></scales>
<clustering>
<clus scale="   37.320">  1  4  2 -1</clus>
<clus scale="   44.784">  2  3  1 -1</clus>
<clus scale="   96.814">  2  6  1 -1</clus>
<clus scale="   37.320">  1  3  2 -1</clus>
</clustering>
</event>
<event>
 6    0  0.2839294E+002  0.9070325E+02  0.7546771E-02  0.1301158E+00
         21   -1    0    0  505  502  0.00000000000E+00  0.00000000000E+00  0.34165312645E+02  0.34165312645E+02  0.00000000000E+00 0.  1.
          1   -1    0    0  504    0 -0.00000000000E+00 -0.00000000000E+00 -0.83793640375E+03  0.83793640375E+03  0.00000000000E+00 0. -1.
         21    1    1    2  503  502  0.26457504405E+02  0.27815732777E+02 -0.58898918985E+02  0.70305029599E+02  0.00000000000E+00 0.  1.
         21    1    1    2  504  503  0.16368709993E+02 -0.27798181801E+02 -0.12198596883E+03  0.12617943640E+03  0.00000000000E+00 0. -1.
         21    1    1    2  505  501 -0.11631649205E+03 -0.88309279041E+01 -0.12015168861E+03  0.16746324936E+03  0.00000000000E+00 0.  1.
          1    1    1    2  501    0  0.73490277651E+02  0.88133769277E+01 -0.50273451468E+03  0.50815400104E+03  0.00000000000E+00 0. -1.
<scales pt_clust_3="37.69180" pt_clust_4="32.25947" pt_clust_5="90.70325" pt_clust_6="14000.00000"></scales>
<clustering>
<clus scale="   32.259">  2  4  1 -1</clus>
<clus scale="   37.692">  1  3  2 -1</clus>
<clus scale="   90.703">  1  5  2 -1</clus>
<clus scale="   37.692">  1  3  2 -1</clus>
</clustering>
</event>
<event>
 6    0  0.2839294E+002  0.8680090E+02  0.7546771E-02  0.1310789E+00
         -3   -1    0    0    0  501 -0.00000000000E+00  0.00000000000E+00  0.37257523216E+03  0.37257523216E+03  0.00000000000E+00 0.  1.
         21   -1    0    0  505  502  0.00000000000E+00 -0.00000000000E+00 -0.13586004399E+04  0.13586004399E+04  0.00000000000E+00 0.  1.
         21    1    1    2  503  501 -0.20942639166E+02  0.43473808057E+02 -0.51292797218E+02  0.70423839491E+02  0.00000000000E+00 0.  1.
         21    1    1    2  504  502  0.25116835556E+02 -0.93412114467E+02  0.13348969658E+03  0.16485198710E+03  0.00000000000E+00 0.  1.
         21    1    1    2  505  503  0.65290287956E+01  0.86510406939E+02 -0.12788819470E+04  0.12818212485E+04  0.00000000000E+00 0.  1.
         -3    1    1    2    0  504 -0.10703225185E+02 -0.36572100529E+02  0.21065983986E+03  0.21407859701E+03  0.00000000000E+00 0.  1.
<scales pt_clust_3="46.59022" pt_clust_4="14000.00000" pt_clust_5="86.80090" pt_clust_6="38.10614"></scales>
<clustering>
<clus scale="   38.106">  1  6  2 -1</clus>
<clus scale="   46.590">  1  3  2 -1</clus>
<clus scale="   86.801">  2  5  1 -1</clus>
<clus scale="   86.801">  2  3  1 -1</clus>
</clustering>
</event>
<event>
 6    0  0.2839294E+002  0.1142304E+03  0.7546771E-02  0.1252930E+00
         21   -1    0    0  504  502  0.00000000000E+00  0.00000000000E+00  0.43468502092E+02  0.43468502092E+02  0.00000000000E+00 0. -1.
          2   -1    0    0  505    0 -0.00000000000E+00 -0.00000000000E+00 -0.14784075936E+04  0.14784075936E+04  0.00000000000E+00 0.  1.
         21    1    1    2  503  502 -0.54472196813E+02 -0.36643489010E+02 -0.28625067440E+02  0.71619550392E+02  0.00000000000E+00 0. -1.
         21    1    1    2  504  501  0.18642309431E+01  0.31096687025E+02 -0.14764036613E+02  0.34473991328E+02  0.00000000000E+00 0. -1.
         21    1    1    2  505  503  0.15213368389E+03  0.10051889804E+02 -0.65415446860E+03  0.67168725390E+03  0.00000000000E+00 0. -1.
          2    1    1    2  501    0 -0.99525718016E+02 -0.45050878182E+01 -0.73739551883E+03  0.74409530005E+03  0.00000000000E+00 0.  1.
<scales pt_clust_3="55.85259" pt_clust_4="31.15252" pt_clust_5="114.23041" pt_clust_6="14000.00000"></scales>
<clustering>
<clus scale="   31.153">  1  4  2 -1</clus>
<clus scale="   55.853">  1  3  2 -1</clus>
<clus scale="  114.230">  1  5  2 -1</clus>
<clus scale="   31.153">  1  3  2 -1</clus>
</clustering>
</event>
<event>
 6    0  0.2839294E+002  0.1274097E+03  0.7546771E-02  0.1231351E+00
         21   -1    0    0  505  502  0.00000000000E+00  0.00000000000E+00  0.12398902728E+03  0.12398902728E+03  0.00000000000E+00 0. -1.
         -4   -1    0    0    0  501 -0.00000000000E+00 -0.00000000000E+00 -0.62608366299E+03  0.62608366299E+03  0.00000000000E+00 0.  1.
         21    1    1    2  503  501  0.29773396084E+02 -0.17936853953E+02 -0.13107747282E+03  0.13560785274E+03  0.00000000000E+00 0.  1.
         21    1    1    2  504  503  0.48409394089E+02  0.71794732176E+02  0.50385053850E+02  0.10018286608E+03  0.00000000000E+00 0. -1.
         21    1    1    2  505  504 -0.11198652506E+02  0.39633552568E+02  0.28387599527E+02  0.50020836798E+02  0.00000000000E+00 0. -1.
         -4    1    1    2    0  502 -0.66984137668E+02 -0.93491430790E+02 -0.44978981627E+03  0.46426113465E+03  0.00000000000E+00 0.  1.
<scales pt_clust_3="34.75897" pt_clust_4="34.60470" pt_clust_5="34.60470" pt_clust_6="116.95348"></scales>
<clustering>
<clus scale="   34.759">  2  3  1 -1</clus>
<clus scale="   34.605">  4  5 -1 -1</clus>
<clus scale="  116.953">  2  6  1 -1</clus>
<clus scale="  127.410">  1  3  2 -1</clus>
</clustering>
</event>
<event>
 6    0  0.2839294E+002  0.1281285E+03  0.7546771E-02  0.1230259E+00
          1   -1    0    0  503    0 -0.00000000000E+00  0.00000000000E+00  0.13582772676E+04  0.13582772676E+04  0.00000000000E+00 0.  1.
         21   -1    0    0  505  502  0.00000000000E+00 -0.00000000000E+00 -0.16738324867E+03  0.16738324867E+03  0.00000000000E+00 0. -1.
         21    1    1    2  503  502 -0.62982287738E+02 -0.61435288687E+02  0.31375582100E+03  0.32585852525E+03  0.00000000000E+00 0. -1.
         21    1    1    2  504  501  0.78904123867E+02  0.88012788994E+01  0.22308131197E+02  0.82468030115E+02  0.00000000000E+00 0.  1.
         21    1    1    2  505  504  0.72200457425E+02  0.27548196689E+02 -0.11753390322E+03  0.14066281527E+03  0.00000000000E+00 0. -1.
          1    1    1    2  501    0 -0.88122293554E+02  0.25085813098E+02  0.97236396996E+03  0.97667114563E+03  0.00000000000E+00 0.  1.
<scales pt_clust_3="76.92675" pt_clust_4="14000.00000" pt_clust_5="77.27748" pt_clust_6="128.12855"></scales>
<clustering>
<clus scale="   77.277">  2  5  1 -1</clus>
<clus scale="   76.927">  1  3  2 -1</clus>
<clus scale="  128.129">  1  6  2 -1</clus>
<clus scale="   77.277">  2  3  1 -1</clus>
</clustering>
</event>
<event>
 6    0  0.2839294E+002  0.8919417E+02  0.7546771E-02  0.1304815E+00
          1   -1    0    0  504    0 -0.00000000000E+00  0.00000000000E+00  0.10671576220E+04  0.10671576220E+04  0.00000000000E+00 0.  1.
         21   -1    0    0  503  502  0.00000000000E+00 -0.00000000000E+00 -0.12091795714E+03  0.12091795714E+03  0.00000000000E+00 0. -1.
         21    1    1    2  503  505 -0.46440372483E+02 -0.32012558508E+01 -0.11982447545E+02  0.48068027675E+02  0.00000000000E+00 0.  1.
         21    1    1    2  504  502 -0.32282334088E+02  0.39766039360E+02  0.22491394911E+03  0.23067243330E+03  0.00000000000E+00 0.  1.
         21    1    1    2  505  501  0.88995545628E+02 -0.83092029282E+02 -0.44824602940E+02  0.12974489393E+03  0.00000000000E+00 0. -1.
          1    1    1    2  501    0 -0.10272839057E+02  0.46527245773E+02  0.77813276626E+03  0.77959022426E+03  0.00000000000E+00 0.  1.
<scales pt_clust_3="46.55058" pt_clust_4="89.19417" pt_clust_5="14000.00000" pt_clust_6="47.70447"></scales>
<clustering>
<clus scale="   46.551">  2  3  1 -1</clus>
<clus scale="   47.704">  1  6  2 -1</clus>
<clus scale="   89.194">  1  4  2 -1</clus>
<clus scale="   46.551">  2  3  1 -1</clus>
</clustering>
</event>
<event>
 6    0  0.2839294E+002  0.9100158E+02  0.7546771E-02  0.1300444E+00
         21   -1    0    0  505  502  0.00000000000E+00  0.00000000000E+00  0.10300607109E+03  0.10300607109E+03  0.00000000000E+00 0. -1.
          2   -1    0    0  504    0 -0.00000000000E+00 -0.00000000000E+00 -0.13038652913E+04  0.13038652913E+04  0.00000000000E+00 0.  1.
         21    1    1    2  503  502  0.49423393692E+01 -0.70062060844E+02 -0.15214357833E+03  0.16757323030E+03  0.00000000000E+00 0.  1.
         21    1    1    2  504  503 -0.10473554823E+02  0.33085816516E+02 -0.78101672841E+02  0.85464834322E+02  0.00000000000E+00 0. -1.
         21    1    1    2  505  501 -0.71023137362E+02  0.57550749077E+02  0.66910738733E+02  0.11328469322E+03  0.00000000000E+00 0. -1.
          2    1    1    2  501    0  0.76554352815E+02 -0.20574504749E+02 -0.10375247078E+04  0.10405486046E+04  0.00000000000E+00 0.  1.
<scales pt_clust_3="65.83116" pt_clust_4="34.70399" pt_clust_5="14000.00000" pt_clust_6="91.00158"></scales>
<clustering>
<clus scale="   34.704">  2  4  1 -1</clus>
<clus scale="   65.831">  2  3  1 -1</clus>
<clus scale="   91.002">  2  6  1 -1</clus>
<clus scale="   91.002">  1  3  2 -1</clus>
</clustering>
</event>
<event>
 6    0  0.2839294E+002  0.1228896E+03  0.7546771E-02  0.1238405E+00
          1   -1    0    0  505    0 -0.00000000000E+00  0.00000000000E+00  0.65208214564E+03  0.65208214564E+03  0.00000000000E+00 0.  1.
         21   -1    0    0  504  502  0.00000000000E+00 -0.00000000000E+00 -0.20744441005E+03  0.20744441005E+03  0.00000000000E+00 0. -1.
         21    1    1    2  503  502  0.30881423958E+02 -0.69591183013E+01 -0.41351628825E+01  0.31924774788E+02  0.00000000000E+00 0. -1.
         21    1    1    2  504  501  0.64890168518E+02  0.57002082278E+02 -0.13838033110E+03  0.16312292111E+03  0.00000000000E+00 0. -1.
         21    1    1    2  505  503 -0.39310693230E+02 -0.15648581469E+03  0.18905297142E+03  0.24854409428E+03  0.00000000000E+00 0. -1.
          1    1    1    2  501    0 -0.56460899246E+02  0.10644285071E+03  0.39810025816E+03  0.41593476551E+03  0.00000000000E+00 0.  1.
<scales pt_clust_3="31.65583" pt_clust_4="103.21355" pt_clust_5="122.88961" pt_clust_6="14000.00000"></scales>
<clustering>
<clus scale="   31.656">  2  3  1 -1</clus>
<clus scale="  103.214">  2  4  1 -1</clus>
<clus scale="  122.890">  2  5  1 -1</clus>
<clus scale="   31.656">  2  3  1 -1</clus>
</clustering>
</event>
<event>
 6    0  0.2839294E+002  0.1015701E+03  0.7546771E-02  0.1277028E+00
          2   -1    0    0  503    0 -0.00000000000E+00  0.00000000000E+00  0.10086888294E+04  0.10086888294E+04  0.00000000000E+00 0. -1.
         21   -1    0    0  505  502  0.00000000000E+00 -0.00000000000E+00 -0.23949537753E+03  0.23949537753E+03  0.00000000000E+00 0.  1.
         21    1    1    2  503  502  0.64916431442E+02  0.16271753115E+02  0.31510156286E+03  0.32213026548E+03  0.00000000000E+00 0. -1.
         21    1    1    2  504  501 -0.66682492514E+02 -0.16573513558E+03 -0.23273167023E+02  0.18015640504E+03  0.00000000000E+00 0.  1.
         21    1    1    2  505  504  0.32286064139E+02  0.81174578422E+02 -0.11746170191E+03  0.14638631608E+03  0.00000000000E+00 0.  1.
          2    1    1    2  501    0 -0.30520003066E+02  0.68288804038E+02  0.59482675796E+03  0.59951122036E+03  0.00000000000E+00 0. -1.
<scales pt_clust_3="66.92468" pt_clust_4="14000.00000" pt_clust_5="101.57009" pt_clust_6="86.27324"></scales>
<clustering>
<clus scale="   66.925">  1  3  2 -1</clus>
<clus scale="   86.273">  1  6  2 -1</clus>
<clus scale="  101.570">  2  5  1 -1</clus>
<clus scale="  101.570">  2  3  1 -1</clus>
</clustering>
</event>
<event>
 6    0  0.2839294E+002  0.1272061E+03  0.7546771E-02  0.1231661E+00
          1   -1    0    0  503    0 -0.00000000000E+00  0.00000000000E+00  0.27422961464E+04  0.27422961464E+04  0.00000000000E+00 0.  1.
         21   -1    0    0  504  502  0.00000000000E+00 -0.00000000000E+00 -0.22827782332E+02  0.22827782332E+02  0.00000000000E+00 0.  1.
         21    1    1    2  503  505  0.18415329303E+02  0.29711958517E+02  0.51983428208E+03  0.52100825872E+03  0.00000000000E+00 0.  1.
         21    1    1    2  504  501 -0.19514067938E+02 -0.27346162909E+02  0.28148304284E+02  0.43828512494E+02  0.00000000000E+00 0.  1.
         21    1    1    2  505  502 -0.10474066574E+03  0.65672421894E+02  0.29860628219E+03  0.32318599262E+03  0.00000000000E+00 0.  1.
          1    1    1    2  501    0  0.10583940438E+03 -0.68038217501E+02  0.18728794955E+04  0.18771011649E+04  0.00000000000E+00 0.  1.
<scales pt_clust_3="33.64319" pt_clust_4="33.59481" pt_clust_5="127.20611" pt_clust_6="14000.00000"></scales>
<clustering>
<clus scale="   33.595">  2  4  1 -1</clus>
<clus scale="   33.643">  1  3  2 -1</clus>
<clus scale="  127.206">  2  5  1 -1</clus>
<clus scale="   33.595">  2  3  1 -1</clus>
</clustering>
</event>
<event>
 6    0  0.2839294E+002  0.6545804E+02  0.7546771E-02  0.1376257E+00
         21   -1    0    0  503  502  0.00000000000E+00  0.00000000000E+00  0.13853537481E+03  0.13853537481E+03  0.00000000000E+00 0.  1.
          2   -1    0    0  505    0 -0.00000000000E+00 -0.00000000000E+00 -0.10253015318E+04  0.10253015318E+04  0.00000000000E+00 0. -1.
         21    1    1    2  503  501 -0.35132491156E+02  0.34170739774E+02  0.11265531730E+03  0.12285418962E+03  0.00000000000E+00 0.  1.
         21    1    1    2  504  502  0.54016576230E+02  0.35731361178E+02 -0.51915730723E+02  0.83004600931E+02  0.00000000000E+00 0. -1.
         21    1    1    2  505  504  0.37039802111E+02 -0.75787286143E+02 -0.61344334897E+03  0.61921595754E+03  0.00000000000E+00 0. -1.
          2    1    1    2  501    0 -0.55923887186E+02  0.58851851899E+01 -0.33406239464E+03  0.33876215857E+03  0.00000000000E+00 0. -1.
<scales pt_clust_3="49.00950" pt_clust_4="14000.00000" pt_clust_5="65.45804" pt_clust_6="60.68493"></scales>
<clustering>
<clus scale="   49.010">  1  3  2 -1</clus>
<clus scale="   60.685">  2  6  1 -1</clus>
<clus scale="   65.458">  2  5  1 -1</clus>
<clus scale="   49.010">  1  3  2 -1</clus>
</clustering>
</event>
<event>
 6    0  0.2839294E+002  0.9588615E+02  0.7546771E-02  0.1289193E+00
          2   -1    0    0  504    0 -0.00000000000E+00  0.00000000000E+00  0.15506148959E+03  0.15506148959E+03  0.00000000000E+00 0.  1.
         21   -1    0    0  503  502  0.00000000000E+00 -0.00000000000E+00 -0.31763779401E+03  0.31763779401E+03  0.00000000000E+00 0.  1.
         21    1    1    2  503  501  0.73873145694E+02 -0.22603374288E+01 -0.37304169332E+02  0.82788597220E+02  0.00000000000E+00 0.  1.
         21    1    1    2  504  505 -0.10914093945E+03  0.71276145356E+02 -0.11047420477E+03  0.17087007778E+03  0.00000000000E+00 0.  1.
         21    1    1    2  505  502 -0.49543692502E+02 -0.36620848301E+02 -0.84504912660E+02  0.10457889013E+03  0.00000000000E+00 0.  1.
          2    1    1    2  501    0  0.84811486256E+02 -0.32394959626E+02  0.69706982344E+02  0.11446171848E+03  0.00000000000E+00 0.  1.
<scales pt_clust_3="61.73913" pt_clust_4="95.88615" pt_clust_5="61.60896" pt_clust_6="14000.00000"></scales>
<clustering>
<clus scale="   61.609">  2  5  1 -1</clus>
<clus scale="   61.739">  2  3  1 -1</clus>
<clus scale="   95.886">  2  4  1 -1</clus>
<clus scale="   61.609">  2  3  1 -1</clus>
</clustering>
</event>
<event>
 6    0  0.2839294E+002  0.7767047E+02  0.7546771E-02  0.1335795E+00
         21   -1    0    0  505  502  0.00000000000E+00  0.00000000000E+00  0.20530896867E+03  0.20530896867E+03  0.00000000000E+00 0.  1.
          2   -1    0    0  503    0 -0.00000000000E+00 -0.00000000000E+00 -0.99518956370E+03  0.99518956370E+03  0.00000000000E+00 0. -1.
         21    1    1    2  503  504  0.34310431144E+02 -0.22466407557E+01 -0.68012604947E+02  0.76210022383E+02  0.00000000000E+00 0. -1.
         21    1    1    2  504  502  0.64795790502E+02  0.31852657040E+02  0.13296462720E+03  0.15130326604E+03  0.00000000000E+00 0.  1.
         21    1    1    2  505  501 -0.86706275151E+02 -0.70214143316E+02  0.54040047428E+01  0.11170142049E+03  0.00000000000E+00 0. -1.
          2    1    1    2  501    0 -0.12399946494E+02  0.40608127032E+02 -0.86023662203E+03  0.86128382345E+03  0.00000000000E+00 0. -1.
<scales pt_clust_3="34.38391" pt_clust_4="14000.00000" pt_clust_5="77.67047" pt_clust_6="43.21104"></scales>
<clustering>
<clus scale="   34.384">  2  3  1 -1</clus>
<clus scale="   43.211">  2  6  1 -1</clus>
<clus scale="   77.670">  2  5  1 -1</clus>
<clus scale="   77.670">  1  3  2 -1</clus>
</clustering>
</event>
<event>
 6    0  0.2839294E+002  0.1949784E+03  0.7546771E-02  0.1154046E+00
          2   -1    0    0  504    0 -0.00000000000E+00  0.00000000000E+00  0.60851560740E+03  0.60851560740E+03  0.00000000000E+00 0. -1.
         21   -1    0    0  505  502  0.00000000000E+00 -0.00000000000E+00 -0.41669043226E+03  0.41669043226E+03  0.00000000000E+00 0.  1.
         21    1    1    2  503  501 -0.18909914187E+03 -0.46839312840E+02 -0.15298707206E+03  0.24770436190E+03  0.00000000000E+00 0.  1.
         21    1    1    2  504  502  0.23417589154E+02 -0.31348853733E+02  0.28392062471E+03  0.28660435316E+03  0.00000000000E+00 0. -1.
         21    1    1    2  505  503  0.19736941630E+02 -0.54517553838E+02 -0.17444267250E+03  0.18382588645E+03  0.00000000000E+00 0.  1.
          2    1    1    2  501    0  0.14594461109E+03  0.13270572041E+03  0.23533429499E+03  0.30707143816E+03  0.00000000000E+00 0. -1.
<scales pt_clust_3="14000.00000" pt_clust_4="39.12971" pt_clust_5="58.52400" pt_clust_6="194.97837"></scales>
<clustering>
<clus scale="   39.130">  1  4  2 -1</clus>
<clus scale="   58.524">  2  5  1 -1</clus>
<clus scale="  194.978">  1  6  2 -1</clus>
<clus scale="   58.524">  2  3  1 -1</clus>
</clustering>
</event>
<event>
 6    0  0.2839294E+002  0.1517547E+03  0.7546771E-02  0.1198333E+00
         21   -1    0    0  505  502  0.00000000000E+00  0.00000000000E+00  0.45392134855E+02  0.45392134855E+02  0.00000000000E+00 0. -1.
          2   -1    0    0  503    0 -0.00000000000E+00 -0.00000000000E+00 -0.19346411268E+04  0.19346411268E+04  0.00000000000E+00 0.  1.
         21    1    1    2  503  504 -0.15003543881E+02  0.26052590546E+02 -0.45398896112E+03  0.45498331906E+03  0.00000000000E+00 0.  1.
         21    1    1    2  504  502  0.28984579301E+02 -0.15831111055E+03 -0.15275719564E+03  0.22189473717E+03  0.00000000000E+00 0. -1.
         21    1    1    2  505  501 -0.55204462666E+02  0.12068204598E+03 -0.44030802896E+03  0.45987264464E+03  0.00000000000E+00 0.  1.
          2    1    1    2  501    0  0.41223427245E+02  0.11576474024E+02 -0.84219480624E+03  0.84328256080E+03  0.00000000000E+00 0.  1.
<scales pt_clust_3="30.06400" pt_clust_4="151.75468" pt_clust_5="14000.00000" pt_clust_6="42.01814"></scales>
<clustering>
<clus scale="   30.064">  2  3  1 -1</clus>
<clus scale="   42.018">  2  6  1 -1</clus>
<clus scale="  151.755">  1  4  2 -1</clus>
<clus scale="  151.755">  1  3  2 -1</clus>
</clustering>
</event>
<event>
 6    0  0.2839294E+002  0.8353187E+02  0.7546771E-02  0.1319317E+00
         21   -1    0    0  504  502  0.00000000000E+00  0.00000000000E+00  0.96112233385E+03  0.96112233385E+03  0.00000000000E+00 0. -1.
         -1   -1    0    0    0  501 -0.00000000000E+00 -0.00000000000E+00 -0.11987384981E+03  0.11987384981E+03  0.00000000000E+00 0. -1.
         21    1    1    2  503  502 -0.30136519141E+02 -0.31848434382E+02  0.51110309077E+03  0.51298041088E+03  0.00000000000E+00 0. -1.
         21    1    1    2  504  505 -0.37095973411E+02  0.10470244787E+02  0.34875351700E+03  0.35087711936E+03  0.00000000000E+00 0. -1.
         21    1    1    2  505  501 -0.44438634709E+02  0.63987830110E+02 -0.51232984105E+02  0.93241907517E+02  0.00000000000E+00 0. -1.
         -1    1    1    2    0  503  0.11167112726E+03 -0.42609640515E+02  0.32624860371E+02  0.12389674589E+03  0.00000000000E+00 0. -1.
<scales pt_clust_3="65.41502" pt_clust_4="38.54526" pt_clust_5="83.53187" pt_clust_6="14000.00000"></scales>
<clustering>
<clus scale="   38.545">  1  4  2 -1</clus>
<clus scale="   65.415">  1  3  2 -1</clus>
<clus scale="   83.532">  2  5  1 -1</clus>
<clus scale="   38.545">  1  3  2 -1</clus>
</clustering>
</event>
<event>
 6    0  0.2839294E+002  0.9830295E+02  0.7546771E-02  0.1283906E+00
         21   -1    0    0  504  502  0.00000000000E+00  0.00000000000E+00  0.30192459661E+03  0.30192459661E+03  0.00000000000E+00 0.  1.
         -2   -1    0    0    0  501 -0.00000000000E+00 -0.00000000000E+00 -0.50247962482E+03  0.50247962482E+03  0.00000000000E+00 0. -1.
         21    1    1    2  503  501 -0.31086608346E+02  0.63244996046E+00 -0.60638059774E+02  0.68145076892E+02  0.00000000000E+00 0.  1.
         21    1    1    2  504  503 -0.38117177527E+02  0.70144025418E+02 -0.10811496505E+02  0.80560486475E+02  0.00000000000E+00 0. -1.
         21    1    1    2  505  502  0.27682250526E+02  0.33478792650E+02  0.25338704618E+03  0.25708390016E+03  0.00000000000E+00 0.  1.
         -2    1    1    2    0  505  0.41521535347E+02 -0.10425526803E+03 -0.38249251811E+03  0.39861475790E+03  0.00000000000E+00 0. -1.
<scales pt_clust_3="31.09304" pt_clust_4="98.30295" pt_clust_5="43.35978" pt_clust_6="14000.00000"></scales>
<clustering>
<clus scale="   31.093">  2  3  1 -1</clus>
<clus scale="   43.360">  1  5  2 -1</clus>
<clus scale="   98.303">  1  4  2 -1</clus>
<clus scale="   43.360">  1  3  2 -1</clus>
</clustering>
</event>
<event>
 6    0  0.2839294E+002  0.7973727E+02  0.7546771E-02  0.1329799E+00
         21   -1    0    0  504  502  0.00000000000E+00  0.00000000000E+00  0.64434840525E+03  0.64434840525E+03  0.00000000000E+00 0.  1.
          2   -1    0    0  503    0 -0.00000000000E+00 -0.00000000000E+00 -0.15512573897E+04  0.15512573897E+04  0.00000000000E+00 0. -1.
         21    1    1    2  503  505  0.30449817718E+02 -0.70638818387E+01 -0.18563357447E+03  0.18824694897E+03  0.00000000000E+00 0.  1.
         21    1    1    2  504  501 -0.94776948573E+02  0.94059503044E+02 -0.13293977977E+03  0.18842198688E+03  0.00000000000E+00 0.  1.
         21    1    1    2  505  502  0.28146534753E+02 -0.52339216622E+02  0.61334249833E+03  0.61621476879E+03  0.00000000000E+00 0.  1.
          2    1    1    2  501    0  0.36180596102E+02 -0.34656404583E+02 -0.12016781285E+04  0.12027220903E+04  0.00000000000E+00 0. -1.
<scales pt_clust_3="31.25844" pt_clust_4="79.73727" pt_clust_5="59.44918" pt_clust_6="14000.00000"></scales>
<clustering>
<clus scale="   31.258">  2  3  1 -1</clus>
<clus scale="   59.449">  1  5  2 -1</clus>
<clus scale="   79.737">  1  4  2 -1</clus>
<clus scale="   59.449">  1  3  2 -1</clus>
</clustering>
</event>
<event>
 6    0  0.2839294E+002  0.1267229E+03  0.7546771E-02  0.1232401E+00
          2   -1    0    0  503    0 -0.00000000000E+00  0.00000000000E+00  0.20237240126E+04  0.20237240126E+04  0.00000000000E+00 0.  1.
         21   -1    0    0  505  502  0.00000000000E+00 -0.00000000000E+00 -0.13889713539E+03  0.13889713539E+03  0.00000000000E+00 0.  1.
         21    1    1    2  503  504  0.80549700660E+02  0.91158185292E+02  0.42707365806E+02  0.12892628947E+03  0.00000000000E+00 0.  1.
         21    1    1    2  504  502 -0.34238066507E+02 -0.12997067102E+03 -0.46903568995E+02  0.14235366279E+03  0.00000000000E+00 0.  1.
         21    1    1    2  505  501 -0.19730006977E+02  0.55061444688E+02  0.94807024139E+03  0.94987273804E+03  0.00000000000E+00 0.  1.
          2    1    1    2  501    0 -0.26581627177E+02 -0.16248958957E+02  0.94095283906E+03  0.94146845774E+03  0.00000000000E+00 0.  1.
<scales pt_clust_3="14000.00000" pt_clust_4="126.72292" pt_clust_5="59.31121" pt_clust_6="31.15464"></scales>
<clustering>
<clus scale="   31.155">  1  6  2 -1</clus>
<clus scale="   59.311">  1  5  2 -1</clus>
<clus scale="  126.723">  2  4  1 -1</clus>
<clus scale="  126.723">  2  3  1 -1</clus>
</clustering>
</event>
<event>
 6    0  0.2839294E+002  0.1411197E+03  0.7546771E-02  0.1211830E+00
         21   -1    0    0  505  502  0.00000000000E+00  0.00000000000E+00  0.71101055242E+02  0.71101055242E+02  0.00000000000E+00 0.  1.
          1   -1    0    0  504    0 -0.00000000000E+00 -0.00000000000E+00 -0.13304316924E+04  0.13304316924E+04  0.00000000000E+00 0. -1.
         21    1    1    2  503  501 -0.11120020392E+03  0.13379329165E+02 -0.47970632215E+03  0.49260800573E+03  0.00000000000E+00 0.  1.
         21    1    1    2  504  502  0.15881440230E+03 -0.59160142246E+02 -0.17245846997E+03  0.24179301204E+03  0.00000000000E+00 0.  1.
         21    1    1    2  505  503 -0.10290486396E+03  0.69297145312E+02 -0.10836590007E+03  0.16472605645E+03  0.00000000000E+00 0.  1.
          1    1    1    2  501    0  0.55290665586E+02 -0.23516332232E+02 -0.49879994497E+03  0.50240567342E+03  0.00000000000E+00 0. -1.
<scales pt_clust_3="78.80904" pt_clust_4="14000.00000" pt_clust_5="141.11971" pt_clust_6="60.08390"></scales>
<clustering>
<clus scale="   60.084">  2  6  1 -1</clus>
<clus scale="   78.809">  2  3  1 -1</clus>
<clus scale="  141.120">  1  5  2 -1</clus>
<clus scale="  141.120">  1  3  2 -1</clus>
</clustering>
</event>
<event>
 6    0  0.2839294E+002  0.9686292E+02  0.7546771E-02  0.1287035E+00
          2   -1    0    0  504    0 -0.00000000000E+00  0.00000000000E+00  0.29919821032E+04  0.29919821032E+04  0.00000000000E+00 0.  1.
         21   -1    0    0  501  502  0.00000000000E+00 -0.00000000000E+00 -0.87839672941E+01  0.87839672941E+01  0.00000000000E+00 0. -1.
         21    1    1    2  503  505 -0.53009061125E+01 -0.90912337266E+02  0.38465634106E+03  0.39528932870E+03  0.00000000000E+00 0. -1.
         21    1    1    2  504  503 -0.50681873001E+02  0.14725102935E+02  0.62573109642E+03  0.62795293290E+03  0.00000000000E+00 0. -1.
         21    1    1    2  505  502  0.34615116675E+02 -0.14118730525E+02  0.33353310683E+03  0.33562162953E+03  0.00000000000E+00 0. -1.
          2    1    1    2  501    0  0.21367662439E+02  0.90305964857E+02  0.16392775916E+04  0.16419021793E+04  0.00000000000E+00 0.  1.
<scales pt_clust_3="96.86292" pt_clust_4="47.44437" pt_clust_5="37.38375" pt_clust_6="14000.00000"></scales>
<clustering>
<clus scale="   37.384">  2  5  1 -1</clus>
<clus scale="   47.444">  1  4  2 -1</clus>
<clus scale="   96.863">  2  3  1 -1</clus>
<clus scale="   37.384">  2  3  1 -1</clus>
</clustering>
</event>
<event>
 6    0  0.2839294E+002  0.1040276E+03  0.7546771E-02  0.1272047E+00
         21   -1    0    0  505  502  0.00000000000E+00  0.00000000000E+00  0.60227650253E+03  0.60227650253E+03  0.00000000000E+00 0.  1.
          3   -1    0    0  504    0 -0.00000000000E+00 -0.00000000000E+00 -0.16299499615E+03  0.16299499615E+03  0.00000000000E+00 0.  1.
         21    1    1    2  503  502 -0.11651330607E+03  0.96042233748E+02  0.39020411145E+03  0.41840017895E+03  0.00000000000E+00 0.  1.
         21    1    1    2  504  503  0.16315944110E+02  0.60588864759E+02 -0.11347221504E+02  0.63765037449E+02  0.00000000000E+00 0.  1.
         21    1    1    2  505  501  0.90195946636E+02 -0.13169850225E+02  0.98637947589E+02  0.13430636042E+03  0.00000000000E+00 0.  1.
          3    1    1    2  501    0  0.10001415327E+02 -0.14346124828E+03 -0.38213331155E+02  0.14879992186E+03  0.00000000000E+00 0.  1.
<scales pt_clust_3="14000.00000" pt_clust_4="62.74728" pt_clust_5="92.62775" pt_clust_6="104.02760"></scales>
<clustering>
<clus scale="   62.747">  2  4  1 -1</clus>
<clus scale="   92.628">  1  5  2 -1</clus>
<clus scale="  104.028">  2  6  1 -1</clus>
<clus scale="   92.628">  1  3  2 -1</clus>
</clustering>
</event>
<event>
 6    0  0.2839294E+002  0.1387627E+03  0.7546771E-02  0.1215004E+00
          2   -1    0    0  504    0 -0.00000000000E+00  0.00000000000E+00  0.16681110461E+04  0.16681110461E+04  0.00000000000E+00 0. -1.
         21   -1    0    0  503  502  0.00000000000E+00 -0.00000000000E+00 -0.61184803995E+02  0.61184803995E+02  0.00000000000E+00 0. -1.
         21    1    1    2  503  505 -0.91905578661E+02 -0.50127598482E+02  0.46760306381E+02  0.11465573589E+03  0.00000000000E+00 0. -1.
         21    1    1    2  504  502 -0.11291985443E+03 -0.27030618952E+02  0.10563910466E+04  0.10627528364E+04  0.00000000000E+00 0. -1.
         21    1    1    2  505  501  0.59950573900E+02 -0.25561042910E+01  0.13254928746E+03  0.14549886112E+03  0.00000000000E+00 0. -1.
          2    1    1    2  501    0  0.14487485919E+03  0.79714321725E+02  0.37122560167E+03  0.40638841673E+03  0.00000000000E+00 0. -1.
<scales pt_clust_3="104.68721" pt_clust_4="127.95114" pt_clust_5="32.34804" pt_clust_6="32.34804"></scales>
<clustering>
<clus scale="   32.348">  5  6 -1 -1</clus>
<clus scale="  104.687">  2  3  1 -1</clus>
<clus scale="  127.951">  1  4  2 -1</clus>
<clus scale="  104.687">  2  3  1 -1</clus>
</clustering>
</event>
<event>
 6    0  0.2839294E+002  0.1523612E+03  0.7546771E-02  0.1197601E+00
          2   -1    0    0  503    0 -0.00000000000E+00  0.00000000000E+00  0.86928314232E+03  0.86928314232E+03  0.00000000000E+00 0. -1.
         21   -1    0    0  505  502  0.00000000000E+00 -0.00000000000E+00 -0.30284630857E+03  0.30284630857E+03  0.00000000000E+00 0. -1.
         21    1    1    2  503  504  0.19675607647E+02  0.82869708788E+02  0.17439516568E+03  0.19408295129E+03  0.00000000000E+00 0. -1.
         21    1    1    2  504  502  0.50196853759E+02 -0.14834808937E+03 -0.33179719177E+02  0.16008676870E+03  0.00000000000E+00 0. -1.
         21    1    1    2  505  501 -0.13999187977E+02  0.15106450582E+03 -0.16197820139E+03  0.22193107017E+03  0.00000000000E+00 0. -1.
          2    1    1    2  501    0 -0.55873273429E+02 -0.85586125231E+02  0.58719958864E+03  0.59602866073E+03  0.00000000000E+00 0. -1.
<scales pt_clust_3="85.17346" pt_clust_4="152.36125" pt_clust_5="14000.00000" pt_clust_6="41.33115"></scales>
<clustering>
<clus scale="   85.173">  1  3  2 -1</clus>
<clus scale="   41.331">  1  6  2 -1</clus>
<clus scale="  152.361">  1  4  2 -1</clus>
<clus scale="  152.361">  2  3  1 -1</clus>
</clustering>
</event>
<event>
 6    0  0.2839294E+002  0.1581078E+03  0.7546771E-02  0.1190850E+00
         21   -1    0    0  504  502  0.00000000000E+00  0.00000000000E+00  0.60817609628E+02  0.60817609628E+02  0.00000000000E+00 0. -1.
          2   -1    0    0  505    0 -0.00000000000E+00 -0.00000000000E+00 -0.20368975262E+04  0.20368975262E+04  0.00000000000E+00 0.  1.
         21    1    1    2  503  501 -0.64729766356E+01  0.46554249003E+02 -0.71399955963E+03  0.71554494526E+03  0.00000000000E+00 0.  1.
         21    1    1    2  504  503 -0.33783577387E+01  0.11014741431E+03 -0.18570220415E+03  0.21593789572E+03  0.00000000000E+00 0.  1.
         21    1    1    2  505  502  0.42776967459E+02 -0.24640625778E+03 -0.33153506913E+03  0.41528473953E+03  0.00000000000E+00 0. -1.
          2    1    1    2  501    0 -0.32925633085E+02  0.89704594470E+02 -0.74484308367E+03  0.75094755534E+03  0.00000000000E+00 0.  1.
<scales pt_clust_3="33.33894" pt_clust_4="110.19921" pt_clust_5="150.79262" pt_clust_6="33.33894"></scales>
<clustering>
<clus scale="   33.339">  3  6 -1 -1</clus>
<clus scale="  110.199">  1  4  2 -1</clus>
<clus scale="  150.793">  1  5  2 -1</clus>
<clus scale="  110.199">  1  3  2 -1</clus>
</clustering>
</event>
<event>
 6    0  0.2839294E+002  0.1041864E+03  0.7546771E-02  0.1271731E+00
         21   -1    0    0  503  502  0.00000000000E+00  0.00000000000E+00  0.25354259966E+03  0.25354259966E+03  0.00000000000E+00 0.  1.
          2   -1    0    0  505    0 -0.00000000000E+00 -0.00000000000E+00 -0.57823073079E+03  0.57823073079E+03  0.00000000000E+00 0.  1.
         21    1    1    2  503  504 -0.49226265496E+02 -0.31995970212E+02  0.14144733172E+03  0.15314801656E+03  0.00000000000E+00 0.  1.
         21    1    1    2  504  501  0.16475672523E+02 -0.73434611506E+02  0.83204284188E+02  0.11219199107E+03  0.00000000000E+00 0.  1.
         21    1    1    2  505  502  0.53839280496E+02  0.77398635396E+02 -0.29537577603E+03  0.31005816543E+03  0.00000000000E+00 0. -1.
          2    1    1    2  501    0 -0.21088687523E+02  0.28031946321E+02 -0.25396397101E+03  0.25637515739E+03  0.00000000000E+00 0.  1.
<scales pt_clust_3="58.75785" pt_clust_4="104.18637" pt_clust_5="14000.00000" pt_clust_6="35.07881"></scales>
<clustering>
<clus scale="   35.079">  2  6  1 -1</clus>
<clus scale="   58.758">  1  3  2 -1</clus>
<clus scale="  104.186">  1  4  2 -1</clus>
<clus scale="   58.758">  1  3  2 -1</clus>
</clustering>
</event>
<event>
 6    0  0.2839294E+002  0.9310735E+02  0.7546771E-02  0.1295497E+00
         21   -1    0    0  504  502  0.00000000000E+00  0.00000000000E+00  0.13598115222E+04  0.13598115222E+04  0.00000000000E+00 0. -1.
          1   -1    0    0  503    0 -0.00000000000E+00 -0.00000000000E+00 -0.19944252421E+04  0.19944252421E+04  0.00000000000E+00 0. -1.
         21    1    1    2  503  505 -0.28885678175E+02 -0.90331363060E+01 -0.62757907675E+01  0.30908987445E+02  0.00000000000E+00 0. -1.
         21    1    1    2  504  501 -0.94270662262E+02 -0.75417521463E+02 -0.73117097364E+03  0.74107068017E+03  0.00000000000E+00 0. -1.
         21    1    1    2  505  502  0.93021018678E+02 -0.41188287729E+01  0.13391611247E+04  0.13423942762E+04  0.00000000000E+00 0. -1.
          1    1    1    2  501    0  0.30135321759E+02  0.88569486542E+02 -0.12363280803E+04  0.12398628205E+04  0.00000000000E+00 0. -1.
<scales pt_clust_3="30.26516" pt_clust_4="93.10735" pt_clust_5="14000.00000" pt_clust_6="83.77809"></scales>
<clustering>
<clus scale="   30.265">  2  3  1 -1</clus>
<clus scale="   83.778">  2  6  1 -1</clus>
<clus scale="   93.107">  2  4  1 -1</clus>
<clus scale="   93.107">  1  3  2 -1</clus>
</clustering>
</event>
<event>
 6    0  0.2839294E+002  0.5295029E+02  0.7546771E-02  0.1430048E+00
         21   -1    0    0  504  502  0.00000000000E+00  0.00000000000E+00  0.21529542282E+03  0.21529542282E+03  0.00000000000E+00 0.  1.
          2   -1    0    0  505    0 -0.00000000000E+00 -0.00000000000E+00 -0.27376409187E+04  0.27376409187E+04  0.00000000000E+00 0. -1.
         21    1    1    2  503  502  0.78794938147E+02  0.23088833345E+02  0.17702239684E+03  0.19513755529E+03  0.00000000000E+00 0.  1.
         21    1    1    2  504  501 -0.27745889671E+02 -0.11562580336E+02  0.17559953933E+02  0.34812061699E+02  0.00000000000E+00 0.  1.
         21    1    1    2  505  503  0.15343943269E+02  0.49471542201E+02 -0.30444480907E+03  0.30881954577E+03  0.00000000000E+00 0.  1.
          2    1    1    2  501    0 -0.66392991745E+02 -0.60997795211E+02 -0.24124830376E+04  0.24141671788E+04  0.00000000000E+00 0. -1.
<scales pt_clust_3="52.95029" pt_clust_4="30.05874" pt_clust_5="51.57431" pt_clust_6="14000.00000"></scales>
<clustering>
<clus scale="   30.059">  1  4  2 -1</clus>
<clus scale="   51.574">  2  5  1 -1</clus>
<clus scale="   52.950">  1  3  2 -1</clus>
<clus scale="   30.059">  1  3  2 -1</clus>
</clustering>
</event>
<event>
 6    0  0.2839294E+002  0.1167310E+03  0.7546771E-02  0.1248589E+00
          3   -1    0    0  504    0 -0.00000000000E+00  0.00000000000E+00  0.62301544803E+03  0.62301544803E+03  0.00000000000E+00 0.  1.
         21   -1    0    0  503  502  0.00000000000E+00 -0.00000000000E+00 -0.48723388969E+02  0.48723388969E+02  0.00000000000E+00 0.  1.
         21    1    1    2  503  505  0.11734464257E+03 -0.47632737494E+02  0.13276440344E+03  0.18348032495E+03  0.00000000000E+00 0.  1.
         21    1    1    2  504  502 -0.32540859975E+02  0.50106235840E+01 -0.81451707488E-01  0.32924467361E+02  0.00000000000E+00 0.  1.
         21    1    1    2  505  501 -0.29337959321E+02  0.46792576065E+02  0.22973861586E+03  0.23628392381E+03  0.00000000000E+00 0.  1.
          3    1    1    2  501    0 -0.55465823274E+02 -0.41704621554E+01  0.21187049147E+03  0.21905012089E+03  0.00000000000E+00 0.  1.
<scales pt_clust_3="101.60695" pt_clust_4="32.92437" pt_clust_5="56.61868" pt_clust_6="56.61868"></scales>
<clustering>
<clus scale="   32.924">  2  4  1 -1</clus>
<clus scale="   56.619">  5  6 -1 -1</clus>
<clus scale="  101.607">  2  3  1 -1</clus>
<clus scale="   32.924">  2  3  1 -1</clus>
</clustering>
</event>
<event>
 6    0  0.2839294E+002  0.8778310E+02  0.7546771E-02  0.1308311E+00
         21   -1    0    0  503  502  0.00000000000E+00  0.00000000000E+00  0.10166304183E+04  0.10166304183E+04  0.00000000000E+00 0. -1.
          2   -1    0    0  505    0 -0.00000000000E+00 -0.00000000000E+00 -0.95670701061E+03  0.95670701061E+03  0.00000000000E+00 0. -1.
         21    1    1    2  503  501 -0.87375046065E+02 -0.84750130145E+02  0.24045847866E+03  0.26951301117E+03  0.00000000000E+00 0. -1.
         21    1    1    2  504  502  0.31862586631E+02  0.19122421938E+02  0.74918110998E+03  0.75010214438E+03  0.00000000000E+00 0. -1.
         21    1    1    2  505  504 -0.35508201744E+02 -0.30306761389E+01 -0.29353654431E+02  0.46169843160E+02  0.00000000000E+00 0. -1.
          2    1    1    2  501    0  0.91020661178E+02  0.68658384345E+02 -0.90036252649E+03  0.90755243023E+03  0.00000000000E+00 0. -1.
<scales pt_clust_3="14000.00000" pt_clust_4="37.14431" pt_clust_5="35.63730" pt_clust_6="87.78310"></scales>
<clustering>
<clus scale="   35.637">  2  5  1 -1</clus>
<clus scale="   37.144">  1  4  2 -1</clus>
<clus scale="   87.783">  2  6  1 -1</clus>
<clus scale="   37.144">  1  3  2 -1</clus>
</clustering>
</event>
<event>
 6    0  0.2839294E+002  0.1058826E+03  0.7546771E-02  0.1268390E+00
         21   -1    0    0  503  502  0.00000000000E+00  0.00000000000E+00  0.11390812379E+03  0.11390812379E+03  0.00000000000E+00 0.  1.
          1   -1    0    0  504    0 -0.00000000000E+00 -0.00000000000E+00 -0.16252795801E+04  0.16252795801E+04  0.00000000000E+00 0. -1.
         21    1    1    2  503  501 -0.28483232154E+02  0.34617825087E+02  0.69267765339E+02  0.82508857966E+02  0.00000000000E+00 0.  1.
         21    1    1    2  504  505  0.47903746724E+01  0.10520213010E+03 -0.13577993497E+04  0.13618772007E+04  0.00000000000E+00 0. -1.
         21    1    1    2  505  502  0.65418368581E+02 -0.29078131273E+02 -0.11027442612E+03  0.13147452119E+03  0.00000000000E+00 0. -1.
          1    1    1    2  501    0 -0.41725511099E+02 -0.11074182391E+03 -0.11256544585E+03  0.16332712402E+03  0.00000000000E+00 0. -1.
<scales pt_clust_3="44.82955" pt_clust_4="105.88264" pt_clust_5="60.67136" pt_clust_6="14000.00000"></scales>
<clustering>
<clus scale="   44.830">  1  3  2 -1</clus>
<clus scale="   60.671">  1  5  2 -1</clus>
<clus scale="  105.883">  2  4  1 -1</clus>
<clus scale="   44.830">  1  3  2 -1</clus>
</clustering>
</event>
<event>
 6    0  0.2839294E+002  0.9089679E+02  0.7546771E-02  0.1300694E+00
         21   -1    0    0  503  502  0.00000000000E+00  0.00000000000E+00  0.19899460044E+04  0.19899460044E+04  0.00000000000E+00 0.  1.
          2   -1    0    0  505    0 -0.00000000000E+00 -0.00000000000E+00 -0.23173616878E+03  0.23173616878E+03  0.00000000000E+00 0. -1.
         21    1    1    2  503  501 -0.59664445847E+02  0.27982974110E+02  0.17249803423E+04  0.17262387072E+04  0.00000000000E+00 0.  1.
         21    1    1    2  504  502 -0.30564710420E+02 -0.14363924197E+02  0.21654229829E+03  0.21915996621E+03  0.00000000000E+00 0. -1.
         21    1    1    2  505  504 -0.31347435208E+02  0.58566074078E+01  0.20682818716E+02  0.38009742626E+02  0.00000000000E+00 0. -1.
          2    1    1    2  501    0  0.12157659148E+03 -0.19475657322E+02 -0.20399562372E+03  0.23827375709E+03  0.00000000000E+00 0. -1.
<scales pt_clust_3="90.89679" pt_clust_4="33.92366" pt_clust_5="31.88983" pt_clust_6="14000.00000"></scales>
<clustering>
<clus scale="   31.890">  2  5  1 -1</clus>
<clus scale="   33.924">  1  4  2 -1</clus>
<clus scale="   90.897">  1  3  2 -1</clus>
<clus scale="   33.924">  1  3  2 -1</clus>
</clustering>
</event>
<event>
 6    0  0.2839294E+002  0.1345761E+03  0.7546771E-02  0.1220819E+00
         21   -1    0    0  505  502  0.00000000000E+00  0.00000000000E+00  0.70763349763E+02  0.70763349763E+02  0.00000000000E+00 0. -1.
          1   -1    0    0  503    0 -0.00000000000E+00 -0.00000000000E+00 -0.21991717434E+04  0.21991717434E+04  0.00000000000E+00 0. -1.
         21    1    1    2  503  504 -0.41883051669E+02  0.78864140227E+01 -0.41690770805E+03  0.41908044881E+03  0.00000000000E+00 0.  1.
         21    1    1    2  504  502 -0.26745390737E+02 -0.34503063567E+02 -0.15493502455E+03  0.16096782024E+03  0.00000000000E+00 0.  1.
         21    1    1    2  505  501  0.12226273664E+03  0.63609179273E+02 -0.59973686445E+01  0.13795025513E+03  0.00000000000E+00 0. -1.
          1    1    1    2  501    0 -0.53634294237E+02 -0.36992529729E+02 -0.15505682924E+04  0.15519365690E+04  0.00000000000E+00 0. -1.
<scales pt_clust_3="42.61907" pt_clust_4="45.50244" pt_clust_5="134.57611" pt_clust_6="14000.00000"></scales>
<clustering>
<clus scale="   42.619">  2  3  1 -1</clus>
<clus scale="   45.502">  2  4  1 -1</clus>
<clus scale="  134.576">  1  5  2 -1</clus>
<clus scale="  134.576">  1  3  2 -1</clus>
</clustering>
</event>
<event>
 6    0  0.2839294E+002  0.1239061E+03  0.7546771E-02  0.1236789E+00
          2   -1    0    0  505    0 -0.00000000000E+00  0.00000000000E+00  0.32690340284E+04  0.32690340284E+04  0.00000000000E+00 0. -1.
         21   -1    0    0  503  502  0.00000000000E+00 -0.00000000000E+00 -0.27677464723E+03  0.27677464723E+03  0.00000000000E+00 0.  1.
         21    1    1    2  503  501  0.57228198998E+02 -0.47058329744E+02  0.15194674487E+04  0.15212727832E+04  0.00000000000E+00 0.  1.
         21    1    1    2  504  502 -0.49090731266E+02 -0.18665248783E+02 -0.23798856822E+03  0.24371468977E+03  0.00000000000E+00 0.  1.
         21    1    1    2  505  504 -0.31388072000E+02  0.10523993580E+03  0.52179861160E+02  0.12158697735E+03  0.00000000000E+00 0.  1.
          2    1    1    2  501    0  0.23250604268E+02 -0.39516357270E+02  0.16586006395E+04  0.16592342253E+04  0.00000000000E+00 0. -1.
<scales pt_clust_3="30.83064" pt_clust_4="52.51944" pt_clust_5="117.54435" pt_clust_6="30.83064"></scales>
<clustering>
<clus scale="   30.831">  3  6 -1 -1</clus>
<clus scale="   52.519">  2  4  1 -1</clus>
<clus scale="  117.544">  2  5  1 -1</clus>
<clus scale="   52.519">  2  3  1 -1</clus>
</clustering>
</event>
<event>
 6    0  0.2839294E+002  0.8273581E+02  0.7546771E-02  0.1321462E+00
         21   -1    0    0  501  502  0.00000000000E+00  0.00000000000E+00  0.25455908439E+03  0.25455908439E+03  0.00000000000E+00 0.  1.
          1   -1    0    0  503    0 -0.00000000000E+00 -0.00000000000E+00 -0.14553287458E+04  0.14553287458E+04  0.00000000000E+00 0.  1.
         21    1    1    2  503  504  0.38388952769E+02  0.45346864229E+01 -0.87809436171E+03  0.87894481234E+03  0.00000000000E+00 0.  1.
         21    1    1    2  504  505 -0.46034510332E+02 -0.52359327659E+01 -0.56810275557E+02  0.73307561290E+02  0.00000000000E+00 0.  1.
         21    1    1    2  505  502 -0.20928360770E+02 -0.80007782959E+02  0.23519616307E+03  0.24931200681E+03  0.00000000000E+00 0.  1.
          1    1    1    2  501    0  0.28573918332E+02  0.80709029302E+02 -0.50106118725E+03  0.50832344977E+03  0.00000000000E+00 0.  1.
<scales pt_clust_3="38.65585" pt_clust_4="41.97133" pt_clust_5="14000.00000" pt_clust_6="82.73581"></scales>
<clustering>
<clus scale="   38.656">  2  3  1 -1</clus>
<clus scale="   41.971">  2  4  1 -1</clus>
<clus scale="   82.736">  2  6  1 -1</clus>
<clus scale="   82.736">  1  3  2 -1</clus>
</clustering>
</event>
<event>
 6    0  0.2839294E+002  0.1210593E+03  0.7546771E-02  0.1241360E+00
         21   -1    0    0  504  502  0.00000000000E+00  0.00000000000E+00  0.72701387551E+03  0.72701387551E+03  0.00000000000E+00 0.  1.
         -2   -1    0    0    0  501 -0.00000000000E+00 -0.00000000000E+00 -0.13541992870E+03  0.13541992870E+03  0.00000000000E+00 0.  1.
         21    1    1    2  503  501  0.85726894332E+01 -0.47213337108E+02  0.70739453702E+00  0.47990526274E+02  0.00000000000E+00 0. -1.
         21    1    1    2  504  503  0.12768582925E+02  0.16993171464E+03  0.59407849739E+03  0.61803647580E+03  0.00000000000E+00 0.  1.
         21    1    1    2  505  502  0.13030369642E+02 -0.48329578623E+02  0.70322724167E+02  0.86318157053E+02  0.00000000000E+00 0. -1.
         -2    1    1    2    0  505 -0.34371642000E+02 -0.74388798909E+02 -0.73514669288E+02  0.11008864509E+03  0.00000000000E+00 0.  1.
<scales pt_clust_3="47.98531" pt_clust_4="121.05931" pt_clust_5="53.47744" pt_clust_6="14000.00000"></scales>
<clustering>
<clus scale="   47.985">  2  3  1 -1</clus>
<clus scale="   53.477">  1  5  2 -1</clus>
<clus scale="  121.059">  1  4  2 -1</clus>
<clus scale="   53.477">  1  3  2 -1</clus>
</clustering>
</event>
<event>
 6    0  0.2839294E+002  0.1826063E+03  0.7546771E-02  0.1165304E+00
         21   -1    0    0  504  502  0.00000000000E+00  0.00000000000E+00  0.11291893750E+03  0.11291893750E+03  0.00000000000E+00 0. -1.
          1   -1    0    0  503    0 -0.00000000000E+00 -0.00000000000E+00 -0.11477457987E+04  0.11477457987E+04  0.00000000000E+00 0.  1.
         21    1    1    2  503  505 -0.94122621004E+02  0.13321086040E+02  0.42133676049E+02  0.10397964116E+03  0.00000000000E+00 0. -1.
         21    1    1    2  504  501  0.75463286317E+02  0.29268353611E+02 -0.32573131007E+03  0.33563705169E+03  0.00000000000E+00 0.  1.
         21    1    1    2  505  502 -0.67136893157E+02 -0.41608632404E+02 -0.15698887154E+02  0.80530092333E+02  0.00000000000E+00 0. -1.
          1    1    1    2  501    0  0.85796227844E+02 -0.98080724638E+00 -0.73553034004E+03  0.74051795104E+03  0.00000000000E+00 0.  1.
<scales pt_clust_3="73.71717" pt_clust_4="68.87361" pt_clust_5="73.71717" pt_clust_6="178.41889"></scales>
<clustering>
<clus scale="   68.874">  4  6 -1 -1</clus>
<clus scale="   73.717">  3  5 -1 -1</clus>
<clus scale="  178.419">  2  4  1 -1</clus>
<clus scale="  182.606">  1  3  2 -1</clus>
</clustering>
</event>
<event>
 6    0  0.2839294E+002  0.1143067E+03  0.7546771E-02  0.1252796E+00
          1   -1    0    0  505    0 -0.00000000000E+00  0.00000000000E+00  0.36570763167E+03  0.36570763167E+03  0.00000000000E+00 0.  1.
         21   -1    0    0  501  502  0.00000000000E+00 -0.00000000000E+00 -0.23192720370E+03  0.23192720370E+03  0.00000000000E+00 0.  1.
         21    1    1    2  503  502  0.43299368077E+02 -0.51092211518E+01 -0.10911865867E+03  0.11750668528E+03  0.00000000000E+00 0.  1.
         21    1    1    2  504  503 -0.52930351336E+02  0.11102919848E+03 -0.79279586658E+01  0.12325565924E+03  0.00000000000E+00 0.  1.
         21    1    1    2  505  504  0.90356128130E+02  0.28690925515E+02  0.72776921995E+02  0.11951518511E+03  0.00000000000E+00 0.  1.
          1    1    1    2  501    0 -0.80725144871E+02 -0.13461090284E+03  0.17805012331E+03  0.23735730574E+03  0.00000000000E+00 0.  1.
<scales pt_clust_3="43.59976" pt_clust_4="14000.00000" pt_clust_5="102.68901" pt_clust_6="114.30665"></scales>
<clustering>
<clus scale="   43.600">  2  3  1 -1</clus>
<clus scale="  102.689">  1  5  2 -1</clus>
<clus scale="  114.307">  1  6  2 -1</clus>
<clus scale="   43.600">  2  3  1 -1</clus>
</clustering>
</event>
<event>
 6    0  0.2839294E+002  0.1093483E+03  0.7546771E-02  0.1261782E+00
          2   -1    0    0  503    0 -0.00000000000E+00  0.00000000000E+00  0.11041179651E+04  0.11041179651E+04  0.00000000000E+00 0.  1.
         21   -1    0    0  504  502  0.00000000000E+00 -0.00000000000E+00 -0.97765929587E+02  0.97765929587E+02  0.00000000000E+00 0.  1.
         21    1    1    2  503  502 -0.56527617525E+02  0.13822589046E+02 -0.59913371253E+02  0.83522736820E+02  0.00000000000E+00 0.  1.
         21    1    1    2  504  505 -0.26753558092E+02 -0.25574931153E+02  0.21113554394E+02  0.42610000625E+02  0.00000000000E+00 0. -1.
         21    1    1    2  505  501 -0.24975564614E+02  0.38568276323E+02  0.30869208389E+02  0.55355205653E+02  0.00000000000E+00 0. -1.
          2    1    1    2  501    0  0.10825674023E+03 -0.26815934216E+02  0.10142826440E+04  0.10203959516E+04  0.00000000000E+00 0.  1.
<scales pt_clust_3="14000.00000" pt_clust_4="37.01121" pt_clust_5="45.26444" pt_clust_6="109.34828"></scales>
<clustering>
<clus scale="   37.011">  2  4  1 -1</clus>
<clus scale="   45.264">  2  5  1 -1</clus>
<clus scale="  109.348">  1  6  2 -1</clus>
<clus scale="   37.011">  2  3  1 -1</clus>
</clustering>
</event>
<event>
 6    0  0.2839294E+002  0.1595110E+03  0.7546771E-02  0.1189250E+00
         21   -1    0    0  504  502  0.00000000000E+00  0.00000000000E+00  0.51366817913E+03  0.51366817913E+03  0.00000000000E+00 0. -1.
          2   -1    0    0  503    0 -0.00000000000E+00 -0.00000000000E+00 -0.16671664887E+04  0.16671664887E+04  0.00000000000E+00 0.  1.
         21    1    1    2  503  505 -0.21721948327E+02 -0.23893531366E+02 -0.62965974074E+03  0.63048721874E+03  0.00000000000E+00 0.  1.
         21    1    1    2  504  501  0.68004919797E+02  0.14310239988E+03  0.77516398824E+02  0.17638525464E+03  0.00000000000E+00 0. -1.
         21    1    1    2  505  502  0.62480308145E+02 -0.46555316485E+02  0.37798192812E+03  0.38592942928E+03  0.00000000000E+00 0. -1.
          2    1    1    2  501    0 -0.10876327961E+03 -0.72653552030E+02 -0.97933689580E+03  0.98803276519E+03  0.00000000000E+00 0.  1.
<scales pt_clust_3="32.29155" pt_clust_4="159.51097" pt_clust_5="77.90588" pt_clust_6="14000.00000"></scales>
<clustering>
<clus scale="   32.292">  2  3  1 -1</clus>
<clus scale="   77.906">  1  5  2 -1</clus>
<clus scale="  159.511">  1  4  2 -1</clus>
<clus scale="   77.906">  1  3  2 -1</clus>
</clustering>
</event>
<event>
 6    0  0.2839294E+002  0.1172785E+03  0.7546771E-02  0.1247655E+00
         21   -1    0    0  503  502  0.00000000000E+00  0.00000000000E+00  0.47654934932E+03  0.47654934932E+03  0.00000000000E+00 0. -1.
          2   -1    0    0  504    0 -0.00000000000E+00 -0.00000000000E+00 -0.15068245898E+04  0.15068245898E+04  0.00000000000E+00 0. -1.
         21    1    1    2  503  505 -0.52615388457E+01  0.43747423649E+02  0.40315142213E+02  0.59722956713E+02  0.00000000000E+00 0.  1.
         21    1    1    2  504  502 -0.92781457409E+02 -0.10902056447E+03  0.41006222596E+03  0.43433271978E+03  0.00000000000E+00 0. -1.
         21    1    1    2  505  501  0.93906793788E+02  0.17416886211E+01 -0.10144255728E+04  0.10187643310E+04  0.00000000000E+00 0. -1.
          2    1    1    2  501    0  0.41362024665E+01  0.63531452201E+02 -0.46622703592E+03  0.47055393167E+03  0.00000000000E+00 0. -1.
<scales pt_clust_3="44.06269" pt_clust_4="14000.00000" pt_clust_5="117.27847" pt_clust_6="63.88566"></scales>
<clustering>
<clus scale="   44.063">  1  3  2 -1</clus>
<clus scale="   63.886">  2  6  1 -1</clus>
<clus scale="  117.278">  2  5  1 -1</clus>
<clus scale="   44.063">  1  3  2 -1</clus>
</clustering>
</event>
<event>
 6    0  0.2839294E+002  0.7644861E+02  0.7546771E-02  0.1339443E+00
         21   -1    0    0  505  502  0.00000000000E+00  0.00000000000E+00  0.42851870571E+03  0.42851870571E+03  0.00000000000E+00 0. -1.
         -4   -1    0    0    0  501 -0.00000000000E+00 -0.00000000000E+00 -0.23187472833E+03  0.23187472833E+03  0.00000000000E+00 0. -1.
         21    1    1    2  503  502  0.91406134971E+02 -0.20468415959E+02  0.28474418409E+03  0.29975538016E+03  0.00000000000E+00 0. -1.
         21    1    1    2  504  501 -0.10360292105E+03  0.10375218150E+02 -0.51933744102E+02  0.11635430451E+03  0.00000000000E+00 0. -1.
         21    1    1    2  505  504 -0.50313541226E+02 -0.26061001632E+02  0.85635534523E+02  0.10268433673E+03  0.00000000000E+00 0. -1.
         -4    1    1    2    0  503  0.62510327303E+02  0.36154199441E+02 -0.12180199712E+03  0.14159941264E+03  0.00000000000E+00 0. -1.
<scales pt_clust_3="64.18602" pt_clust_4="76.44861" pt_clust_5="56.66241" pt_clust_6="14000.00000"></scales>
<clustering>
<clus scale="   56.662">  1  5  2 -1</clus>
<clus scale="   64.186">  1  3  2 -1</clus>
<clus scale="   76.449">  1  4  2 -1</clus>
<clus scale="   56.662">  1  3  2 -1</clus>
</clustering>
</event>
<event>
 6    0  0.2839294E+002  0.8034454E+02  0.7546771E-02  0.1328077E+00
         21   -1    0    0  503  502  0.00000000000E+00  0.00000000000E+00  0.17872139558E+03  0.17872139558E+03  0.00000000000E+00 0.  1.
          1   -1    0    0  505    0 -0.00000000000E+00 -0.00000000000E+00 -0.17532797954E+04  0.17532797954E+04  0.00000000000E+00 0.  1.
         21    1    1    2  503  501 -0.40012910857E+02 -0.24348320701E+02 -0.18909985124E+03  0.19481434109E+03  0.00000000000E+00 0. -1.
         21    1    1    2  504  502 -0.32515322386E+02 -0.35920543535E+02  0.13725703782E+03  0.14555763830E+03  0.00000000000E+00 0.  1.
         21    1    1    2  505  504  0.11284264638E+03  0.68676151774E+02 -0.93545948409E+02  0.16186636812E+03  0.00000000000E+00 0.  1.
          1    1    1    2  501    0 -0.40314413140E+02 -0.84072875376E+01 -0.14291696380E+04  0.14297628434E+04  0.00000000000E+00 0.  1.
<scales pt_clust_3="80.34454" pt_clust_4="48.87897" pt_clust_5="14000.00000" pt_clust_6="41.18172"></scales>
<clustering>
<clus scale="   41.182">  2  6  1 -1</clus>
<clus scale="   48.879">  1  4  2 -1</clus>
<clus scale="   80.345">  2  3  1 -1</clus>
<clus scale="   48.879">  1  3  2 -1</clus>
</clustering>
</event>
<event>
 6    0  0.2839294E+002  0.1053986E+03  0.7546771E-02  0.1269336E+00
         -2   -1    0    0    0  501 -0.00000000000E+00  0.00000000000E+00  0.20277562500E+03  0.20277562500E+03  0.00000000000E+00 0.  1.
         21   -1    0    0  504  502  0.00000000000E+00 -0.00000000000E+00 -0.21445824071E+04  0.21445824071E+04  0.00000000000E+00 0.  1.
         21    1    1    2  503  502  0.47191436924E+02  0.10887295664E+03 -0.14609927615E+04  0.14658036027E+04  0.00000000000E+00 0.  1.
         21    1    1    2  504  505  0.10609678691E+02 -0.94449833201E+02 -0.67017623563E+03  0.67688220768E+03  0.00000000000E+00 0.  1.
         21    1    1    2  505  501 -0.28099565853E+02  0.16335189475E+02  0.57496842483E+02  0.66047792634E+02  0.00000000000E+00 0.  1.
         -2    1    1    2    0  503 -0.29701549762E+02 -0.30758312916E+02  0.13186537255E+03  0.13862442913E+03  0.00000000000E+00 0.  1.
<scales pt_clust_3="105.39863" pt_clust_4="14000.00000" pt_clust_5="32.50268" pt_clust_6="58.62884"></scales>
<clustering>
<clus scale="   32.503">  1  5  2 -1</clus>
<clus scale="   58.629">  1  6  2 -1</clus>
<clus scale="  105.399">  2  3  1 -1</clus>
<clus scale="  105.399">  2  3  1 -1</clus>
</clustering>
</event>
<event>
 6    0  0.2839294E+002  0.1071171E+03  0.7546771E-02  0.1266004E+00
          1   -1    0    0  503    0 -0.00000000000E+00  0.00000000000E+00  0.26658793084E+04  0.26658793084E+04  0.00000000000E+00 0.  1.
         21   -1    0    0  504  502  0.00000000000E+00 -0.00000000000E+00 -0.29432978224E+02  0.29432978224E+02  0.00000000000E+00 0. -1.
         21    1    1    2  503  505 -0.47417372914E+02  0.27516075176E+02  0.14249691755E+04  0.14260233843E+04  0.00000000000E+00 0.  1.
         21    1    1    2  504  501  0.71322040954E+02 -0.92589681537E+01  0.14504992463E+03  0.16190133617E+03  0.00000000000E+00 0. -1.
         21    1    1    2  505  502  0.43855270941E+02  0.53906517941E+02  0.48701261728E+02  0.84858767135E+02  0.00000000000E+00 0. -1.
          1    1    1    2  501    0 -0.67759938981E+02 -0.72163624964E+02  0.10177259684E+04  0.10225287990E+04  0.00000000000E+00 0.  1.
<scales pt_clust_3="54.82282" pt_clust_4="65.71626" pt_clust_5="107.11708" pt_clust_6="14000.00000"></scales>
<clustering>
<clus scale="   54.823">  1  3  2 -1</clus>
<clus scale="   65.716">  2  4  1 -1</clus>
<clus scale="  107.117">  2  5  1 -1</clus>
<clus scale="   65.716">  2  3  1 -1</clus>
</clustering>
</event>
<event>
 6    0  0.2839294E+002  0.2798821E+03  0.7546771E-02  0.1095753E+00
          2   -1    0    0  504    0 -0.00000000000E+00  0.00000000000E+00  0.14924456538E+04  0.14924456538E+04  0.00000000000E+00 0.  1.
         21   -1    0    0  505  502  0.00000000000E+00 -0.00000000000E+00 -0.82318459558E+03  0.82318459558E+03  0.00000000000E+00 0.  1.
         21    1    1    2  503  502  0.68325870602E+02  0.30703658784E+03 -0.69472736560E+03  0.76261786196E+03  0.00000000000E+00 0.  1.
         21    1    1    2  504  503 -0.37050411681E+02 -0.38323770874E+01  0.11963618076E+03  0.12530058207E+03  0.00000000000E+00 0.  1.
         21    1    1    2  505  501  0.65521131944E+02 -0.18290641522E+03  0.21867573873E+02  0.19551461901E+03  0.00000000000E+00 0.  1.
          2    1    1    2  501    0 -0.96796590866E+02 -0.12029779554E+03  0.12224846692E+04  0.12321971863E+04  0.00000000000E+00 0.  1.
<scales pt_clust_3="14000.00000" pt_clust_4="37.24809" pt_clust_5="279.88211" pt_clust_6="179.46215"></scales>
<clustering>
<clus scale="   37.248">  1  4  2 -1</clus>
<clus scale="  179.462">  1  6  2 -1</clus>
<clus scale="  279.882">  1  5  2 -1</clus>
<clus scale="  279.882">  2  3  1 -1</clus>
</clustering>
</event>
<event>
 6    0  0.2839294E+002  0.1730844E+03  0.7546771E-02  0.1174669E+00
          2   -1    0    0  502    0 -0.00000000000E+00  0.00000000000E+00  0.23973444066E+04  0.23973444066E+04  0.00000000000E+00 0.  1.
         21   -1    0    0  504  502  0.00000000000E+00 -0.00000000000E+00 -0.24426763376E+03  0.24426763376E+03  0.00000000000E+00 0. -1.
         21    1    1    2  503  501 -0.11642284716E+03 -0.12638003500E+03  0.37879852216E+03  0.41595013280E+03  0.00000000000E+00 0.  1.
         21    1    1    2  504  505 -0.76565417219E+02  0.65717816870E+02 -0.16589634453E+03  0.19417180974E+03  0.00000000000E+00 0. -1.
         21    1    1    2  505  503  0.19956047397E+03 -0.12393649972E+03  0.30040761569E+03  0.38135203461E+03  0.00000000000E+00 0.  1.
          2    1    1    2  501    0 -0.65722095928E+01  0.18459871786E+03  0.16397669795E+04  0.16501380632E+04  0.00000000000E+00 0.  1.
<scales pt_clust_3="14000.00000" pt_clust_4="100.90141" pt_clust_5="172.36083" pt_clust_6="173.08436"></scales>
<clustering>
<clus scale="  100.901">  2  4  1 -1</clus>
<clus scale="  172.361">  2  5  1 -1</clus>
<clus scale="  173.084">  1  6  2 -1</clus>
<clus scale="  100.901">  2  3  1 -1</clus>
</clustering>
</event>
<event>
 6    0  0.2839294E+002  0.7161989E+02  0.7546771E-02  0.1354670E+00
         21   -1    0    0  503  502  0.00000000000E+00  0.00000000000E+00  0.26919052119E+03  0.26919052119E+03  0.00000000000E+00 0.  1.
          1   -1    0    0  504    0 -0.00000000000E+00 -0.00000000000E+00 -0.96611500324E+03  0.96611500324E+03  0.00000000000E+00 0. -1.
         21    1    1    2  503  501  0.88835853268E+02  0.58150516599E+02  0.22635906794E+03  0.25002343699E+03  0.00000000000E+00 0.  1.
         21    1    1    2  504  505 -0.70192927727E+01 -0.56000878833E+02 -0.95319844102E+02  0.11077563622E+03  0.00000000000E+00 0.  1.
         21    1    1    2  505  502 -0.21578426558E+02 -0.34740490558E+02  0.27361219657E+01  0.40988004835E+02  0.00000000000E+00 0.  1.
          1    1    1    2  501    0 -0.60238133938E+02  0.32590852793E+02 -0.83069982785E+03  0.83351844638E+03  0.00000000000E+00 0. -1.
<scales pt_clust_3="71.61989" pt_clust_4="57.60246" pt_clust_5="40.89658" pt_clust_6="14000.00000"></scales>
<clustering>
<clus scale="   40.897">  1  5  2 -1</clus>
<clus scale="   57.602">  2  4  1 -1</clus>
<clus scale="   71.620">  1  3  2 -1</clus>
<clus scale="   40.897">  1  3  2 -1</clus>
</clustering>
</event>
<event>
 6    0  0.2839294E+002  0.6945486E+02  0.7546771E-02  0.1361957E+00
         21   -1    0    0  505  502  0.00000000000E+00  0.00000000000E+00  0.12102013761E+02  0.12102013761E+02  0.00000000000E+00 0.  1.
          1   -1    0    0  503    0 -0.00000000000E+00 -0.00000000000E+00 -0.33603678436E+04  0.33603678436E+04  0.00000000000E+00 0.  1.
         21    1    1    2  503  504  0.48229127647E+02  0.74727423979E+01 -0.95449772439E+03  0.95574462933E+03  0.00000000000E+00 0.  1.
         21    1    1    2  504  502 -0.24735217132E+02 -0.57203087598E+02 -0.20174935031E+03  0.21115592473E+03  0.00000000000E+00 0.  1.
         21    1    1    2  505  501 -0.37293794629E+01  0.11435009320E+03 -0.53142991896E+03  0.54360611738E+03  0.00000000000E+00 0.  1.
          1    1    1    2  501    0 -0.19764531053E+02 -0.64619747998E+02 -0.16605888362E+04  0.16619631859E+04  0.00000000000E+00 0.  1.
<scales pt_clust_3="48.80462" pt_clust_4="60.19466" pt_clust_5="14000.00000" pt_clust_6="69.45486"></scales>
<clustering>
<clus scale="   48.805">  2  3  1 -1</clus>
<clus scale="   60.195">  1  4  2 -1</clus>
<clus scale="   69.455">  2  6  1 -1</clus>
<clus scale="   60.195">  1  3  2 -1</clus>
</clustering>
</event>
<event>
 6    0  0.2839294E+002  0.1004821E+03  0.7546771E-02  0.1279285E+00
          2   -1    0    0  503    0 -0.00000000000E+00  0.00000000000E+00  0.78169206734E+03  0.78169206734E+03  0.00000000000E+00 0. -1.
         21   -1    0    0  504  502  0.00000000000E+00 -0.00000000000E+00 -0.13020514275E+03  0.13020514275E+03  0.00000000000E+00 0.  1.
         21    1    1    2  503  502 -0.38980049811E+02  0.89323559139E+02 -0.78991811955E+02  0.12545058332E+03  0.00000000000E+00 0.  1.
         21    1    1    2  504  505 -0.78962162003E+01 -0.13698414313E+03  0.15929151403E+03  0.21023984432E+03  0.00000000000E+00 0. -1.
         21    1    1    2  505  501  0.16506574022E+02  0.40303798071E+02  0.28323016066E+03  0.28655922082E+03  0.00000000000E+00 0. -1.
          2    1    1    2  501    0  0.30369691988E+02  0.73567859179E+01  0.28795706185E+03  0.28964756163E+03  0.00000000000E+00 0. -1.
<scales pt_clust_3="100.48211" pt_clust_4="14000.00000" pt_clust_5="30.42853" pt_clust_6="75.89080"></scales>
<clustering>
<clus scale="   30.429">  5  6 -1 -1</clus>
<clus scale="   75.891">  1  5  2 -1</clus>
<clus scale="  100.482">  2  3  1 -1</clus>
<clus scale="  100.482">  2  3  1 -1</clus>
</clustering>
</event>
<event>
 6    0  0.2839294E+002  0.7630302E+02  0.7546771E-02  0.1339883E+00
         21   -1    0    0  503  502  0.00000000000E+00  0.00000000000E+00  0.46443256600E+03  0.46443256600E+03  0.00000000000E+00 0.  1.
         -1   -1    0    0    0  501 -0.00000000000E+00 -0.00000000000E+00 -0.12011256822E+03  0.12011256822E+03  0.00000000000E+00 0.  1.
         21    1    1    2  503  505  0.59067853134E+02 -0.42117382001E+02  0.74458257912E+02  0.10395632406E+03  0.00000000000E+00 0. -1.
         21    1    1    2  504  502 -0.52068963563E+02  0.40675697823E+02  0.10599124219E+03  0.12489929055E+03  0.00000000000E+00 0. -1.
         21    1    1    2  505  501 -0.53343086478E+02 -0.58928685493E+02  0.23710223923E+03  0.25007108328E+03  0.00000000000E+00 0.  1.
         -1    1    1    2    0  504  0.46344196907E+02  0.60370369672E+02 -0.73231741550E+02  0.10561843633E+03  0.00000000000E+00 0.  1.
<scales pt_clust_3="55.67729" pt_clust_4="66.07336" pt_clust_5="14000.00000" pt_clust_6="76.30302"></scales>
<clustering>
<clus scale="   66.073">  1  4  2 -1</clus>
<clus scale="   55.677">  1  3  2 -1</clus>
<clus scale="   76.303">  2  6  1 -1</clus>
<clus scale="   66.073">  1  3  2 -1</clus>
</clustering>
</event>
<event>
 6    0  0.2839294E+002  0.8195152E+02  0.7546771E-02  0.1323603E+00
         21   -1    0    0  503  502  0.00000000000E+00  0.00000000000E+00  0.27945446689E+02  0.27945446689E+02  0.00000000000E+00 0. -1.
          1   -1    0    0  505    0 -0.00000000000E+00 -0.00000000000E+00 -0.51695364440E+04  0.51695364440E+04  0.00000000000E+00 0. -1.
         21    1    1    2  503  501  0.88403675476E+02  0.51767612411E+02 -0.77452493896E+03  0.78127074475E+03  0.00000000000E+00 0. -1.
         21    1    1    2  504  502 -0.20637925589E+02 -0.79981124794E+02 -0.48538543490E+02  0.95806547271E+02  0.00000000000E+00 0. -1.
         21    1    1    2  505  504 -0.12131862705E+02  0.30250348541E+02 -0.35669079262E+03  0.35817675415E+03  0.00000000000E+00 0.  1.
          1    1    1    2  501    0 -0.55633887181E+02 -0.20368361583E+01 -0.39618367222E+04  0.39622278445E+04  0.00000000000E+00 0. -1.
<scales pt_clust_3="81.95152" pt_clust_4="14000.00000" pt_clust_5="32.59242" pt_clust_6="69.49354"></scales>
<clustering>
<clus scale="   32.592">  2  5  1 -1</clus>
<clus scale="   69.494">  2  6  1 -1</clus>
<clus scale="   81.952">  2  3  1 -1</clus>
<clus scale="   81.952">  1  3  2 -1</clus>
</clustering>
</event>
<event>
 6    0  0.2839294E+002  0.1039447E+03  0.7546771E-02  0.1272213E+00
         21   -1    0    0  503  502  0.00000000000E+00  0.00000000000E+00  0.54461480253E+03  0.54461480253E+03  0.00000000000E+00 0.  1.
          2   -1    0    0  505    0 -0.00000000000E+00 -0.00000000000E+00 -0.80576710573E+03  0.80576710573E+03  0.00000000000E+00 0. -1.
         21    1    1    2  503  504 -0.21752311316E+02  0.22995618248E+02  0.50166071824E+03  0.50265837079E+03  0.00000000000E+00 0.  1.
         21    1    1    2  504  501 -0.59702323568E+02  0.75737011406E+02 -0.20294468109E+03  0.22469313723E+03  0.00000000000E+00 0. -1.
         21    1    1    2  505  502  0.32387471116E+02 -0.12254925042E+03 -0.10414043204E+03  0.16405028696E+03  0.00000000000E+00 0. -1.
          2    1    1    2  501    0  0.49067163768E+02  0.23816620767E+02 -0.45572790830E+03  0.45898011328E+03  0.00000000000E+00 0. -1.
<scales pt_clust_3="31.65378" pt_clust_4="103.94465" pt_clust_5="14000.00000" pt_clust_6="54.18931"></scales>
<clustering>
<clus scale="   31.654">  1  3  2 -1</clus>
<clus scale="   54.189">  2  6  1 -1</clus>
<clus scale="  103.945">  2  4  1 -1</clus>
<clus scale="   31.654">  1  3  2 -1</clus>
</clustering>
</event>
<event>
 6    0  0.2839294E+002  0.2555645E+03  0.7546771E-02  0.1109838E+00
          1   -1    0    0  504    0 -0.00000000000E+00  0.00000000000E+00  0.25027861218E+03  0.25027861218E+03  0.00000000000E+00 0. -1.
         21   -1    0    0  503  502  0.00000000000E+00 -0.00000000000E+00 -0.63753505716E+03  0.63753505716E+03  0.00000000000E+00 0. -1.
         21    1    1    2  503  505  0.57918655683E+01  0.17361846804E+03 -0.41331067382E+03  0.44833316991E+03  0.00000000000E+00 0. -1.
         21    1    1    2  504  502  0.31760884493E+02  0.96037110489E+00  0.53539490585E+00  0.31779911015E+02  0.00000000000E+00 0.  1.
         21    1    1    2  505  501  0.19773549886E+02  0.72082029223E+02 -0.10017490763E+03  0.12498729668E+03  0.00000000000E+00 0. -1.
          1    1    1    2  501    0 -0.57326299947E+02 -0.24666086837E+03  0.12569374156E+03  0.28271329173E+03  0.00000000000E+00 0. -1.
<scales pt_clust_3="41.64203" pt_clust_4="31.77540" pt_clust_5="41.64203" pt_clust_6="247.60177"></scales>
<clustering>
<clus scale="   31.775">  1  4  2 -1</clus>
<clus scale="   41.642">  3  5 -1 -1</clus>
<clus scale="  247.602">  1  6  2 -1</clus>
<clus scale="  255.565">  2  3  1 -1</clus>
</clustering>
</event>
<event>
 6    0  0.2839294E+002  0.3385477E+03  0.7546771E-02  0.1067416E+00
         21   -1    0    0  503  502  0.00000000000E+00  0.00000000000E+00  0.55285037439E+03  0.55285037439E+03  0.00000000000E+00 0.  1.
          4   -1    0    0  504    0 -0.00000000000E+00 -0.00000000000E+00 -0.85379872892E+03  0.85379872892E+03  0.00000000000E+00 0. -1.
         21    1    1    2  503  505  0.24723937167E+02 -0.27879753936E+02  0.45881978986E+01  0.37544710793E+02  0.00000000000E+00 0. -1.
         21    1    1    2  504  502 -0.31222861529E+03 -0.14706277189E+03  0.43485904621E+03  0.55517254719E+03  0.00000000000E+00 0.  1.
         21    1    1    2  505  501  0.14872534442E+03  0.72182264847E+02 -0.35313507827E+03  0.38991523558E+03  0.00000000000E+00 0. -1.
          4    1    1    2  501    0  0.13877933370E+03  0.10276026098E+03 -0.38726052037E+03  0.42401660975E+03  0.00000000000E+00 0. -1.
<scales pt_clust_3="37.26330" pt_clust_4="337.01477" pt_clust_5="31.48654" pt_clust_6="31.48654"></scales>
<clustering>
<clus scale="   31.487">  5  6 -1 -1</clus>
<clus scale="   37.263">  1  3  2 -1</clus>
<clus scale="  337.015">  1  4  2 -1</clus>
<clus scale="   37.263">  1  3  2 -1</clus>
</clustering>
</event>
<event>
 6    0  0.2839294E+002  0.1275638E+03  0.7546771E-02  0.1231116E+00
         21   -1    0    0  501  502  0.00000000000E+00  0.00000000000E+00  0.46853605642E+03  0.46853605642E+03  0.00000000000E+00 0.  1.
          2   -1    0    0  503    0 -0.00000000000E+00 -0.00000000000E+00 -0.13909741924E+04  0.13909741924E+04  0.00000000000E+00 0.  1.
         21    1    1    2  503  505 -0.26161837206E+02 -0.28938680432E+02 -0.85350163983E+02  0.93843164073E+02  0.00000000000E+00 0.  1.
         21    1    1    2  504  502  0.62016678529E+02 -0.19941953281E+02  0.44863235675E+03  0.45333733735E+03  0.00000000000E+00 0.  1.
         21    1    1    2  505  504  0.10673392110E+03 -0.91556947779E+01 -0.45257588268E+03  0.46508159095E+03  0.00000000000E+00 0.  1.
          2    1    1    2  501    0 -0.14258876242E+03  0.58036328491E+02 -0.83314444608E+03  0.84724815646E+03  0.00000000000E+00 0.  1.
<scales pt_clust_3="39.01140" pt_clust_4="65.11509" pt_clust_5="14000.00000" pt_clust_6="127.56376"></scales>
<clustering>
<clus scale="   39.011">  2  3  1 -1</clus>
<clus scale="   65.115">  1  4  2 -1</clus>
<clus scale="  127.564">  1  6  2 -1</clus>
<clus scale="   65.115">  1  3  2 -1</clus>
</clustering>
</event>
<event>
 6    0  0.2839294E+002  0.1439943E+03  0.7546771E-02  0.1208053E+00
          2   -1    0    0  504    0 -0.00000000000E+00  0.00000000000E+00  0.80758653275E+03  0.80758653275E+03  0.00000000000E+00 0.  1.
         21   -1    0    0  501  502  0.00000000000E+00 -0.00000000000E+00 -0.48492530440E+03  0.48492530440E+03  0.00000000000E+00 0.  1.
         21    1    1    2  503  502 -0.43191130293E+02 -0.10221825053E+02 -0.33184027399E+03  0.33479535075E+03  0.00000000000E+00 0.  1.
         21    1    1    2  504  505 -0.10008786071E+03 -0.41309913512E+02  0.16745529931E+03  0.19941255247E+03  0.00000000000E+00 0.  1.
         21    1    1    2  505  503  0.15233579338E+03  0.11036607388E+03 -0.68035686672E+02  0.20003929331E+03  0.00000000000E+00 0.  1.
          2    1    1    2  501    0 -0.90568023762E+01 -0.58834335314E+02  0.55508188970E+03  0.55826464061E+03  0.00000000000E+00 0.  1.
<scales pt_clust_3="44.38423" pt_clust_4="14000.00000" pt_clust_5="143.99434" pt_clust_6="59.70393"></scales>
<clustering>
<clus scale="   44.384">  2  3  1 -1</clus>
<clus scale="   59.704">  1  6  2 -1</clus>
<clus scale="  143.994">  2  5  1 -1</clus>
<clus scale="   44.384">  2  3  1 -1</clus>
</clustering>
</event>
<event>
 6    0  0.2839294E+002  0.2804017E+03  0.7546771E-02  0.1095470E+00
         21   -1    0    0  505  502  0.00000000000E+00  0.00000000000E+00  0.30377852073E+03  0.30377852073E+03  0.00000000000E+00 0.  1.
          1   -1    0    0  504    0 -0.00000000000E+00 -0.00000000000E+00 -0.20510292661E+04  0.20510292661E+04  0.00000000000E+00 0. -1.
         21    1    1    2  503  502 -0.28076695967E+02  0.10025905651E+03  0.13314335372E+03  0.16901873242E+03  0.00000000000E+00 0. -1.
         21    1    1    2  504  503  0.89234387292E+02  0.82008309720E+02 -0.30052818108E+03  0.32404525357E+03  0.00000000000E+00 0.  1.
         21    1    1    2  505  501 -0.16695889685E+03 -0.31220397045E+03 -0.93796372339E+02  0.36625722091E+03  0.00000000000E+00 0.  1.
          1    1    1    2  501    0  0.10580120552E+03  0.12993660422E+03 -0.14860695457E+04  0.14954865799E+04  0.00000000000E+00 0. -1.
<scales pt_clust_3="104.11618" pt_clust_4="125.03139" pt_clust_5="280.40169" pt_clust_6="14000.00000"></scales>
<clustering>
<clus scale="  104.116">  1  3  2 -1</clus>
<clus scale="  125.031">  2  4  1 -1</clus>
<clus scale="  280.402">  1  5  2 -1</clus>
<clus scale="  104.116">  1  3  2 -1</clus>
</clustering>
</event>
<event>
 6    0  0.2839294E+002  0.1483170E+03  0.7546771E-02  0.1202556E+00
         -2   -1    0    0    0  501 -0.00000000000E+00  0.00000000000E+00  0.16965577754E+03  0.16965577754E+03  0.00000000000E+00 0. -1.
         21   -1    0    0  503  502  0.00000000000E+00 -0.00000000000E+00 -0.65049019842E+03  0.65049019842E+03  0.00000000000E+00 0. -1.
         21    1    1    2  503  505 -0.14527121161E+03  0.11130159045E+03 -0.53401324800E+03  0.56450147741E+03  0.00000000000E+00 0. -1.
         21    1    1    2  504  502  0.30700074819E+02 -0.15653507252E+02 -0.46524246915E+02  0.57896739409E+02  0.00000000000E+00 0.  1.
         21    1    1    2  505  501  0.45529156076E+02  0.73220482150E+01  0.19342100507E+02  0.50006332550E+02  0.00000000000E+00 0.  1.
         -2    1    1    2    0  504  0.69041980710E+02 -0.10297013141E+03  0.80360973527E+02  0.14774142658E+03  0.00000000000E+00 0. -1.
<scales pt_clust_3="14000.00000" pt_clust_4="34.46051" pt_clust_5="46.83014" pt_clust_6="148.31695"></scales>
<clustering>
<clus scale="   34.461">  2  4  1 -1</clus>
<clus scale="   46.830">  1  5  2 -1</clus>
<clus scale="  148.317">  1  6  2 -1</clus>
<clus scale="   34.461">  2  3  1 -1</clus>
</clustering>
</event>
<event>
 6    0  0.2839294E+002  0.1167097E+03  0.7546771E-02  0.1248626E+00
         21   -1    0    0  503  502  0.00000000000E+00  0.00000000000E+00  0.33800788403E+03  0.33800788403E+03  0.00000000000E+00 0.  1.
         -2   -1    0    0    0  501 -0.00000000000E+00 -0.00000000000E+00 -0.54535240720E+03  0.54535240720E+03  0.00000000000E+00 0. -1.
         21    1    1    2  503  504 -0.11488077597E+03  0.72607100494E+02  0.11647688596E+03  0.17898672770E+03  0.00000000000E+00 0.  1.
         21    1    1    2  504  501 -0.17847725892E+02  0.83794444755E+02 -0.54353802597E+02  0.10146125442E+03  0.00000000000E+00 0.  1.
         21    1    1    2  505  502  0.95370790909E+02 -0.46472770734E+02  0.14093503273E+03  0.17640291842E+03  0.00000000000E+00 0.  1.
         -2    1    1    2    0  505  0.37357710953E+02 -0.10992877452E+03 -0.41040263926E+03  0.42650939069E+03  0.00000000000E+00 0. -1.
<scales pt_clust_3="116.70966" pt_clust_4="85.67409" pt_clust_5="14000.00000" pt_clust_6="40.94213"></scales>
<clustering>
<clus scale="   85.674">  2  4  1 -1</clus>
<clus scale="   40.942">  2  6  1 -1</clus>
<clus scale="  116.710">  2  3  1 -1</clus>
<clus scale="  116.710">  1  3  2 -1</clus>
</clustering>
</event>
<event>
 6    0  0.2839294E+002  0.2247078E+03  0.7546771E-02  0.1130421E+00
          2   -1    0    0  505    0 -0.00000000000E+00  0.00000000000E+00  0.12079202947E+04  0.12079202947E+04  0.00000000000E+00 0. -1.
         21   -1    0    0  503  502  0.00000000000E+00 -0.00000000000E+00 -0.13718930506E+03  0.13718930506E+03  0.00000000000E+00 0. -1.
         21    1    1    2  503  501 -0.12440650190E+03  0.28082334570E+03  0.26741313934E+03  0.40724503226E+03  0.00000000000E+00 0. -1.
         21    1    1    2  504  502  0.26129969751E+02 -0.13624077174E+03  0.11141658892E+03  0.17792689367E+03  0.00000000000E+00 0. -1.
         21    1    1    2  505  504 -0.86649667980E+02 -0.15415263705E+02  0.21781266453E+03  0.23492158722E+03  0.00000000000E+00 0.  1.
          2    1    1    2  501    0  0.18492620013E+03 -0.12916731025E+03  0.47408859688E+03  0.52501608664E+03  0.00000000000E+00 0. -1.
<scales pt_clust_3="224.70779" pt_clust_4="139.15552" pt_clust_5="88.01020" pt_clust_6="14000.00000"></scales>
<clustering>
<clus scale="   88.010">  1  5  2 -1</clus>
<clus scale="  139.156">  2  4  1 -1</clus>
<clus scale="  224.708">  2  3  1 -1</clus>
<clus scale="  139.156">  2  3  1 -1</clus>
</clustering>
</event>
<event>
 6    0  0.2839294E+002  0.1360994E+03  0.7546771E-02  0.1218676E+00
          1   -1    0    0  505    0 -0.00000000000E+00  0.00000000000E+00  0.40981487587E+03  0.40981487587E+03  0.00000000000E+00 0. -1.
         21   -1    0    0  504  502  0.00000000000E+00 -0.00000000000E+00 -0.10814532440E+04  0.10814532440E+04  0.00000000000E+00 0.  1.
         21    1    1    2  503  502  0.15262977698E+03  0.13219488503E+03 -0.44662262726E+03  0.49014600644E+03  0.00000000000E+00 0.  1.
         21    1    1    2  504  501 -0.11259461470E+03 -0.40883580431E+02 -0.56743451014E+03  0.57994046048E+03  0.00000000000E+00 0.  1.
         21    1    1    2  505  503  0.30502287188E+02  0.33846326347E+02 -0.44093431797E+01  0.45775600905E+02  0.00000000000E+00 0. -1.
          1    1    1    2  501    0 -0.70537449469E+02 -0.12515763095E+03  0.34682811242E+03  0.37540605207E+03  0.00000000000E+00 0. -1.
<scales pt_clust_3="14000.00000" pt_clust_4="136.09937" pt_clust_5="45.56274" pt_clust_6="102.82097"></scales>
<clustering>
<clus scale="   45.563">  1  5  2 -1</clus>
<clus scale="  102.821">  1  6  2 -1</clus>
<clus scale="  136.099">  2  4  1 -1</clus>
<clus scale="  136.099">  2  3  1 -1</clus>
</clustering>
</event>
<event>
 6    0  0.2839294E+002  0.9556201E+02  0.7546771E-02  0.1289915E+00
         -1   -1    0    0    0  501 -0.00000000000E+00  0.00000000000E+00  0.12629275127E+04  0.12629275127E+04  0.00000000000E+00 0.  1.
         21   -1    0    0  501  502  0.00000000000E+00 -0.00000000000E+00 -0.52991708736E+02  0.52991708736E+02  0.00000000000E+00 0.  1.
         21    1    1    2  503  502  0.41367646126E+02  0.44414733861E+02 -0.13621512018E+02  0.62205275658E+02  0.00000000000E+00 0.  1.
         21    1    1    2  504  503 -0.45118414251E+02 -0.14909182495E+02  0.69625368221E+02  0.84294999419E+02  0.00000000000E+00 0. -1.
         21    1    1    2  505  504 -0.70336291216E+02  0.74870807220E+01  0.20459453417E+03  0.21647672774E+03  0.00000000000E+00 0.  1.
         -1    1    1    2    0  505  0.74087059340E+02 -0.36992632088E+02  0.94933741363E+03  0.95294221866E+03  0.00000000000E+00 0.  1.
<scales pt_clust_3="60.69556" pt_clust_4="35.55893" pt_clust_5="35.55893" pt_clust_6="85.14633"></scales>
<clustering>
<clus scale="   35.559">  4  5 -1 -1</clus>
<clus scale="   60.696">  2  3  1 -1</clus>
<clus scale="   85.146">  1  6  2 -1</clus>
<clus scale="   60.696">  2  3  1 -1</clus>
</clustering>
</event>
<event>
 6    0  0.2839294E+002  0.1642993E+03  0.7546771E-02  0.1183927E+00
          2   -1    0    0  503    0 -0.00000000000E+00  0.00000000000E+00  0.64590077284E+03  0.64590077284E+03  0.00000000000E+00 0.  1.
         21   -1    0    0  505  502  0.00000000000E+00 -0.00000000000E+00 -0.37855558077E+03  0.37855558077E+03  0.00000000000E+00 0.  1.
         21    1    1    2  503  504 -0.46778034035E+02  0.15839865885E+02  0.70529704980E+02  0.86101829853E+02  0.00000000000E+00 0.  1.
         21    1    1    2  504  502 -0.14985585476E+03  0.61934862728E+02 -0.29944636996E+03  0.34053022319E+03  0.00000000000E+00 0.  1.
         21    1    1    2  505  501  0.17260290802E+03 -0.57600722106E+02  0.11495936039E+03  0.21523304018E+03  0.00000000000E+00 0. -1.
          2    1    1    2  501    0  0.24030980775E+02 -0.20174006507E+02  0.38130249665E+03  0.38259126039E+03  0.00000000000E+00 0.  1.
<scales pt_clust_3="40.85422" pt_clust_4="164.29931" pt_clust_5="14000.00000" pt_clust_6="31.37640"></scales>
<clustering>
<clus scale="   31.376">  1  6  2 -1</clus>
<clus scale="   40.854">  1  3  2 -1</clus>
<clus scale="  164.299">  2  4  1 -1</clus>
<clus scale="  164.299">  2  3  1 -1</clus>
</clustering>
</event>
<event>
 6    0  0.2839294E+002  0.9283031E+02  0.7546771E-02  0.1296139E+00
          2   -1    0    0  504    0 -0.00000000000E+00  0.00000000000E+00  0.29604086243E+04  0.29604086243E+04  0.00000000000E+00 0.  1.
         21   -1    0    0  503  502  0.00000000000E+00 -0.00000000000E+00 -0.41467023657E+02  0.41467023657E+02  0.00000000000E+00 0. -1.
         21    1    1    2  503  505  0.46437204976E+02 -0.49561530244E+01  0.13936316451E+03  0.14697982542E+03  0.00000000000E+00 0. -1.
         21    1    1    2  504  502 -0.37085899177E+02  0.62006197060E+02  0.19756522911E+01  0.72277490227E+02  0.00000000000E+00 0. -1.
         21    1    1    2  505  501  0.43721512483E+02  0.11863004980E+02  0.29193006578E+03  0.29542421168E+03  0.00000000000E+00 0.  1.
          2    1    1    2  501    0 -0.53072818282E+02 -0.68913049015E+02  0.24856727181E+04  0.24871941206E+04  0.00000000000E+00 0.  1.
<scales pt_clust_3="38.53994" pt_clust_4="72.25048" pt_clust_5="38.53994" pt_clust_6="84.18007"></scales>
<clustering>
<clus scale="   38.540">  3  5 -1 -1</clus>
<clus scale="   72.250">  2  4  1 -1</clus>
<clus scale="   84.180">  1  6  2 -1</clus>
<clus scale="   72.250">  2  3  1 -1</clus>
</clustering>
</event>
<event>
 6    0  0.2839294E+002  0.1340205E+03  0.7546771E-02  0.1221609E+00
          2   -1    0    0  504    0 -0.00000000000E+00  0.00000000000E+00  0.99384598235E+03  0.99384598235E+03  0.00000000000E+00 0. -1.
         21   -1    0    0  505  502  0.00000000000E+00 -0.00000000000E+00 -0.11411521242E+04  0.11411521242E+04  0.00000000000E+00 0.  1.
         21    1    1    2  503  501  0.72135453827E+02  0.13583013636E+03  0.66850542165E+03  0.68596854769E+03  0.00000000000E+00 0. -1.
         21    1    1    2  504  502 -0.69200043941E+02  0.76960124265E+01 -0.11660956312E+03  0.13581481841E+03  0.00000000000E+00 0. -1.
         21    1    1    2  505  503 -0.16536940763E+02 -0.11070400092E+03 -0.10020538224E+04  0.10082860255E+04  0.00000000000E+00 0.  1.
          2    1    1    2  501    0  0.13601530877E+02 -0.32822147867E+02  0.30285182208E+03  0.30492871490E+03  0.00000000000E+00 0. -1.
<scales pt_clust_3="14000.00000" pt_clust_4="69.38940" pt_clust_5="134.02054" pt_clust_6="35.52879"></scales>
<clustering>
<clus scale="   35.529">  1  6  2 -1</clus>
<clus scale="   69.389">  2  4  1 -1</clus>
<clus scale="  134.021">  2  5  1 -1</clus>
<clus scale="   69.389">  2  3  1 -1</clus>
</clustering>
</event>
<event>
 6    0  0.2839294E+002  0.1114328E+03  0.7546771E-02  0.1257939E+00
         21   -1    0    0  504  502  0.00000000000E+00  0.00000000000E+00  0.46277161639E+03  0.46277161639E+03  0.00000000000E+00 0.  1.
          2   -1    0    0  503    0 -0.00000000000E+00 -0.00000000000E+00 -0.21721241237E+03  0.21721241237E+03  0.00000000000E+00 0.  1.
         21    1    1    2  503  505  0.48330989963E+02 -0.14608736088E+03  0.26063998310E+02  0.15606643973E+03  0.00000000000E+00 0.  1.
         21    1    1    2  504  501 -0.91895268617E+02  0.63540911399E+01  0.16935931652E+03  0.19278924493E+03  0.00000000000E+00 0.  1.
         21    1    1    2  505  502 -0.27607151365E+02  0.58840219165E+02  0.16276488358E+03  0.17526189981E+03  0.00000000000E+00 0.  1.
          2    1    1    2  501    0  0.71171430018E+02  0.80893050579E+02 -0.11262899439E+03  0.15586644430E+03  0.00000000000E+00 0.  1.
<scales pt_clust_3="111.43281" pt_clust_4="14000.00000" pt_clust_5="64.99482" pt_clust_6="109.74203"></scales>
<clustering>
<clus scale="   64.995">  1  5  2 -1</clus>
<clus scale="  109.742">  2  6  1 -1</clus>
<clus scale="  111.433">  2  3  1 -1</clus>
<clus scale="   64.995">  1  3  2 -1</clus>
</clustering>
</event>
<event>
 6    0  0.2839294E+002  0.1102075E+03  0.7546771E-02  0.1260186E+00
         21   -1    0    0  505  502  0.00000000000E+00  0.00000000000E+00  0.51025064797E+03  0.51025064797E+03  0.00000000000E+00 0. -1.
         -1   -1    0    0    0  501 -0.00000000000E+00 -0.00000000000E+00 -0.76999996058E+03  0.76999996058E+03  0.00000000000E+00 0. -1.
         21    1    1    2  503  502  0.32026387055E+02  0.48465604937E+01  0.30849250114E+02  0.44730916031E+02  0.00000000000E+00 0.  1.
         21    1    1    2  504  503 -0.34747244510E+02  0.63808199029E+02 -0.90825839865E+02  0.11631074951E+03  0.00000000000E+00 0. -1.
         21    1    1    2  505  501  0.65515995307E+02 -0.69913521406E+02  0.45320252352E+03  0.46322000544E+03  0.00000000000E+00 0. -1.
         -1    1    1    2    0  504 -0.62795137853E+02  0.12587618836E+01 -0.65297524638E+03  0.65598893756E+03  0.00000000000E+00 0. -1.
<scales pt_clust_3="32.39103" pt_clust_4="14000.00000" pt_clust_5="110.20747" pt_clust_6="62.70594"></scales>
<clustering>
<clus scale="   32.391">  1  3  2 -1</clus>
<clus scale="   62.706">  2  6  1 -1</clus>
<clus scale="  110.207">  1  5  2 -1</clus>
<clus scale="   32.391">  1  3  2 -1</clus>
</clustering>
</event>
<event>
 6    0  0.2839294E+002  0.9904793E+02  0.7546771E-02  0.1282311E+00
          1   -1    0    0  503    0 -0.00000000000E+00  0.00000000000E+00  0.11421578898E+04  0.11421578898E+04  0.00000000000E+00 0.  1.
         21   -1    0    0  504  502  0.00000000000E+00 -0.00000000000E+00 -0.27841413298E+03  0.27841413298E+03  0.00000000000E+00 0.  1.
         21    1    1    2  503  505  0.77123214261E+02  0.12413126781E+02  0.49484438457E+03  0.50097209587E+03  0.00000000000E+00 0.  1.
         21    1    1    2  504  501 -0.76334165097E+02 -0.37839904499E+01 -0.54242443820E+02  0.93720147548E+02  0.00000000000E+00 0.  1.
         21    1    1    2  505  502 -0.16749900600E+02  0.51706985674E+02 -0.19610399487E+03  0.20349680180E+03  0.00000000000E+00 0.  1.
          1    1    1    2  501    0  0.15960851437E+02 -0.60336122005E+02  0.61924581096E+03  0.62238297758E+03  0.00000000000E+00 0.  1.
<scales pt_clust_3="99.04793" pt_clust_4="14000.00000" pt_clust_5="54.35229" pt_clust_6="61.32866"></scales>
<clustering>
<clus scale="   54.352">  2  5  1 -1</clus>
<clus scale="   61.329">  1  6  2 -1</clus>
<clus scale="   99.048">  1  3  2 -1</clus>
<clus scale="   54.352">  2  3  1 -1</clus>
</clustering>
</event>
<event>
 6    0  0.2839294E+002  0.1546590E+03  0.7546771E-02  0.1194862E+00
         21   -1    0    0  503  502  0.00000000000E+00  0.00000000000E+00  0.64427072378E+02  0.64427072378E+02  0.00000000000E+00 0.  1.
          2   -1    0    0  505    0 -0.00000000000E+00 -0.00000000000E+00 -0.33411881810E+04  0.33411881810E+04  0.00000000000E+00 0. -1.
         21    1    1    2  503  504  0.35096394791E+02  0.71306807879E+01  0.12524370333E+02  0.37940260780E+02  0.00000000000E+00 0.  1.
         21    1    1    2  504  501  0.61749038532E+02  0.51663919750E+02 -0.38264771056E+02  0.89142005068E+02  0.00000000000E+00 0.  1.
         21    1    1    2  505  502  0.41316915890E+02 -0.11365815515E+03 -0.29567765117E+03  0.31945349767E+03  0.00000000000E+00 0.  1.
          2    1    1    2  501    0 -0.13816234921E+03  0.54863554613E+02 -0.29553430567E+04  0.29590794898E+04  0.00000000000E+00 0. -1.
<scales pt_clust_3="34.34308" pt_clust_4="34.34308" pt_clust_5="120.93496" pt_clust_6="145.83520"></scales>
<clustering>
<clus scale="   34.343">  3  4 -1 -1</clus>
<clus scale="  120.935">  1  5  2 -1</clus>
<clus scale="  145.835">  2  6  1 -1</clus>
<clus scale="  120.935">  1  3  2 -1</clus>
</clustering>
</event>
<event>
 6    0  0.2839294E+002  0.1401201E+03  0.7546771E-02  0.1213167E+00
         21   -1    0    0  505  502  0.00000000000E+00  0.00000000000E+00  0.16466330506E+04  0.16466330506E+04  0.00000000000E+00 0.  1.
         -1   -1    0    0    0  501 -0.00000000000E+00 -0.00000000000E+00 -0.97020966176E+03  0.97020966176E+03  0.00000000000E+00 0.  1.
         21    1    1    2  503  504 -0.10984064528E+03  0.15202583015E+02 -0.60885934020E+03  0.61887460930E+03  0.00000000000E+00 0.  1.
         21    1    1    2  504  502  0.58629941888E+02 -0.37245706131E+01  0.27229544361E+03  0.27856085712E+03  0.00000000000E+00 0.  1.
         21    1    1    2  505  501  0.61939267033E+02  0.77112338975E+02  0.13587344151E+04  0.13623296211E+04  0.00000000000E+00 0.  1.
         -1    1    1    2    0  503 -0.10728563643E+02 -0.88590351377E+02 -0.34574712973E+03  0.35707762482E+03  0.00000000000E+00 0.  1.
<scales pt_clust_3="14000.00000" pt_clust_4="58.74813" pt_clust_5="140.12008" pt_clust_6="89.22410"></scales>
<clustering>
<clus scale="   58.748">  1  4  2 -1</clus>
<clus scale="   89.224">  2  6  1 -1</clus>
<clus scale="  140.120">  1  5  2 -1</clus>
<clus scale="   58.748">  1  3  2 -1</clus>
</clustering>
</event>
<event>
 6    0  0.2839294E+002  0.1168742E+03  0.7546771E-02  0.1248345E+00
         21   -1    0    0  505  502  0.00000000000E+00  0.00000000000E+00  0.22434022480E+03  0.22434022480E+03  0.00000000000E+00 0. -1.
         -1   -1    0    0    0  501 -0.00000000000E+00 -0.00000000000E+00 -0.10485989130E+04  0.10485989130E+04  0.00000000000E+00 0.  1.
         21    1    1    2  503  502  0.82548292804E+02 -0.10473742431E+03  0.19172146225E+03  0.23354071976E+03  0.00000000000E+00 0. -1.
         21    1    1    2  504  503 -0.30762861978E+02  0.38531633527E+02 -0.26760118256E+03  0.27210555557E+03  0.00000000000E+00 0. -1.
         21    1    1    2  505  501 -0.52099981921E+01  0.31813250988E+02 -0.22985295874E+02  0.39592307915E+02  0.00000000000E+00 0. -1.
         -1    1    1    2    0  504 -0.46575432633E+02  0.34392539792E+02 -0.72539367206E+03  0.72770055461E+03  0.00000000000E+00 0.  1.
<scales pt_clust_3="106.70170" pt_clust_4="44.09311" pt_clust_5="32.23704" pt_clust_6="44.09311"></scales>
<clustering>
<clus scale="   32.237">  1  5  2 -1</clus>
<clus scale="   44.093">  4  6 -1 -1</clus>
<clus scale="  106.702">  1  3  2 -1</clus>
<clus scale="   32.237">  1  3  2 -1</clus>
</clustering>
</event>
<event>
 6    0  0.2839294E+002  0.8016470E+02  0.7546771E-02  0.1328585E+00
         -1   -1    0    0    0  501 -0.00000000000E+00  0.00000000000E+00  0.64825827207E+03  0.64825827207E+03  0.00000000000E+00 0. -1.
         21   -1    0    0  504  502  0.00000000000E+00 -0.00000000000E+00 -0.34568582520E+03  0.34568582520E+03  0.00000000000E+00 0.  1.
         21    1    1    2  503  501 -0.21209367600E+02 -0.28750073336E+02  0.74406749810E+02  0.82539496049E+02  0.00000000000E+00 0. -1.
         21    1    1    2  504  503  0.38770919022E+02  0.13950009601E+03 -0.15326373637E+01  0.14479575245E+03  0.00000000000E+00 0.  1.
         21    1    1    2  505  502  0.34274691199E+01 -0.72358878487E+02 -0.26258041383E+03  0.27238947955E+03  0.00000000000E+00 0.  1.
         -1    1    1    2    0  505 -0.20989020542E+02 -0.38391144188E+02  0.49227874826E+03  0.49421936923E+03  0.00000000000E+00 0. -1.
<scales pt_clust_3="35.72680" pt_clust_4="14000.00000" pt_clust_5="72.67882" pt_clust_6="80.16470"></scales>
<clustering>
<clus scale="   35.727">  1  3  2 -1</clus>
<clus scale="   72.679">  2  5  1 -1</clus>
<clus scale="   80.165">  1  6  2 -1</clus>
<clus scale="   72.679">  2  3  1 -1</clus>
</clustering>
</event>
<event>
 6    0  0.2839294E+002  0.1073345E+03  0.7546771E-02  0.1265587E+00
         21   -1    0    0  503  502  0.00000000000E+00  0.00000000000E+00  0.76836456344E+03  0.76836456344E+03  0.00000000000E+00 0.  1.
          2   -1    0    0  504    0 -0.00000000000E+00 -0.00000000000E+00 -0.22512257495E+04  0.22512257495E+04  0.00000000000E+00 0.  1.
         21    1    1    2  503  501 -0.26967915233E+02 -0.45291468387E+02  0.60146603710E+02  0.79976243339E+02  0.00000000000E+00 0. -1.
         21    1    1    2  504  505  0.99410365146E+02  0.10470916160E+03 -0.22789154075E+03  0.26977950917E+03  0.00000000000E+00 0. -1.
         21    1    1    2  505  502  0.30362707280E+02 -0.32803267178E+02  0.67520470586E+03  0.67668260148E+03  0.00000000000E+00 0.  1.
          2    1    1    2  501    0 -0.10280515719E+03 -0.26614426032E+02 -0.19903209549E+04  0.19931519589E+04  0.00000000000E+00 0.  1.
<scales pt_clust_3="70.26976" pt_clust_4="107.33446" pt_clust_5="44.69842" pt_clust_6="14000.00000"></scales>
<clustering>
<clus scale="   44.698">  1  5  2 -1</clus>
<clus scale="   70.270">  1  3  2 -1</clus>
<clus scale="  107.334">  1  4  2 -1</clus>
<clus scale="   44.698">  1  3  2 -1</clus>
</clustering>
</event>
<event>
 6    0  0.2839294E+002  0.8733215E+02  0.7546771E-02  0.1309444E+00
         -1   -1    0    0    0  501 -0.00000000000E+00  0.00000000000E+00  0.14888923317E+04  0.14888923317E+04  0.00000000000E+00 0.  1.
         21   -1    0    0  503  502  0.00000000000E+00 -0.00000000000E+00 -0.22730381087E+03  0.22730381087E+03  0.00000000000E+00 0. -1.
         21    1    1    2  503  504 -0.69757485846E+02  0.53297231475E+02 -0.19507869553E+03  0.21392147897E+03  0.00000000000E+00 0. -1.
         21    1    1    2  504  505  0.51370131765E+02  0.58055924354E+02  0.56873771946E+02  0.96145757710E+02  0.00000000000E+00 0. -1.
         21    1    1    2  505  501 -0.53370156284E+00 -0.35838837445E+02  0.86043778532E+03  0.86118400445E+03  0.00000000000E+00 0.  1.
         -1    1    1    2    0  502  0.18921055644E+02 -0.75514318384E+02  0.53935565907E+03  0.54494490143E+03  0.00000000000E+00 0.  1.
<scales pt_clust_3="14000.00000" pt_clust_4="74.26207" pt_clust_5="35.84281" pt_clust_6="87.33215"></scales>
<clustering>
<clus scale="   35.843">  1  5  2 -1</clus>
<clus scale="   74.262">  1  4  2 -1</clus>
<clus scale="   87.332">  1  6  2 -1</clus>
<clus scale="   87.332">  2  3  1 -1</clus>
</clustering>
</event>
<event>
 6    0  0.2839294E+002  0.1196032E+03  0.7546771E-02  0.1243753E+00
         -3   -1    0    0    0  501 -0.00000000000E+00  0.00000000000E+00  0.35744777866E+03  0.35744777866E+03  0.00000000000E+00 0.  1.
         21   -1    0    0  503  502  0.00000000000E+00 -0.00000000000E+00 -0.33559451309E+03  0.33559451309E+03  0.00000000000E+00 0.  1.
         21    1    1    2  503  504 -0.11139011073E+02  0.29635103307E+02 -0.17361932429E+01  0.31706959531E+02  0.00000000000E+00 0.  1.
         21    1    1    2  504  501 -0.53085898101E+02 -0.46958130728E+02  0.55216006280E+02  0.89844231691E+02  0.00000000000E+00 0. -1.
         21    1    1    2  505  502  0.13482251938E+03 -0.29736446645E+02 -0.27828360737E+03  0.31064953585E+03  0.00000000000E+00 0.  1.
         -3    1    1    2    0  505 -0.70597610204E+02  0.47059474066E+02  0.24665705990E+03  0.26084156468E+03  0.00000000000E+00 0.  1.
<scales pt_clust_3="31.65939" pt_clust_4="70.27963" pt_clust_5="119.60316" pt_clust_6="14000.00000"></scales>
<clustering>
<clus scale="   31.659">  2  3  1 -1</clus>
<clus scale="   70.280">  1  4  2 -1</clus>
<clus scale="  119.603">  2  5  1 -1</clus>
<clus scale="   31.659">  2  3  1 -1</clus>
</clustering>
</event>
<event>
 6    0  0.2839294E+002  0.1169074E+03  0.7546771E-02  0.1248288E+00
          2   -1    0    0  503    0 -0.00000000000E+00  0.00000000000E+00  0.10638006518E+04  0.10638006518E+04  0.00000000000E+00 0.  1.
         21   -1    0    0  505  502  0.00000000000E+00 -0.00000000000E+00 -0.17353031531E+04  0.17353031531E+04  0.00000000000E+00 0. -1.
         21    1    1    2  503  504 -0.53042051902E+02  0.32487240784E+01  0.52952348596E+02  0.75019762062E+02  0.00000000000E+00 0.  1.
         21    1    1    2  504  502 -0.92284645186E+02 -0.10995682444E+03 -0.16162447874E+04  0.16226072142E+04  0.00000000000E+00 0. -1.
         21    1    1    2  505  501  0.39472173006E+02  0.60708942946E+01 -0.95462070159E+02  0.10347905604E+03  0.00000000000E+00 0. -1.
          2    1    1    2  501    0  0.10585452408E+03  0.10063720607E+03  0.98725200763E+03  0.99799777258E+03  0.00000000000E+00 0.  1.
<scales pt_clust_3="52.87824" pt_clust_4="116.90736" pt_clust_5="39.93630" pt_clust_6="14000.00000"></scales>
<clustering>
<clus scale="   39.936">  2  5  1 -1</clus>
<clus scale="   52.878">  1  3  2 -1</clus>
<clus scale="  116.907">  2  4  1 -1</clus>
<clus scale="   39.936">  2  3  1 -1</clus>
</clustering>
</event>
<event>
 6    0  0.2839294E+002  0.4257392E+03  0.7546771E-02  0.1035214E+00
         21   -1    0    0  504  502  0.00000000000E+00  0.00000000000E+00  0.94656939979E+03  0.94656939979E+03  0.00000000000E+00 0.  1.
          2   -1    0    0  503    0 -0.00000000000E+00 -0.00000000000E+00 -0.18610424275E+04  0.18610424275E+04  0.00000000000E+00 0. -1.
         21    1    1    2  503  502 -0.31389880060E+02  0.78171203627E+00 -0.82884508190E+01  0.32475129882E+02  0.00000000000E+00 0. -1.
         21    1    1    2  504  505 -0.33013526340E+02 -0.51299499723E+02  0.32550238610E+03  0.33116964679E+03  0.00000000000E+00 0.  1.
         21    1    1    2  505  501  0.27445600023E+03 -0.32037692217E+03  0.50368565135E+03  0.65701347300E+03  0.00000000000E+00 0.  1.
          2    1    1    2  501    0 -0.21005259383E+03  0.37089470986E+03 -0.17353726144E+04  0.17869535777E+04  0.00000000000E+00 0. -1.
<scales pt_clust_3="31.39961" pt_clust_4="67.40391" pt_clust_5="14000.00000" pt_clust_6="425.73920"></scales>
<clustering>
<clus scale="   31.400">  1  3  2 -1</clus>
<clus scale="   67.404">  1  4  2 -1</clus>
<clus scale="  425.739">  2  6  1 -1</clus>
<clus scale="   31.400">  1  3  2 -1</clus>
</clustering>
</event>
<event>
 6    0  0.2839294E+002  0.8378707E+02  0.7546771E-02  0.1318635E+00
         21   -1    0    0  503  502  0.00000000000E+00  0.00000000000E+00  0.10038260145E+04  0.10038260145E+04  0.00000000000E+00 0. -1.
          2   -1    0    0  504    0 -0.00000000000E+00 -0.00000000000E+00 -0.10215352548E+04  0.10215352548E+04  0.00000000000E+00 0. -1.
         21    1    1    2  503  501 -0.11837477145E+03  0.46182327735E+02  0.54536969752E+03  0.55997633957E+03  0.00000000000E+00 0. -1.
         21    1    1    2  504  505  0.31093744110E+02  0.90287459207E+01 -0.75092400109E+02  0.81775349157E+02  0.00000000000E+00 0. -1.
         21    1    1    2  505  502  0.57557123310E+02 -0.37568186031E+02  0.44485216724E+03  0.45013069407E+03  0.00000000000E+00 0. -1.
          2    1    1    2  501    0  0.29723904033E+02 -0.17642887625E+02 -0.93283870502E+03  0.93347888650E+03  0.00000000000E+00 0. -1.
<scales pt_clust_3="83.78707" pt_clust_4="32.37807" pt_clust_5="14000.00000" pt_clust_6="61.11361"></scales>
<clustering>
<clus scale="   32.378">  2  4  1 -1</clus>
<clus scale="   61.114">  2  6  1 -1</clus>
<clus scale="   83.787">  2  3  1 -1</clus>
<clus scale="   83.787">  1  3  2 -1</clus>
</clustering>
</event>
<event>
 6    0  0.2839294E+002  0.2073573E+03  0.7546771E-02  0.1143676E+00
          2   -1    0    0  503    0 -0.00000000000E+00  0.00000000000E+00  0.73796534402E+03  0.73796534402E+03  0.00000000000E+00 0. -1.
         21   -1    0    0  504  502  0.00000000000E+00 -0.00000000000E+00 -0.10704548006E+04  0.10704548006E+04  0.00000000000E+00 0.  1.
         21    1    1    2  503  502 -0.66218458862E+02 -0.24281669628E+02  0.92810506475E+02  0.11656875176E+03  0.00000000000E+00 0. -1.
         21    1    1    2  504  505  0.72672491430E+01 -0.47543267017E+02 -0.19040998478E+03  0.19639026823E+03  0.00000000000E+00 0.  1.
         21    1    1    2  505  501  0.18647791773E+03  0.12572212463E+03 -0.84264223772E+03  0.87213875456E+03  0.00000000000E+00 0.  1.
          2    1    1    2  501    0 -0.12752670801E+03 -0.53897187987E+02  0.60775225946E+03  0.62332237006E+03  0.00000000000E+00 0. -1.
<scales pt_clust_3="70.66218" pt_clust_4="48.09548" pt_clust_5="14000.00000" pt_clust_6="207.35733"></scales>
<clustering>
<clus scale="   48.095">  2  4  1 -1</clus>
<clus scale="   70.662">  1  3  2 -1</clus>
<clus scale="  207.357">  1  6  2 -1</clus>
<clus scale="   48.095">  2  3  1 -1</clus>
</clustering>
</event>
<event>
 6    0  0.2839294E+002  0.1751685E+03  0.7546771E-02  0.1172563E+00
         -2   -1    0    0    0  501 -0.00000000000E+00  0.00000000000E+00  0.10767710409E+04  0.10767710409E+04  0.00000000000E+00 0. -1.
         21   -1    0    0  503  502  0.00000000000E+00 -0.00000000000E+00 -0.55992106751E+03  0.55992106751E+03  0.00000000000E+00 0. -1.
         21    1    1    2  503  505  0.16410797724E+02  0.77424950144E+02 -0.36460489633E+03  0.37309605682E+03  0.00000000000E+00 0. -1.
         21    1    1    2  504  502  0.81339703047E+01 -0.98886020429E+02 -0.14566900904E+03  0.17625001193E+03  0.00000000000E+00 0.  1.
         21    1    1    2  505  501 -0.48445576864E+02 -0.15928669944E+03  0.37670162422E+03  0.41185354221E+03  0.00000000000E+00 0.  1.
         -2    1    1    2    0  504  0.23900808835E+02  0.18074776973E+03  0.65042225453E+03  0.67549249745E+03  0.00000000000E+00 0. -1.
<scales pt_clust_3="79.14504" pt_clust_4="40.19139" pt_clust_5="175.16850" pt_clust_6="14000.00000"></scales>
<clustering>
<clus scale="   79.145">  2  3  1 -1</clus>
<clus scale="   40.191">  2  4  1 -1</clus>
<clus scale="  175.168">  2  5  1 -1</clus>
<clus scale="   79.145">  2  3  1 -1</clus>
</clustering>
</event>
<event>
 6    0  0.2839294E+002  0.8844201E+02  0.7546771E-02  0.1306669E+00
         21   -1    0    0  505  502  0.00000000000E+00  0.00000000000E+00  0.61428241171E+03  0.61428241171E+03  0.00000000000E+00 0. -1.
          2   -1    0    0  504    0 -0.00000000000E+00 -0.00000000000E+00 -0.15524755957E+04  0.15524755957E+04  0.00000000000E+00 0.  1.
         21    1    1    2  503  502 -0.69498058697E+02 -0.49934540392E+02  0.45213298830E+03  0.46016049113E+03  0.00000000000E+00 0. -1.
         21    1    1    2  504  503  0.36873868382E+02 -0.22996961155E+02 -0.47211222375E+03  0.47410810392E+03  0.00000000000E+00 0.  1.
         21    1    1    2  505  501  0.57688134523E+02  0.91144739580E+02  0.13837257942E+03  0.17544872514E+03  0.00000000000E+00 0.  1.
          2    1    1    2  501    0 -0.25063944208E+02 -0.18213238034E+02 -0.10565865280E+04  0.10570406872E+04  0.00000000000E+00 0.  1.
<scales pt_clust_3="88.44201" pt_clust_4="42.40728" pt_clust_5="14000.00000" pt_clust_6="30.98263"></scales>
<clustering>
<clus scale="   30.983">  2  6  1 -1</clus>
<clus scale="   42.407">  2  4  1 -1</clus>
<clus scale="   88.442">  1  3  2 -1</clus>
<clus scale="   88.442">  1  3  2 -1</clus>
</clustering>
</event>
<event>
 6    0  0.2839294E+002  0.1987676E+03  0.7546771E-02  0.1150783E+00
          1   -1    0    0  505    0 -0.00000000000E+00  0.00000000000E+00  0.34241018959E+04  0.34241018959E+04  0.00000000000E+00 0. -1.
         21   -1    0    0  504  502  0.00000000000E+00 -0.00000000000E+00 -0.25781597912E+02  0.25781597912E+02  0.00000000000E+00 0. -1.
         21    1    1    2  503  502 -0.26247900763E+02  0.41095301567E+02  0.59542185553E+02  0.76961340722E+02  0.00000000000E+00 0. -1.
         21    1    1    2  504  501  0.25399394786E+02 -0.21601670916E+03  0.11145776231E+04  0.11356018782E+04  0.00000000000E+00 0. -1.
         21    1    1    2  505  503 -0.27709279181E+02  0.20008198876E+03  0.17572193692E+04  0.17687906936E+04  0.00000000000E+00 0. -1.
          1    1    1    2  501    0  0.28557785158E+02 -0.25160581164E+02  0.46698112014E+03  0.46852958124E+03  0.00000000000E+00 0. -1.
<scales pt_clust_3="47.91864" pt_clust_4="198.76764" pt_clust_5="14000.00000" pt_clust_6="38.06050"></scales>
<clustering>
<clus scale="   38.061">  1  6  2 -1</clus>
<clus scale="   47.919">  2  3  1 -1</clus>
<clus scale="  198.768">  2  4  1 -1</clus>
<clus scale="   47.919">  2  3  1 -1</clus>
</clustering>
</event>
<event>
 6    0  0.2839294E+002  0.1211731E+03  0.7546771E-02  0.1241174E+00
          2   -1    0    0  504    0 -0.00000000000E+00  0.00000000000E+00  0.13085346192E+04  0.13085346192E+04  0.00000000000E+00 0.  1.
         21   -1    0    0  505  502  0.00000000000E+00 -0.00000000000E+00 -0.17249088169E+03  0.17249088169E+03  0.00000000000E+00 0. -1.
         21    1    1    2  503  501  0.12880175273E+02  0.17520511999E+03  0.84849403858E+02  0.19509524423E+03  0.00000000000E+00 0. -1.
         21    1    1    2  504  502  0.56776267757E+02 -0.14189531123E+02  0.36170442503E+03  0.36640821287E+03  0.00000000000E+00 0.  1.
         21    1    1    2  505  503 -0.76171215562E+02 -0.68144591029E+02 -0.88976424076E+02  0.13550846250E+03  0.00000000000E+00 0. -1.
          2    1    1    2  501    0  0.65147725321E+01 -0.92870997839E+02  0.77846633269E+03  0.78401358128E+03  0.00000000000E+00 0.  1.
<scales pt_clust_3="121.17306" pt_clust_4="58.52254" pt_clust_5="101.40211" pt_clust_6="14000.00000"></scales>
<clustering>
<clus scale="   58.523">  1  4  2 -1</clus>
<clus scale="  101.402">  2  5  1 -1</clus>
<clus scale="  121.173">  2  3  1 -1</clus>
<clus scale="  101.402">  2  3  1 -1</clus>
</clustering>
</event>
<event>
 6    0  0.2839294E+002  0.1210358E+03  0.7546771E-02  0.1241398E+00
         21   -1    0    0  501  502  0.00000000000E+00  0.00000000000E+00  0.68457556916E+02  0.68457556916E+02  0.00000000000E+00 0.  1.
          1   -1    0    0  504    0 -0.00000000000E+00 -0.00000000000E+00 -0.79309405123E+03  0.79309405123E+03  0.00000000000E+00 0. -1.
         21    1    1    2  503  505  0.13200486443E+03  0.64490612401E+02 -0.11106562765E+03  0.18417355122E+03  0.00000000000E+00 0.  1.
         21    1    1    2  504  503 -0.20916017291E+02 -0.30385960137E+02 -0.91052228013E+02  0.98241002534E+02  0.00000000000E+00 0. -1.
         21    1    1    2  505  502 -0.78836322262E+01 -0.59633539192E+02 -0.16927537810E+02  0.62488816519E+02  0.00000000000E+00 0.  1.
          1    1    1    2  501    0 -0.10320521492E+03  0.25528886928E+02 -0.50559110084E+03  0.51664823788E+03  0.00000000000E+00 0. -1.
<scales pt_clust_3="14000.00000" pt_clust_4="36.88884" pt_clust_5="62.02816" pt_clust_6="121.03578"></scales>
<clustering>
<clus scale="   36.889">  2  4  1 -1</clus>
<clus scale="   62.028">  1  5  2 -1</clus>
<clus scale="  121.036">  2  6  1 -1</clus>
<clus scale="   62.028">  1  3  2 -1</clus>
</clustering>
</event>
<event>
 6    0  0.2839294E+002  0.1086363E+03  0.7546771E-02  0.1263116E+00
         21   -1    0    0  501  502  0.00000000000E+00  0.00000000000E+00  0.60587964627E+02  0.60587964627E+02  0.00000000000E+00 0.  1.
          2   -1    0    0  505    0 -0.00000000000E+00 -0.00000000000E+00 -0.27976088975E+04  0.27976088975E+04  0.00000000000E+00 0.  1.
         21    1    1    2  503  502 -0.50583086637E+02  0.26332874120E+02 -0.17996604061E+02  0.59799219651E+02  0.00000000000E+00 0.  1.
         21    1    1    2  504  503 -0.29104894859E+02  0.32905673231E+02  0.23078787277E+02  0.49623670337E+02  0.00000000000E+00 0.  1.
         21    1    1    2  505  504  0.64583590633E+02  0.33246602626E+02 -0.56434501342E+03  0.56900058957E+03  0.00000000000E+00 0.  1.
          2    1    1    2  501    0  0.15104390863E+02 -0.92485149977E+02 -0.21777581027E+04  0.21797733826E+04  0.00000000000E+00 0.  1.
<scales pt_clust_3="40.10740" pt_clust_4="40.10740" pt_clust_5="72.63867" pt_clust_6="98.55798"></scales>
<clustering>
<clus scale="   40.107">  3  4 -1 -1</clus>
<clus scale="   72.639">  2  5  1 -1</clus>
<clus scale="   98.558">  2  6  1 -1</clus>
<clus scale="  108.636">  1  3  2 -1</clus>
</clustering>
</event>
<event>
 6    0  0.2839294E+002  0.1235506E+03  0.7546771E-02  0.1237352E+00
         21   -1    0    0  501  502  0.00000000000E+00  0.00000000000E+00  0.49829335922E+03  0.49829335922E+03  0.00000000000E+00 0. -1.
          1   -1    0    0  504    0 -0.00000000000E+00 -0.00000000000E+00 -0.87635734469E+03  0.87635734469E+03  0.00000000000E+00 0. -1.
         21    1    1    2  503  502  0.16217224165E+02  0.12405131792E+03  0.46612967040E+03  0.48262676828E+03  0.00000000000E+00 0. -1.
         21    1    1    2  504  505  0.27510423727E+02 -0.47902183619E+02 -0.20227826762E+02  0.58826929077E+02  0.00000000000E+00 0.  1.
         21    1    1    2  505  503 -0.61449991144E+02 -0.20021901782E+02 -0.45453783730E+03  0.45910959858E+03  0.00000000000E+00 0.  1.
          1    1    1    2  501    0  0.17722343253E+02 -0.56127232518E+02 -0.36942799180E+03  0.37408740797E+03  0.00000000000E+00 0. -1.
<scales pt_clust_3="123.55060" pt_clust_4="55.23986" pt_clust_5="65.48097" pt_clust_6="14000.00000"></scales>
<clustering>
<clus scale="   55.240">  2  4  1 -1</clus>
<clus scale="   65.481">  2  5  1 -1</clus>
<clus scale="  123.551">  1  3  2 -1</clus>
<clus scale="  123.551">  1  3  2 -1</clus>
</clustering>
</event>
<event>
 6    0  0.2839294E+002  0.1494393E+03  0.7546771E-02  0.1201164E+00
          1   -1    0    0  505    0 -0.00000000000E+00  0.00000000000E+00  0.10678065606E+04  0.10678065606E+04  0.00000000000E+00 0. -1.
         21   -1    0    0  501  502  0.00000000000E+00 -0.00000000000E+00 -0.30077359990E+03  0.30077359990E+03  0.00000000000E+00 0. -1.
         21    1    1    2  503  502  0.84282024241E+02 -0.30989471087E+02 -0.14132408446E+03  0.16744044845E+03  0.00000000000E+00 0. -1.
         21    1    1    2  504  503  0.28770270646E+02 -0.51598107789E+02 -0.13301109832E+03  0.14554052864E+03  0.00000000000E+00 0. -1.
         21    1    1    2  505  504 -0.58668091722E+02  0.20846410417E+02  0.18310003276E+03  0.19339632833E+03  0.00000000000E+00 0. -1.
          1    1    1    2  501    0 -0.54384203165E+02  0.61741168459E+02  0.85826811071E+03  0.86220285508E+03  0.00000000000E+00 0. -1.
<scales pt_clust_3="45.12930" pt_clust_4="45.12930" pt_clust_5="62.26169" pt_clust_6="138.69512"></scales>
<clustering>
<clus scale="   45.129">  3  4 -1 -1</clus>
<clus scale="   62.262">  1  5  2 -1</clus>
<clus scale="  138.695">  1  6  2 -1</clus>
<clus scale="  149.439">  2  3  1 -1</clus>
</clustering>
</event>
<event>
 6    0  0.2839294E+002  0.1164661E+03  0.7546771E-02  0.1249043E+00
         21   -1    0    0  504  502  0.00000000000E+00  0.00000000000E+00  0.12152389486E+03  0.12152389486E+03  0.00000000000E+00 0.  1.
         -1   -1    0    0    0  501 -0.00000000000E+00 -0.00000000000E+00 -0.55783874666E+03  0.55783874666E+03  0.00000000000E+00 0.  1.
         21    1    1    2  503  505 -0.98977557645E+02 -0.29192123558E+02 -0.17347186885E+03  0.20184455970E+03  0.00000000000E+00 0.  1.
         21    1    1    2  504  501  0.44108816112E+02 -0.46080620037E+02  0.43973609399E+02  0.77477025791E+02  0.00000000000E+00 0.  1.
         21    1    1    2  505  502  0.99371440538E+02  0.44237203622E+02 -0.23120300088E+02  0.11120324480E+03  0.00000000000E+00 0.  1.
         -1    1    1    2    0  503 -0.44502699004E+02  0.31035539973E+02 -0.28369629225E+03  0.28883781123E+03  0.00000000000E+00 0.  1.
<scales pt_clust_3="14000.00000" pt_clust_4="60.51124" pt_clust_5="116.46613" pt_clust_6="54.25583"></scales>
<clustering>
<clus scale="   54.256">  2  6  1 -1</clus>
<clus scale="   60.511">  1  4  2 -1</clus>
<clus scale="  116.466">  1  5  2 -1</clus>
<clus scale="   60.511">  1  3  2 -1</clus>
</clustering>
</event>
<event>
 6    0  0.2839294E+002  0.1262270E+03  0.7546771E-02  0.1233164E+00
          2   -1    0    0  505    0 -0.00000000000E+00  0.00000000000E+00  0.98557003092E+03  0.98557003092E+03  0.00000000000E+00 0.  1.
         21   -1    0    0  504  502  0.00000000000E+00 -0.00000000000E+00 -0.40617398285E+03  0.40617398285E+03  0.00000000000E+00 0. -1.
         21    1    1    2  503  502  0.66568491461E+02  0.15182732808E+03 -0.19121535265E+02  0.16687880248E+03  0.00000000000E+00 0. -1.
         21    1    1    2  504  501 -0.31791167305E+02 -0.34592764610E+02 -0.29879486456E+03  0.30246604564E+03  0.00000000000E+00 0. -1.
         21    1    1    2  505  503  0.47876154695E+02 -0.32871096572E+02  0.94300940465E+02  0.11074882641E+03  0.00000000000E+00 0. -1.
          2    1    1    2  501    0 -0.82653478850E+02 -0.84363466894E+02  0.80301150743E+03  0.81165033924E+03  0.00000000000E+00 0.  1.
<scales pt_clust_3="126.22705" pt_clust_4="46.98231" pt_clust_5="57.67190" pt_clust_6="14000.00000"></scales>
<clustering>
<clus scale="   46.982">  2  4  1 -1</clus>
<clus scale="   57.672">  1  5  2 -1</clus>
<clus scale="  126.227">  2  3  1 -1</clus>
<clus scale="   46.982">  2  3  1 -1</clus>
</clustering>
</event>
<event>
 6    0  0.2839294E+002  0.2149375E+03  0.7546771E-02  0.1137715E+00
         21   -1    0    0  504  502  0.00000000000E+00  0.00000000000E+00  0.96222890590E+03  0.96222890590E+03  0.00000000000E+00 0.  1.
          2   -1    0    0  502    0 -0.00000000000E+00 -0.00000000000E+00 -0.21022547507E+04  0.21022547507E+04  0.00000000000E+00 0. -1.
         21    1    1    2  503  501 -0.14174239415E+03 -0.90246809139E+02 -0.23758454419E+03  0.29100138917E+03  0.00000000000E+00 0. -1.
         21    1    1    2  504  505  0.25348805938E+02 -0.16390968581E+02  0.58653455263E+03  0.58731082677E+03  0.00000000000E+00 0.  1.
         21    1    1    2  505  503 -0.43532057597E+02 -0.56423852476E+02  0.33776829091E+03  0.34520444596E+03  0.00000000000E+00 0.  1.
          2    1    1    2  501    0  0.15992564581E+03  0.16306163020E+03 -0.18267441441E+04  0.18409669947E+04  0.00000000000E+00 0. -1.
<scales pt_clust_3="214.93750" pt_clust_4="30.18652" pt_clust_5="74.21589" pt_clust_6="14000.00000"></scales>
<clustering>
<clus scale="   30.187">  1  4  2 -1</clus>
<clus scale="   74.216">  1  5  2 -1</clus>
<clus scale="  214.937">  1  3  2 -1</clus>
<clus scale="   30.187">  1  3  2 -1</clus>
</clustering>
</event>
<event>
 6    0  0.2839294E+002  0.1187959E+03  0.7546771E-02  0.1245097E+00
          3   -1    0    0  505    0 -0.00000000000E+00  0.00000000000E+00  0.29825416630E+03  0.29825416630E+03  0.00000000000E+00 0. -1.
         21   -1    0    0  501  502  0.00000000000E+00 -0.00000000000E+00 -0.62474248458E+03  0.62474248458E+03  0.00000000000E+00 0. -1.
         21    1    1    2  503  504  0.21690258304E+00  0.84021730519E+02  0.73409740902E+01  0.84342090007E+02  0.00000000000E+00 0.  1.
         21    1    1    2  504  502 -0.92397402960E+01 -0.12353197395E+03 -0.56934788853E+03  0.58266846453E+03  0.00000000000E+00 0. -1.
         21    1    1    2  505  503 -0.21217070795E+02 -0.21914421928E+02  0.93019691240E+02  0.97893150628E+02  0.00000000000E+00 0. -1.
          3    1    1    2  501    0  0.30239908508E+02  0.61424665356E+02  0.14249890492E+03  0.15809294572E+03  0.00000000000E+00 0. -1.
<scales pt_clust_3="14000.00000" pt_clust_4="118.79591" pt_clust_5="30.50256" pt_clust_6="47.45802"></scales>
<clustering>
<clus scale="   30.503">  1  5  2 -1</clus>
<clus scale="   47.458">  1  6  2 -1</clus>
<clus scale="  118.796">  2  4  1 -1</clus>
<clus scale="  118.796">  2  3  1 -1</clus>
</clustering>
</event>
<event>
 6    0  0.2839294E+002  0.1164282E+03  0.7546771E-02  0.1249109E+00
         21   -1    0    0  504  502  0.00000000000E+00  0.00000000000E+00  0.42467308754E+02  0.42467308754E+02  0.00000000000E+00 0.  1.
          2   -1    0    0  505    0 -0.00000000000E+00 -0.00000000000E+00 -0.22134402061E+04  0.22134402061E+04  0.00000000000E+00 0. -1.
         21    1    1    2  503  502 -0.44913332528E+02  0.33829719827E+02 -0.52058885025E+02  0.76627572664E+02  0.00000000000E+00 0.  1.
         21    1    1    2  504  501  0.54272504617E+02  0.88120082110E+02 -0.70280774833E+02  0.12510012366E+03  0.00000000000E+00 0.  1.
         21    1    1    2  505  503 -0.27690159619E+02 -0.28175711819E+02 -0.25877499240E+03  0.26177301688E+03  0.00000000000E+00 0.  1.
          2    1    1    2  501    0  0.18330987531E+02 -0.93774090119E+02 -0.17898582451E+04  0.17924068017E+04  0.00000000000E+00 0. -1.
<scales pt_clust_3="56.41356" pt_clust_4="14000.00000" pt_clust_5="39.50463" pt_clust_6="116.42815"></scales>
<clustering>
<clus scale="   39.505">  2  5  1 -1</clus>
<clus scale="   56.414">  1  3  2 -1</clus>
<clus scale="  116.428">  2  6  1 -1</clus>
<clus scale="   56.414">  1  3  2 -1</clus>
</clustering>
</event>
<event>
 6    0  0.2839294E+002  0.1315680E+03  0.7546771E-02  0.1225148E+00
          2   -1    0    0  503    0 -0.00000000000E+00  0.00000000000E+00  0.83529672616E+03  0.83529672616E+03  0.00000000000E+00 0. -1.
         21   -1    0    0  505  502  0.00000000000E+00 -0.00000000000E+00 -0.13728382593E+03  0.13728382593E+03  0.00000000000E+00 0.  1.
         21    1    1    2  503  502  0.43253410506E+02  0.95543585851E+00 -0.11058046897E+03  0.11874262291E+03  0.00000000000E+00 0.  1.
         21    1    1    2  504  501 -0.41389095921E+02 -0.58463369096E+02  0.25607534625E+03  0.26590525709E+03  0.00000000000E+00 0. -1.
         21    1    1    2  505  504 -0.11574759398E+02  0.11583908859E+03  0.20787550616E+03  0.23825384689E+03  0.00000000000E+00 0. -1.
          2    1    1    2  501    0  0.97104448124E+01 -0.58331155349E+02  0.34464251678E+03  0.34967882520E+03  0.00000000000E+00 0. -1.
<scales pt_clust_3="43.26396" pt_clust_4="55.70979" pt_clust_5="117.78291" pt_clust_6="55.70979"></scales>
<clustering>
<clus scale="   43.264">  2  3  1 -1</clus>
<clus scale="   55.710">  4  6 -1 -1</clus>
<clus scale="  117.783">  2  5  1 -1</clus>
<clus scale="   43.264">  2  3  1 -1</clus>
</clustering>
</event>
<event>
 6    0  0.2839294E+002  0.1227985E+03  0.7546771E-02  0.1238550E+00
          1   -1    0    0  504    0 -0.00000000000E+00  0.00000000000E+00  0.48573797975E+03  0.48573797975E+03  0.00000000000E+00 0. -1.
         21   -1    0    0  501  502  0.00000000000E+00 -0.00000000000E+00 -0.13616702028E+04  0.13616702028E+04  0.00000000000E+00 0. -1.
         21    1    1    2  503  502 -0.10907154675E+03 -0.77439807253E+02 -0.11734603678E+04  0.11810600158E+04  0.00000000000E+00 0. -1.
         21    1    1    2  504  505  0.12358819470E+02  0.29081290349E+02  0.30934470296E+02  0.44219942555E+02  0.00000000000E+00 0.  1.
         21    1    1    2  505  503  0.63051391376E+02  0.65036825265E+02 -0.16535952706E+03  0.18854452998E+03  0.00000000000E+00 0.  1.
          1    1    1    2  501    0  0.33661335901E+02 -0.16678308362E+02  0.43195320158E+03  0.43358369418E+03  0.00000000000E+00 0. -1.
<scales pt_clust_3="14000.00000" pt_clust_4="31.59845" pt_clust_5="122.79852" pt_clust_6="47.00023"></scales>
<clustering>
<clus scale="   31.598">  1  4  2 -1</clus>
<clus scale="   47.000">  1  6  2 -1</clus>
<clus scale="  122.799">  1  5  2 -1</clus>
<clus scale="  122.799">  2  3  1 -1</clus>
</clustering>
</event>
<event>
 6    0  0.2839294E+002  0.9950982E+02  0.7546771E-02  0.1281330E+00
         21   -1    0    0  504  502  0.00000000000E+00  0.00000000000E+00  0.17478109171E+03  0.17478109171E+03  0.00000000000E+00 0. -1.
          4   -1    0    0  503    0 -0.00000000000E+00 -0.00000000000E+00 -0.99231477077E+03  0.99231477077E+03  0.00000000000E+00 0. -1.
         21    1    1    2  503  505  0.54143616931E+02  0.38323020172E+02 -0.31562244319E+03  0.32251776971E+03  0.00000000000E+00 0. -1.
         21    1    1    2  504  501 -0.23941955345E+02 -0.99735339382E+02  0.83793421175E+02  0.13244505495E+03  0.00000000000E+00 0. -1.
         21    1    1    2  505  502 -0.32509975437E+02  0.12858813459E+02  0.57392062680E+02  0.67201908047E+02  0.00000000000E+00 0. -1.
          4    1    1    2  501    0  0.23083138520E+01  0.48553505751E+02 -0.64309671972E+03  0.64493112977E+03  0.00000000000E+00 0. -1.
<scales pt_clust_3="99.50982" pt_clust_4="14000.00000" pt_clust_5="34.96066" pt_clust_6="48.70124"></scales>
<clustering>
<clus scale="   34.961">  1  5  2 -1</clus>
<clus scale="   48.701">  2  6  1 -1</clus>
<clus scale="   99.510">  2  3  1 -1</clus>
<clus scale="   34.961">  1  3  2 -1</clus>
</clustering>
</event>
<event>
 6    0  0.2839294E+002  0.1570025E+03  0.7546771E-02  0.1192123E+00
          2   -1    0    0  503    0 -0.00000000000E+00  0.00000000000E+00  0.20623252854E+04  0.20623252854E+04  0.00000000000E+00 0.  1.
         21   -1    0    0  505  502  0.00000000000E+00 -0.00000000000E+00 -0.88004786287E+02  0.88004786287E+02  0.00000000000E+00 0. -1.
         21    1    1    2  503  504  0.73744062739E+02 -0.34636884569E+02  0.11179554331E+03  0.13833345244E+03  0.00000000000E+00 0. -1.
         21    1    1    2  504  502  0.71691657175E+02 -0.23249147776E+02 -0.50827589165E+02  0.90904677554E+02  0.00000000000E+00 0. -1.
         21    1    1    2  505  501 -0.39239377041E+02  0.29693594884E+02  0.30061251527E+03  0.30461339863E+03  0.00000000000E+00 0. -1.
          2    1    1    2  501    0 -0.10619634287E+03  0.28192437462E+02  0.16127400297E+04  0.16164785431E+04  0.00000000000E+00 0.  1.
<scales pt_clust_3="139.55581" pt_clust_4="75.36721" pt_clust_5="48.13713" pt_clust_6="48.13713"></scales>
<clustering>
<clus scale="   48.137">  5  6 -1 -1</clus>
<clus scale="   75.367">  2  4  1 -1</clus>
<clus scale="  139.556">  2  3  1 -1</clus>
<clus scale="   75.367">  2  3  1 -1</clus>
</clustering>
</event>
<event>
 6    0  0.2839294E+002  0.1287646E+03  0.7546771E-02  0.1229300E+00
          2   -1    0    0  503    0 -0.00000000000E+00  0.00000000000E+00  0.26747371579E+04  0.26747371579E+04  0.00000000000E+00 0.  1.
         21   -1    0    0  505  502  0.00000000000E+00 -0.00000000000E+00 -0.23130422997E+03  0.23130422997E+03  0.00000000000E+00 0.  1.
         21    1    1    2  503  504 -0.58197346709E+02  0.48698983059E+02  0.45322522489E+03  0.45953414083E+03  0.00000000000E+00 0. -1.
         21    1    1    2  504  502 -0.44544871669E+02  0.11459782213E+03 -0.59276078020E+02  0.13649380885E+03  0.00000000000E+00 0.  1.
         21    1    1    2  505  501  0.12891989291E+02 -0.13596446832E+03 -0.93153937309E+02  0.16531846863E+03  0.00000000000E+00 0.  1.
          2    1    1    2  501    0  0.89850229087E+02 -0.27332336868E+02  0.21426377184E+04  0.21446949695E+04  0.00000000000E+00 0.  1.
<scales pt_clust_3="75.88493" pt_clust_4="14000.00000" pt_clust_5="128.76464" pt_clust_6="38.97364"></scales>
<clustering>
<clus scale="   75.885">  1  3  2 -1</clus>
<clus scale="   38.974">  1  6  2 -1</clus>
<clus scale="  128.765">  2  5  1 -1</clus>
<clus scale="  128.765">  2  3  1 -1</clus>
</clustering>
</event>
<event>
 6    0  0.2839294E+002  0.7339879E+02  0.7546771E-02  0.1348902E+00
         21   -1    0    0  503  502  0.00000000000E+00  0.00000000000E+00  0.74338816153E+02  0.74338816153E+02  0.00000000000E+00 0. -1.
         -1   -1    0    0    0  501 -0.00000000000E+00 -0.00000000000E+00 -0.40718509055E+03  0.40718509055E+03  0.00000000000E+00 0. -1.
         21    1    1    2  503  505  0.22338348472E+02  0.35080627450E+02 -0.37817620630E+02  0.56212317732E+02  0.00000000000E+00 0. -1.
         21    1    1    2  504  502 -0.38922422146E+02  0.37425179269E+02  0.22475858185E+02  0.58487290843E+02  0.00000000000E+00 0. -1.
         21    1    1    2  505  501  0.38365141069E+02  0.38863483378E+02 -0.18232485740E+03  0.19032763335E+03  0.00000000000E+00 0. -1.
         -1    1    1    2    0  504 -0.21781067395E+02 -0.11136929010E+03 -0.13517965455E+03  0.17649666478E+03  0.00000000000E+00 0. -1.
<scales pt_clust_3="41.58909" pt_clust_4="73.39879" pt_clust_5="57.11005" pt_clust_6="14000.00000"></scales>
<clustering>
<clus scale="   41.589">  1  3  2 -1</clus>
<clus scale="   57.110">  2  5  1 -1</clus>
<clus scale="   73.399">  1  4  2 -1</clus>
<clus scale="   41.589">  1  3  2 -1</clus>
</clustering>
</event>
<event>
 6    0  0.2839294E+002  0.2681676E+03  0.7546771E-02  0.1102333E+00
         21   -1    0    0  505  502  0.00000000000E+00  0.00000000000E+00  0.63717532922E+03  0.63717532922E+03  0.00000000000E+00 0. -1.
          1   -1    0    0  504    0 -0.00000000000E+00 -0.00000000000E+00 -0.61903266548E+03  0.61903266548E+03  0.00000000000E+00 0. -1.
         21    1    1    2  503  501  0.56416856536E+02 -0.16747604035E+02 -0.11261019935E+03  0.12706061915E+03  0.00000000000E+00 0. -1.
         21    1    1    2  504  502 -0.13180443443E+03  0.18097304763E+02  0.36878464294E+03  0.39204851006E+03  0.00000000000E+00 0. -1.
         21    1    1    2  505  503 -0.12672841479E+03 -0.99607141034E+02  0.19272258165E+03  0.25124423802E+03  0.00000000000E+00 0. -1.
          1    1    1    2  501    0  0.20211599268E+03  0.98257440305E+02 -0.43075436151E+03  0.48585462747E+03  0.00000000000E+00 0. -1.
<scales pt_clust_3="42.62106" pt_clust_4="133.04105" pt_clust_5="254.90571" pt_clust_6="42.62106"></scales>
<clustering>
<clus scale="   42.621">  3  6 -1 -1</clus>
<clus scale="  133.041">  1  4  2 -1</clus>
<clus scale="  254.906">  1  5  2 -1</clus>
<clus scale="  133.041">  1  3  2 -1</clus>
</clustering>
</event>
<event>
 6    0  0.2839294E+002  0.1224588E+03  0.7546771E-02  0.1239095E+00
         21   -1    0    0  505  502  0.00000000000E+00  0.00000000000E+00  0.36744991542E+03  0.36744991542E+03  0.00000000000E+00 0.  1.
          1   -1    0    0  503    0 -0.00000000000E+00 -0.00000000000E+00 -0.14607472799E+03  0.14607472799E+03  0.00000000000E+00 0.  1.
         21    1    1    2  503  502  0.98201221193E+01 -0.41920189030E+02  0.23421861600E+02  0.49013474143E+02  0.00000000000E+00 0.  1.
         21    1    1    2  504  501  0.35915374167E+02 -0.60905325031E+02 -0.31512008252E+02  0.77410460422E+02  0.00000000000E+00 0.  1.
         21    1    1    2  505  504 -0.34542706178E+02  0.14481649393E+03  0.28202072173E+03  0.31890547651E+03  0.00000000000E+00 0.  1.
          1    1    1    2  501    0 -0.11192790108E+02 -0.41990979872E+02 -0.52555387647E+02  0.68195232324E+02  0.00000000000E+00 0.  1.
<scales pt_clust_3="43.05505" pt_clust_4="42.47109" pt_clust_5="109.82410" pt_clust_6="42.47109"></scales>
<clustering>
<clus scale="   42.471">  4  6 -1 -1</clus>
<clus scale="   43.055">  1  3  2 -1</clus>
<clus scale="  109.824">  1  5  2 -1</clus>
<clus scale="   43.055">  1  3  2 -1</clus>
</clustering>
</event>
<event>
 6    0  0.2839294E+002  0.1456221E+03  0.7546771E-02  0.1205958E+00
         21   -1    0    0  501  502  0.00000000000E+00  0.00000000000E+00  0.10767742470E+04  0.10767742470E+04  0.00000000000E+00 0. -1.
          2   -1    0    0  503    0 -0.00000000000E+00 -0.00000000000E+00 -0.45936294099E+03  0.45936294099E+03  0.00000000000E+00 0. -1.
         21    1    1    2  503  505 -0.12173836803E+02  0.39710844702E+02  0.48316099660E+01  0.41815044473E+02  0.00000000000E+00 0. -1.
         21    1    1    2  504  502 -0.25334631084E+02 -0.14364624144E+03  0.10085380457E+04  0.10190314401E+04  0.00000000000E+00 0. -1.
         21    1    1    2  505  504  0.43326837047E+02 -0.25592053333E+02  0.80735366174E+01  0.50964203083E+02  0.00000000000E+00 0.  1.
          2    1    1    2  501    0 -0.58183691597E+01  0.12952745007E+03 -0.40403188630E+03  0.42432650034E+03  0.00000000000E+00 0. -1.
<scales pt_clust_3="41.53497" pt_clust_4="14000.00000" pt_clust_5="48.84737" pt_clust_6="145.62206"></scales>
<clustering>
<clus scale="   41.535">  2  3  1 -1</clus>
<clus scale="   48.847">  2  5  1 -1</clus>
<clus scale="  145.622">  2  6  1 -1</clus>
<clus scale="  145.622">  1  3  2 -1</clus>
</clustering>
</event>
<event>
 6    0  0.2839294E+002  0.9180304E+02  0.7546771E-02  0.1298543E+00
         -2   -1    0    0    0  501 -0.00000000000E+00  0.00000000000E+00  0.41485397565E+03  0.41485397565E+03  0.00000000000E+00 0. -1.
         21   -1    0    0  504  502  0.00000000000E+00 -0.00000000000E+00 -0.87019105161E+02  0.87019105161E+02  0.00000000000E+00 0. -1.
         21    1    1    2  503  501  0.30881657896E+02 -0.62518192927E+02  0.16763316500E+03  0.18155737179E+03  0.00000000000E+00 0. -1.
         21    1    1    2  504  503  0.38387749023E+02  0.12727078499E+03  0.52635532110E+02  0.14297542176E+03  0.00000000000E+00 0. -1.
         21    1    1    2  505  502 -0.43277592628E+01 -0.34540358992E+02 -0.12954252069E+02  0.37142678232E+02  0.00000000000E+00 0. -1.
         -2    1    1    2    0  505 -0.64941647657E+02 -0.30212233074E+02  0.12052042545E+03  0.14019760903E+03  0.00000000000E+00 0. -1.
<scales pt_clust_3="73.02508" pt_clust_4="14000.00000" pt_clust_5="34.81043" pt_clust_6="91.80304"></scales>
<clustering>
<clus scale="   34.810">  2  5  1 -1</clus>
<clus scale="   73.025">  1  3  2 -1</clus>
<clus scale="   91.803">  1  6  2 -1</clus>
<clus scale="   34.810">  2  3  1 -1</clus>
</clustering>
</event>
<event>
 6    0  0.2839294E+002  0.1413635E+03  0.7546771E-02  0.1211506E+00
         -3   -1    0    0    0  501 -0.00000000000E+00  0.00000000000E+00  0.93121685732E+03  0.93121685732E+03  0.00000000000E+00 0. -1.
         21   -1    0    0  504  502  0.00000000000E+00 -0.00000000000E+00 -0.71099366615E+03  0.71099366615E+03  0.00000000000E+00 0.  1.
         21    1    1    2  503  505  0.20660079582E+02 -0.11812707119E+03 -0.19232273559E+03  0.22664703497E+03  0.00000000000E+00 0.  1.
         21    1    1    2  504  501 -0.78962254946E+02  0.23184783922E+03  0.29563028665E+03  0.38390848472E+03  0.00000000000E+00 0. -1.
         21    1    1    2  505  502  0.62695121190E+02  0.58540054087E+01 -0.44891571509E+03  0.45331034276E+03  0.00000000000E+00 0.  1.
         -3    1    1    2    0  503 -0.43929458259E+01 -0.11957477344E+03  0.56583135519E+03  0.57834466102E+03  0.00000000000E+00 0. -1.
<scales pt_clust_3="14000.00000" pt_clust_4="141.36347" pt_clust_5="62.96783" pt_clust_6="119.46864"></scales>
<clustering>
<clus scale="   62.968">  2  5  1 -1</clus>
<clus scale="  119.469">  1  6  2 -1</clus>
<clus scale="  141.363">  1  4  2 -1</clus>
<clus scale="   62.968">  2  3  1 -1</clus>
</clustering>
</event>
<event>
 6    0  0.2839294E+002  0.1123754E+03  0.7546771E-02  0.1256233E+00
          2   -1    0    0  505    0 -0.00000000000E+00  0.00000000000E+00  0.17795004921E+04  0.17795004921E+04  0.00000000000E+00 0. -1.
         21   -1    0    0  504  502  0.00000000000E+00 -0.00000000000E+00 -0.77235707616E+02  0.77235707616E+02  0.00000000000E+00 0. -1.
         21    1    1    2  503  502 -0.83435497533E+02 -0.70894576930E+02 -0.91142468957E+01  0.10986624952E+03  0.00000000000E+00 0. -1.
         21    1    1    2  504  501  0.41506801441E+02  0.16468728433E+03  0.50470013553E+03  0.53251004027E+03  0.00000000000E+00 0. -1.
         21    1    1    2  505  503  0.56304181889E+01 -0.35052982837E+02  0.11170538844E+03  0.11721137752E+03  0.00000000000E+00 0. -1.
          2    1    1    2  501    0  0.36298277903E+02 -0.58739724563E+02  0.10949735074E+04  0.10971485324E+04  0.00000000000E+00 0. -1.
<scales pt_clust_3="112.37541" pt_clust_4="14000.00000" pt_clust_5="35.50230" pt_clust_6="91.07118"></scales>
<clustering>
<clus scale="   35.502">  1  5  2 -1</clus>
<clus scale="   91.071">  1  6  2 -1</clus>
<clus scale="  112.375">  2  3  1 -1</clus>
<clus scale="  112.375">  2  3  1 -1</clus>
</clustering>
</event>
<event>
 6    0  0.2839294E+002  0.8773530E+02  0.7546771E-02  0.1308431E+00
         21   -1    0    0  504  502  0.00000000000E+00  0.00000000000E+00  0.75162202502E+02  0.75162202502E+02  0.00000000000E+00 0.  1.
         -2   -1    0    0    0  501 -0.00000000000E+00 -0.00000000000E+00 -0.15049736636E+04  0.15049736636E+04  0.00000000000E+00 0.  1.
         21    1    1    2  503  502 -0.24877731126E+02 -0.26880158844E+02  0.30735454749E+02  0.47813310115E+02  0.00000000000E+00 0.  1.
         21    1    1    2  504  501 -0.18006418937E+02  0.72988971250E+02 -0.40883384807E+03  0.41568826826E+03  0.00000000000E+00 0. -1.
         21    1    1    2  505  503  0.10116905619E+03  0.53610019429E+02 -0.83879796745E+02  0.14193319701E+03  0.00000000000E+00 0.  1.
         -2    1    1    2    0  505 -0.58284906123E+02 -0.99718831834E+02 -0.96783327101E+03  0.97470109068E+03  0.00000000000E+00 0.  1.
<scales pt_clust_3="36.62573" pt_clust_4="73.31226" pt_clust_5="14000.00000" pt_clust_6="87.73530"></scales>
<clustering>
<clus scale="   36.626">  1  3  2 -1</clus>
<clus scale="   73.312">  2  4  1 -1</clus>
<clus scale="   87.735">  2  6  1 -1</clus>
<clus scale="   36.626">  1  3  2 -1</clus>
</clustering>
</event>
<event>
 6    0  0.2839294E+002  0.1629832E+03  0.7546771E-02  0.1185369E+00
          1   -1    0    0  502    0 -0.00000000000E+00  0.00000000000E+00  0.11381709430E+04  0.11381709430E+04  0.00000000000E+00 0.  1.
         21   -1    0    0  505  502  0.00000000000E+00 -0.00000000000E+00 -0.75312312396E+03  0.75312312396E+03  0.00000000000E+00 0. -1.
         21    1    1    2  503  504 -0.26997263729E+02 -0.64675330160E+02 -0.16622662316E+02  0.72028213101E+02  0.00000000000E+00 0.  1.
         21    1    1    2  504  501 -0.62240127900E+02  0.17205170009E+03  0.32704291476E+03  0.37474349776E+03  0.00000000000E+00 0.  1.
         21    1    1    2  505  503  0.10673687147E+02  0.28428941311E+02 -0.67650147757E+03  0.67718267953E+03  0.00000000000E+00 0. -1.
          1    1    1    2  501    0  0.78563704482E+02 -0.13580531124E+03  0.75112904414E+03  0.76733967653E+03  0.00000000000E+00 0.  1.
<scales pt_clust_3="52.45393" pt_clust_4="162.98322" pt_clust_5="30.36663" pt_clust_6="14000.00000"></scales>
<clustering>
<clus scale="   30.367">  2  5  1 -1</clus>
<clus scale="   52.454">  2  3  1 -1</clus>
<clus scale="  162.983">  2  4  1 -1</clus>
<clus scale="   30.367">  2  3  1 -1</clus>
</clustering>
</event>
<event>
 6    0  0.2839294E+002  0.7457046E+02  0.7546771E-02  0.1345206E+00
         21   -1    0    0  504  502  0.00000000000E+00  0.00000000000E+00  0.11250990253E+03  0.11250990253E+03  0.00000000000E+00 0. -1.
          2   -1    0    0  503    0 -0.00000000000E+00 -0.00000000000E+00 -0.27384440364E+04  0.27384440364E+04  0.00000000000E+00 0.  1.
         21    1    1    2  503  505 -0.34145622795E+02  0.10067992835E+03 -0.53526410404E+03  0.54571973815E+03  0.00000000000E+00 0.  1.
         21    1    1    2  504  501  0.74138811628E+02 -0.56891512032E+02  0.63122405631E+02  0.11277253931E+03  0.00000000000E+00 0. -1.
         21    1    1    2  505  502 -0.39905036782E+02  0.27713971571E+02 -0.12755701334E+02  0.50231305949E+02  0.00000000000E+00 0. -1.
          2    1    1    2  501    0 -0.88152050727E-01 -0.71502387894E+02 -0.21410367341E+04  0.21422303555E+04  0.00000000000E+00 0.  1.
<scales pt_clust_3="74.57046" pt_clust_4="47.98492" pt_clust_5="48.58473" pt_clust_6="14000.00000"></scales>
<clustering>
<clus scale="   48.585">  1  5  2 -1</clus>
<clus scale="   47.985">  1  4  2 -1</clus>
<clus scale="   74.570">  1  3  2 -1</clus>
<clus scale="   48.585">  1  3  2 -1</clus>
</clustering>
</event>
<event>
 6    0  0.2839294E+002  0.7432195E+02  0.7546771E-02  0.1345984E+00
         21   -1    0    0  503  502  0.00000000000E+00  0.00000000000E+00  0.75941323029E+03  0.75941323029E+03  0.00000000000E+00 0.  1.
          2   -1    0    0  505    0 -0.00000000000E+00 -0.00000000000E+00 -0.21529549199E+03  0.21529549199E+03  0.00000000000E+00 0. -1.
         21    1    1    2  503  501 -0.13330872954E+02  0.72072216991E+02  0.42748761366E+03  0.43372546209E+03  0.00000000000E+00 0.  1.
         21    1    1    2  504  502  0.57823426849E+02 -0.62425792843E+02  0.27191841807E+03  0.28492131263E+03  0.00000000000E+00 0. -1.
         21    1    1    2  505  504  0.41048932393E+02  0.26474457750E+02  0.23797867781E+02  0.54334613965E+02  0.00000000000E+00 0.  1.
          2    1    1    2  501    0 -0.85541486288E+02 -0.36120881899E+02 -0.17908616120E+03  0.20172733360E+03  0.00000000000E+00 0. -1.
<scales pt_clust_3="14000.00000" pt_clust_4="74.32195" pt_clust_5="48.84580" pt_clust_6="47.73264"></scales>
<clustering>
<clus scale="   48.846">  2  5  1 -1</clus>
<clus scale="   47.733">  2  6  1 -1</clus>
<clus scale="   74.322">  2  4  1 -1</clus>
<clus scale="   74.322">  1  3  2 -1</clus>
</clustering>
</event>
<event>
 6    0  0.2839294E+002  0.1484780E+03  0.7546771E-02  0.1202356E+00
          1   -1    0    0  505    0 -0.00000000000E+00  0.00000000000E+00  0.69361576806E+03  0.69361576806E+03  0.00000000000E+00 0.  1.
         21   -1    0    0  504  502  0.00000000000E+00 -0.00000000000E+00 -0.15472364832E+03  0.15472364832E+03  0.00000000000E+00 0.  1.
         21    1    1    2  503  502  0.47710901814E+02 -0.36998578879E+02 -0.58885988109E+02  0.84337326176E+02  0.00000000000E+00 0.  1.
         21    1    1    2  504  501  0.48713874237E+02 -0.10424875519E+03  0.15205822600E+03  0.19068966568E+03  0.00000000000E+00 0.  1.
         21    1    1    2  505  503 -0.45859135078E+02  0.19145755424E+03  0.10093294160E+03  0.22123859077E+03  0.00000000000E+00 0.  1.
          1    1    1    2  501    0 -0.50565640973E+02 -0.50210220177E+02  0.34478694024E+03  0.35207383376E+03  0.00000000000E+00 0.  1.
<scales pt_clust_3="60.37570" pt_clust_4="14000.00000" pt_clust_5="148.47801" pt_clust_6="70.96697"></scales>
<clustering>
<clus scale="   60.376">  2  3  1 -1</clus>
<clus scale="   70.967">  1  6  2 -1</clus>
<clus scale="  148.478">  2  5  1 -1</clus>
<clus scale="   60.376">  2  3  1 -1</clus>
</clustering>
</event>
<event>
 6    0  0.2839294E+002  0.1231064E+03  0.7546771E-02  0.1238059E+00
         21   -1    0    0  503  502  0.00000000000E+00  0.00000000000E+00  0.62021068153E+03  0.62021068153E+03  0.00000000000E+00 0. -1.
          2   -1    0    0  505    0 -0.00000000000E+00 -0.00000000000E+00 -0.16863107917E+04  0.16863107917E+04  0.00000000000E+00 0.  1.
         21    1    1    2  503  501  0.35130198711E+02 -0.13044338844E+03  0.24924473061E+03  0.28350051884E+03  0.00000000000E+00 0. -1.
         21    1    1    2  504  502 -0.54183820275E+02  0.84280345622E+01  0.34241587879E+03  0.34677882316E+03  0.00000000000E+00 0. -1.
         21    1    1    2  505  504 -0.87081494956E+02  0.39817623649E+02 -0.39833313098E+03  0.40968025722E+03  0.00000000000E+00 0.  1.
          2    1    1    2  501    0  0.10613511652E+03  0.82197730227E+02 -0.12594275886E+04  0.12665618740E+04  0.00000000000E+00 0.  1.
<scales pt_clust_3="123.10636" pt_clust_4="54.83537" pt_clust_5="96.83997" pt_clust_6="14000.00000"></scales>
<clustering>
<clus scale="   54.835">  1  4  2 -1</clus>
<clus scale="   96.840">  2  5  1 -1</clus>
<clus scale="  123.106">  1  3  2 -1</clus>
<clus scale="   54.835">  1  3  2 -1</clus>
</clustering>
</event>
<event>
 6    0  0.2839294E+002  0.1163581E+03  0.7546771E-02  0.1249229E+00
         21   -1    0    0  503  502  0.00000000000E+00  0.00000000000E+00  0.18680852405E+03  0.18680852405E+03  0.00000000000E+00 0. -1.
          2   -1    0    0  505    0 -0.00000000000E+00 -0.00000000000E+00 -0.62823864883E+03  0.62823864883E+03  0.00000000000E+00 0. -1.
         21    1    1    2  503  501 -0.30533480945E+02 -0.22157945191E+02 -0.10524107171E+01  0.37740900387E+02  0.00000000000E+00 0. -1.
         21    1    1    2  504  502  0.11931549259E+03 -0.47944730012E+02  0.12630575182E+03  0.18024435317E+03  0.00000000000E+00 0. -1.
         21    1    1    2  505  504  0.36827718020E+02 -0.25878299040E+01 -0.64388729564E+02  0.74221871258E+02  0.00000000000E+00 0.  1.
          2    1    1    2  501    0 -0.12560972967E+03  0.72690505107E+02 -0.50229473632E+03  0.52284004806E+03  0.00000000000E+00 0. -1.
<scales pt_clust_3="36.75383" pt_clust_4="14000.00000" pt_clust_5="36.91853" pt_clust_6="116.35812"></scales>
<clustering>
<clus scale="   36.919">  2  5  1 -1</clus>
<clus scale="   36.754">  1  3  2 -1</clus>
<clus scale="  116.358">  2  6  1 -1</clus>
<clus scale="   36.754">  1  3  2 -1</clus>
</clustering>
</event>
<event>
 6    0  0.2839294E+002  0.9189462E+02  0.7546771E-02  0.1298327E+00
          1   -1    0    0  503    0 -0.00000000000E+00  0.00000000000E+00  0.64013415784E+03  0.64013415784E+03  0.00000000000E+00 0. -1.
         21   -1    0    0  505  502  0.00000000000E+00 -0.00000000000E+00 -0.98330121713E+02  0.98330121713E+02  0.00000000000E+00 0.  1.
         21    1    1    2  503  502  0.46903455007E+02 -0.74286841180E+01  0.13059724483E+03  0.13896315985E+03  0.00000000000E+00 0.  1.
         21    1    1    2  504  501 -0.96243754966E+02 -0.43465689489E+02 -0.26616731003E+02  0.10890627577E+03  0.00000000000E+00 0.  1.
         21    1    1    2  505  504 -0.14264338937E+01  0.47383946581E+02 -0.23748397543E+01  0.47464860382E+02  0.00000000000E+00 0.  1.
          1    1    1    2  501    0  0.50766733853E+02  0.35104270266E+01  0.44019836206E+03  0.44312998355E+03  0.00000000000E+00 0. -1.
<scales pt_clust_3="47.06035" pt_clust_4="14000.00000" pt_clust_5="47.40541" pt_clust_6="91.89462"></scales>
<clustering>
<clus scale="   47.405">  2  5  1 -1</clus>
<clus scale="   47.060">  1  3  2 -1</clus>
<clus scale="   91.895">  1  6  2 -1</clus>
<clus scale="   47.405">  2  3  1 -1</clus>
</clustering>
</event>
<event>
 6    0  0.2839294E+002  0.1096415E+03  0.7546771E-02  0.1261235E+00
          2   -1    0    0  502    0 -0.00000000000E+00  0.00000000000E+00  0.26467268710E+04  0.26467268710E+04  0.00000000000E+00 0. -1.
         21   -1    0    0  505  502  0.00000000000E+00 -0.00000000000E+00 -0.19841297823E+02  0.19841297823E+02  0.00000000000E+00 0. -1.
         21    1    1    2  503  504  0.11540051334E+03 -0.46812505766E+02  0.27867284084E+03  0.30523309354E+03  0.00000000000E+00 0. -1.
         21    1    1    2  504  501 -0.49363193664E+02  0.11584266618E+02  0.11316582172E+04  0.11327935561E+04  0.00000000000E+00 0.  1.
         21    1    1    2  505  503 -0.33434451889E+02 -0.11685307685E+02  0.53966710922E+02  0.64550870455E+02  0.00000000000E+00 0. -1.
          2    1    1    2  501    0 -0.32602867783E+02  0.46913546833E+02  0.11625878042E+04  0.11639906487E+04  0.00000000000E+00 0. -1.
<scales pt_clust_3="102.51251" pt_clust_4="36.90365" pt_clust_5="35.41764" pt_clust_6="36.90365"></scales>
<clustering>
<clus scale="   35.418">  2  5  1 -1</clus>
<clus scale="   36.904">  4  6 -1 -1</clus>
<clus scale="  102.513">  2  3  1 -1</clus>
<clus scale="   35.418">  2  3  1 -1</clus>
</clustering>
</event>
<event>
 6    0  0.2839294E+002  0.1428796E+03  0.7546771E-02  0.1209506E+00
          2   -1    0    0  503    0 -0.00000000000E+00  0.00000000000E+00  0.27582557666E+03  0.27582557666E+03  0.00000000000E+00 0.  1.
         21   -1    0    0  501  502  0.00000000000E+00 -0.00000000000E+00 -0.13733510610E+04  0.13733510610E+04  0.00000000000E+00 0.  1.
         21    1    1    2  503  504  0.21197209209E+02 -0.21288987678E+02 -0.93063345031E+01  0.31450763687E+02  0.00000000000E+00 0. -1.
         21    1    1    2  504  505  0.11682723602E+02  0.65510211671E+02 -0.34977248614E+02  0.75176337930E+02  0.00000000000E+00 0.  1.
         21    1    1    2  505  502 -0.16896106785E+02 -0.14266452233E+03 -0.12835552390E+04  0.12915698571E+04  0.00000000000E+00 0.  1.
          2    1    1    2  501    0 -0.15983826026E+02  0.98443298335E+02  0.23031333775E+03  0.25097967891E+03  0.00000000000E+00 0.  1.
<scales pt_clust_3="30.04235" pt_clust_4="65.26193" pt_clust_5="14000.00000" pt_clust_6="142.87963"></scales>
<clustering>
<clus scale="   30.042">  1  3  2 -1</clus>
<clus scale="   65.262">  1  4  2 -1</clus>
<clus scale="  142.880">  1  6  2 -1</clus>
<clus scale="  142.880">  2  3  1 -1</clus>
</clustering>
</event>
<event>
 6    0  0.2839294E+002  0.7182344E+02  0.7546771E-02  0.1354000E+00
         21   -1    0    0  504  502  0.00000000000E+00  0.00000000000E+00  0.17244943840E+04  0.17244943840E+04  0.00000000000E+00 0.  1.
          1   -1    0    0  505    0 -0.00000000000E+00 -0.00000000000E+00 -0.15425851857E+02  0.15425851857E+02  0.00000000000E+00 0.  1.
         21    1    1    2  503  502 -0.17900950911E+02 -0.48875388111E+02  0.60345487147E+03  0.60569549240E+03  0.00000000000E+00 0.  1.
         21    1    1    2  504  501  0.45681464949E+01  0.12222716056E+03  0.90707800018E+03  0.91528730197E+03  0.00000000000E+00 0.  1.
         21    1    1    2  505  503 -0.19372466710E+02 -0.37068052889E+02  0.11217914824E+03  0.11972257227E+03  0.00000000000E+00 0.  1.
          1    1    1    2  501    0  0.32705271127E+02 -0.36283719558E+02  0.86356512206E+02  0.99214869172E+02  0.00000000000E+00 0.  1.
<scales pt_clust_3="56.03932" pt_clust_4="14000.00000" pt_clust_5="41.82503" pt_clust_6="71.82344"></scales>
<clustering>
<clus scale="   41.825">  2  5  1 -1</clus>
<clus scale="   56.039">  1  3  2 -1</clus>
<clus scale="   71.823">  2  6  1 -1</clus>
<clus scale="   56.039">  1  3  2 -1</clus>
</clustering>
</event>
<event>
 6    0  0.2839294E+002  0.2195511E+03  0.7546771E-02  0.1134218E+00
         21   -1    0    0  505  502  0.00000000000E+00  0.00000000000E+00  0.11262835576E+04  0.11262835576E+04  0.00000000000E+00 0.  1.
          2   -1    0    0  503    0 -0.00000000000E+00 -0.00000000000E+00 -0.40824984687E+03  0.40824984687E+03  0.00000000000E+00 0.  1.
         21    1    1    2  503  504  0.87194033532E+01 -0.34250212697E+02  0.10625803152E+02  0.36905457012E+02  0.00000000000E+00 0.  1.
         21    1    1    2  504  502  0.17543759473E+03  0.98214198081E+02  0.10633648814E+04  0.10822057334E+04  0.00000000000E+00 0.  1.
         21    1    1    2  505  501 -0.55692587351E+02 -0.32515741149E+02 -0.48394425578E+02  0.80628519367E+02  0.00000000000E+00 0.  1.
          2    1    1    2  501    0 -0.12846441073E+03 -0.31448244235E+02 -0.30756254829E+03  0.33479369468E+03  0.00000000000E+00 0.  1.
<scales pt_clust_3="35.34268" pt_clust_4="200.84229" pt_clust_5="62.13656" pt_clust_6="62.13656"></scales>
<clustering>
<clus scale="   35.343">  2  3  1 -1</clus>
<clus scale="   62.137">  5  6 -1 -1</clus>
<clus scale="  200.842">  1  4  2 -1</clus>
<clus scale="  200.842">  1  3  2 -1</clus>
</clustering>
</event>
<event>
 6    0  0.2839294E+002  0.8609763E+02  0.7546771E-02  0.1312587E+00
         21   -1    0    0  504  502  0.00000000000E+00  0.00000000000E+00  0.15409540883E+02  0.15409540883E+02  0.00000000000E+00 0. -1.
          2   -1    0    0  503    0 -0.00000000000E+00 -0.00000000000E+00 -0.23791274702E+04  0.23791274702E+04  0.00000000000E+00 0. -1.
         21    1    1    2  503  505  0.37575953517E+02 -0.29306566479E+01 -0.39848634584E+03  0.40026479842E+03  0.00000000000E+00 0. -1.
         21    1    1    2  504  501 -0.98566744659E+02  0.60073007493E+01 -0.23120176003E+03  0.25140752705E+03  0.00000000000E+00 0. -1.
         21    1    1    2  505  502  0.32789496830E+02  0.69712159935E+02 -0.45671893042E+03  0.46317072204E+03  0.00000000000E+00 0. -1.
          2    1    1    2  501    0  0.28201294312E+02 -0.72788804036E+02 -0.12773108930E+04  0.12796939636E+04  0.00000000000E+00 0. -1.
<scales pt_clust_3="37.69007" pt_clust_4="14000.00000" pt_clust_5="80.55540" pt_clust_6="86.09763"></scales>
<clustering>
<clus scale="   37.690">  2  3  1 -1</clus>
<clus scale="   80.555">  1  5  2 -1</clus>
<clus scale="   86.098">  2  6  1 -1</clus>
<clus scale="   80.555">  1  3  2 -1</clus>
</clustering>
</event>
<event>
 6    0  0.2839294E+002  0.1004192E+03  0.7546771E-02  0.1279417E+00
         21   -1    0    0  505  502  0.00000000000E+00  0.00000000000E+00  0.18946954793E+03  0.18946954793E+03  0.00000000000E+00 0. -1.
          1   -1    0    0  503    0 -0.00000000000E+00 -0.00000000000E+00 -0.25405207842E+04  0.25405207842E+04  0.00000000000E+00 0.  1.
         21    1    1    2  503  504  0.28790892605E+02  0.27875585454E+02 -0.18021218224E+04  0.18025673432E+04  0.00000000000E+00 0.  1.
         21    1    1    2  504  502  0.20287074876E+02  0.22385998562E+02  0.89464980007E+02  0.94428178984E+02  0.00000000000E+00 0. -1.
         21    1    1    2  505  501 -0.13798112760E+02 -0.12316566597E+03  0.54495032411E+02  0.13538787888E+03  0.00000000000E+00 0.  1.
          1    1    1    2  501    0 -0.35279854721E+02  0.72904081955E+02 -0.69288942626E+03  0.69760693111E+03  0.00000000000E+00 0.  1.
<scales pt_clust_3="40.14334" pt_clust_4="30.21090" pt_clust_5="100.41921" pt_clust_6="14000.00000"></scales>
<clustering>
<clus scale="   30.211">  1  4  2 -1</clus>
<clus scale="   40.143">  2  3  1 -1</clus>
<clus scale="  100.419">  1  5  2 -1</clus>
<clus scale="   30.211">  1  3  2 -1</clus>
</clustering>
</event>
<event>
 6    0  0.2839294E+002  0.1931999E+03  0.7546771E-02  0.1155606E+00
          2   -1    0    0  503    0 -0.00000000000E+00  0.00000000000E+00  0.15629787970E+03  0.15629787970E+03  0.00000000000E+00 0.  1.
         21   -1    0    0  505  502  0.00000000000E+00 -0.00000000000E+00 -0.26847174300E+04  0.26847174300E+04  0.00000000000E+00 0.  1.
         21    1    1    2  503  502 -0.15111064653E+03 -0.85186147695E+02 -0.16683019393E+04  0.16772961777E+04  0.00000000000E+00 0.  1.
         21    1    1    2  504  501  0.71132331035E+02  0.44740444473E+02  0.17275849200E+02  0.85790272501E+02  0.00000000000E+00 0.  1.
         21    1    1    2  505  504  0.81218305664E+01 -0.36529877287E+02 -0.94954312619E+03  0.95028024527E+03  0.00000000000E+00 0. -1.
          2    1    1    2  501    0  0.71856484925E+02  0.76975580510E+02  0.72149665925E+02  0.12764861423E+03  0.00000000000E+00 0.  1.
<scales pt_clust_3="187.15650" pt_clust_4="42.83540" pt_clust_5="37.42187" pt_clust_6="42.83540"></scales>
<clustering>
<clus scale="   37.422">  2  5  1 -1</clus>
<clus scale="   42.835">  4  6 -1 -1</clus>
<clus scale="  187.157">  2  3  1 -1</clus>
<clus scale="   37.422">  2  3  1 -1</clus>
</clustering>
</event>
<event>
 6    0  0.2839294E+002  0.1089044E+03  0.7546771E-02  0.1262612E+00
         21   -1    0    0  504  502  0.00000000000E+00  0.00000000000E+00  0.15078676943E+03  0.15078676943E+03  0.00000000000E+00 0.  1.
          2   -1    0    0  505    0 -0.00000000000E+00 -0.00000000000E+00 -0.10456843015E+04  0.10456843015E+04  0.00000000000E+00 0. -1.
         21    1    1    2  503  502  0.76937952102E+02 -0.51232600070E+02  0.12670631640E+03  0.15683978577E+03  0.00000000000E+00 0.  1.
         21    1    1    2  504  501 -0.71928607425E+02  0.34146408044E+02 -0.64393263383E+03  0.64883660398E+03  0.00000000000E+00 0. -1.
         21    1    1    2  505  503  0.37413969571E+02  0.34815366836E+02 -0.14826346372E+03  0.15682464590E+03  0.00000000000E+00 0.  1.
          2    1    1    2  501    0 -0.42423314249E+02 -0.17729174811E+02 -0.22940775095E+03  0.23397003532E+03  0.00000000000E+00 0. -1.
<scales pt_clust_3="92.63860" pt_clust_4="43.50939" pt_clust_5="51.10690" pt_clust_6="43.50939"></scales>
<clustering>
<clus scale="   43.509">  4  6 -1 -1</clus>
<clus scale="   51.107">  2  5  1 -1</clus>
<clus scale="   92.639">  1  3  2 -1</clus>
<clus scale="   92.639">  1  3  2 -1</clus>
</clustering>
</event>
<event>
 6    0  0.2839294E+002  0.9149192E+02  0.7546771E-02  0.1299278E+00
          3   -1    0    0  504    0 -0.00000000000E+00  0.00000000000E+00  0.15481436924E+04  0.15481436924E+04  0.00000000000E+00 0. -1.
         21   -1    0    0  505  502  0.00000000000E+00 -0.00000000000E+00 -0.26809651844E+03  0.26809651844E+03  0.00000000000E+00 0. -1.
         21    1    1    2  503  502  0.23320887325E+02 -0.14687772215E+03 -0.20862702660E+03  0.25620727015E+03  0.00000000000E+00 0. -1.
         21    1    1    2  504  503 -0.89376205367E+01  0.44919871423E+02  0.16716260665E+03  0.17332343458E+03  0.00000000000E+00 0. -1.
         21    1    1    2  505  501  0.14949243907E+02  0.62964004763E+02  0.41859038630E+00  0.64715693669E+02  0.00000000000E+00 0. -1.
          3    1    1    2  501    0 -0.29332510695E+02  0.38993845967E+02  0.13210930035E+04  0.13219938124E+04  0.00000000000E+00 0. -1.
<scales pt_clust_3="91.49192" pt_clust_4="45.80039" pt_clust_5="65.70007" pt_clust_6="14000.00000"></scales>
<clustering>
<clus scale="   45.800">  1  4  2 -1</clus>
<clus scale="   65.700">  2  5  1 -1</clus>
<clus scale="   91.492">  2  3  1 -1</clus>
<clus scale="   65.700">  2  3  1 -1</clus>
</clustering>
</event>
<event>
 6    0  0.2839294E+002  0.2369146E+03  0.7546771E-02  0.1121865E+00
         -4   -1    0    0    0  501 -0.00000000000E+00  0.00000000000E+00  0.21943850188E+04  0.21943850188E+04  0.00000000000E+00 0. -1.
         21   -1    0    0  503  502  0.00000000000E+00 -0.00000000000E+00 -0.32692919064E+03  0.32692919064E+03  0.00000000000E+00 0.  1.
         21    1    1    2  503  501 -0.13815989956E+03 -0.17017039157E+03 -0.11326696632E+03  0.24672966112E+03  0.00000000000E+00 0.  1.
         21    1    1    2  504  505 -0.65440498371E+00  0.65062154971E+02  0.45015427337E+03  0.45483225709E+03  0.00000000000E+00 0. -1.
         21    1    1    2  505  502  0.80661148725E+02 -0.54977433781E+02 -0.12322908406E+03  0.15720733538E+03  0.00000000000E+00 0.  1.
         -4    1    1    2    0  504  0.58153155822E+02  0.16008567038E+03  0.16537976051E+04  0.16625449558E+04  0.00000000000E+00 0. -1.
<scales pt_clust_3="231.19995" pt_clust_4="31.96772" pt_clust_5="97.61526" pt_clust_6="31.96772"></scales>
<clustering>
<clus scale="   31.968">  4  6 -1 -1</clus>
<clus scale="   97.615">  2  5  1 -1</clus>
<clus scale="  231.200">  2  3  1 -1</clus>
<clus scale="   97.615">  2  3  1 -1</clus>
</clustering>
</event>
<event>
 6    0  0.2839294E+002  0.9233827E+02  0.7546771E-02  0.1297286E+00
         21   -1    0    0  505  502  0.00000000000E+00  0.00000000000E+00  0.11816377909E+04  0.11816377909E+04  0.00000000000E+00 0. -1.
         -2   -1    0    0    0  501 -0.00000000000E+00 -0.00000000000E+00 -0.11143080486E+03  0.11143080486E+03  0.00000000000E+00 0. -1.
         21    1    1    2  503  501  0.52824875596E+02 -0.20040237317E+02 -0.28090993597E+02  0.63096612545E+02  0.00000000000E+00 0. -1.
         21    1    1    2  504  502  0.33349724717E+02 -0.92918676234E+01  0.20387321596E+03  0.20679175788E+03  0.00000000000E+00 0.  1.
         21    1    1    2  505  503 -0.12198060030E+03 -0.22211761512E+02  0.93839457009E+03  0.94655005064E+03  0.00000000000E+00 0. -1.
         -2    1    1    2    0  504  0.35805999988E+02  0.51543866452E+02 -0.43969806380E+02  0.76630174717E+02  0.00000000000E+00 0. -1.
<scales pt_clust_3="57.11660" pt_clust_4="34.61998" pt_clust_5="14000.00000" pt_clust_6="92.33827"></scales>
<clustering>
<clus scale="   34.620">  1  4  2 -1</clus>
<clus scale="   57.117">  2  3  1 -1</clus>
<clus scale="   92.338">  2  6  1 -1</clus>
<clus scale="   34.620">  1  3  2 -1</clus>
</clustering>
</event>
<event>
 6    0  0.2839294E+002  0.7658780E+02  0.7546771E-02  0.1339023E+00
         21   -1    0    0  505  502  0.00000000000E+00  0.00000000000E+00  0.18473591130E+03  0.18473591130E+03  0.00000000000E+00 0. -1.
          2   -1    0    0  503    0 -0.00000000000E+00 -0.00000000000E+00 -0.73944962492E+03  0.73944962492E+03  0.00000000000E+00 0.  1.
         21    1    1    2  503  502  0.47938597865E+02 -0.14747210887E+02 -0.88904356269E+02  0.10207631438E+03  0.00000000000E+00 0.  1.
         21    1    1    2  504  501 -0.82017153808E+02 -0.14703384522E+02 -0.32875173145E+03  0.33914702412E+03  0.00000000000E+00 0.  1.
         21    1    1    2  505  504  0.70771147483E+02 -0.29705270402E+02  0.16021349495E+03  0.17764943673E+03  0.00000000000E+00 0. -1.
          2    1    1    2  501    0 -0.36692591540E+02  0.59155865811E+02 -0.29727112085E+03  0.30531276099E+03  0.00000000000E+00 0.  1.
<scales pt_clust_3="50.15565" pt_clust_4="14000.00000" pt_clust_5="76.58780" pt_clust_6="54.16766"></scales>
<clustering>
<clus scale="   50.156">  2  3  1 -1</clus>
<clus scale="   54.168">  2  6  1 -1</clus>
<clus scale="   76.588">  1  5  2 -1</clus>
<clus scale="   76.588">  1  3  2 -1</clus>
</clustering>
</event>
<event>
 6    0  0.2839294E+002  0.2613225E+03  0.7546771E-02  0.1106351E+00
          1   -1    0    0  503    0 -0.00000000000E+00  0.00000000000E+00  0.62340634279E+03  0.62340634279E+03  0.00000000000E+00 0. -1.
         21   -1    0    0  504  502  0.00000000000E+00 -0.00000000000E+00 -0.61548554084E+03  0.61548554084E+03  0.00000000000E+00 0.  1.
         21    1    1    2  503  505  0.21757458557E+02  0.19883951270E+03  0.21139322406E+03  0.29102857934E+03  0.00000000000E+00 0. -1.
         21    1    1    2  504  501  0.10471188743E+03 -0.20015967643E+03 -0.49892169766E+03  0.54767813160E+03  0.00000000000E+00 0.  1.
         21    1    1    2  505  502 -0.38748563478E+02  0.86570350611E+02  0.17414300785E+02  0.96432020867E+02  0.00000000000E+00 0.  1.
          1    1    1    2  501    0 -0.87720782511E+02 -0.85250186881E+02  0.27803497477E+03  0.30375315182E+03  0.00000000000E+00 0. -1.
<scales pt_clust_3="87.17079" pt_clust_4="228.61341" pt_clust_5="87.17079" pt_clust_6="122.32142"></scales>
<clustering>
<clus scale="   87.171">  3  5 -1 -1</clus>
<clus scale="  122.321">  1  6  2 -1</clus>
<clus scale="  228.613">  2  4  1 -1</clus>
<clus scale="  228.613">  2  3  1 -1</clus>
</clustering>
</event>
<event>
 6    0  0.2839294E+002  0.8771236E+02  0.7546771E-02  0.1308488E+00
          1   -1    0    0  503    0 -0.00000000000E+00  0.00000000000E+00  0.78134174259E+03  0.78134174259E+03  0.00000000000E+00 0. -1.
         21   -1    0    0  505  502  0.00000000000E+00 -0.00000000000E+00 -0.44500209230E+03  0.44500209230E+03  0.00000000000E+00 0. -1.
         21    1    1    2  503  502 -0.21666641631E+02  0.61729031175E+02 -0.40725162219E+03  0.41247278750E+03  0.00000000000E+00 0. -1.
         21    1    1    2  504  501  0.14449664260E+02  0.65621762001E+02  0.68492855271E+02  0.95949359918E+02  0.00000000000E+00 0.  1.
         21    1    1    2  505  504  0.14063948027E+01 -0.34552988862E+02 -0.18372028046E+01  0.34630366729E+02  0.00000000000E+00 0. -1.
          1    1    1    2  501    0  0.58105825680E+01 -0.92797804315E+02  0.67693562002E+03  0.68329132075E+03  0.00000000000E+00 0. -1.
<scales pt_clust_3="35.03635" pt_clust_4="87.71236" pt_clust_5="34.58160" pt_clust_6="14000.00000"></scales>
<clustering>
<clus scale="   34.582">  2  5  1 -1</clus>
<clus scale="   35.036">  2  3  1 -1</clus>
<clus scale="   87.712">  2  4  1 -1</clus>
<clus scale="   34.582">  2  3  1 -1</clus>
</clustering>
</event>
<event>
 6    0  0.2839294E+002  0.8752797E+02  0.7546771E-02  0.1308951E+00
         21   -1    0    0  503  502  0.00000000000E+00  0.00000000000E+00  0.15476859353E+02  0.15476859353E+02  0.00000000000E+00 0.  1.
          2   -1    0    0  504    0 -0.00000000000E+00 -0.00000000000E+00 -0.32162229410E+04  0.32162229410E+04  0.00000000000E+00 0.  1.
         21    1    1    2  503  501 -0.57067930010E+02 -0.43997588371E+01 -0.95545293467E+02  0.11137777883E+03  0.00000000000E+00 0.  1.
         21    1    1    2  504  505  0.67706905424E+02 -0.44842380607E+02 -0.52496357626E+03  0.53120788825E+03  0.00000000000E+00 0. -1.
         21    1    1    2  505  502 -0.14551522079E+01 -0.47548608113E+02 -0.15993255743E+03  0.16685745572E+03  0.00000000000E+00 0.  1.
          2    1    1    2  501    0 -0.91838232062E+01  0.96790747557E+02 -0.24203046544E+04  0.24222566775E+04  0.00000000000E+00 0.  1.
<scales pt_clust_3="68.14459" pt_clust_4="87.52797" pt_clust_5="47.57087" pt_clust_6="14000.00000"></scales>
<clustering>
<clus scale="   47.571">  1  5  2 -1</clus>
<clus scale="   68.145">  1  3  2 -1</clus>
<clus scale="   87.528">  1  4  2 -1</clus>
<clus scale="   47.571">  1  3  2 -1</clus>
</clustering>
</event>
<event>
 6    0  0.2839294E+002  0.2437153E+03  0.7546771E-02  0.1117342E+00
         21   -1    0    0  501  502  0.00000000000E+00  0.00000000000E+00  0.28750002086E+04  0.28750002086E+04  0.00000000000E+00 0. -1.
         -1   -1    0    0    0  501 -0.00000000000E+00 -0.00000000000E+00 -0.79315678661E+02  0.79315678661E+02  0.00000000000E+00 0. -1.
         21    1    1    2  503  504  0.73113822047E+02  0.78688417645E+02  0.70552378928E+02  0.12851122993E+03  0.00000000000E+00 0.  1.
         21    1    1    2  504  505  0.70418959449E+01 -0.18427473874E+03  0.19139433808E+04  0.19228068110E+04  0.00000000000E+00 0. -1.
         21    1    1    2  505  502 -0.71129290392E+02 -0.34562943816E+02  0.74242918456E+03  0.74662913627E+03  0.00000000000E+00 0.  1.
         -1    1    1    2    0  503 -0.90264275990E+01  0.14014926491E+03  0.68759585603E+02  0.15636870999E+03  0.00000000000E+00 0. -1.
<scales pt_clust_3="85.43489" pt_clust_4="222.81270" pt_clust_5="79.08207" pt_clust_6="85.43489"></scales>
<clustering>
<clus scale="   79.082">  1  5  2 -1</clus>
<clus scale="   85.435">  3  6 -1 -1</clus>
<clus scale="  222.813">  1  4  2 -1</clus>
<clus scale="   79.082">  1  3  2 -1</clus>
</clustering>
</event>
<event>
 6    0  0.2839294E+002  0.1309891E+03  0.7546771E-02  0.1225995E+00
         21   -1    0    0  504  502  0.00000000000E+00  0.00000000000E+00  0.71946990911E+03  0.71946990911E+03  0.00000000000E+00 0.  1.
          3   -1    0    0  505    0 -0.00000000000E+00 -0.00000000000E+00 -0.39516388523E+03  0.39516388523E+03  0.00000000000E+00 0.  1.
         21    1    1    2  503  502 -0.95272435619E+01 -0.33856489854E+02  0.42860637356E+03  0.43004703665E+03  0.00000000000E+00 0.  1.
         21    1    1    2  504  501  0.24665980970E+02 -0.21389562815E+02  0.24308581298E+03  0.24526849877E+03  0.00000000000E+00 0. -1.
         21    1    1    2  505  503  0.11737299371E+03 -0.76869814178E+01 -0.11498277030E+03  0.16448874370E+03  0.00000000000E+00 0. -1.
          3    1    1    2  501    0 -0.13251173112E+03  0.62933034087E+02 -0.23240339235E+03  0.27482951523E+03  0.00000000000E+00 0.  1.
<scales pt_clust_3="54.68534" pt_clust_4="32.64849" pt_clust_5="130.98913" pt_clust_6="14000.00000"></scales>
<clustering>
<clus scale="   32.648">  1  4  2 -1</clus>
<clus scale="   54.685">  1  3  2 -1</clus>
<clus scale="  130.989">  1  5  2 -1</clus>
<clus scale="   32.648">  1  3  2 -1</clus>
</clustering>
</event>
<event>
 6    0  0.2839294E+002  0.9288851E+02  0.7546771E-02  0.1296004E+00
         21   -1    0    0  504  502  0.00000000000E+00  0.00000000000E+00  0.10325786294E+03  0.10325786294E+03  0.00000000000E+00 0.  1.
         -4   -1    0    0    0  501 -0.00000000000E+00 -0.00000000000E+00 -0.24469744533E+03  0.24469744533E+03  0.00000000000E+00 0.  1.
         21    1    1    2  503  505  0.58276874387E+02  0.76469519759E+01 -0.13695073950E+02  0.60350849318E+02  0.00000000000E+00 0. -1.
         21    1    1    2  504  501 -0.44742828127E+02 -0.10451258752E+03 -0.96463767619E+02  0.14909748516E+03  0.00000000000E+00 0.  1.
         21    1    1    2  505  502 -0.36570226676E+02  0.23799783197E+02  0.18231915067E+02  0.47288623224E+02  0.00000000000E+00 0.  1.
         -4    1    1    2    0  503  0.23036180416E+02  0.73065852344E+02 -0.49512655890E+02  0.91218350567E+02  0.00000000000E+00 0.  1.
<scales pt_clust_3="48.71485" pt_clust_4="92.88851" pt_clust_5="43.63268" pt_clust_6="14000.00000"></scales>
<clustering>
<clus scale="   43.633">  1  5  2 -1</clus>
<clus scale="   48.715">  1  3  2 -1</clus>
<clus scale="   92.889">  1  4  2 -1</clus>
<clus scale="   43.633">  1  3  2 -1</clus>
</clustering>
</event>
<event>
 6    0  0.2839294E+002  0.1072923E+03  0.7546771E-02  0.1265668E+00
         21   -1    0    0  503  502  0.00000000000E+00  0.00000000000E+00  0.20175728688E+04  0.20175728688E+04  0.00000000000E+00 0.  1.
          1   -1    0    0  504    0 -0.00000000000E+00 -0.00000000000E+00 -0.73603940339E+03  0.73603940339E+03  0.00000000000E+00 0.  1.
         21    1    1    2  503  505  0.30634866240E+02  0.50440783071E+01  0.19249696981E+04  0.19252200592E+04  0.00000000000E+00 0.  1.
         21    1    1    2  504  502 -0.67907702106E+02 -0.11715090036E+03 -0.42926103877E+03  0.45011201813E+03  0.00000000000E+00 0.  1.
         21    1    1    2  505  501 -0.29769083727E+02  0.51733141829E+02  0.63004258535E+02  0.86787400600E+02  0.00000000000E+00 0.  1.
          1    1    1    2  501    0  0.67041919594E+02  0.60373680223E+02 -0.27717945245E+03  0.29149279426E+03  0.00000000000E+00 0.  1.
<scales pt_clust_3="31.04735" pt_clust_4="107.29229" pt_clust_5="56.03804" pt_clust_6="14000.00000"></scales>
<clustering>
<clus scale="   31.047">  1  3  2 -1</clus>
<clus scale="   56.038">  1  5  2 -1</clus>
<clus scale="  107.292">  1  4  2 -1</clus>
<clus scale="   31.047">  1  3  2 -1</clus>
</clustering>
</event>
<event>
 6    0  0.2839294E+002  0.1246256E+03  0.7546771E-02  0.1235656E+00
          2   -1    0    0  503    0 -0.00000000000E+00  0.00000000000E+00  0.26836748810E+04  0.26836748810E+04  0.00000000000E+00 0.  1.
         21   -1    0    0  501  502  0.00000000000E+00 -0.00000000000E+00 -0.15513533943E+03  0.15513533943E+03  0.00000000000E+00 0. -1.
         21    1    1    2  503  505  0.11567449836E+02  0.29690337849E+02  0.16843936009E+03  0.17142677762E+03  0.00000000000E+00 0. -1.
         21    1    1    2  504  502  0.43619199717E+02 -0.99835279873E+02 -0.10595319000E+03  0.15197301129E+03  0.00000000000E+00 0. -1.
         21    1    1    2  505  504  0.60541695645E+02  0.15762462161E+03  0.29802843157E+03  0.34253724508E+03  0.00000000000E+00 0. -1.
          2    1    1    2  501    0 -0.11572834520E+03 -0.87479679584E+02  0.21680249399E+04  0.21728731864E+04  0.00000000000E+00 0.  1.
<scales pt_clust_3="31.86412" pt_clust_4="108.74178" pt_clust_5="124.62561" pt_clust_6="14000.00000"></scales>
<clustering>
<clus scale="   31.864">  1  3  2 -1</clus>
<clus scale="  108.742">  2  4  1 -1</clus>
<clus scale="  124.626">  2  5  1 -1</clus>
<clus scale="  108.742">  2  3  1 -1</clus>
</clustering>
</event>
<event>
 6    0  0.2839294E+002  0.1542998E+03  0.7546771E-02  0.1195287E+00
          1   -1    0    0  504    0 -0.00000000000E+00  0.00000000000E+00  0.17268177331E+04  0.17268177331E+04  0.00000000000E+00 0. -1.
         21   -1    0    0  501  502  0.00000000000E+00 -0.00000000000E+00 -0.47033936153E+02  0.47033936153E+02  0.00000000000E+00 0. -1.
         21    1    1    2  503  505  0.13570254311E+03 -0.26283937835E+02  0.50625230581E+03  0.52478321498E+03  0.00000000000E+00 0. -1.
         21    1    1    2  504  503  0.30270710167E+01  0.44742602988E+02  0.15262801063E+03  0.15907977027E+03  0.00000000000E+00 0.  1.
         21    1    1    2  505  502  0.20575029277E+02 -0.63836448738E+02  0.12691538610E+02  0.68260524240E+02  0.00000000000E+00 0. -1.
          1    1    1    2  501    0 -0.15930464340E+03  0.45377783585E+02  0.10082119420E+04  0.10217281598E+04  0.00000000000E+00 0. -1.
<scales pt_clust_3="14000.00000" pt_clust_4="44.84488" pt_clust_5="65.99839" pt_clust_6="154.29976"></scales>
<clustering>
<clus scale="   44.845">  1  4  2 -1</clus>
<clus scale="   65.998">  2  5  1 -1</clus>
<clus scale="  154.300">  1  6  2 -1</clus>
<clus scale="   65.998">  2  3  1 -1</clus>
</clustering>
</event>
<event>
 6    0  0.2839294E+002  0.1015682E+03  0.7546771E-02  0.1277032E+00
          2   -1    0    0  503    0 -0.00000000000E+00  0.00000000000E+00  0.16291710877E+04  0.16291710877E+04  0.00000000000E+00 0.  1.
         21   -1    0    0  505  502  0.00000000000E+00 -0.00000000000E+00 -0.57573233814E+03  0.57573233814E+03  0.00000000000E+00 0. -1.
         21    1    1    2  503  504  0.35341813357E+02 -0.19966852426E+02  0.10831114032E+03  0.11566772274E+03  0.00000000000E+00 0. -1.
         21    1    1    2  504  502 -0.26793093156E+02  0.49332811258E+02 -0.48896663126E+03  0.49217879128E+03  0.00000000000E+00 0. -1.
         21    1    1    2  505  501  0.38163776483E+02  0.54792619440E+02 -0.65994788544E+02  0.93882996839E+02  0.00000000000E+00 0.  1.
          2    1    1    2  501    0 -0.46712496684E+02 -0.84158578272E+02  0.15000890290E+04  0.15031739150E+04  0.00000000000E+00 0.  1.
<scales pt_clust_3="40.59210" pt_clust_4="56.10265" pt_clust_5="101.56825" pt_clust_6="14000.00000"></scales>
<clustering>
<clus scale="   40.592">  1  3  2 -1</clus>
<clus scale="   56.103">  2  4  1 -1</clus>
<clus scale="  101.568">  2  5  1 -1</clus>
<clus scale="   56.103">  2  3  1 -1</clus>
</clustering>
</event>
<event>
 6    0  0.2839294E+002  0.6778089E+02  0.7546771E-02  0.1367806E+00
          1   -1    0    0  504    0 -0.00000000000E+00  0.00000000000E+00  0.56767939562E+03  0.56767939562E+03  0.00000000000E+00 0.  1.
         21   -1    0    0  505  502  0.00000000000E+00 -0.00000000000E+00 -0.19272687192E+04  0.19272687192E+04  0.00000000000E+00 0. -1.
         21    1    1    2  503  502  0.52571253682E+02 -0.24115387649E+02 -0.18037154962E+04  0.18046425906E+04  0.00000000000E+00 0. -1.
         21    1    1    2  504  503 -0.86394767203E+02  0.43816374696E+02 -0.65407865192E+02  0.11688506885E+03  0.00000000000E+00 0. -1.
         21    1    1    2  505  501  0.59102170524E+02  0.43579450326E+02  0.15936222402E+02  0.75141188677E+02  0.00000000000E+00 0. -1.
          1    1    1    2  501    0 -0.25278657003E+02 -0.63280437373E+02  0.49359781539E+03  0.49827926669E+03  0.00000000000E+00 0.  1.
<scales pt_clust_3="57.83847" pt_clust_4="54.10117" pt_clust_5="14000.00000" pt_clust_6="67.78089"></scales>
<clustering>
<clus scale="   57.838">  2  3  1 -1</clus>
<clus scale="   54.101">  2  4  1 -1</clus>
<clus scale="   67.781">  1  6  2 -1</clus>
<clus scale="   57.838">  2  3  1 -1</clus>
</clustering>
</event>
<event>
 6    0  0.2839294E+002  0.1310140E+03  0.7546771E-02  0.1225959E+00
          1   -1    0    0  505    0 -0.00000000000E+00  0.00000000000E+00  0.17009256744E+04  0.17009256744E+04  0.00000000000E+00 0.  1.
         21   -1    0    0  503  502  0.00000000000E+00 -0.00000000000E+00 -0.52839414576E+02  0.52839414576E+02  0.00000000000E+00 0.  1.
         21    1    1    2  503  501  0.13476581650E+02  0.38957133846E+02  0.44699774724E+02  0.60805808857E+02  0.00000000000E+00 0. -1.
         21    1    1    2  504  502 -0.14600981087E+03 -0.12941770455E+02  0.99560603969E+02  0.17719669341E+03  0.00000000000E+00 0.  1.
         21    1    1    2  505  504  0.47707659871E+02  0.41833609549E+02  0.27874450069E+03  0.28587509224E+03  0.00000000000E+00 0.  1.
          1    1    1    2  501    0  0.84825569349E+02 -0.67848972940E+02  0.12250813804E+04  0.12298874944E+04  0.00000000000E+00 0.  1.
<scales pt_clust_3="41.22228" pt_clust_4="131.01398" pt_clust_5="66.32252" pt_clust_6="14000.00000"></scales>
<clustering>
<clus scale="   41.222">  2  3  1 -1</clus>
<clus scale="   66.323">  1  5  2 -1</clus>
<clus scale="  131.014">  2  4  1 -1</clus>
<clus scale="   41.222">  2  3  1 -1</clus>
</clustering>
</event>
<event>
 6    0  0.2839294E+002  0.8952114E+02  0.7546771E-02  0.1304015E+00
          2   -1    0    0  505    0 -0.00000000000E+00  0.00000000000E+00  0.19002798581E+04  0.19002798581E+04  0.00000000000E+00 0.  1.
         21   -1    0    0  504  502  0.00000000000E+00 -0.00000000000E+00 -0.15496097475E+02  0.15496097475E+02  0.00000000000E+00 0.  1.
         21    1    1    2  503  501 -0.60732122316E+02  0.10826317749E+02  0.25691164529E+03  0.26421429432E+03  0.00000000000E+00 0.  1.
         21    1    1    2  504  503 -0.11738486324E+02  0.34712032087E+02  0.71448340502E+02  0.80296840494E+02  0.00000000000E+00 0.  1.
         21    1    1    2  505  502  0.12877463787E+03 -0.54567084413E+02  0.75710285656E+03  0.76991246871E+03  0.00000000000E+00 0.  1.
          2    1    1    2  501    0 -0.56304029228E+02  0.90287345765E+01  0.79932091828E+03  0.80135235206E+03  0.00000000000E+00 0.  1.
<scales pt_clust_3="14000.00000" pt_clust_4="36.64311" pt_clust_5="89.52114" pt_clust_6="58.66626"></scales>
<clustering>
<clus scale="   36.643">  2  4  1 -1</clus>
<clus scale="   58.666">  1  6  2 -1</clus>
<clus scale="   89.521">  1  5  2 -1</clus>
<clus scale="   36.643">  2  3  1 -1</clus>
</clustering>
</event>
<event>
 6    0  0.2839294E+002  0.9028888E+02  0.7546771E-02  0.1302154E+00
         21   -1    0    0  503  502  0.00000000000E+00  0.00000000000E+00  0.11564615433E+04  0.11564615433E+04  0.00000000000E+00 0. -1.
          2   -1    0    0  504    0 -0.00000000000E+00 -0.00000000000E+00 -0.58489984008E+03  0.58489984008E+03  0.00000000000E+00 0. -1.
         21    1    1    2  503  501  0.11189476472E+03  0.83011612881E+02 -0.42406870791E+03  0.44636939330E+03  0.00000000000E+00 0. -1.
         21    1    1    2  504  505 -0.44034640904E+02 -0.29954852928E+02 -0.47342712062E+02  0.71257807985E+02  0.00000000000E+00 0. -1.
         21    1    1    2  505  502 -0.86696741795E+02 -0.24615125023E+02  0.11282725006E+04  0.11318661869E+04  0.00000000000E+00 0. -1.
          2    1    1    2  501    0  0.18836617980E+02 -0.28441634930E+02 -0.85299377358E+02  0.91867995255E+02  0.00000000000E+00 0. -1.
<scales pt_clust_3="90.28888" pt_clust_4="53.46338" pt_clust_5="14000.00000" pt_clust_6="34.11370"></scales>
<clustering>
<clus scale="   34.114">  2  6  1 -1</clus>
<clus scale="   53.463">  2  4  1 -1</clus>
<clus scale="   90.289">  2  3  1 -1</clus>
<clus scale="   90.289">  1  3  2 -1</clus>
</clustering>
</event>
<event>
 6    0  0.2839294E+002  0.1008780E+03  0.7546771E-02  0.1278460E+00
         21   -1    0    0  501  502  0.00000000000E+00  0.00000000000E+00  0.57244107084E+03  0.57244107084E+03  0.00000000000E+00 0.  1.
          1   -1    0    0  504    0 -0.00000000000E+00 -0.00000000000E+00 -0.30301265383E+03  0.30301265383E+03  0.00000000000E+00 0.  1.
         21    1    1    2  503  502 -0.24770610772E+01  0.10280399036E+03  0.48445223363E+03  0.49524616398E+03  0.00000000000E+00 0.  1.
         21    1    1    2  504  505  0.89213215097E+01 -0.39219784664E+02 -0.22081926582E+03  0.22445251088E+03  0.00000000000E+00 0.  1.
         21    1    1    2  505  503 -0.45933556305E+02 -0.87362477233E+02  0.30694288217E+02  0.10336456526E+03  0.00000000000E+00 0.  1.
          1    1    1    2  501    0  0.39489295873E+02  0.23778271537E+02 -0.24898839017E+02  0.52390484539E+02  0.00000000000E+00 0.  1.
<scales pt_clust_3="100.87801" pt_clust_4="40.22165" pt_clust_5="14000.00000" pt_clust_6="44.05439"></scales>
<clustering>
<clus scale="   40.222">  2  4  1 -1</clus>
<clus scale="   44.054">  2  6  1 -1</clus>
<clus scale="  100.878">  1  3  2 -1</clus>
<clus scale="  100.878">  1  3  2 -1</clus>
</clustering>
</event>
<event>
 6    0  0.2839294E+002  0.1330693E+03  0.7546771E-02  0.1222971E+00
          1   -1    0    0  502    0 -0.00000000000E+00  0.00000000000E+00  0.26072721670E+04  0.26072721670E+04  0.00000000000E+00 0.  1.
         21   -1    0    0  503  502  0.00000000000E+00 -0.00000000000E+00 -0.17859011779E+02  0.17859011779E+02  0.00000000000E+00 0. -1.
         21    1    1    2  503  505  0.35921563765E+02  0.11059790024E+02  0.32462778252E+02  0.49663967527E+02  0.00000000000E+00 0. -1.
         21    1    1    2  504  501 -0.42353046137E+02 -0.62847160640E+02  0.84590861109E+03  0.84929672344E+03  0.00000000000E+00 0.  1.
         21    1    1    2  505  504  0.46303091466E+02  0.85647817205E+02  0.32813841494E+03  0.34227816791E+03  0.00000000000E+00 0. -1.
          1    1    1    2  501    0 -0.39871609094E+02 -0.33860446589E+02  0.13829033509E+04  0.13838923199E+04  0.00000000000E+00 0.  1.
<scales pt_clust_3="37.58560" pt_clust_4="49.43787" pt_clust_5="119.54142" pt_clust_6="49.43787"></scales>
<clustering>
<clus scale="   37.586">  2  3  1 -1</clus>
<clus scale="   49.438">  4  6 -1 -1</clus>
<clus scale="  119.541">  2  5  1 -1</clus>
<clus scale="   37.586">  2  3  1 -1</clus>
</clustering>
</event>
<event>
 6    0  0.2839294E+002  0.1166264E+03  0.7546771E-02  0.1248769E+00
         21   -1    0    0  505  502  0.00000000000E+00  0.00000000000E+00  0.17002241074E+03  0.17002241074E+03  0.00000000000E+00 0. -1.
          1   -1    0    0  504    0 -0.00000000000E+00 -0.00000000000E+00 -0.11184512942E+04  0.11184512942E+04  0.00000000000E+00 0. -1.
         21    1    1    2  503  501 -0.30927414699E+02 -0.38725382660E+02  0.57578831187E+02  0.75970270784E+02  0.00000000000E+00 0. -1.
         21    1    1    2  504  502 -0.27866591209E+02  0.55476895580E+02 -0.56053866253E+02  0.83643701321E+02  0.00000000000E+00 0. -1.
         21    1    1    2  505  503 -0.82826164768E+01 -0.97465599234E+02  0.59151869963E+02  0.11431136641E+03  0.00000000000E+00 0. -1.
          1    1    1    2  501    0  0.67076622384E+02  0.80714086314E+02 -0.10091057184E+04  0.10145483664E+04  0.00000000000E+00 0. -1.
<scales pt_clust_3="35.55885" pt_clust_4="62.08247" pt_clust_5="35.55885" pt_clust_6="105.38541"></scales>
<clustering>
<clus scale="   35.559">  3  5 -1 -1</clus>
<clus scale="   62.082">  1  4  2 -1</clus>
<clus scale="  105.385">  2  6  1 -1</clus>
<clus scale="   62.082">  1  3  2 -1</clus>
</clustering>
</event>
<event>
 6    0  0.2839294E+002  0.1068337E+03  0.7546771E-02  0.1266548E+00
         21   -1    0    0  504  502  0.00000000000E+00  0.00000000000E+00  0.54507294870E+02  0.54507294870E+02  0.00000000000E+00 0. -1.
          2   -1    0    0  503    0 -0.00000000000E+00 -0.00000000000E+00 -0.10793792230E+04  0.10793792230E+04  0.00000000000E+00 0.  1.
         21    1    1    2  503  505 -0.15620427511E+03  0.30481090412E+02 -0.47645530809E+03  0.50233308974E+03  0.00000000000E+00 0. -1.
         21    1    1    2  504  501  0.36971464218E+02  0.30006033571E+01 -0.18912982326E+03  0.19273293137E+03  0.00000000000E+00 0. -1.
         21    1    1    2  505  502  0.99750028684E+02 -0.81008412347E+01 -0.25196501885E+02  0.10320152886E+03  0.00000000000E+00 0. -1.
          2    1    1    2  501    0  0.19482782213E+02 -0.25380852534E+02 -0.33409029494E+03  0.33561896796E+03  0.00000000000E+00 0.  1.
<scales pt_clust_3="14000.00000" pt_clust_4="42.11415" pt_clust_5="106.83371" pt_clust_6="31.99635"></scales>
<clustering>
<clus scale="   31.996">  2  6  1 -1</clus>
<clus scale="   42.114">  2  4  1 -1</clus>
<clus scale="  106.834">  1  5  2 -1</clus>
<clus scale="  106.834">  1  3  2 -1</clus>
</clustering>
</event>
<event>
 6    0  0.2839294E+002  0.9110711E+02  0.7546771E-02  0.1300193E+00
         21   -1    0    0  505  502  0.00000000000E+00  0.00000000000E+00  0.45549351461E+02  0.45549351461E+02  0.00000000000E+00 0.  1.
          1   -1    0    0  504    0 -0.00000000000E+00 -0.00000000000E+00 -0.17724886798E+04  0.17724886798E+04  0.00000000000E+00 0. -1.
         21    1    1    2  503  502 -0.59914262481E+02 -0.89963690917E+02 -0.89753454691E+02  0.14049507878E+03  0.00000000000E+00 0.  1.
         21    1    1    2  504  503 -0.25681267308E+02 -0.16190426342E+02 -0.45676971557E+03  0.45777749012E+03  0.00000000000E+00 0. -1.
         21    1    1    2  505  501  0.21744857872E+02  0.77287021312E+02 -0.68199805708E+02  0.10534389401E+03  0.00000000000E+00 0.  1.
          1    1    1    2  501    0  0.63850671917E+02  0.28867095947E+02 -0.11122163524E+04  0.11144215683E+04  0.00000000000E+00 0. -1.
<scales pt_clust_3="91.10711" pt_clust_4="30.35881" pt_clust_5="14000.00000" pt_clust_6="44.75803"></scales>
<clustering>
<clus scale="   30.359">  2  4  1 -1</clus>
<clus scale="   44.758">  2  6  1 -1</clus>
<clus scale="   91.107">  2  3  1 -1</clus>
<clus scale="   91.107">  1  3  2 -1</clus>
</clustering>
</event>
<event>
 6    0  0.2839294E+002  0.1248305E+03  0.7546771E-02  0.1235334E+00
          2   -1    0    0  502    0 -0.00000000000E+00  0.00000000000E+00  0.33654139747E+04  0.33654139747E+04  0.00000000000E+00 0. -1.
         21   -1    0    0  504  502  0.00000000000E+00 -0.00000000000E+00 -0.59194350268E+02  0.59194350268E+02  0.00000000000E+00 0. -1.
         21    1    1    2  503  501 -0.14421497324E+03 -0.12002177654E+03  0.14276864252E+04  0.14399624002E+04  0.00000000000E+00 0. -1.
         21    1    1    2  504  505 -0.27535836201E+02  0.12724598430E+02 -0.19820873232E+00  0.30334418854E+02  0.00000000000E+00 0. -1.
         21    1    1    2  505  503  0.68129145285E+02  0.69957247476E+02  0.29791433490E+02  0.10209371392E+03  0.00000000000E+00 0. -1.
          2    1    1    2  501    0  0.10362166416E+03  0.37339930635E+02  0.18489399745E+04  0.18522177920E+04  0.00000000000E+00 0. -1.
<scales pt_clust_3="14000.00000" pt_clust_4="30.33377" pt_clust_5="92.39155" pt_clust_6="124.83054"></scales>
<clustering>
<clus scale="   30.334">  2  4  1 -1</clus>
<clus scale="   92.392">  2  5  1 -1</clus>
<clus scale="  124.831">  1  6  2 -1</clus>
<clus scale="   30.334">  2  3  1 -1</clus>
</clustering>
</event>
<event>
 6    0  0.2839294E+002  0.1158663E+03  0.7546771E-02  0.1250076E+00
         21   -1    0    0  504  502  0.00000000000E+00  0.00000000000E+00  0.49293097380E+02  0.49293097380E+02  0.00000000000E+00 0.  1.
          1   -1    0    0  505    0 -0.00000000000E+00 -0.00000000000E+00 -0.45530477011E+04  0.45530477011E+04  0.00000000000E+00 0.  1.
         21    1    1    2  503  501 -0.44540568184E+02 -0.85452706940E+01 -0.14024821555E+04  0.14032152652E+04  0.00000000000E+00 0.  1.
         21    1    1    2  504  503  0.17291928046E+03 -0.14224613148E+02 -0.22229762450E+03  0.28199228896E+03  0.00000000000E+00 0.  1.
         21    1    1    2  505  502 -0.69690089362E+02 -0.11085115596E+02 -0.47991243457E+02  0.85339016819E+02  0.00000000000E+00 0.  1.
          1    1    1    2  501    0 -0.58688622917E+02  0.33854999438E+02 -0.28309835802E+04  0.28317942275E+04  0.00000000000E+00 0.  1.
<scales pt_clust_3="34.48338" pt_clust_4="107.92857" pt_clust_5="70.56620" pt_clust_6="34.48338"></scales>
<clustering>
<clus scale="   34.483">  3  6 -1 -1</clus>
<clus scale="   70.566">  1  5  2 -1</clus>
<clus scale="  107.929">  1  4  2 -1</clus>
<clus scale="   70.566">  1  3  2 -1</clus>
</clustering>
</event>
<event>
 6    0  0.2839294E+002  0.3112775E+03  0.7546771E-02  0.1079735E+00
          3   -1    0    0  503    0 -0.00000000000E+00  0.00000000000E+00  0.28927156484E+03  0.28927156484E+03  0.00000000000E+00 0.  1.
         21   -1    0    0  501  502  0.00000000000E+00 -0.00000000000E+00 -0.21611627530E+04  0.21611627530E+04  0.00000000000E+00 0.  1.
         21    1    1    2  503  504  0.70091141870E+01  0.31103167060E+02  0.21439455485E+02  0.38421152174E+02  0.00000000000E+00 0. -1.
         21    1    1    2  504  505  0.64655558116E+02 -0.27856868358E+02 -0.86002835319E+03  0.86290504379E+03  0.00000000000E+00 0.  1.
         21    1    1    2  505  502  0.14159544795E+03 -0.17298729074E+03 -0.12059298901E+04  0.12264749379E+04  0.00000000000E+00 0.  1.
          3    1    1    2  501    0 -0.21326012025E+03  0.16974099204E+03  0.17262759958E+03  0.32263318398E+03  0.00000000000E+00 0.  1.
<scales pt_clust_3="31.88314" pt_clust_4="67.55445" pt_clust_5="67.55445" pt_clust_6="287.13466"></scales>
<clustering>
<clus scale="   31.883">  1  3  2 -1</clus>
<clus scale="   67.554">  4  5 -1 -1</clus>
<clus scale="  287.135">  1  6  2 -1</clus>
<clus scale="  311.278">  2  3  1 -1</clus>
</clustering>
</event>
<event>
 6    0  0.2839294E+002  0.1455210E+03  0.7546771E-02  0.1206087E+00
          1   -1    0    0  503    0 -0.00000000000E+00  0.00000000000E+00  0.10157263794E+04  0.10157263794E+04  0.00000000000E+00 0. -1.
         21   -1    0    0  504  502  0.00000000000E+00 -0.00000000000E+00 -0.15369375231E+03  0.15369375231E+03  0.00000000000E+00 0. -1.
         21    1    1    2  503  502 -0.16547561361E+02  0.25188620694E+02  0.16438097574E+03  0.16712089511E+03  0.00000000000E+00 0.  1.
         21    1    1    2  504  505  0.75516226962E+02 -0.14201874347E+03 -0.62350268180E+02  0.17250965182E+03  0.00000000000E+00 0. -1.
         21    1    1    2  505  501 -0.26046489386E+01  0.12368730196E+03  0.79793050513E+02  0.14721502563E+03  0.00000000000E+00 0. -1.
          1    1    1    2  501    0 -0.56364016662E+02 -0.68571791896E+01  0.68020886904E+03  0.68257455915E+03  0.00000000000E+00 0. -1.
<scales pt_clust_3="30.13782" pt_clust_4="145.52096" pt_clust_5="14000.00000" pt_clust_6="70.89506"></scales>
<clustering>
<clus scale="   30.138">  1  3  2 -1</clus>
<clus scale="   70.895">  1  6  2 -1</clus>
<clus scale="  145.521">  2  4  1 -1</clus>
<clus scale="  145.521">  2  3  1 -1</clus>
</clustering>
</event>
<event>
 6    0  0.2839294E+002  0.7889929E+02  0.7546771E-02  0.1332204E+00
          2   -1    0    0  505    0 -0.00000000000E+00  0.00000000000E+00  0.46130424310E+03  0.46130424310E+03  0.00000000000E+00 0. -1.
         21   -1    0    0  504  502  0.00000000000E+00 -0.00000000000E+00 -0.10138502923E+03  0.10138502923E+03  0.00000000000E+00 0. -1.
         21    1    1    2  503  502  0.76219397373E+02  0.37063332085E+02  0.81056995898E+00  0.84756971069E+02  0.00000000000E+00 0. -1.
         21    1    1    2  504  501 -0.45413833183E+02  0.33211644766E+02 -0.28960347038E+02  0.63278205513E+02  0.00000000000E+00 0. -1.
         21    1    1    2  505  503 -0.14172227979E+02 -0.10087880421E+03  0.21240571091E+03  0.23557073504E+03  0.00000000000E+00 0. -1.
          2    1    1    2  501    0 -0.16633336212E+02  0.30603827357E+02  0.17566328005E+03  0.17908336070E+03  0.00000000000E+00 0. -1.
<scales pt_clust_3="14000.00000" pt_clust_4="58.17225" pt_clust_5="78.89929" pt_clust_6="34.83191"></scales>
<clustering>
<clus scale="   34.832">  1  6  2 -1</clus>
<clus scale="   58.172">  2  4  1 -1</clus>
<clus scale="   78.899">  1  5  2 -1</clus>
<clus scale="   58.172">  2  3  1 -1</clus>
</clustering>
</event>
<event>
 6    0  0.2839294E+002  0.1728706E+03  0.7546771E-02  0.1174887E+00
          2   -1    0    0  503    0 -0.00000000000E+00  0.00000000000E+00  0.16423510753E+04  0.16423510753E+04  0.00000000000E+00 0.  1.
         21   -1    0    0  505  502  0.00000000000E+00 -0.00000000000E+00 -0.57727244268E+03  0.57727244268E+03  0.00000000000E+00 0. -1.
         21    1    1    2  503  502 -0.60043537331E+02 -0.23203633700E+02  0.20934742551E+03  0.21902050032E+03  0.00000000000E+00 0.  1.
         21    1    1    2  504  501  0.14111110584E+03  0.75876070001E+02 -0.23672666324E+02  0.16195652911E+03  0.00000000000E+00 0.  1.
         21    1    1    2  505  504  0.32177929176E+02 -0.33126056196E+02 -0.47607253145E+03  0.47830723382E+03  0.00000000000E+00 0. -1.
          2    1    1    2  501    0 -0.11324549769E+03 -0.19546380105E+02  0.13554764049E+04  0.13603392547E+04  0.00000000000E+00 0.  1.
<scales pt_clust_3="63.53085" pt_clust_4="172.87062" pt_clust_5="46.18176" pt_clust_6="14000.00000"></scales>
<clustering>
<clus scale="   46.182">  2  5  1 -1</clus>
<clus scale="   63.531">  1  3  2 -1</clus>
<clus scale="  172.871">  2  4  1 -1</clus>
<clus scale="   46.182">  2  3  1 -1</clus>
</clustering>
</event>
<event>
 6    0  0.2839294E+002  0.7697384E+02  0.7546771E-02  0.1337865E+00
         21   -1    0    0  503  502  0.00000000000E+00  0.00000000000E+00  0.23563297997E+03  0.23563297997E+03  0.00000000000E+00 0.  1.
          2   -1    0    0  504    0 -0.00000000000E+00 -0.00000000000E+00 -0.70686085516E+03  0.70686085516E+03  0.00000000000E+00 0.  1.
         21    1    1    2  503  501  0.30511103253E+02 -0.60077042276E+01  0.19772083615E+03  0.20015131521E+03  0.00000000000E+00 0.  1.
         21    1    1    2  504  505  0.53916881597E+02  0.35771362722E+02 -0.33880913645E+03  0.34493224184E+03  0.00000000000E+00 0.  1.
         21    1    1    2  505  502  0.81299665020E+01  0.41082791710E+02  0.53773244833E+01  0.42223308120E+02  0.00000000000E+00 0.  1.
          2    1    1    2  501    0 -0.92557951352E+02 -0.70846450205E+02 -0.33551689938E+03  0.35518696996E+03  0.00000000000E+00 0.  1.
<scales pt_clust_3="31.09694" pt_clust_4="76.97384" pt_clust_5="46.50017" pt_clust_6="14000.00000"></scales>
<clustering>
<clus scale="   31.097">  1  3  2 -1</clus>
<clus scale="   46.500">  1  5  2 -1</clus>
<clus scale="   76.974">  2  4  1 -1</clus>
<clus scale="   31.097">  1  3  2 -1</clus>
</clustering>
</event>
<event>
 6    0  0.2839294E+002  0.1139860E+03  0.7546771E-02  0.1253362E+00
         -1   -1    0    0    0  501 -0.00000000000E+00  0.00000000000E+00  0.42102940230E+03  0.42102940230E+03  0.00000000000E+00 0.  1.
         21   -1    0    0  505  502  0.00000000000E+00 -0.00000000000E+00 -0.19475879214E+03  0.19475879214E+03  0.00000000000E+00 0.  1.
         21    1    1    2  503  502  0.73491031277E+02 -0.23229412589E+02  0.87554560594E+02  0.11664621026E+03  0.00000000000E+00 0.  1.
         21    1    1    2  504  501 -0.18230175266E+03 -0.31135415251E+02 -0.82312962219E+02  0.20243212901E+03  0.00000000000E+00 0.  1.
         21    1    1    2  505  504  0.55836835671E+02  0.47824040451E+02  0.44522344359E+01  0.73652654088E+02  0.00000000000E+00 0. -1.
         -1    1    1    2    0  503  0.52973885713E+02  0.65407873889E+01  0.21657677735E+03  0.22305720108E+03  0.00000000000E+00 0.  1.
<scales pt_clust_3="14000.00000" pt_clust_4="113.98600" pt_clust_5="82.35171" pt_clust_6="53.37616"></scales>
<clustering>
<clus scale="   53.376">  1  6  2 -1</clus>
<clus scale="   82.352">  2  5  1 -1</clus>
<clus scale="  113.986">  2  4  1 -1</clus>
<clus scale="   82.352">  2  3  1 -1</clus>
</clustering>
</event>
<event>
 6    0  0.2839294E+002  0.1163304E+03  0.7546771E-02  0.1249277E+00
          3   -1    0    0  504    0 -0.00000000000E+00  0.00000000000E+00  0.11773617731E+03  0.11773617731E+03  0.00000000000E+00 0. -1.
         21   -1    0    0  503  502  0.00000000000E+00 -0.00000000000E+00 -0.73082524892E+03  0.73082524892E+03  0.00000000000E+00 0. -1.
         21    1    1    2  503  505 -0.41662942725E+02 -0.20237063758E+02 -0.81743378150E+02  0.93953815342E+02  0.00000000000E+00 0. -1.
         21    1    1    2  504  502 -0.30070026227E+02  0.11614350904E+03 -0.52799315782E+03  0.54145202546E+03  0.00000000000E+00 0. -1.
         21    1    1    2  505  501  0.10429140782E+03 -0.61450659366E+02 -0.63403092141E+02  0.13664857619E+03  0.00000000000E+00 0. -1.
          3    1    1    2  501    0 -0.32558438872E+02 -0.34455785920E+02  0.60050556499E+02  0.76507009228E+02  0.00000000000E+00 0. -1.
<scales pt_clust_3="46.31781" pt_clust_4="14000.00000" pt_clust_5="116.33037" pt_clust_6="47.96008"></scales>
<clustering>
<clus scale="   46.318">  2  3  1 -1</clus>
<clus scale="   47.960">  1  6  2 -1</clus>
<clus scale="  116.330">  1  5  2 -1</clus>
<clus scale="   46.318">  2  3  1 -1</clus>
</clustering>
</event>
<event>
 6    0  0.2839294E+002  0.1181877E+03  0.7546771E-02  0.1246117E+00
          2   -1    0    0  505    0 -0.00000000000E+00  0.00000000000E+00  0.89912962269E+03  0.89912962269E+03  0.00000000000E+00 0. -1.
         21   -1    0    0  504  502  0.00000000000E+00 -0.00000000000E+00 -0.62685020817E+03  0.62685020817E+03  0.00000000000E+00 0.  1.
         21    1    1    2  503  502  0.46821467314E+02 -0.49812565577E+01 -0.46153950996E+03  0.46393510535E+03  0.00000000000E+00 0.  1.
         21    1    1    2  504  501 -0.55118325470E+02  0.12373645713E+03 -0.12905585787E+03  0.18709397392E+03  0.00000000000E+00 0.  1.
         21    1    1    2  505  503 -0.15753003976E+02 -0.35925205126E+02  0.10334535876E+03  0.11053976966E+03  0.00000000000E+00 0. -1.
          2    1    1    2  501    0  0.24049862132E+02 -0.82829995447E+02  0.75952942359E+03  0.76441098194E+03  0.00000000000E+00 0. -1.
<scales pt_clust_3="47.06779" pt_clust_4="14000.00000" pt_clust_5="39.22725" pt_clust_6="118.18768"></scales>
<clustering>
<clus scale="   39.227">  1  5  2 -1</clus>
<clus scale="   47.068">  2  3  1 -1</clus>
<clus scale="  118.188">  1  6  2 -1</clus>
<clus scale="   47.068">  2  3  1 -1</clus>
</clustering>
</event>
<event>
 6    0  0.2839294E+002  0.2595762E+03  0.7546771E-02  0.1107398E+00
         21   -1    0    0  505  502  0.00000000000E+00  0.00000000000E+00  0.14404986214E+03  0.14404986214E+03  0.00000000000E+00 0.  1.
          2   -1    0    0  504    0 -0.00000000000E+00 -0.00000000000E+00 -0.16039645398E+04  0.16039645398E+04  0.00000000000E+00 0. -1.
         21    1    1    2  503  502 -0.13540853976E+03  0.16502595545E+03 -0.37501686427E+02  0.21673812562E+03  0.00000000000E+00 0.  1.
         21    1    1    2  504  503 -0.16467987039E+02  0.66295472339E+02  0.63258961535E+01  0.68602486922E+02  0.00000000000E+00 0.  1.
         21    1    1    2  505  501 -0.20443623653E+01 -0.34441466024E+02 -0.45827172673E+02  0.57363087039E+02  0.00000000000E+00 0. -1.
          2    1    1    2  501    0  0.15392088916E+03 -0.19687996176E+03 -0.13829117147E+04  0.14053107023E+04  0.00000000000E+00 0. -1.
<scales pt_clust_3="34.12544" pt_clust_4="34.12544" pt_clust_5="34.50209" pt_clust_6="252.00905"></scales>
<clustering>
<clus scale="   34.502">  1  5  2 -1</clus>
<clus scale="   34.125">  3  4 -1 -1</clus>
<clus scale="  252.009">  2  6  1 -1</clus>
<clus scale="   34.502">  1  3  2 -1</clus>
</clustering>
</event>
<event>
 6    0  0.2839294E+002  0.8887395E+02  0.7546771E-02  0.1305602E+00
          1   -1    0    0  505    0 -0.00000000000E+00  0.00000000000E+00  0.15437497926E+04  0.15437497926E+04  0.00000000000E+00 0.  1.
         21   -1    0    0  503  502  0.00000000000E+00 -0.00000000000E+00 -0.10134080792E+03  0.10134080792E+03  0.00000000000E+00 0. -1.
         21    1    1    2  503  501 -0.20942587183E+02  0.24226720954E+02 -0.35738578636E+02  0.47987206306E+02  0.00000000000E+00 0. -1.
         21    1    1    2  504  502  0.10889559937E+03 -0.15209557833E+02  0.26146913506E+01  0.10998372072E+03  0.00000000000E+00 0. -1.
         21    1    1    2  505  504 -0.33209041825E+02 -0.56602472395E+02  0.22216857499E+03  0.23165827430E+03  0.00000000000E+00 0.  1.
          1    1    1    2  501    0 -0.54743970362E+02  0.47585309274E+02  0.12533642970E+04  0.12554613992E+04  0.00000000000E+00 0.  1.
<scales pt_clust_3="32.02383" pt_clust_4="14000.00000" pt_clust_5="64.84891" pt_clust_6="88.87395"></scales>
<clustering>
<clus scale="   32.024">  2  3  1 -1</clus>
<clus scale="   64.849">  1  5  2 -1</clus>
<clus scale="   88.874">  1  6  2 -1</clus>
<clus scale="   32.024">  2  3  1 -1</clus>
</clustering>
</event>
<event>
 6    0  0.2839294E+002  0.1013468E+03  0.7546771E-02  0.1277489E+00
         -1   -1    0    0    0  501 -0.00000000000E+00  0.00000000000E+00  0.41256050277E+02  0.41256050277E+02  0.00000000000E+00 0. -1.
         21   -1    0    0  501  502  0.00000000000E+00 -0.00000000000E+00 -0.70170087178E+03  0.70170087178E+03  0.00000000000E+00 0.  1.
         21    1    1    2  503  502  0.26769933465E+02 -0.53723405639E+02 -0.11975638355E+03  0.13395680293E+03  0.00000000000E+00 0.  1.
         21    1    1    2  504  505  0.36980481041E+01  0.76222173550E+02 -0.18658156411E+03  0.20158416448E+03  0.00000000000E+00 0.  1.
         21    1    1    2  505  503 -0.10830603267E+02  0.53705446990E+02 -0.31465057754E+03  0.31938466298E+03  0.00000000000E+00 0.  1.
         -1    1    1    2    0  504 -0.19637378303E+02 -0.76204214901E+02 -0.39456296311E+02  0.88031291674E+02  0.00000000000E+00 0. -1.
<scales pt_clust_3="60.02361" pt_clust_4="48.25046" pt_clust_5="48.25046" pt_clust_6="83.83538"></scales>
<clustering>
<clus scale="   48.250">  4  5 -1 -1</clus>
<clus scale="   60.024">  2  3  1 -1</clus>
<clus scale="   83.835">  1  6  2 -1</clus>
<clus scale="   60.024">  2  3  1 -1</clus>
</clustering>
</event>
<event>
 6    0  0.2839294E+002  0.1620424E+03  0.7546771E-02  0.1186410E+00
         21   -1    0    0  504  502  0.00000000000E+00  0.00000000000E+00  0.86427320567E+02  0.86427320567E+02  0.00000000000E+00 0. -1.
          2   -1    0    0  503    0 -0.00000000000E+00 -0.00000000000E+00 -0.17034475006E+04  0.17034475006E+04  0.00000000000E+00 0. -1.
         21    1    1    2  503  505 -0.17677777142E+03  0.16978556211E+03 -0.72617020176E+03  0.76642069355E+03  0.00000000000E+00 0. -1.
         21    1    1    2  504  501  0.11968211402E+03 -0.68511386540E+02 -0.34175443331E+02  0.14207596359E+03  0.00000000000E+00 0. -1.
         21    1    1    2  505  502  0.13097325658E+02  0.34069635699E+02 -0.48134224826E+02  0.60408473045E+02  0.00000000000E+00 0. -1.
          2    1    1    2  501    0  0.43998331738E+02 -0.13534381126E+03 -0.80854031015E+03  0.82096969103E+03  0.00000000000E+00 0. -1.
<scales pt_clust_3="162.04242" pt_clust_4="136.34101" pt_clust_5="36.50041" pt_clust_6="14000.00000"></scales>
<clustering>
<clus scale="   36.500">  1  5  2 -1</clus>
<clus scale="  136.341">  1  4  2 -1</clus>
<clus scale="  162.042">  1  3  2 -1</clus>
<clus scale="   36.500">  1  3  2 -1</clus>
</clustering>
</event>
<event>
 6    0  0.2839294E+002  0.1184618E+03  0.7546771E-02  0.1245656E+00
         21   -1    0    0  505  502  0.00000000000E+00  0.00000000000E+00  0.45788186232E+03  0.45788186232E+03  0.00000000000E+00 0.  1.
         -1   -1    0    0    0  501 -0.00000000000E+00 -0.00000000000E+00 -0.53033765478E+03  0.53033765478E+03  0.00000000000E+00 0. -1.
         21    1    1    2  503  502  0.52069078268E+02 -0.51427210602E+02  0.35893649093E+03  0.36632137724E+03  0.00000000000E+00 0.  1.
         21    1    1    2  504  503 -0.14450068441E+03 -0.34154243269E+02  0.95565636886E+00  0.14848526327E+03  0.00000000000E+00 0. -1.
         21    1    1    2  505  501  0.59667868792E+02  0.21345778472E+02 -0.41001602626E+02  0.75478660843E+02  0.00000000000E+00 0. -1.
         -1    1    1    2    0  504  0.32763737349E+02  0.64235675400E+02 -0.39134633713E+03  0.39793421575E+03  0.00000000000E+00 0. -1.
<scales pt_clust_3="73.40041" pt_clust_4="118.46183" pt_clust_5="63.37110" pt_clust_6="14000.00000"></scales>
<clustering>
<clus scale="   63.371">  2  5  1 -1</clus>
<clus scale="   73.400">  1  3  2 -1</clus>
<clus scale="  118.462">  1  4  2 -1</clus>
<clus scale="   73.400">  1  3  2 -1</clus>
</clustering>
</event>
<event>
 6    0  0.2839294E+002  0.2675656E+03  0.7546771E-02  0.1102681E+00
          1   -1    0    0  503    0 -0.00000000000E+00  0.00000000000E+00  0.88546124986E+03  0.88546124986E+03  0.00000000000E+00 0. -1.
         21   -1    0    0  505  502  0.00000000000E+00 -0.00000000000E+00 -0.15474572838E+04  0.15474572838E+04  0.00000000000E+00 0. -1.
         21    1    1    2  503  502 -0.13242460556E+02  0.86809511512E+02 -0.12843277503E+04  0.12873263084E+04  0.00000000000E+00 0. -1.
         21    1    1    2  504  501 -0.18325662235E+03 -0.10884559098E+03  0.17792927670E+03  0.27764938289E+03  0.00000000000E+00 0. -1.
         21    1    1    2  505  504 -0.11870065664E+03 -0.28803385397E+02 -0.14986697424E+03  0.19333802229E+03  0.00000000000E+00 0.  1.
          1    1    1    2  501    0  0.31519973955E+03  0.50839464865E+02  0.59426941390E+03  0.67460482009E+03  0.00000000000E+00 0. -1.
<scales pt_clust_3="87.81375" pt_clust_4="267.56564" pt_clust_5="130.45629" pt_clust_6="14000.00000"></scales>
<clustering>
<clus scale="   87.814">  2  3  1 -1</clus>
<clus scale="  130.456">  2  5  1 -1</clus>
<clus scale="  267.566">  2  4  1 -1</clus>
<clus scale="   87.814">  2  3  1 -1</clus>
</clustering>
</event>
<event>
 6    0  0.2839294E+002  0.7601042E+02  0.7546771E-02  0.1340770E+00
         -1   -1    0    0    0  501 -0.00000000000E+00  0.00000000000E+00  0.15865743229E+04  0.15865743229E+04  0.00000000000E+00 0. -1.
         21   -1    0    0  503  502  0.00000000000E+00 -0.00000000000E+00 -0.58732383938E+02  0.58732383938E+02  0.00000000000E+00 0. -1.
         21    1    1    2  503  501  0.40692463459E+00  0.37764862208E+02  0.35396194811E+03  0.35597108185E+03  0.00000000000E+00 0. -1.
         21    1    1    2  504  502 -0.61463277226E+02  0.44830516399E+02 -0.22729867263E+02  0.79398718590E+02  0.00000000000E+00 0. -1.
         21    1    1    2  505  504  0.12718771265E+02 -0.10595623353E+03  0.50001701619E+03  0.51127830684E+03  0.00000000000E+00 0. -1.
         -1    1    1    2    0  505  0.48337581326E+02  0.23360854923E+02  0.69659284191E+03  0.69865859954E+03  0.00000000000E+00 0. -1.
<scales pt_clust_3="37.76705" pt_clust_4="14000.00000" pt_clust_5="76.01042" pt_clust_6="66.04254"></scales>
<clustering>
<clus scale="   37.767">  1  3  2 -1</clus>
<clus scale="   66.043">  1  6  2 -1</clus>
<clus scale="   76.010">  1  5  2 -1</clus>
<clus scale="   76.010">  2  3  1 -1</clus>
</clustering>
</event>
<event>
 6    0  0.2839294E+002  0.9869094E+02  0.7546771E-02  0.1283073E+00
         21   -1    0    0  505  502  0.00000000000E+00  0.00000000000E+00  0.11761061089E+03  0.11761061089E+03  0.00000000000E+00 0. -1.
          1   -1    0    0  503    0 -0.00000000000E+00 -0.00000000000E+00 -0.69922618696E+03  0.69922618696E+03  0.00000000000E+00 0.  1.
         21    1    1    2  503  502  0.34930610147E+02 -0.20906518116E+02 -0.83638636414E+02  0.93019629789E+02  0.00000000000E+00 0.  1.
         21    1    1    2  504  501 -0.27396401336E+02 -0.51565621283E+02  0.55927026549E+02  0.80854241714E+02  0.00000000000E+00 0. -1.
         21    1    1    2  505  504 -0.57093815112E+02 -0.12096139602E+02  0.19276025545E+02  0.61462065358E+02  0.00000000000E+00 0. -1.
          1    1    1    2  501    0  0.49559606301E+02  0.84568279001E+02 -0.57317999175E+03  0.58150086099E+03  0.00000000000E+00 0.  1.
<scales pt_clust_3="40.70909" pt_clust_4="98.69094" pt_clust_5="57.33882" pt_clust_6="14000.00000"></scales>
<clustering>
<clus scale="   40.709">  2  3  1 -1</clus>
<clus scale="   57.339">  1  5  2 -1</clus>
<clus scale="   98.691">  1  4  2 -1</clus>
<clus scale="   57.339">  1  3  2 -1</clus>
</clustering>
</event>
<event>
 6    0  0.2839294E+002  0.1442760E+03  0.7546771E-02  0.1207688E+00
          1   -1    0    0  502    0 -0.00000000000E+00  0.00000000000E+00  0.28848973042E+04  0.28848973042E+04  0.00000000000E+00 0. -1.
         21   -1    0    0  503  502  0.00000000000E+00 -0.00000000000E+00 -0.21046804902E+02  0.21046804902E+02  0.00000000000E+00 0.  1.
         21    1    1    2  503  504 -0.34280200799E+02 -0.35818774996E+02  0.20890833000E+03  0.21471098517E+03  0.00000000000E+00 0.  1.
         21    1    1    2  504  505  0.43518986223E+02  0.33454439292E+02  0.15175039670E+03  0.16137312221E+03  0.00000000000E+00 0.  1.
         21    1    1    2  505  501 -0.47859405048E+02  0.14041574835E+03  0.49993486485E+03  0.52148055968E+03  0.00000000000E+00 0.  1.
          1    1    1    2  501    0  0.38620619624E+02 -0.13805141265E+03  0.20032569077E+04  0.20083794420E+04  0.00000000000E+00 0. -1.
<scales pt_clust_3="49.57940" pt_clust_4="41.94424" pt_clust_5="144.27601" pt_clust_6="14000.00000"></scales>
<clustering>
<clus scale="   49.579">  2  3  1 -1</clus>
<clus scale="   41.944">  2  4  1 -1</clus>
<clus scale="  144.276">  2  5  1 -1</clus>
<clus scale="   49.579">  2  3  1 -1</clus>
</clustering>
</event>
<event>
 6    0  0.2839294E+002  0.1723062E+03  0.7546771E-02  0.1175464E+00
         21   -1    0    0  505  502  0.00000000000E+00  0.00000000000E+00  0.35397087723E+03  0.35397087723E+03  0.00000000000E+00 0. -1.
          2   -1    0    0  504    0 -0.00000000000E+00 -0.00000000000E+00 -0.61767714449E+03  0.61767714449E+03  0.00000000000E+00 0. -1.
         21    1    1    2  503  502 -0.32062807132E+02 -0.26729515004E+02  0.28140976411E+03  0.28448892054E+03  0.00000000000E+00 0. -1.
         21    1    1    2  504  503 -0.35353183381E+02 -0.12653167892E+03 -0.20888968939E+02  0.13302805106E+03  0.00000000000E+00 0. -1.
         21    1    1    2  505  501 -0.98157872639E+01  0.43946645634E+02 -0.11172824345E+03  0.12046102161E+03  0.00000000000E+00 0.  1.
          2    1    1    2  501    0  0.77231777777E+02  0.10931454829E+03 -0.41249881899E+03  0.43367002852E+03  0.00000000000E+00 0. -1.
<scales pt_clust_3="41.74315" pt_clust_4="159.61239" pt_clust_5="37.64949" pt_clust_6="37.64949"></scales>
<clustering>
<clus scale="   37.649">  5  6 -1 -1</clus>
<clus scale="   41.743">  1  3  2 -1</clus>
<clus scale="  159.612">  1  4  2 -1</clus>
<clus scale="   41.743">  1  3  2 -1</clus>
</clustering>
</event>
<event>
 6    0  0.2839294E+002  0.1425293E+03  0.7546771E-02  0.1209966E+00
          4   -1    0    0  503    0 -0.00000000000E+00  0.00000000000E+00  0.62327989320E+03  0.62327989320E+03  0.00000000000E+00 0.  1.
         21   -1    0    0  501  502  0.00000000000E+00 -0.00000000000E+00 -0.20368684336E+03  0.20368684336E+03  0.00000000000E+00 0.  1.
         21    1    1    2  503  504  0.11154554032E+02 -0.29195660406E+02  0.28675225611E+02  0.42415554058E+02  0.00000000000E+00 0.  1.
         21    1    1    2  504  505 -0.11755237371E+02  0.36343466351E+02  0.82911847526E+02  0.91287499759E+02  0.00000000000E+00 0.  1.
         21    1    1    2  505  502  0.99952932666E+02  0.10124138636E+03 -0.15326898887E+03  0.20912147190E+03  0.00000000000E+00 0.  1.
          4    1    1    2  501    0 -0.99352249327E+02 -0.10838919230E+03  0.46127496558E+03  0.48414221085E+03  0.00000000000E+00 0.  1.
<scales pt_clust_3="31.25397" pt_clust_4="33.57275" pt_clust_5="142.52930" pt_clust_6="14000.00000"></scales>
<clustering>
<clus scale="   31.254">  1  3  2 -1</clus>
<clus scale="   33.573">  1  4  2 -1</clus>
<clus scale="  142.529">  2  5  1 -1</clus>
<clus scale="  142.529">  2  3  1 -1</clus>
</clustering>
</event>
<event>
 6    0  0.2839294E+002  0.1750499E+03  0.7546771E-02  0.1172682E+00
         21   -1    0    0  505  502  0.00000000000E+00  0.00000000000E+00  0.25240852046E+03  0.25240852046E+03  0.00000000000E+00 0. -1.
          2   -1    0    0  504    0 -0.00000000000E+00 -0.00000000000E+00 -0.28539092864E+03  0.28539092864E+03  0.00000000000E+00 0. -1.
         21    1    1    2  503  501 -0.51063776074E+02 -0.46574733693E+02 -0.61538101507E+02  0.92540007470E+02  0.00000000000E+00 0. -1.
         21    1    1    2  504  502  0.62773567974E+02  0.14513043291E+03 -0.71130320610E+02  0.17338652169E+03  0.00000000000E+00 0. -1.
         21    1    1    2  505  503  0.68729763583E+02 -0.12814671791E+02  0.13249846170E+03  0.14981267826E+03  0.00000000000E+00 0. -1.
          2    1    1    2  501    0 -0.80439555483E+02 -0.85741027429E+02 -0.32812447759E+02  0.12206024168E+03  0.00000000000E+00 0. -1.
<scales pt_clust_3="37.17351" pt_clust_4="168.20175" pt_clust_5="69.91421" pt_clust_6="37.17351"></scales>
<clustering>
<clus scale="   37.174">  3  6 -1 -1</clus>
<clus scale="   69.914">  1  5  2 -1</clus>
<clus scale="  168.202">  2  4  1 -1</clus>
<clus scale="   69.914">  1  3  2 -1</clus>
</clustering>
</event>
<event>
 6    0  0.2839294E+002  0.1289448E+03  0.7546771E-02  0.1229030E+00
         21   -1    0    0  503  502  0.00000000000E+00  0.00000000000E+00  0.13019362951E+03  0.13019362951E+03  0.00000000000E+00 0.  1.
          2   -1    0    0  504    0 -0.00000000000E+00 -0.00000000000E+00 -0.24046522594E+04  0.24046522594E+04  0.00000000000E+00 0.  1.
         21    1    1    2  503  501  0.34329091986E+01 -0.12813038034E+03 -0.49836606717E+03  0.51458518841E+03  0.00000000000E+00 0.  1.
         21    1    1    2  504  505  0.20799381795E+02  0.50954814594E+02 -0.53425331370E+01  0.55295117991E+02  0.00000000000E+00 0.  1.
         21    1    1    2  505  502  0.29285693414E+02 -0.42789368838E+02  0.87698475358E+02  0.10188034405E+03  0.00000000000E+00 0.  1.
          2    1    1    2  501    0 -0.53517984408E+02  0.11996493458E+03 -0.18584485050E+04  0.18630852385E+04  0.00000000000E+00 0.  1.
<scales pt_clust_3="14000.00000" pt_clust_4="46.37033" pt_clust_5="51.85154" pt_clust_6="128.94477"></scales>
<clustering>
<clus scale="   51.852">  1  5  2 -1</clus>
<clus scale="   46.370">  1  4  2 -1</clus>
<clus scale="  128.945">  2  6  1 -1</clus>
<clus scale="   51.852">  1  3  2 -1</clus>
</clustering>
</event>
<event>
 6    0  0.2839294E+002  0.7221461E+02  0.7546771E-02  0.1352720E+00
          4   -1    0    0  505    0 -0.00000000000E+00  0.00000000000E+00  0.36203332733E+03  0.36203332733E+03  0.00000000000E+00 0.  1.
         21   -1    0    0  504  502  0.00000000000E+00 -0.00000000000E+00 -0.48088179523E+03  0.48088179523E+03  0.00000000000E+00 0. -1.
         21    1    1    2  503  502  0.92921623486E+02  0.66423784883E+02 -0.25664945050E+02  0.11706936710E+03  0.00000000000E+00 0.  1.
         21    1    1    2  504  501 -0.67466244061E+02 -0.17939134631E+02 -0.38913191492E+03  0.39534434844E+03  0.00000000000E+00 0. -1.
         21    1    1    2  505  503 -0.79769623735E+02 -0.10019415421E+02  0.15389947795E+03  0.17363361100E+03  0.00000000000E+00 0.  1.
          4    1    1    2  501    0  0.54314244310E+02 -0.38465234831E+02  0.14204891412E+03  0.15686779602E+03  0.00000000000E+00 0.  1.
<scales pt_clust_3="14000.00000" pt_clust_4="72.21461" pt_clust_5="54.87026" pt_clust_6="66.55533"></scales>
<clustering>
<clus scale="   66.555">  1  6  2 -1</clus>
<clus scale="   54.870">  1  5  2 -1</clus>
<clus scale="   72.215">  2  4  1 -1</clus>
<clus scale="   72.215">  2  3  1 -1</clus>
</clustering>
</event>
<event>
 6    0  0.2839294E+002  0.1116464E+03  0.7546771E-02  0.1257551E+00
          2   -1    0    0  505    0 -0.00000000000E+00  0.00000000000E+00  0.21474609654E+04  0.21474609654E+04  0.00000000000E+00 0.  1.
         21   -1    0    0  503  502  0.00000000000E+00 -0.00000000000E+00 -0.38184632438E+02  0.38184632438E+02  0.00000000000E+00 0.  1.
         21    1    1    2  503  501 -0.30664817601E+02  0.34547101388E+02  0.10541170026E+02  0.47380898243E+02  0.00000000000E+00 0.  1.
         21    1    1    2  504  502 -0.41739348997E+01 -0.37855940634E+02  0.64396978049E+02  0.74816206504E+02  0.00000000000E+00 0.  1.
         21    1    1    2  505  504  0.76425520080E+02 -0.81235929300E+02  0.21992882614E+03  0.24659445431E+03  0.00000000000E+00 0.  1.
          2    1    1    2  501    0 -0.41586767580E+02  0.84544768547E+02  0.18144093587E+04  0.18168540387E+04  0.00000000000E+00 0.  1.
<scales pt_clust_3="46.19343" pt_clust_4="32.32718" pt_clust_5="32.32718" pt_clust_6="96.97649"></scales>
<clustering>
<clus scale="   32.327">  4  5 -1 -1</clus>
<clus scale="   46.193">  2  3  1 -1</clus>
<clus scale="   96.976">  1  6  2 -1</clus>
<clus scale="   46.193">  2  3  1 -1</clus>
</clustering>
</event>
<event>
 6    0  0.2839294E+002  0.1126883E+03  0.7546771E-02  0.1255671E+00
          2   -1    0    0  505    0 -0.00000000000E+00  0.00000000000E+00  0.17745631116E+04  0.17745631116E+04  0.00000000000E+00 0.  1.
         21   -1    0    0  504  502  0.00000000000E+00 -0.00000000000E+00 -0.27113071202E+03  0.27113071202E+03  0.00000000000E+00 0. -1.
         21    1    1    2  503  502  0.18775608248E+01  0.11020895027E+03 -0.22841061258E+03  0.25361574457E+03  0.00000000000E+00 0. -1.
         21    1    1    2  504  501 -0.64141452571E+02  0.28254372895E+02  0.10436829882E+04  0.10460337544E+04  0.00000000000E+00 0.  1.
         21    1    1    2  505  503 -0.71416132616E+00 -0.15912582432E+03  0.21086758803E+03  0.26417168219E+03  0.00000000000E+00 0.  1.
          2    1    1    2  501    0  0.62978053072E+02  0.20662501154E+02  0.47729243591E+03  0.48187264240E+03  0.00000000000E+00 0.  1.
<scales pt_clust_3="14000.00000" pt_clust_4="46.86111" pt_clust_5="112.68834" pt_clust_6="66.28102"></scales>
<clustering>
<clus scale="   66.281">  1  6  2 -1</clus>
<clus scale="   46.861">  1  4  2 -1</clus>
<clus scale="  112.688">  1  5  2 -1</clus>
<clus scale="  112.688">  2  3  1 -1</clus>
</clustering>
</event>
<event>
 6    0  0.2839294E+002  0.1425061E+03  0.7546771E-02  0.1209996E+00
          2   -1    0    0  504    0 -0.00000000000E+00  0.00000000000E+00  0.58646117708E+03  0.58646117708E+03  0.00000000000E+00 0.  1.
         21   -1    0    0  505  502  0.00000000000E+00 -0.00000000000E+00 -0.38400308227E+03  0.38400308227E+03  0.00000000000E+00 0.  1.
         21    1    1    2  503  501  0.75729491745E+02 -0.57977653433E+01  0.36513328112E+03  0.37294890131E+03  0.00000000000E+00 0.  1.
         21    1    1    2  504  502 -0.13833691934E+03 -0.11757459343E+02 -0.12539221630E+03  0.18707899137E+03  0.00000000000E+00 0.  1.
         21    1    1    2  505  503  0.30046819964E+01  0.36370067220E+02 -0.21705892167E+03  0.22010539607E+03  0.00000000000E+00 0.  1.
          2    1    1    2  501    0  0.59602745596E+02 -0.18814842534E+02  0.17977595165E+03  0.19033097061E+03  0.00000000000E+00 0.  1.
<scales pt_clust_3="34.39462" pt_clust_4="137.36975" pt_clust_5="36.49397" pt_clust_6="34.39462"></scales>
<clustering>
<clus scale="   34.395">  3  6 -1 -1</clus>
<clus scale="   36.494">  2  5  1 -1</clus>
<clus scale="  137.370">  2  4  1 -1</clus>
<clus scale="   36.494">  2  3  1 -1</clus>
</clustering>
</event>
<event>
 6    0  0.2839294E+002  0.7604967E+02  0.7546771E-02  0.1340651E+00
         21   -1    0    0  501  502  0.00000000000E+00  0.00000000000E+00  0.66905691490E+03  0.66905691490E+03  0.00000000000E+00 0. -1.
          1   -1    0    0  504    0 -0.00000000000E+00 -0.00000000000E+00 -0.25117686693E+04  0.25117686693E+04  0.00000000000E+00 0.  1.
         21    1    1    2  503  502 -0.40534153799E+02 -0.23394791967E+02  0.10296722196E+03  0.11310430015E+03  0.00000000000E+00 0. -1.
         21    1    1    2  504  505  0.34311450369E+01 -0.70706531594E+02 -0.15711952909E+03  0.17233030142E+03  0.00000000000E+00 0.  1.
         21    1    1    2  505  503  0.11232925610E+03  0.46527162050E+02  0.54587950343E+03  0.55925581879E+03  0.00000000000E+00 0. -1.
          1    1    1    2  501    0 -0.75226247340E+02  0.47574161512E+02 -0.23344389507E+04  0.23361351639E+04  0.00000000000E+00 0.  1.
<scales pt_clust_3="46.80100" pt_clust_4="71.08211" pt_clust_5="76.04967" pt_clust_6="14000.00000"></scales>
<clustering>
<clus scale="   46.801">  1  3  2 -1</clus>
<clus scale="   71.082">  2  4  1 -1</clus>
<clus scale="   76.050">  1  5  2 -1</clus>
<clus scale="   46.801">  1  3  2 -1</clus>
</clustering>
</event>
<event>
 6    0  0.2839294E+002  0.1019880E+03  0.7546771E-02  0.1276170E+00
          1   -1    0    0  503    0 -0.00000000000E+00  0.00000000000E+00  0.10485116914E+04  0.10485116914E+04  0.00000000000E+00 0.  1.
         21   -1    0    0  505  502  0.00000000000E+00 -0.00000000000E+00 -0.15862622828E+03  0.15862622828E+03  0.00000000000E+00 0. -1.
         21    1    1    2  503  504 -0.31550214363E+02  0.25040333051E+02  0.21019713974E+03  0.21402166213E+03  0.00000000000E+00 0.  1.
         21    1    1    2  504  502  0.10573402631E+03 -0.66733268108E+02 -0.90570896205E+02  0.15438944469E+03  0.00000000000E+00 0. -1.
         21    1    1    2  505  501 -0.47598945378E+01  0.44596670336E+02 -0.17327588104E+02  0.48080816450E+02  0.00000000000E+00 0. -1.
          1    1    1    2  501    0 -0.69423917407E+02 -0.29037352791E+01  0.78758680765E+03  0.79064599637E+03  0.00000000000E+00 0.  1.
<scales pt_clust_3="40.27945" pt_clust_4="101.98796" pt_clust_5="45.37234" pt_clust_6="14000.00000"></scales>
<clustering>
<clus scale="   40.279">  1  3  2 -1</clus>
<clus scale="   45.372">  2  5  1 -1</clus>
<clus scale="  101.988">  2  4  1 -1</clus>
<clus scale="   45.372">  2  3  1 -1</clus>
</clustering>
</event>
<event>
 6    0  0.2839294E+002  0.9019937E+02  0.7546771E-02  0.1302370E+00
         21   -1    0    0  501  502  0.00000000000E+00  0.00000000000E+00  0.27539177821E+03  0.27539177821E+03  0.00000000000E+00 0. -1.
         -1   -1    0    0    0  501 -0.00000000000E+00 -0.00000000000E+00 -0.12327405169E+04  0.12327405169E+04  0.00000000000E+00 0. -1.
         21    1    1    2  503  502  0.49799017886E+02  0.21817318256E+01  0.18565879660E+03  0.19223394833E+03  0.00000000000E+00 0. -1.
         21    1    1    2  504  505 -0.20023565499E+02  0.10913345017E+03 -0.33822772947E+03  0.35596214701E+03  0.00000000000E+00 0.  1.
         21    1    1    2  505  503  0.33627285429E+02 -0.41888908939E+02  0.65433626458E+02  0.84658339748E+02  0.00000000000E+00 0.  1.
         -1    1    1    2    0  504 -0.63402737815E+02 -0.69426273055E+02 -0.87021343231E+03  0.87527786007E+03  0.00000000000E+00 0. -1.
<scales pt_clust_3="49.84679" pt_clust_4="90.19937" pt_clust_5="86.64269" pt_clust_6="14000.00000"></scales>
<clustering>
<clus scale="   49.847">  1  3  2 -1</clus>
<clus scale="   86.643">  1  5  2 -1</clus>
<clus scale="   90.199">  1  4  2 -1</clus>
<clus scale="   49.847">  1  3  2 -1</clus>
</clustering>
</event>
<event>
 6    0  0.2839294E+002  0.1738580E+03  0.7546771E-02  0.1173883E+00
         21   -1    0    0  501  502  0.00000000000E+00  0.00000000000E+00  0.98702080036E+03  0.98702080036E+03  0.00000000000E+00 0.  1.
          2   -1    0    0  503    0 -0.00000000000E+00 -0.00000000000E+00 -0.10332673907E+04  0.10332673907E+04  0.00000000000E+00 0. -1.
         21    1    1    2  503  505 -0.31947681918E+02 -0.27742674610E+02 -0.84108737152E+02  0.94151951864E+02  0.00000000000E+00 0. -1.
         21    1    1    2  504  502  0.54714152616E+02  0.83176839601E+01  0.57492731420E+03  0.57758483271E+03  0.00000000000E+00 0.  1.
         21    1    1    2  505  504  0.82950894705E+02  0.10130440927E+03  0.39025816046E+03  0.41163681331E+03  0.00000000000E+00 0. -1.
          2    1    1    2  501    0 -0.10571736540E+03 -0.81879418625E+02 -0.92732332781E+03  0.93691459315E+03  0.00000000000E+00 0. -1.
<scales pt_clust_3="42.31206" pt_clust_4="55.29246" pt_clust_5="173.85805" pt_clust_6="14000.00000"></scales>
<clustering>
<clus scale="   42.312">  2  3  1 -1</clus>
<clus scale="   55.292">  1  4  2 -1</clus>
<clus scale="  173.858">  1  5  2 -1</clus>
<clus scale="   55.292">  1  3  2 -1</clus>
</clustering>
</event>
<event>
 6    0  0.2839294E+002  0.1146688E+03  0.7546771E-02  0.1252160E+00
         21   -1    0    0  504  502  0.00000000000E+00  0.00000000000E+00  0.14029344876E+03  0.14029344876E+03  0.00000000000E+00 0. -1.
          2   -1    0    0  503    0 -0.00000000000E+00 -0.00000000000E+00 -0.17644920451E+04  0.17644920451E+04  0.00000000000E+00 0. -1.
         21    1    1    2  503  505  0.61499246035E+02 -0.14435468326E+02 -0.23314329334E+03  0.24154986077E+03  0.00000000000E+00 0. -1.
         21    1    1    2  504  501  0.17188470636E+02  0.64777981527E+02  0.14026534793E+02  0.68471702854E+02  0.00000000000E+00 0. -1.
         21    1    1    2  505  502 -0.89344607745E+02  0.29976640111E+02  0.70041261010E+02  0.11741735872E+03  0.00000000000E+00 0. -1.
          2    1    1    2  501    0  0.10656891074E+02 -0.80319153312E+02 -0.14751230988E+04  0.14773465715E+04  0.00000000000E+00 0. -1.
<scales pt_clust_3="63.17072" pt_clust_4="67.06152" pt_clust_5="114.66882" pt_clust_6="14000.00000"></scales>
<clustering>
<clus scale="   63.171">  2  3  1 -1</clus>
<clus scale="   67.062">  1  4  2 -1</clus>
<clus scale="  114.669">  1  5  2 -1</clus>
<clus scale="   67.062">  1  3  2 -1</clus>
</clustering>
</event>
<event>
 6    0  0.2839294E+002  0.1409248E+03  0.7546771E-02  0.1212090E+00
          2   -1    0    0  505    0 -0.00000000000E+00  0.00000000000E+00  0.47654401496E+04  0.47654401496E+04  0.00000000000E+00 0. -1.
         21   -1    0    0  504  502  0.00000000000E+00 -0.00000000000E+00 -0.22609062975E+03  0.22609062975E+03  0.00000000000E+00 0.  1.
         21    1    1    2  503  502 -0.11004359217E+03  0.41769908769E+02 -0.72644621252E+02  0.13831687696E+03  0.00000000000E+00 0.  1.
         21    1    1    2  504  501 -0.83720541381E+01  0.36728022083E+02 -0.11608361062E+03  0.12204279393E+03  0.00000000000E+00 0.  1.
         21    1    1    2  505  503  0.22934906734E+02 -0.58801281215E+02  0.11204140648E+04  0.11221903926E+04  0.00000000000E+00 0. -1.
          2    1    1    2  501    0  0.95480739570E+02 -0.19696649637E+02  0.36076636870E+04  0.36089807159E+04  0.00000000000E+00 0. -1.
<scales pt_clust_3="14000.00000" pt_clust_4="37.67013" pt_clust_5="62.80659" pt_clust_6="140.92476"></scales>
<clustering>
<clus scale="   37.670">  2  4  1 -1</clus>
<clus scale="   62.807">  1  5  2 -1</clus>
<clus scale="  140.925">  1  6  2 -1</clus>
<clus scale="   37.670">  2  3  1 -1</clus>
</clustering>
</event>
<event>
 6    0  0.2839294E+002  0.1127317E+04  0.7546771E-02  0.9178968E-01
          2   -1    0    0  504    0 -0.00000000000E+00  0.00000000000E+00  0.28671300654E+04  0.28671300654E+04  0.00000000000E+00 0.  1.
         21   -1    0    0  501  502  0.00000000000E+00 -0.00000000000E+00 -0.72844028279E+03  0.72844028279E+03  0.00000000000E+00 0.  1.
         21    1    1    2  503  502  0.31671078838E+02  0.47532758330E+02 -0.10695234492E+03  0.12124860590E+03  0.00000000000E+00 0. -1.
         21    1    1    2  504  505  0.13706024106E+03  0.15008354196E+03  0.26092760975E+03  0.33074733072E+03  0.00000000000E+00 0.  1.
         21    1    1    2  505  503  0.73144984981E+03 -0.87748291818E+03  0.42541057475E+03  0.12190034092E+04  0.00000000000E+00 0.  1.
          2    1    1    2  501    0 -0.90018116971E+03  0.67986661790E+03  0.15593039430E+04  0.19245710024E+04  0.00000000000E+00 0.  1.
<scales pt_clust_3="57.11760" pt_clust_4="206.45875" pt_clust_5="14000.00000" pt_clust_6="1127.31732"></scales>
<clustering>
<clus scale="   57.118">  2  3  1 -1</clus>
<clus scale="  206.459">  1  4  2 -1</clus>
<clus scale=" 1127.317">  1  6  2 -1</clus>
<clus scale="   57.118">  2  3  1 -1</clus>
</clustering>
</event>
<event>
 6    0  0.2839294E+002  0.1002218E+03  0.7546771E-02  0.1279830E+00
         21   -1    0    0  504  502  0.00000000000E+00  0.00000000000E+00  0.13537209938E+04  0.13537209938E+04  0.00000000000E+00 0.  1.
          4   -1    0    0  505    0 -0.00000000000E+00 -0.00000000000E+00 -0.29630758384E+02  0.29630758384E+02  0.00000000000E+00 0. -1.
         21    1    1    2  503  502  0.29476436579E+02  0.58180978991E+02  0.36600151756E+03  0.37176739702E+03  0.00000000000E+00 0.  1.
         21    1    1    2  504  501  0.31043396993E+02  0.76053486789E+00  0.28902299838E+03  0.29068636793E+03  0.00000000000E+00 0.  1.
         21    1    1    2  505  503 -0.14454922144E+03 -0.77710613938E+02  0.55000127753E+03  0.57396412973E+03  0.00000000000E+00 0.  1.
          4    1    1    2  501    0  0.84029387871E+02  0.18769100079E+02  0.11906444196E+03  0.14693385751E+03  0.00000000000E+00 0. -1.
<scales pt_clust_3="70.95824" pt_clust_4="31.05271" pt_clust_5="100.22182" pt_clust_6="14000.00000"></scales>
<clustering>
<clus scale="   31.053">  1  4  2 -1</clus>
<clus scale="   70.958">  1  3  2 -1</clus>
<clus scale="  100.222">  1  5  2 -1</clus>
<clus scale="   31.053">  1  3  2 -1</clus>
</clustering>
</event>
<event>
 6    0  0.2839294E+002  0.1401451E+03  0.7546771E-02  0.1213134E+00
         21   -1    0    0  503  502  0.00000000000E+00  0.00000000000E+00  0.18838860713E+03  0.18838860713E+03  0.00000000000E+00 0.  1.
         -2   -1    0    0    0  501 -0.00000000000E+00 -0.00000000000E+00 -0.13912077521E+04  0.13912077521E+04  0.00000000000E+00 0.  1.
         21    1    1    2  503  501  0.23142535636E+03 -0.12003831721E+03 -0.33826596900E+03  0.42707231115E+03  0.00000000000E+00 0.  1.
         21    1    1    2  504  505 -0.84009546428E+02  0.18290510864E+02 -0.76290361214E+02  0.11494505597E+03  0.00000000000E+00 0.  1.
         21    1    1    2  505  502 -0.28377931434E+02  0.54758203525E+02  0.11221810378E+03  0.12804948521E+03  0.00000000000E+00 0.  1.
         -2    1    1    2    0  504 -0.11903787850E+03  0.46989602822E+02 -0.90048091858E+03  0.90952950695E+03  0.00000000000E+00 0.  1.
<scales pt_clust_3="14000.00000" pt_clust_4="98.05351" pt_clust_5="61.67469" pt_clust_6="140.14512"></scales>
<clustering>
<clus scale="   61.675">  1  5  2 -1</clus>
<clus scale="   98.054">  1  4  2 -1</clus>
<clus scale="  140.145">  2  6  1 -1</clus>
<clus scale="   61.675">  1  3  2 -1</clus>
</clustering>
</event>
<event>
 6    0  0.2839294E+002  0.2637400E+03  0.7546771E-02  0.1104917E+00
         21   -1    0    0  503  502  0.00000000000E+00  0.00000000000E+00  0.57124850217E+03  0.57124850217E+03  0.00000000000E+00 0.  1.
         -1   -1    0    0    0  501 -0.00000000000E+00 -0.00000000000E+00 -0.18521587551E+03  0.18521587551E+03  0.00000000000E+00 0.  1.
         21    1    1    2  503  501 -0.27172949986E+03  0.13263162422E+03  0.15881896569E+03  0.34154287096E+03  0.00000000000E+00 0.  1.
         21    1    1    2  504  505  0.13369660681E+03 -0.49646763417E+02  0.72173037876E+02  0.15983907903E+03  0.00000000000E+00 0.  1.
         21    1    1    2  505  502  0.46478394815E+02 -0.71804926112E+02  0.13637319391E+03  0.16097775192E+03  0.00000000000E+00 0.  1.
         -1    1    1    2    0  504  0.91554498241E+02 -0.11179934689E+02  0.18667429187E+02  0.94104675762E+02  0.00000000000E+00 0.  1.
<scales pt_clust_3="260.31001" pt_clust_4="34.09533" pt_clust_5="85.53472" pt_clust_6="34.09533"></scales>
<clustering>
<clus scale="   34.095">  4  6 -1 -1</clus>
<clus scale="   85.535">  1  5  2 -1</clus>
<clus scale="  260.310">  1  3  2 -1</clus>
<clus scale="   85.535">  1  3  2 -1</clus>
</clustering>
</event>
<event>
 6    0  0.2839294E+002  0.1337800E+03  0.7546771E-02  0.1221952E+00
         21   -1    0    0  504  502  0.00000000000E+00  0.00000000000E+00  0.10264131084E+03  0.10264131084E+03  0.00000000000E+00 0.  1.
          2   -1    0    0  505    0 -0.00000000000E+00 -0.00000000000E+00 -0.76142295951E+03  0.76142295951E+03  0.00000000000E+00 0. -1.
         21    1    1    2  503  502  0.65678168687E+02 -0.82177481450E+02 -0.14030718414E+03  0.17536495151E+03  0.00000000000E+00 0. -1.
         21    1    1    2  504  501 -0.10929763307E+03  0.98965966126E+02  0.17267990921E+01  0.14745581332E+03  0.00000000000E+00 0.  1.
         21    1    1    2  505  503  0.35501575255E+02  0.58473652063E+02 -0.17622983570E+03  0.18904096070E+03  0.00000000000E+00 0.  1.
          2    1    1    2  501    0  0.81178891332E+01 -0.75262136738E+02 -0.34397142792E+03  0.35220254482E+03  0.00000000000E+00 0. -1.
<scales pt_clust_3="14000.00000" pt_clust_4="133.77998" pt_clust_5="68.40709" pt_clust_6="49.76014"></scales>
<clustering>
<clus scale="   68.407">  2  5  1 -1</clus>
<clus scale="   49.760">  2  6  1 -1</clus>
<clus scale="  133.780">  1  4  2 -1</clus>
<clus scale="  133.780">  1  3  2 -1</clus>
</clustering>
</event>
<event>
 6    0  0.2839294E+002  0.8258403E+02  0.7546771E-02  0.1321874E+00
          2   -1    0    0  503    0 -0.00000000000E+00  0.00000000000E+00  0.68255678890E+03  0.68255678890E+03  0.00000000000E+00 0. -1.
         21   -1    0    0  505  502  0.00000000000E+00 -0.00000000000E+00 -0.12369928992E+03  0.12369928992E+03  0.00000000000E+00 0.  1.
         21    1    1    2  503  502  0.77332696604E+02 -0.30760892001E+02 -0.23091696759E+02  0.86370162092E+02  0.00000000000E+00 0.  1.
         21    1    1    2  504  501 -0.95980771471E+01 -0.47367920241E+02  0.33748372214E+03  0.34092683330E+03  0.00000000000E+00 0. -1.
         21    1    1    2  505  504 -0.36930251250E+02  0.89601226930E+02 -0.30836902342E+02  0.10170121863E+03  0.00000000000E+00 0.  1.
          2    1    1    2  501    0 -0.30804368206E+02 -0.11472414688E+02  0.27530237594E+03  0.27725786481E+03  0.00000000000E+00 0. -1.
<scales pt_clust_3="14000.00000" pt_clust_4="32.47883" pt_clust_5="82.58403" pt_clust_6="81.52005"></scales>
<clustering>
<clus scale="   32.479">  4  6 -1 -1</clus>
<clus scale="   81.520">  1  4  2 -1</clus>
<clus scale="   82.584">  1  5  2 -1</clus>
<clus scale="   82.584">  2  3  1 -1</clus>
</clustering>
</event>
<event>
 6    0  0.2839294E+002  0.8425433E+02  0.7546771E-02  0.1317394E+00
          2   -1    0    0  504    0 -0.00000000000E+00  0.00000000000E+00  0.13735524035E+04  0.13735524035E+04  0.00000000000E+00 0.  1.
         21   -1    0    0  503  502  0.00000000000E+00 -0.00000000000E+00 -0.43442269213E+03  0.43442269213E+03  0.00000000000E+00 0.  1.
         21    1    1    2  503  505 -0.20241080767E+02 -0.60696202856E+02 -0.41253998839E+03  0.41747212172E+03  0.00000000000E+00 0.  1.
         21    1    1    2  504  502  0.36001183574E+02  0.22621235125E+02  0.75132044212E+02  0.86328613824E+02  0.00000000000E+00 0. -1.
         21    1    1    2  505  501 -0.71558553354E+02  0.63495403755E+02  0.16337521547E+03  0.18932446722E+03  0.00000000000E+00 0.  1.
          2    1    1    2  501    0  0.55798450548E+02 -0.25420436023E+02  0.11131624401E+04  0.11148498929E+04  0.00000000000E+00 0.  1.
<scales pt_clust_3="63.91963" pt_clust_4="42.51830" pt_clust_5="84.25433" pt_clust_6="14000.00000"></scales>
<clustering>
<clus scale="   42.518">  1  4  2 -1</clus>
<clus scale="   63.920">  2  3  1 -1</clus>
<clus scale="   84.254">  2  5  1 -1</clus>
<clus scale="   63.920">  2  3  1 -1</clus>
</clustering>
</event>
<event>
 6    0  0.2839294E+002  0.7220369E+02  0.7546771E-02  0.1352756E+00
         21   -1    0    0  504  502  0.00000000000E+00  0.00000000000E+00  0.67096346836E+03  0.67096346836E+03  0.00000000000E+00 0.  1.
         -2   -1    0    0    0  501 -0.00000000000E+00 -0.00000000000E+00 -0.21123858444E+03  0.21123858444E+03  0.00000000000E+00 0.  1.
         21    1    1    2  503  501 -0.61332802906E+02  0.63573335696E+02 -0.57184397048E+02  0.10522992440E+03  0.00000000000E+00 0.  1.
         21    1    1    2  504  503  0.17395315700E+02  0.27119647359E+02  0.27978759519E+03  0.28163659333E+03  0.00000000000E+00 0.  1.
         21    1    1    2  505  502 -0.10364621796E+01 -0.95449049806E+02  0.35577389720E+03  0.36835670388E+03  0.00000000000E+00 0.  1.
         -2    1    1    2    0  505  0.44973949385E+02  0.47560667508E+01 -0.11865221142E+03  0.12697883119E+03  0.00000000000E+00 0.  1.
<scales pt_clust_3="72.20369" pt_clust_4="32.21913" pt_clust_5="14000.00000" pt_clust_6="45.44050"></scales>
<clustering>
<clus scale="   32.219">  1  4  2 -1</clus>
<clus scale="   45.440">  2  6  1 -1</clus>
<clus scale="   72.204">  2  3  1 -1</clus>
<clus scale="   32.219">  1  3  2 -1</clus>
</clustering>
</event>
<event>
 6    0  0.2839294E+002  0.8048374E+02  0.7546771E-02  0.1327684E+00
         -1   -1    0    0    0  501 -0.00000000000E+00  0.00000000000E+00  0.32065025070E+03  0.32065025070E+03  0.00000000000E+00 0. -1.
         21   -1    0    0  503  502  0.00000000000E+00 -0.00000000000E+00 -0.13608005760E+03  0.13608005760E+03  0.00000000000E+00 0. -1.
         21    1    1    2  503  501 -0.34516151677E+02  0.12473671206E+02  0.25309523579E+02  0.44581713557E+02  0.00000000000E+00 0. -1.
         21    1    1    2  504  502  0.59634227396E+02  0.23726160220E+02 -0.67894760053E+02  0.93428422862E+02  0.00000000000E+00 0. -1.
         21    1    1    2  505  504  0.53954150043E+01 -0.88488783812E+02  0.53648917222E+01  0.88815299509E+02  0.00000000000E+00 0. -1.
         -1    1    1    2    0  505 -0.30513490724E+02  0.52288952385E+02  0.22179053786E+03  0.22990487237E+03  0.00000000000E+00 0. -1.
<scales pt_clust_3="36.70092" pt_clust_4="62.96312" pt_clust_5="80.48374" pt_clust_6="14000.00000"></scales>
<clustering>
<clus scale="   36.701">  1  3  2 -1</clus>
<clus scale="   62.963">  2  4  1 -1</clus>
<clus scale="   80.484">  2  5  1 -1</clus>
<clus scale="   62.963">  2  3  1 -1</clus>
</clustering>
</event>
<event>
 6    0  0.2839294E+002  0.8237101E+02  0.7546771E-02  0.1322454E+00
         21   -1    0    0  504  502  0.00000000000E+00  0.00000000000E+00  0.44231062320E+03  0.44231062320E+03  0.00000000000E+00 0. -1.
         -4   -1    0    0    0  501 -0.00000000000E+00 -0.00000000000E+00 -0.13096459329E+04  0.13096459329E+04  0.00000000000E+00 0.  1.
         21    1    1    2  503  502  0.46404113563E+02  0.66500043952E+02  0.40716366834E+03  0.41516002989E+03  0.00000000000E+00 0. -1.
         21    1    1    2  504  505  0.28325874718E+02 -0.33146341086E+02  0.89724722380E+01  0.44514496111E+02  0.00000000000E+00 0.  1.
         21    1    1    2  505  501  0.17434147773E+02  0.32768893840E+02 -0.29691598103E+03  0.29922708718E+03  0.00000000000E+00 0.  1.
         -4    1    1    2    0  503 -0.92164136055E+02 -0.66122596705E+02 -0.98655546919E+03  0.99305494287E+03  0.00000000000E+00 0.  1.
<scales pt_clust_3="82.37101" pt_clust_4="43.36644" pt_clust_5="37.11805" pt_clust_6="14000.00000"></scales>
<clustering>
<clus scale="   37.118">  2  5  1 -1</clus>
<clus scale="   43.366">  1  4  2 -1</clus>
<clus scale="   82.371">  1  3  2 -1</clus>
<clus scale="   43.366">  1  3  2 -1</clus>
</clustering>
</event>
<event>
 6    0  0.2839294E+002  0.1451372E+03  0.7546771E-02  0.1206579E+00
          1   -1    0    0  504    0 -0.00000000000E+00  0.00000000000E+00  0.86253629470E+03  0.86253629470E+03  0.00000000000E+00 0. -1.
         21   -1    0    0  503  502  0.00000000000E+00 -0.00000000000E+00 -0.21885865504E+03  0.21885865504E+03  0.00000000000E+00 0. -1.
         21    1    1    2  503  501 -0.94152756309E+01 -0.29326898156E+02 -0.16296791188E+03  0.16585311174E+03  0.00000000000E+00 0. -1.
         21    1    1    2  504  505  0.11349163643E+03  0.58299794055E+02  0.48730752181E+03  0.50373389636E+03  0.00000000000E+00 0. -1.
         21    1    1    2  505  502 -0.89623175865E+02 -0.98542966738E+02  0.65929904332E+02  0.14862631742E+03  0.00000000000E+00 0. -1.
          1    1    1    2  501    0 -0.14453184931E+02  0.69570070839E+02  0.25340812540E+03  0.26318162422E+03  0.00000000000E+00 0. -1.
<scales pt_clust_3="30.80121" pt_clust_4="145.13717" pt_clust_5="14000.00000" pt_clust_6="68.66387"></scales>
<clustering>
<clus scale="   30.801">  2  3  1 -1</clus>
<clus scale="   68.664">  1  6  2 -1</clus>
<clus scale="  145.137">  1  4  2 -1</clus>
<clus scale="   30.801">  2  3  1 -1</clus>
</clustering>
</event>
<event>
 6    0  0.2839294E+002  0.1308328E+03  0.7546771E-02  0.1226225E+00
         21   -1    0    0  505  502  0.00000000000E+00  0.00000000000E+00  0.36939832246E+03  0.36939832246E+03  0.00000000000E+00 0. -1.
          2   -1    0    0  503    0 -0.00000000000E+00 -0.00000000000E+00 -0.30170025017E+04  0.30170025017E+04  0.00000000000E+00 0.  1.
         21    1    1    2  503  504 -0.53847314316E+02 -0.15934520494E+02 -0.23211919747E+03  0.23881533459E+03  0.00000000000E+00 0.  1.
         21    1    1    2  504  502 -0.13691030044E+02  0.61579193794E+02  0.78944511107E+02  0.10105284383E+03  0.00000000000E+00 0. -1.
         21    1    1    2  505  501 -0.33645577477E+02  0.61599417272E+02  0.26959311105E+03  0.27858025525E+03  0.00000000000E+00 0. -1.
          2    1    1    2  501    0  0.10118392184E+03 -0.10724409057E+03 -0.27640226040E+04  0.27679523905E+04  0.00000000000E+00 0.  1.
<scales pt_clust_3="56.15552" pt_clust_4="63.06783" pt_clust_5="130.83282" pt_clust_6="14000.00000"></scales>
<clustering>
<clus scale="   56.156">  2  3  1 -1</clus>
<clus scale="   63.068">  1  4  2 -1</clus>
<clus scale="  130.833">  1  5  2 -1</clus>
<clus scale="   63.068">  1  3  2 -1</clus>
</clustering>
</event>
<event>
 6    0  0.2839294E+002  0.9381075E+02  0.7546771E-02  0.1293877E+00
          3   -1    0    0  504    0 -0.00000000000E+00  0.00000000000E+00  0.17697172198E+03  0.17697172198E+03  0.00000000000E+00 0.  1.
         21   -1    0    0  501  502  0.00000000000E+00 -0.00000000000E+00 -0.78274843480E+03  0.78274843480E+03  0.00000000000E+00 0. -1.
         21    1    1    2  503  505 -0.47015073556E+02 -0.11078014744E+03 -0.44085147649E+03  0.45698214684E+03  0.00000000000E+00 0. -1.
         21    1    1    2  504  503 -0.68382111628E+01  0.48480088236E+02 -0.16757324478E+02  0.51748314087E+02  0.00000000000E+00 0. -1.
         21    1    1    2  505  502  0.30469441006E+02  0.18299765502E+02 -0.29438123084E+03  0.29651910111E+03  0.00000000000E+00 0. -1.
          3    1    1    2  501    0  0.23383843713E+02  0.44000293705E+02  0.14621331898E+03  0.15447059474E+03  0.00000000000E+00 0.  1.
<scales pt_clust_3="14000.00000" pt_clust_4="49.98752" pt_clust_5="35.54249" pt_clust_6="93.81075"></scales>
<clustering>
<clus scale="   35.542">  2  5  1 -1</clus>
<clus scale="   49.988">  1  4  2 -1</clus>
<clus scale="   93.811">  1  6  2 -1</clus>
<clus scale="   35.542">  2  3  1 -1</clus>
</clustering>
</event>
<event>
 6    0  0.2839294E+002  0.1664963E+03  0.7546771E-02  0.1181552E+00
          2   -1    0    0  504    0 -0.00000000000E+00  0.00000000000E+00  0.10612591637E+04  0.10612591637E+04  0.00000000000E+00 0. -1.
         21   -1    0    0  505  502  0.00000000000E+00 -0.00000000000E+00 -0.19357226967E+03  0.19357226967E+03  0.00000000000E+00 0.  1.
         21    1    1    2  503  502  0.39326464700E+02  0.41689415904E+01 -0.11837015669E+03  0.12480162217E+03  0.00000000000E+00 0.  1.
         21    1    1    2  504  503 -0.11847123638E+03  0.12654722665E+03  0.51214123829E+02  0.18075541735E+03  0.00000000000E+00 0.  1.
         21    1    1    2  505  501  0.55899054280E+02 -0.57530247504E+02  0.33162183219E+03  0.34118539423E+03  0.00000000000E+00 0. -1.
          2    1    1    2  501    0  0.23245717397E+02 -0.73185920736E+02  0.60322109474E+03  0.60808899966E+03  0.00000000000E+00 0. -1.
<scales pt_clust_3="39.54682" pt_clust_4="154.53495" pt_clust_5="60.12541" pt_clust_6="60.12541"></scales>
<clustering>
<clus scale="   39.547">  2  3  1 -1</clus>
<clus scale="   60.125">  5  6 -1 -1</clus>
<clus scale="  154.535">  2  4  1 -1</clus>
<clus scale="   39.547">  2  3  1 -1</clus>
</clustering>
</event>
<event>
 6    0  0.2839294E+002  0.1275448E+03  0.7546771E-02  0.1231145E+00
         21   -1    0    0  505  502  0.00000000000E+00  0.00000000000E+00  0.12650382602E+04  0.12650382602E+04  0.00000000000E+00 0.  1.
          2   -1    0    0  503    0 -0.00000000000E+00 -0.00000000000E+00 -0.29818161336E+03  0.29818161336E+03  0.00000000000E+00 0.  1.
         21    1    1    2  503  502 -0.25014364407E+02  0.24931127383E+02  0.10223438523E+04  0.10229536802E+04  0.00000000000E+00 0.  1.
         21    1    1    2  504  501 -0.48899488107E+01  0.38763270134E+02 -0.40519523432E+02  0.56287960436E+02  0.00000000000E+00 0. -1.
         21    1    1    2  505  504  0.68377218967E+02 -0.13024284307E+03  0.20423087398E+03  0.25169205814E+03  0.00000000000E+00 0.  1.
          2    1    1    2  501    0 -0.38472905749E+02  0.66548445553E+02 -0.21919855595E+03  0.23228617482E+03  0.00000000000E+00 0.  1.
<scales pt_clust_3="35.31684" pt_clust_4="38.27791" pt_clust_5="115.83182" pt_clust_6="38.27791"></scales>
<clustering>
<clus scale="   35.317">  1  3  2 -1</clus>
<clus scale="   38.278">  4  6 -1 -1</clus>
<clus scale="  115.832">  1  5  2 -1</clus>
<clus scale="   35.317">  1  3  2 -1</clus>
</clustering>
</event>
<event>
 6    0  0.2839294E+002  0.1108731E+03  0.7546771E-02  0.1258961E+00
          2   -1    0    0  504    0 -0.00000000000E+00  0.00000000000E+00  0.10539116544E+04  0.10539116544E+04  0.00000000000E+00 0.  1.
         21   -1    0    0  505  502  0.00000000000E+00 -0.00000000000E+00 -0.11074404082E+03  0.11074404082E+03  0.00000000000E+00 0.  1.
         21    1    1    2  503  502 -0.71115893678E+02  0.26132902531E+02 -0.72300721487E+02  0.10472723264E+03  0.00000000000E+00 0.  1.
         21    1    1    2  504  503 -0.42000022707E+02 -0.20015876094E+02  0.25706979961E+03  0.26124608911E+03  0.00000000000E+00 0.  1.
         21    1    1    2  505  501 -0.39315864248E+02 -0.14210736603E+02  0.23214162782E+02  0.47818192877E+02  0.00000000000E+00 0. -1.
          2    1    1    2  501    0  0.15243178063E+03  0.80937101665E+01  0.73518437272E+03  0.75086418065E+03  0.00000000000E+00 0.  1.
<scales pt_clust_3="14000.00000" pt_clust_4="47.40827" pt_clust_5="41.80529" pt_clust_6="110.87313"></scales>
<clustering>
<clus scale="   41.805">  2  5  1 -1</clus>
<clus scale="   47.408">  1  4  2 -1</clus>
<clus scale="  110.873">  1  6  2 -1</clus>
<clus scale="   41.805">  2  3  1 -1</clus>
</clustering>
</event>
<event>
 6    0  0.2839294E+002  0.1167683E+03  0.7546771E-02  0.1248526E+00
         -1   -1    0    0    0  501 -0.00000000000E+00  0.00000000000E+00  0.86681135466E+02  0.86681135466E+02  0.00000000000E+00 0. -1.
         21   -1    0    0  504  502  0.00000000000E+00 -0.00000000000E+00 -0.12549641458E+04  0.12549641458E+04  0.00000000000E+00 0. -1.
         21    1    1    2  503  505  0.42002031181E+02  0.32683902768E+02 -0.18858562639E+01  0.53253775240E+02  0.00000000000E+00 0. -1.
         21    1    1    2  504  501 -0.10851197044E+03 -0.98373647857E+02 -0.70762869217E+03  0.72262755850E+03  0.00000000000E+00 0. -1.
         21    1    1    2  505  502  0.48357498160E+02  0.13317193191E+02 -0.49629709213E+03  0.49882521881E+03  0.00000000000E+00 0.  1.
         -1    1    1    2    0  503  0.18152441103E+02  0.52372551897E+02  0.37528630254E+02  0.66938728693E+02  0.00000000000E+00 0. -1.
<scales pt_clust_3="47.22407" pt_clust_4="106.35869" pt_clust_5="50.15770" pt_clust_6="47.22407"></scales>
<clustering>
<clus scale="   47.224">  3  6 -1 -1</clus>
<clus scale="   50.158">  2  5  1 -1</clus>
<clus scale="  106.359">  2  4  1 -1</clus>
<clus scale="   50.158">  2  3  1 -1</clus>
</clustering>
</event>
<event>
 6    0  0.2839294E+002  0.1312393E+03  0.7546771E-02  0.1225628E+00
         21   -1    0    0  503  502  0.00000000000E+00  0.00000000000E+00  0.41481977407E+03  0.41481977407E+03  0.00000000000E+00 0. -1.
          2   -1    0    0  505    0 -0.00000000000E+00 -0.00000000000E+00 -0.23406366780E+04  0.23406366780E+04  0.00000000000E+00 0. -1.
         21    1    1    2  503  501  0.15621079333E+03  0.38333526793E+02  0.10401038004E+03  0.19154485215E+03  0.00000000000E+00 0. -1.
         21    1    1    2  504  502 -0.29010719783E+02 -0.15052677256E+02  0.26004542680E+03  0.26209126074E+03  0.00000000000E+00 0. -1.
         21    1    1    2  505  504  0.49415890486E+02 -0.16814978972E+02 -0.34394390245E+03  0.34788228150E+03  0.00000000000E+00 0. -1.
          2    1    1    2  501    0 -0.17661596403E+03 -0.64658705640E+01 -0.19459288084E+04  0.19539380577E+04  0.00000000000E+00 0. -1.
<scales pt_clust_3="131.23925" pt_clust_4="32.68340" pt_clust_5="51.90964" pt_clust_6="14000.00000"></scales>
<clustering>
<clus scale="   32.683">  1  4  2 -1</clus>
<clus scale="   51.910">  2  5  1 -1</clus>
<clus scale="  131.239">  1  3  2 -1</clus>
<clus scale="   32.683">  1  3  2 -1</clus>
</clustering>
</event>
<event>
 6    0  0.2839294E+002  0.1038274E+03  0.7546771E-02  0.1272447E+00
         21   -1    0    0  503  502  0.00000000000E+00  0.00000000000E+00  0.19027649289E+03  0.19027649289E+03  0.00000000000E+00 0. -1.
         -2   -1    0    0    0  501 -0.00000000000E+00 -0.00000000000E+00 -0.64507019695E+03  0.64507019695E+03  0.00000000000E+00 0.  1.
         21    1    1    2  503  505 -0.32503870237E+02 -0.39825693456E+02 -0.29109266570E+03  0.29559690030E+03  0.00000000000E+00 0.  1.
         21    1    1    2  504  502  0.97858533060E+02  0.38144934386E+02  0.15714910942E+03  0.18901632497E+03  0.00000000000E+00 0. -1.
         21    1    1    2  505  501  0.33851099675E+02 -0.98935389014E+01 -0.13742525311E+03  0.14187839601E+03  0.00000000000E+00 0.  1.
         -2    1    1    2    0  504 -0.99205762498E+02  0.11574297971E+02 -0.18342489466E+03  0.20885506857E+03  0.00000000000E+00 0.  1.
<scales pt_clust_3="47.34689" pt_clust_4="14000.00000" pt_clust_5="35.26725" pt_clust_6="103.82736"></scales>
<clustering>
<clus scale="   35.267">  2  5  1 -1</clus>
<clus scale="   47.347">  2  3  1 -1</clus>
<clus scale="  103.827">  2  6  1 -1</clus>
<clus scale="  103.827">  1  3  2 -1</clus>
</clustering>
</event>
<event>
 6    0  0.2839294E+002  0.1042144E+03  0.7546771E-02  0.1271675E+00
          2   -1    0    0  504    0 -0.00000000000E+00  0.00000000000E+00  0.17470006275E+04  0.17470006275E+04  0.00000000000E+00 0. -1.
         21   -1    0    0  505  502  0.00000000000E+00 -0.00000000000E+00 -0.10208332410E+03  0.10208332410E+03  0.00000000000E+00 0.  1.
         21    1    1    2  503  502  0.16249069508E+02  0.11887306020E+03  0.15782878661E+03  0.19825428768E+03  0.00000000000E+00 0. -1.
         21    1    1    2  504  503  0.18472107294E+02 -0.36472633753E+02  0.10341771703E+04  0.10349849716E+04  0.00000000000E+00 0. -1.
         21    1    1    2  505  501 -0.39519065739E+02 -0.75909948682E+01 -0.73675346435E+02  0.83949010907E+02  0.00000000000E+00 0.  1.
          2    1    1    2  501    0  0.47978889371E+01 -0.74809431581E+02  0.52658669286E+03  0.53189568140E+03  0.00000000000E+00 0. -1.
<scales pt_clust_3="14000.00000" pt_clust_4="40.69681" pt_clust_5="40.24152" pt_clust_6="104.21435"></scales>
<clustering>
<clus scale="   40.242">  2  5  1 -1</clus>
<clus scale="   40.697">  1  4  2 -1</clus>
<clus scale="  104.214">  1  6  2 -1</clus>
<clus scale="   40.242">  2  3  1 -1</clus>
</clustering>
</event>
<event>
 6    0  0.2839294E+002  0.1705755E+03  0.7546771E-02  0.1177249E+00
         21   -1    0    0  505  502  0.00000000000E+00  0.00000000000E+00  0.99329828911E+03  0.99329828911E+03  0.00000000000E+00 0.  1.
          2   -1    0    0  504    0 -0.00000000000E+00 -0.00000000000E+00 -0.40797439265E+04  0.40797439265E+04  0.00000000000E+00 0.  1.
         21    1    1    2  503  502  0.19195856949E+01 -0.32384583775E+02  0.88601032697E+03  0.88660405231E+03  0.00000000000E+00 0.  1.
         21    1    1    2  504  503 -0.11586915615E+03 -0.79655490842E+02 -0.91624602060E+03  0.92697218342E+03  0.00000000000E+00 0. -1.
         21    1    1    2  505  501 -0.40977920203E+02  0.93132479109E+01  0.94424025526E+02  0.10335290575E+03  0.00000000000E+00 0. -1.
          2    1    1    2  501    0  0.15492749066E+03  0.10272682671E+03 -0.31506339692E+04  0.31561130741E+04  0.00000000000E+00 0.  1.
<scales pt_clust_3="32.44143" pt_clust_4="14000.00000" pt_clust_5="44.29521" pt_clust_6="170.57553"></scales>
<clustering>
<clus scale="   32.441">  1  3  2 -1</clus>
<clus scale="   44.295">  1  5  2 -1</clus>
<clus scale="  170.576">  2  6  1 -1</clus>
<clus scale="   32.441">  1  3  2 -1</clus>
</clustering>
</event>
<event>
 6    0  0.2839294E+002  0.9658057E+02  0.7546771E-02  0.1287655E+00
         21   -1    0    0  503  502  0.00000000000E+00  0.00000000000E+00  0.35860675955E+03  0.35860675955E+03  0.00000000000E+00 0.  1.
          2   -1    0    0  504    0 -0.00000000000E+00 -0.00000000000E+00 -0.96023327105E+03  0.96023327105E+03  0.00000000000E+00 0.  1.
         21    1    1    2  503  505 -0.25691878683E+02  0.48342641780E+02  0.23740341396E+03  0.24363387409E+03  0.00000000000E+00 0.  1.
         21    1    1    2  504  502  0.51772395694E+01  0.48932529231E+02 -0.11439523115E+03  0.12452897308E+03  0.00000000000E+00 0. -1.
         21    1    1    2  505  501  0.11978990608E+03 -0.38449886913E+02  0.72519586335E+02  0.14521400003E+03  0.00000000000E+00 0. -1.
          2    1    1    2  501    0 -0.99275266966E+02 -0.58825284097E+02 -0.79715428064E+03  0.80546318341E+03  0.00000000000E+00 0.  1.
<scales pt_clust_3="54.89682" pt_clust_4="49.20565" pt_clust_5="14000.00000" pt_clust_6="96.58057"></scales>
<clustering>
<clus scale="   49.206">  2  4  1 -1</clus>
<clus scale="   54.897">  1  3  2 -1</clus>
<clus scale="   96.581">  2  6  1 -1</clus>
<clus scale="   54.897">  1  3  2 -1</clus>
</clustering>
</event>
<event>
 6    0  0.2839294E+002  0.1172403E+03  0.7546771E-02  0.1247720E+00
          2   -1    0    0  504    0 -0.00000000000E+00  0.00000000000E+00  0.16935829442E+04  0.16935829442E+04  0.00000000000E+00 0.  1.
         21   -1    0    0  503  502  0.00000000000E+00 -0.00000000000E+00 -0.13581609948E+04  0.13581609948E+04  0.00000000000E+00 0.  1.
         21    1    1    2  503  505 -0.75071344925E+02 -0.25085139505E+02 -0.71381376904E+03  0.71818874116E+03  0.00000000000E+00 0. -1.
         21    1    1    2  504  502 -0.72511440136E+02 -0.36835485171E+01 -0.22779904606E+01  0.72640668505E+02  0.00000000000E+00 0. -1.
         21    1    1    2  505  501  0.14403279048E+03 -0.87082565488E+02 -0.59090647116E+03  0.61440969687E+03  0.00000000000E+00 0.  1.
          2    1    1    2  501    0  0.35499945845E+01  0.11585125351E+03  0.16424201801E+04  0.16465048324E+04  0.00000000000E+00 0.  1.
<scales pt_clust_3="14000.00000" pt_clust_4="72.60494" pt_clust_5="117.24032" pt_clust_6="115.89656"></scales>
<clustering>
<clus scale="   72.605">  2  4  1 -1</clus>
<clus scale="  115.897">  1  6  2 -1</clus>
<clus scale="  117.240">  1  5  2 -1</clus>
<clus scale="   72.605">  2  3  1 -1</clus>
</clustering>
</event>
<event>
 6    0  0.2839294E+002  0.1735693E+03  0.7546771E-02  0.1174176E+00
          2   -1    0    0  503    0 -0.00000000000E+00  0.00000000000E+00  0.79080082729E+03  0.79080082729E+03  0.00000000000E+00 0.  1.
         21   -1    0    0  504  502  0.00000000000E+00 -0.00000000000E+00 -0.14422324624E+03  0.14422324624E+03  0.00000000000E+00 0. -1.
         21    1    1    2  503  502  0.51452452218E+02 -0.15427722795E+03 -0.61497838717E+02  0.17387007238E+03  0.00000000000E+00 0. -1.
         21    1    1    2  504  505 -0.52066865474E+02 -0.11007831043E+02  0.30181954866E+02  0.61180725919E+02  0.00000000000E+00 0. -1.
         21    1    1    2  505  501 -0.63735609932E+01  0.37224698295E+02  0.79824589426E+02  0.88307788557E+02  0.00000000000E+00 0. -1.
          2    1    1    2  501    0  0.69879742485E+01  0.12806036070E+03  0.59806887547E+03  0.61166548667E+03  0.00000000000E+00 0.  1.
<scales pt_clust_3="164.38610" pt_clust_4="53.21777" pt_clust_5="30.23076" pt_clust_6="30.23076"></scales>
<clustering>
<clus scale="   30.231">  5  6 -1 -1</clus>
<clus scale="   53.218">  2  4  1 -1</clus>
<clus scale="  164.386">  2  3  1 -1</clus>
<clus scale="   53.218">  2  3  1 -1</clus>
</clustering>
</event>
<event>
 6    0  0.2839294E+002  0.1513472E+03  0.7546771E-02  0.1198827E+00
         21   -1    0    0  504  502  0.00000000000E+00  0.00000000000E+00  0.16501063807E+03  0.16501063807E+03  0.00000000000E+00 0.  1.
          1   -1    0    0  505    0 -0.00000000000E+00 -0.00000000000E+00 -0.17030457461E+04  0.17030457461E+04  0.00000000000E+00 0. -1.
         21    1    1    2  503  502  0.15285922457E+03 -0.12267127214E+03  0.48022223488E+02  0.20179275877E+03  0.00000000000E+00 0.  1.
         21    1    1    2  504  501  0.17675636550E+02  0.85619513112E+02 -0.27639823929E+02  0.91690179517E+02  0.00000000000E+00 0.  1.
         21    1    1    2  505  503 -0.91540607561E+02  0.53371845143E+00 -0.31281120510E+03  0.32593069466E+03  0.00000000000E+00 0.  1.
          1    1    1    2  501    0 -0.78994253559E+02  0.36518040576E+02 -0.12456063025E+04  0.12486427512E+04  0.00000000000E+00 0. -1.
<scales pt_clust_3="14000.00000" pt_clust_4="90.69585" pt_clust_5="151.34715" pt_clust_6="87.02677"></scales>
<clustering>
<clus scale="   87.027">  2  6  1 -1</clus>
<clus scale="   90.696">  1  4  2 -1</clus>
<clus scale="  151.347">  2  5  1 -1</clus>
<clus scale="   90.696">  1  3  2 -1</clus>
</clustering>
</event>
<event>
 6    0  0.2839294E+002  0.8622041E+02  0.7546771E-02  0.1312272E+00
          2   -1    0    0  505    0 -0.00000000000E+00  0.00000000000E+00  0.91121878952E+03  0.91121878952E+03  0.00000000000E+00 0. -1.
         21   -1    0    0  501  502  0.00000000000E+00 -0.00000000000E+00 -0.27995217251E+03  0.27995217251E+03  0.00000000000E+00 0. -1.
         21    1    1    2  503  504  0.24991229478E+02 -0.87177455628E+02 -0.46377328533E+02  0.10185934872E+03  0.00000000000E+00 0. -1.
         21    1    1    2  504  502  0.63684095321E+02  0.73869763375E+02 -0.18733482626E+03  0.21120308489E+03  0.00000000000E+00 0. -1.
         21    1    1    2  505  503 -0.25384001636E+02 -0.38767787301E+02  0.12002559472E+03  0.12866014247E+03  0.00000000000E+00 0. -1.
          2    1    1    2  501    0 -0.63291323164E+02  0.52075479554E+02  0.74495317708E+03  0.74944838595E+03  0.00000000000E+00 0. -1.
<scales pt_clust_3="14000.00000" pt_clust_4="86.22041" pt_clust_5="46.33885" pt_clust_6="88.71811"></scales>
<clustering>
<clus scale="   46.339">  1  5  2 -1</clus>
<clus scale="   88.718">  1  6  2 -1</clus>
<clus scale="   86.220">  2  4  1 -1</clus>
<clus scale="   86.220">  2  3  1 -1</clus>
</clustering>
</event>
<event>
 6    0  0.2874479E+002  0.1310054E+03  0.7546771E-02  0.1225972E+00
          2   -1    0    0  503    0 -0.00000000000E+00  0.00000000000E+00  0.21691263150E+04  0.21691263150E+04  0.00000000000E+00 0. -1.
         21   -1    0    0  505  502  0.00000000000E+00 -0.00000000000E+00 -0.38580483807E+03  0.38580483807E+03  0.00000000000E+00 0. -1.
         21    1    1    2  503  504  0.13409183142E+02 -0.27149520092E+02  0.19212578278E+03  0.19449734971E+03  0.00000000000E+00 0. -1.
         21    1    1    2  504  502 -0.30456850404E+02 -0.31361694460E+02  0.90501622255E+02  0.10050730942E+03  0.00000000000E+00 0. -1.
         21    1    1    2  505  501  0.18293653897E+02  0.13009065604E+03 -0.36754448858E+03  0.39031677859E+03  0.00000000000E+00 0. -1.
          2    1    1    2  501    0 -0.12459866364E+01 -0.71579441484E+02  0.18682385605E+04  0.18696097154E+04  0.00000000000E+00 0. -1.
<scales pt_clust_3="30.28040" pt_clust_4="44.22838" pt_clust_5="14000.00000" pt_clust_6="131.00538"></scales>
<clustering>
<clus scale="   30.280">  1  3  2 -1</clus>
<clus scale="   44.228">  1  4  2 -1</clus>
<clus scale="  131.005">  1  6  2 -1</clus>
<clus scale="  131.005">  2  3  1 -1</clus>
</clustering>
</event>
<event>
 6    0  0.2839294E+002  0.9963054E+02  0.7546771E-02  0.1281075E+00
         21   -1    0    0  501  502  0.00000000000E+00  0.00000000000E+00  0.27380213180E+02  0.27380213180E+02  0.00000000000E+00 0. -1.
          1   -1    0    0  505    0 -0.00000000000E+00 -0.00000000000E+00 -0.22215677451E+04  0.22215677451E+04  0.00000000000E+00 0. -1.
         21    1    1    2  503  504 -0.55711374853E+02 -0.23024971329E+02 -0.41206989243E+03  0.41645588343E+03  0.00000000000E+00 0. -1.
         21    1    1    2  504  502  0.86882317374E+02  0.74944642043E+02 -0.12723769875E+03  0.17133204145E+03  0.00000000000E+00 0. -1.
         21    1    1    2  505  503 -0.15234402637E+01 -0.45533124761E+02 -0.17084259712E+03  0.17681283695E+03  0.00000000000E+00 0. -1.
          1    1    1    2  501    0 -0.29647502258E+02 -0.63865459523E+01 -0.14840373436E+04  0.14843471965E+04  0.00000000000E+00 0. -1.
<scales pt_clust_3="99.63054" pt_clust_4="14000.00000" pt_clust_5="47.80272" pt_clust_6="30.32758"></scales>
<clustering>
<clus scale="   30.328">  2  6  1 -1</clus>
<clus scale="   47.803">  2  5  1 -1</clus>
<clus scale="   99.631">  2  3  1 -1</clus>
<clus scale="   99.631">  1  3  2 -1</clus>
</clustering>
</event>
<event>
 6    0  0.2839294E+002  0.7802685E+02  0.7546771E-02  0.1334746E+00
          2   -1    0    0  504    0 -0.00000000000E+00  0.00000000000E+00  0.31814851955E+03  0.31814851955E+03  0.00000000000E+00 0.  1.
         21   -1    0    0  501  502  0.00000000000E+00 -0.00000000000E+00 -0.13902972231E+03  0.13902972231E+03  0.00000000000E+00 0. -1.
         21    1    1    2  503  505  0.51840806730E+02 -0.27939129214E+02  0.71510259465E+02  0.92637904728E+02  0.00000000000E+00 0. -1.
         21    1    1    2  504  503 -0.80511360221E+01 -0.35355067462E+02  0.12563881063E+03  0.13076663307E+03  0.00000000000E+00 0.  1.
         21    1    1    2  505  502 -0.13942462234E+01 -0.55183544037E+02 -0.77051927361E+02  0.94784845651E+02  0.00000000000E+00 0. -1.
          2    1    1    2  501    0 -0.42395424484E+02  0.11847774071E+03  0.59021654509E+02  0.13898885841E+03  0.00000000000E+00 0.  1.
<scales pt_clust_3="78.02685" pt_clust_4="36.26019" pt_clust_5="56.86144" pt_clust_6="14000.00000"></scales>
<clustering>
<clus scale="   36.260">  1  4  2 -1</clus>
<clus scale="   56.861">  2  5  1 -1</clus>
<clus scale="   78.027">  1  3  2 -1</clus>
<clus scale="   56.861">  2  3  1 -1</clus>
</clustering>
</event>
<event>
 6    0  0.2839294E+002  0.1104345E+03  0.7546771E-02  0.1259767E+00
         21   -1    0    0  503  502  0.00000000000E+00  0.00000000000E+00  0.98082898100E+02  0.98082898100E+02  0.00000000000E+00 0.  1.
          1   -1    0    0  504    0 -0.00000000000E+00 -0.00000000000E+00 -0.24532673733E+04  0.24532673733E+04  0.00000000000E+00 0. -1.
         21    1    1    2  503  501  0.61801756962E+02 -0.29546393748E+02  0.70016019545E+02  0.97952486135E+02  0.00000000000E+00 0.  1.
         21    1    1    2  504  505 -0.36754639029E+02 -0.93818087651E+01 -0.19091691470E+03  0.19464888940E+03  0.00000000000E+00 0. -1.
         21    1    1    2  505  502  0.18234579968E+02 -0.50163317270E+02 -0.53003659136E+02  0.75221314718E+02  0.00000000000E+00 0. -1.
          1    1    1    2  501    0 -0.43281697901E+02  0.89091519783E+02 -0.21812799209E+04  0.21835275811E+04  0.00000000000E+00 0. -1.
<scales pt_clust_3="14000.00000" pt_clust_4="37.93312" pt_clust_5="53.27940" pt_clust_6="110.43450"></scales>
<clustering>
<clus scale="   37.933">  2  4  1 -1</clus>
<clus scale="   53.279">  1  5  2 -1</clus>
<clus scale="  110.435">  2  6  1 -1</clus>
<clus scale="   53.279">  1  3  2 -1</clus>
</clustering>
</event>
<event>
 6    0  0.2839294E+002  0.7584505E+02  0.7546771E-02  0.1341274E+00
         21   -1    0    0  504  502  0.00000000000E+00  0.00000000000E+00  0.35576568329E+03  0.35576568329E+03  0.00000000000E+00 0. -1.
          2   -1    0    0  503    0 -0.00000000000E+00 -0.00000000000E+00 -0.75205955777E+03  0.75205955777E+03  0.00000000000E+00 0.  1.
         21    1    1    2  503  505 -0.32154909605E+02  0.26443210275E+01 -0.33471820269E+03  0.33626954346E+03  0.00000000000E+00 0.  1.
         21    1    1    2  504  501  0.59070027290E+02 -0.55659547420E+01  0.96636136338E+02  0.11339660851E+03  0.00000000000E+00 0. -1.
         21    1    1    2  505  502 -0.93307981538E+02  0.13118556607E+01  0.23840644556E+03  0.25601901037E+03  0.00000000000E+00 0. -1.
          2    1    1    2  501    0  0.66392863853E+02  0.16097780539E+01 -0.39661825368E+03  0.40214007872E+03  0.00000000000E+00 0.  1.
<scales pt_clust_3="32.26346" pt_clust_4="14000.00000" pt_clust_5="75.84505" pt_clust_6="35.80532"></scales>
<clustering>
<clus scale="   32.263">  2  3  1 -1</clus>
<clus scale="   35.805">  2  6  1 -1</clus>
<clus scale="   75.845">  2  5  1 -1</clus>
<clus scale="   75.845">  1  3  2 -1</clus>
</clustering>
</event>
<event>
 6    0  0.2839294E+002  0.7900437E+02  0.7546771E-02  0.1331901E+00
         21   -1    0    0  503  502  0.00000000000E+00  0.00000000000E+00  0.62116625703E+02  0.62116625703E+02  0.00000000000E+00 0. -1.
          2   -1    0    0  505    0 -0.00000000000E+00 -0.00000000000E+00 -0.30863676737E+03  0.30863676737E+03  0.00000000000E+00 0. -1.
         21    1    1    2  503  501 -0.65172334653E+01 -0.72696453790E+02 -0.16235808556E+02  0.74771988105E+02  0.00000000000E+00 0. -1.
         21    1    1    2  504  502  0.53812324909E+02  0.85505558660E+02 -0.89573878316E+02  0.13502017090E+03  0.00000000000E+00 0. -1.
         21    1    1    2  505  504 -0.27159710464E+02  0.23958299151E+02 -0.63231411112E+02  0.72868795255E+02  0.00000000000E+00 0. -1.
          2    1    1    2  501    0 -0.20135380980E+02 -0.36767404021E+02 -0.77479043683E+02  0.88092438811E+02  0.00000000000E+00 0. -1.
<scales pt_clust_3="14000.00000" pt_clust_4="79.00437" pt_clust_5="36.21671" pt_clust_6="41.02089"></scales>
<clustering>
<clus scale="   36.217">  2  5  1 -1</clus>
<clus scale="   41.021">  2  6  1 -1</clus>
<clus scale="   79.004">  2  4  1 -1</clus>
<clus scale="   79.004">  1  3  2 -1</clus>
</clustering>
</event>
<event>
 6    0  0.2839294E+002  0.9179107E+02  0.7546771E-02  0.1298571E+00
         21   -1    0    0  503  502  0.00000000000E+00  0.00000000000E+00  0.50354022019E+02  0.50354022019E+02  0.00000000000E+00 0.  1.
          1   -1    0    0  505    0 -0.00000000000E+00 -0.00000000000E+00 -0.32173412125E+04  0.32173412125E+04  0.00000000000E+00 0. -1.
         21    1    1    2  503  501 -0.90037876809E+02 -0.12869135778E+02  0.38326236807E+00  0.90953728929E+02  0.00000000000E+00 0.  1.
         21    1    1    2  504  502 -0.11188939914E+02  0.64629836448E+02 -0.81002820014E+03  0.81267945290E+03  0.00000000000E+00 0. -1.
         21    1    1    2  505  504 -0.33192120192E+02  0.14151656589E+01 -0.50062719787E+03  0.50172832368E+03  0.00000000000E+00 0. -1.
          1    1    1    2  501    0  0.13441893692E+03 -0.53175866329E+02 -0.18567150549E+04  0.18623337291E+04  0.00000000000E+00 0. -1.
<scales pt_clust_3="91.79107" pt_clust_4="68.39013" pt_clust_5="33.22227" pt_clust_6="14000.00000"></scales>
<clustering>
<clus scale="   33.222">  2  5  1 -1</clus>
<clus scale="   68.390">  2  4  1 -1</clus>
<clus scale="   91.791">  1  3  2 -1</clus>
<clus scale="   91.791">  1  3  2 -1</clus>
</clustering>
</event>
<event>
 6    0  0.2839294E+002  0.1412612E+03  0.7546771E-02  0.1211642E+00
          4   -1    0    0  505    0 -0.00000000000E+00  0.00000000000E+00  0.23081720490E+04  0.23081720490E+04  0.00000000000E+00 0.  1.
         21   -1    0    0  501  502  0.00000000000E+00 -0.00000000000E+00 -0.13814931611E+03  0.13814931611E+03  0.00000000000E+00 0.  1.
         21    1    1    2  503  502  0.44965023307E+02  0.40427293421E+02 -0.10077239812E+03  0.11752146867E+03  0.00000000000E+00 0.  1.
         21    1    1    2  504  503 -0.20295611139E+02 -0.17952628898E+03  0.29961421450E+03  0.34987180194E+03  0.00000000000E+00 0.  1.
         21    1    1    2  505  504  0.20554238369E+02  0.37915333679E+02  0.21669851555E+03  0.22094862725E+03  0.00000000000E+00 0. -1.
          4    1    1    2  501    0 -0.45223650537E+02  0.10118366188E+03  0.17544824009E+04  0.17579794672E+04  0.00000000000E+00 0.  1.
<scales pt_clust_3="60.62958" pt_clust_4="14000.00000" pt_clust_5="43.12829" pt_clust_6="141.26120"></scales>
<clustering>
<clus scale="   43.128">  1  5  2 -1</clus>
<clus scale="   60.630">  2  3  1 -1</clus>
<clus scale="  141.261">  1  6  2 -1</clus>
<clus scale="   60.630">  2  3  1 -1</clus>
</clustering>
</event>
<event>
 6    0  0.2839294E+002  0.1010477E+03  0.7546771E-02  0.1278108E+00
          1   -1    0    0  504    0 -0.00000000000E+00  0.00000000000E+00  0.17255743756E+04  0.17255743756E+04  0.00000000000E+00 0.  1.
         21   -1    0    0  505  502  0.00000000000E+00 -0.00000000000E+00 -0.12781653804E+03  0.12781653804E+03  0.00000000000E+00 0. -1.
         21    1    1    2  503  502 -0.18226073146E+02  0.92032042581E+02 -0.51247584508E+02  0.10690370210E+03  0.00000000000E+00 0. -1.
         21    1    1    2  504  503  0.46026689058E+02 -0.70864087996E+01  0.40755488543E+03  0.41020684774E+03  0.00000000000E+00 0. -1.
         21    1    1    2  505  501 -0.38924702792E+02 -0.13365308977E+03  0.56432449828E+02  0.15020952795E+03  0.00000000000E+00 0. -1.
          1    1    1    2  501    0  0.11124086880E+02  0.48707455993E+02  0.11850180868E+04  0.11860708359E+04  0.00000000000E+00 0.  1.
<scales pt_clust_3="101.04772" pt_clust_4="46.56902" pt_clust_5="14000.00000" pt_clust_6="67.48912"></scales>
<clustering>
<clus scale="   46.569">  1  4  2 -1</clus>
<clus scale="   67.489">  1  6  2 -1</clus>
<clus scale="  101.048">  2  3  1 -1</clus>
<clus scale="  101.048">  2  3  1 -1</clus>
</clustering>
</event>
<event>
 6    0  0.2839294E+002  0.1446965E+03  0.7546771E-02  0.1207146E+00
          2   -1    0    0  504    0 -0.00000000000E+00  0.00000000000E+00  0.12371283091E+04  0.12371283091E+04  0.00000000000E+00 0.  1.
         21   -1    0    0  505  502  0.00000000000E+00 -0.00000000000E+00 -0.22511499316E+03  0.22511499316E+03  0.00000000000E+00 0.  1.
         21    1    1    2  503  501 -0.10292084823E+03 -0.15044290488E+01  0.74698280252E+03  0.75404129301E+03  0.00000000000E+00 0.  1.
         21    1    1    2  504  502  0.12197966708E+03  0.10740280517E+03  0.19938761878E+02  0.16374356770E+03  0.00000000000E+00 0.  1.
         21    1    1    2  505  503  0.10696863724E+02 -0.37445199201E+02 -0.14353738009E+03  0.14872641097E+03  0.00000000000E+00 0.  1.
          2    1    1    2  501    0 -0.29755682566E+02 -0.68453176919E+02  0.38862913167E+03  0.39573203062E+03  0.00000000000E+00 0.  1.
<scales pt_clust_3="144.69648" pt_clust_4="14000.00000" pt_clust_5="38.94311" pt_clust_6="76.00126"></scales>
<clustering>
<clus scale="   38.943">  2  5  1 -1</clus>
<clus scale="   76.001">  1  6  2 -1</clus>
<clus scale="  144.696">  1  3  2 -1</clus>
<clus scale="   38.943">  2  3  1 -1</clus>
</clustering>
</event>
<event>
 6    0  0.2839294E+002  0.9245285E+02  0.7546771E-02  0.1297018E+00
         21   -1    0    0  503  502  0.00000000000E+00  0.00000000000E+00  0.69671783877E+03  0.69671783877E+03  0.00000000000E+00 0. -1.
          2   -1    0    0  505    0 -0.00000000000E+00 -0.00000000000E+00 -0.28930682035E+03  0.28930682035E+03  0.00000000000E+00 0. -1.
         21    1    1    2  503  504 -0.11030133241E+02  0.31592518848E+02  0.41833615717E+03  0.41967236207E+03  0.00000000000E+00 0. -1.
         21    1    1    2  504  501 -0.61322915605E+01  0.38906443722E+02  0.32005844773E+02  0.50751260699E+02  0.00000000000E+00 0. -1.
         21    1    1    2  505  502  0.10041768279E+03 -0.29126017391E+02  0.21627733342E+03  0.24022472991E+03  0.00000000000E+00 0. -1.
          2    1    1    2  501    0 -0.83255257985E+02 -0.41372945179E+02 -0.25920831695E+03  0.27537630645E+03  0.00000000000E+00 0. -1.
<scales pt_clust_3="33.46268" pt_clust_4="44.30138" pt_clust_5="14000.00000" pt_clust_6="92.45285"></scales>
<clustering>
<clus scale="   33.463">  1  3  2 -1</clus>
<clus scale="   44.301">  1  4  2 -1</clus>
<clus scale="   92.453">  2  6  1 -1</clus>
<clus scale="   33.463">  1  3  2 -1</clus>
</clustering>
</event>
<event>
 6    0  0.2839294E+002  0.1076100E+03  0.7546771E-02  0.1265061E+00
         21   -1    0    0  505  502  0.00000000000E+00  0.00000000000E+00  0.12993389707E+03  0.12993389707E+03  0.00000000000E+00 0.  1.
          2   -1    0    0  504    0 -0.00000000000E+00 -0.00000000000E+00 -0.96910921754E+03  0.96910921754E+03  0.00000000000E+00 0. -1.
         21    1    1    2  503  501  0.80111697268E+02  0.75732061131E+02  0.71716634828E+02  0.13151617708E+03  0.00000000000E+00 0.  1.
         21    1    1    2  504  502  0.79704262025E+02 -0.66002074538E+01 -0.22170549632E+03  0.23568975205E+03  0.00000000000E+00 0.  1.
         21    1    1    2  505  503 -0.26857228176E+02 -0.26013591723E+02 -0.10400911999E+02  0.38809749162E+02  0.00000000000E+00 0.  1.
          2    1    1    2  501    0 -0.13295873112E+03 -0.43118261955E+02 -0.67878554697E+03  0.69302743631E+03  0.00000000000E+00 0. -1.
<scales pt_clust_3="77.41473" pt_clust_4="14000.00000" pt_clust_5="37.39007" pt_clust_6="107.61003"></scales>
<clustering>
<clus scale="   37.390">  1  5  2 -1</clus>
<clus scale="   77.415">  1  3  2 -1</clus>
<clus scale="  107.610">  1  6  2 -1</clus>
<clus scale="   37.390">  1  3  2 -1</clus>
</clustering>
</event>
<event>
 6    0  0.2839294E+002  0.7673428E+02  0.7546771E-02  0.1338583E+00
         21   -1    0    0  505  502  0.00000000000E+00  0.00000000000E+00  0.19516957433E+02  0.19516957433E+02  0.00000000000E+00 0.  1.
          2   -1    0    0  504    0 -0.00000000000E+00 -0.00000000000E+00 -0.17889280083E+04  0.17889280083E+04  0.00000000000E+00 0.  1.
         21    1    1    2  503  502  0.23844361304E+02 -0.80670534176E+02 -0.13943588596E+03  0.16284549409E+03  0.00000000000E+00 0.  1.
         21    1    1    2  504  503  0.73363180102E+02  0.16536028509E+02 -0.88391119946E+03  0.88710461895E+03  0.00000000000E+00 0.  1.
         21    1    1    2  505  501 -0.14091026970E+02  0.33566454891E+02 -0.10060594836E+03  0.10698981625E+03  0.00000000000E+00 0. -1.
          2    1    1    2  501    0 -0.83116514436E+02  0.30568050775E+02 -0.64545801704E+03  0.65150503641E+03  0.00000000000E+00 0.  1.
<scales pt_clust_3="58.24794" pt_clust_4="76.73428" pt_clust_5="36.40417" pt_clust_6="14000.00000"></scales>
<clustering>
<clus scale="   36.404">  1  5  2 -1</clus>
<clus scale="   58.248">  1  3  2 -1</clus>
<clus scale="   76.734">  2  4  1 -1</clus>
<clus scale="   36.404">  1  3  2 -1</clus>
</clustering>
</event>
<event>
 6    0  0.2839294E+002  0.1695026E+03  0.7546771E-02  0.1178368E+00
         21   -1    0    0  501  502  0.00000000000E+00  0.00000000000E+00  0.25767176598E+04  0.25767176598E+04  0.00000000000E+00 0. -1.
          2   -1    0    0  505    0 -0.00000000000E+00 -0.00000000000E+00 -0.19537527820E+04  0.19537527820E+04  0.00000000000E+00 0.  1.
         21    1    1    2  503  504  0.54449913746E+01 -0.14792294601E+03  0.16334169434E+04  0.16401102880E+04  0.00000000000E+00 0. -1.
         21    1    1    2  504  502 -0.10135705761E+03  0.77826238954E+01  0.92423683262E+03  0.92981048883E+03  0.00000000000E+00 0. -1.
         21    1    1    2  505  503 -0.60572316334E+02  0.21092803128E+02 -0.12777754261E+03  0.14297206806E+03  0.00000000000E+00 0.  1.
          2    1    1    2  501    0  0.15648438257E+03  0.11904751898E+03 -0.18069113556E+04  0.18175775969E+04  0.00000000000E+00 0.  1.
<scales pt_clust_3="169.50258" pt_clust_4="101.75045" pt_clust_5="64.13978" pt_clust_6="14000.00000"></scales>
<clustering>
<clus scale="   64.140">  2  5  1 -1</clus>
<clus scale="  101.750">  1  4  2 -1</clus>
<clus scale="  169.503">  1  3  2 -1</clus>
<clus scale="  101.750">  1  3  2 -1</clus>
</clustering>
</event>
<event>
 6    0  0.2839294E+002  0.9683209E+02  0.7546771E-02  0.1287102E+00
         21   -1    0    0  503  502  0.00000000000E+00  0.00000000000E+00  0.52977283718E+02  0.52977283718E+02  0.00000000000E+00 0. -1.
         -3   -1    0    0    0  501 -0.00000000000E+00 -0.00000000000E+00 -0.13620597688E+04  0.13620597688E+04  0.00000000000E+00 0. -1.
         21    1    1    2  503  501 -0.12780839777E+03  0.58614760100E+02 -0.49334398872E+03  0.51299022199E+03  0.00000000000E+00 0. -1.
         21    1    1    2  504  505  0.16740622324E+02 -0.77116549586E+02 -0.61948522995E+03  0.62449112146E+03  0.00000000000E+00 0. -1.
         21    1    1    2  505  502  0.63096435543E+02  0.17732301225E+02  0.95510647538E+01  0.66233054610E+02  0.00000000000E+00 0. -1.
         -3    1    1    2    0  504  0.47971339907E+02  0.76948826058E+00 -0.20580433119E+03  0.21132265450E+03  0.00000000000E+00 0. -1.
<scales pt_clust_3="96.83209" pt_clust_4="14000.00000" pt_clust_5="66.68126" pt_clust_6="47.97751"></scales>
<clustering>
<clus scale="   47.978">  2  6  1 -1</clus>
<clus scale="   66.681">  1  5  2 -1</clus>
<clus scale="   96.832">  1  3  2 -1</clus>
<clus scale="   66.681">  1  3  2 -1</clus>
</clustering>
</event>
<event>
 6    0  0.2839294E+002  0.9676493E+02  0.7546771E-02  0.1287250E+00
          2   -1    0    0  505    0 -0.00000000000E+00  0.00000000000E+00  0.35517192913E+03  0.35517192913E+03  0.00000000000E+00 0.  1.
         21   -1    0    0  504  502  0.00000000000E+00 -0.00000000000E+00 -0.26521792123E+03  0.26521792123E+03  0.00000000000E+00 0.  1.
         21    1    1    2  503  502  0.60689190208E+02 -0.21827206322E+02  0.66888546438E+01  0.64840924734E+02  0.00000000000E+00 0.  1.
         21    1    1    2  504  501 -0.76956127703E+02  0.80166301613E+02 -0.21375162365E+03  0.24091209625E+03  0.00000000000E+00 0.  1.
         21    1    1    2  505  503  0.39620755521E+02 -0.25066536826E-01  0.90876226688E+02  0.99137749992E+02  0.00000000000E+00 0.  1.
          2    1    1    2  501    0 -0.23353818025E+02 -0.58314028754E+02  0.20614055022E+03  0.21549907938E+03  0.00000000000E+00 0.  1.
<scales pt_clust_3="14000.00000" pt_clust_4="96.76493" pt_clust_5="39.62076" pt_clust_6="58.98724"></scales>
<clustering>
<clus scale="   39.621">  1  5  2 -1</clus>
<clus scale="   58.987">  1  6  2 -1</clus>
<clus scale="   96.765">  2  4  1 -1</clus>
<clus scale="   96.765">  2  3  1 -1</clus>
</clustering>
</event>
<event>
 6    0  0.2839294E+002  0.1953008E+03  0.7546771E-02  0.1153765E+00
          1   -1    0    0  503    0 -0.00000000000E+00  0.00000000000E+00  0.10016115304E+04  0.10016115304E+04  0.00000000000E+00 0. -1.
         21   -1    0    0  505  502  0.00000000000E+00 -0.00000000000E+00 -0.68633090336E+02  0.68633090336E+02  0.00000000000E+00 0.  1.
         21    1    1    2  503  504 -0.48631297556E+02  0.39692871445E+02  0.34210644394E+02  0.71490526193E+02  0.00000000000E+00 0.  1.
         21    1    1    2  504  502 -0.12841016141E+03 -0.10456329184E+02  0.68674587217E+02  0.14599555919E+03  0.00000000000E+00 0.  1.
         21    1    1    2  505  501  0.41790642091E+02  0.10494479268E+02  0.95616730495E+02  0.10487683735E+03  0.00000000000E+00 0.  1.
          1    1    1    2  501    0  0.13525081688E+03 -0.39731021529E+02  0.73447647795E+03  0.74788169800E+03  0.00000000000E+00 0. -1.
<scales pt_clust_3="46.91009" pt_clust_4="191.61113" pt_clust_5="42.62449" pt_clust_6="42.62449"></scales>
<clustering>
<clus scale="   42.624">  5  6 -1 -1</clus>
<clus scale="   46.910">  3  4 -1 -1</clus>
<clus scale="  191.611">  2  3  1 -1</clus>
<clus scale="  191.611">  2  3  1 -1</clus>
</clustering>
</event>
<event>
 6    0  0.2839294E+002  0.1239223E+03  0.7546771E-02  0.1236763E+00
         -4   -1    0    0    0  501 -0.00000000000E+00  0.00000000000E+00  0.13163796907E+04  0.13163796907E+04  0.00000000000E+00 0.  1.
         21   -1    0    0  504  502  0.00000000000E+00 -0.00000000000E+00 -0.60096568685E+02  0.60096568685E+02  0.00000000000E+00 0.  1.
         21    1    1    2  503  502 -0.28476366435E+02 -0.14640607417E+03  0.21878851988E+03  0.26479059355E+03  0.00000000000E+00 0.  1.
         21    1    1    2  504  505 -0.24268380003E+02  0.21681928445E+02 -0.22367581856E+02  0.39488846617E+02  0.00000000000E+00 0.  1.
         21    1    1    2  505  501  0.92477082530E+01  0.65976900942E+02  0.23977743535E+03  0.24886078451E+03  0.00000000000E+00 0.  1.
         -4    1    1    2    0  503  0.43497038185E+02  0.58747244780E+02  0.82008474868E+03  0.82333603475E+03  0.00000000000E+00 0.  1.
<scales pt_clust_3="14000.00000" pt_clust_4="32.54321" pt_clust_5="69.56820" pt_clust_6="123.92233"></scales>
<clustering>
<clus scale="   32.543">  2  4  1 -1</clus>
<clus scale="   69.568">  1  5  2 -1</clus>
<clus scale="  123.922">  1  6  2 -1</clus>
<clus scale="   32.543">  2  3  1 -1</clus>
</clustering>
</event>
<event>
 6    0  0.2839294E+002  0.3206125E+03  0.7546771E-02  0.1075368E+00
          2   -1    0    0  505    0 -0.00000000000E+00  0.00000000000E+00  0.24130116654E+03  0.24130116654E+03  0.00000000000E+00 0.  1.
         21   -1    0    0  504  502  0.00000000000E+00 -0.00000000000E+00 -0.53201510664E+03  0.53201510664E+03  0.00000000000E+00 0.  1.
         21    1    1    2  503  501 -0.74196908933E+02  0.58044394416E+02 -0.40270072452E+02  0.10245004516E+03  0.00000000000E+00 0.  1.
         21    1    1    2  504  503 -0.31333287123E+02  0.71623569173E+01 -0.98662077718E+02  0.10376550399E+03  0.00000000000E+00 0.  1.
         21    1    1    2  505  502  0.24072139763E+03 -0.22875262296E+03 -0.11697619201E+03  0.35207667245E+03  0.00000000000E+00 0.  1.
          2    1    1    2  501    0 -0.13519120157E+03  0.16354587163E+03 -0.34805597913E+02  0.21502405157E+03  0.00000000000E+00 0.  1.
<scales pt_clust_3="31.30797" pt_clust_4="32.14147" pt_clust_5="317.15064" pt_clust_6="31.30797"></scales>
<clustering>
<clus scale="   31.308">  3  6 -1 -1</clus>
<clus scale="   32.141">  2  4  1 -1</clus>
<clus scale="  317.151">  2  5  1 -1</clus>
<clus scale="   32.141">  2  3  1 -1</clus>
</clustering>
</event>
<event>
 6    0  0.2839294E+002  0.1429429E+03  0.7546771E-02  0.1209423E+00
          1   -1    0    0  505    0 -0.00000000000E+00  0.00000000000E+00  0.23238414304E+04  0.23238414304E+04  0.00000000000E+00 0.  1.
         21   -1    0    0  503  502  0.00000000000E+00 -0.00000000000E+00 -0.41242542227E+03  0.41242542227E+03  0.00000000000E+00 0. -1.
         21    1    1    2  503  504  0.25653410887E+02 -0.35957599471E+02  0.14410934045E+02  0.46462043325E+02  0.00000000000E+00 0.  1.
         21    1    1    2  504  501  0.61046596321E+02 -0.15839233966E+03  0.86571035111E+03  0.88219568815E+03  0.00000000000E+00 0. -1.
         21    1    1    2  505  502 -0.63095945727E+01  0.86844843121E+02 -0.38004877393E+03  0.38989602245E+03  0.00000000000E+00 0. -1.
          1    1    1    2  501    0 -0.80390412635E+02  0.10750509601E+03  0.14113434969E+04  0.14177130987E+04  0.00000000000E+00 0.  1.
<scales pt_clust_3="44.17065" pt_clust_4="14000.00000" pt_clust_5="55.15618" pt_clust_6="142.94293"></scales>
<clustering>
<clus scale="   44.171">  2  3  1 -1</clus>
<clus scale="   55.156">  2  5  1 -1</clus>
<clus scale="  142.943">  1  6  2 -1</clus>
<clus scale="   44.171">  2  3  1 -1</clus>
</clustering>
</event>
<event>
 6    0  0.2839294E+002  0.9798126E+02  0.7546771E-02  0.1284599E+00
         -2   -1    0    0    0  501 -0.00000000000E+00  0.00000000000E+00  0.15460487024E+04  0.15460487024E+04  0.00000000000E+00 0. -1.
         21   -1    0    0  505  502  0.00000000000E+00 -0.00000000000E+00 -0.34351182114E+03  0.34351182114E+03  0.00000000000E+00 0. -1.
         21    1    1    2  503  502 -0.45919158165E+02  0.25119870600E+02 -0.29566513756E+02  0.60114521717E+02  0.00000000000E+00 0. -1.
         21    1    1    2  504  501  0.26191310430E+02 -0.48287648334E+02  0.12968794937E+03  0.14084262826E+03  0.00000000000E+00 0. -1.
         21    1    1    2  505  504  0.12701902569E+03 -0.75537200293E+02 -0.27035698990E+03  0.30811134920E+03  0.00000000000E+00 0. -1.
         -2    1    1    2    0  503 -0.10729117795E+03  0.98704978027E+02  0.13727724356E+04  0.13804920244E+04  0.00000000000E+00 0. -1.
<scales pt_clust_3="52.34097" pt_clust_4="54.11486" pt_clust_5="97.98126" pt_clust_6="14000.00000"></scales>
<clustering>
<clus scale="   52.341">  2  3  1 -1</clus>
<clus scale="   54.115">  1  4  2 -1</clus>
<clus scale="   97.981">  2  5  1 -1</clus>
<clus scale="   52.341">  2  3  1 -1</clus>
</clustering>
</event>
<event>
 6    0  0.2839294E+002  0.9136297E+02  0.7546771E-02  0.1299584E+00
         21   -1    0    0  501  502  0.00000000000E+00  0.00000000000E+00  0.15264332795E+04  0.15264332795E+04  0.00000000000E+00 0.  1.
         -2   -1    0    0    0  501 -0.00000000000E+00 -0.00000000000E+00 -0.11728819505E+03  0.11728819505E+03  0.00000000000E+00 0. -1.
         21    1    1    2  503  504 -0.12025073924E+02 -0.37220172213E+02 -0.15473579829E+02  0.42063942934E+02  0.00000000000E+00 0. -1.
         21    1    1    2  504  505  0.55795789723E+01  0.11295515409E+03  0.82583230680E+02  0.14003566877E+03  0.00000000000E+00 0. -1.
         21    1    1    2  505  502  0.36657352307E+02 -0.83101852241E+02  0.13962075304E+04  0.13991587284E+04  0.00000000000E+00 0.  1.
         -2    1    1    2    0  503 -0.30211857355E+02  0.73668703638E+01 -0.54172096754E+02  0.62463134492E+02  0.00000000000E+00 0. -1.
<scales pt_clust_3="42.97710" pt_clust_4="91.36297" pt_clust_5="14000.00000" pt_clust_6="31.09706"></scales>
<clustering>
<clus scale="   31.097">  2  6  1 -1</clus>
<clus scale="   42.977">  2  3  1 -1</clus>
<clus scale="   91.363">  2  4  1 -1</clus>
<clus scale="   91.363">  1  3  2 -1</clus>
</clustering>
</event>
<event>
 6    0  0.2839294E+002  0.8908671E+02  0.7546771E-02  0.1305079E+00
          2   -1    0    0  503    0 -0.00000000000E+00  0.00000000000E+00  0.11211175362E+04  0.11211175362E+04  0.00000000000E+00 0. -1.
         21   -1    0    0  501  502  0.00000000000E+00 -0.00000000000E+00 -0.50542656377E+03  0.50542656377E+03  0.00000000000E+00 0.  1.
         21    1    1    2  503  504 -0.72404303821E+02  0.29036028552E+02  0.61791828941E+03  0.62282299777E+03  0.00000000000E+00 0. -1.
         21    1    1    2  504  505  0.92004131495E+02 -0.35379413680E+02  0.24667269514E+03  0.26563862982E+03  0.00000000000E+00 0. -1.
         21    1    1    2  505  502  0.67962170214E+02  0.57315411769E+02 -0.47872786987E+03  0.48691301728E+03  0.00000000000E+00 0.  1.
          2    1    1    2  501    0 -0.87561997887E+02 -0.50972026641E+02  0.22982785779E+03  0.25116945513E+03  0.00000000000E+00 0. -1.
<scales pt_clust_3="78.00945" pt_clust_4="58.67344" pt_clust_5="14000.00000" pt_clust_6="89.08671"></scales>
<clustering>
<clus scale="   78.009">  1  3  2 -1</clus>
<clus scale="   58.673">  1  4  2 -1</clus>
<clus scale="   89.087">  1  6  2 -1</clus>
<clus scale="   89.087">  2  3  1 -1</clus>
</clustering>
</event>
<event>
 6    0  0.2839294E+002  0.1399154E+03  0.7546771E-02  0.1213443E+00
          2   -1    0    0  505    0 -0.00000000000E+00  0.00000000000E+00  0.18725090049E+04  0.18725090049E+04  0.00000000000E+00 0. -1.
         21   -1    0    0  503  502  0.00000000000E+00 -0.00000000000E+00 -0.52822212809E+03  0.52822212809E+03  0.00000000000E+00 0. -1.
         21    1    1    2  503  501 -0.69989920771E+02  0.42911239006E+02 -0.14019367432E+02  0.83285689681E+02  0.00000000000E+00 0. -1.
         21    1    1    2  504  502  0.20472580373E+03 -0.70948112985E+01 -0.44982938841E+03  0.49427671373E+03  0.00000000000E+00 0. -1.
         21    1    1    2  505  504 -0.26540317281E+01 -0.45585053626E+02  0.10029556354E+03  0.11020091226E+03  0.00000000000E+00 0.  1.
          2    1    1    2  501    0 -0.13208185123E+03  0.97686259182E+01  0.17078400691E+04  0.17129678173E+04  0.00000000000E+00 0. -1.
<scales pt_clust_3="81.67850" pt_clust_4="139.91541" pt_clust_5="45.66225" pt_clust_6="14000.00000"></scales>
<clustering>
<clus scale="   45.662">  1  5  2 -1</clus>
<clus scale="   81.678">  2  3  1 -1</clus>
<clus scale="  139.915">  2  4  1 -1</clus>
<clus scale="   81.678">  2  3  1 -1</clus>
</clustering>
</event>
<event>
 6    0  0.2839294E+002  0.1232649E+03  0.7546771E-02  0.1237806E+00
         21   -1    0    0  505  502  0.00000000000E+00  0.00000000000E+00  0.17705195975E+02  0.17705195975E+02  0.00000000000E+00 0.  1.
          2   -1    0    0  503    0 -0.00000000000E+00 -0.00000000000E+00 -0.24410723089E+04  0.24410723089E+04  0.00000000000E+00 0.  1.
         21    1    1    2  503  502 -0.27867440783E+02  0.12233772237E+03 -0.10644410052E+04  0.10718105085E+04  0.00000000000E+00 0.  1.
         21    1    1    2  504  501  0.17539262353E+02 -0.26657690619E+02 -0.19037954654E+03  0.19303530748E+03  0.00000000000E+00 0.  1.
         21    1    1    2  505  504 -0.16155270905E+02 -0.26683957115E+02 -0.96085999961E+01  0.32639723332E+02  0.00000000000E+00 0.  1.
          2    1    1    2  501    0  0.26483449334E+02 -0.68996074638E+02 -0.11589379613E+04  0.11612919656E+04  0.00000000000E+00 0.  1.
<scales pt_clust_3="112.85941" pt_clust_4="33.41790" pt_clust_5="31.19337" pt_clust_6="33.41790"></scales>
<clustering>
<clus scale="   31.193">  1  5  2 -1</clus>
<clus scale="   33.418">  4  6 -1 -1</clus>
<clus scale="  112.859">  1  3  2 -1</clus>
<clus scale="   31.193">  1  3  2 -1</clus>
</clustering>
</event>
<event>
 6    0  0.2839294E+002  0.1254121E+03  0.7546771E-02  0.1234427E+00
         21   -1    0    0  505  502  0.00000000000E+00  0.00000000000E+00  0.10792468389E+03  0.10792468389E+03  0.00000000000E+00 0.  1.
         -1   -1    0    0    0  501 -0.00000000000E+00 -0.00000000000E+00 -0.88598506309E+03  0.88598506309E+03  0.00000000000E+00 0. -1.
         21    1    1    2  503  502 -0.10202850493E+03  0.56490390947E+02  0.12020203373E+02  0.11724105670E+03  0.00000000000E+00 0.  1.
         21    1    1    2  504  501  0.78252976759E+02 -0.62257687987E+02 -0.24119995206E+03  0.26110719056E+03  0.00000000000E+00 0. -1.
         21    1    1    2  505  504 -0.31854120114E+02 -0.14052708192E+02  0.22293850741E+02  0.41342222444E+02  0.00000000000E+00 0.  1.
         -1    1    1    2    0  503  0.55629648282E+02  0.19820005231E+02 -0.57117448125E+03  0.57421927728E+03  0.00000000000E+00 0. -1.
<scales pt_clust_3="14000.00000" pt_clust_4="125.41212" pt_clust_5="34.81614" pt_clust_6="58.36042"></scales>
<clustering>
<clus scale="   34.816">  1  5  2 -1</clus>
<clus scale="   58.360">  2  6  1 -1</clus>
<clus scale="  125.412">  2  4  1 -1</clus>
<clus scale="   34.816">  1  3  2 -1</clus>
</clustering>
</event>
<event>
 6    0  0.2839294E+002  0.9503329E+02  0.7546771E-02  0.1291101E+00
         21   -1    0    0  503  502  0.00000000000E+00  0.00000000000E+00  0.16214026253E+04  0.16214026253E+04  0.00000000000E+00 0.  1.
         -3   -1    0    0    0  501 -0.00000000000E+00 -0.00000000000E+00 -0.74697470211E+02  0.74697470211E+02  0.00000000000E+00 0.  1.
         21    1    1    2  503  505  0.17917722191E+02 -0.26425677581E+02  0.10161078209E+03  0.10650874255E+03  0.00000000000E+00 0.  1.
         21    1    1    2  504  502 -0.93321018162E+02 -0.33808967223E+02  0.14246415101E+04  0.14280949867E+04  0.00000000000E+00 0.  1.
         21    1    1    2  505  501 -0.15369728264E+02  0.54475193834E+02  0.38911332528E+02  0.68686731537E+02  0.00000000000E+00 0. -1.
         -3    1    1    2    0  504  0.90773024235E+02  0.57594509693E+01 -0.18458469600E+02  0.92809634760E+02  0.00000000000E+00 0.  1.
<scales pt_clust_3="31.92744" pt_clust_4="14000.00000" pt_clust_5="55.52879" pt_clust_6="95.03329"></scales>
<clustering>
<clus scale="   31.927">  1  3  2 -1</clus>
<clus scale="   55.529">  2  5  1 -1</clus>
<clus scale="   95.033">  2  6  1 -1</clus>
<clus scale="   31.927">  1  3  2 -1</clus>
</clustering>
</event>
<event>
 6    0  0.2839294E+002  0.9318373E+02  0.7546771E-02  0.1295320E+00
         21   -1    0    0  504  502  0.00000000000E+00  0.00000000000E+00  0.72728872712E+03  0.72728872712E+03  0.00000000000E+00 0. -1.
         -3   -1    0    0    0  501 -0.00000000000E+00 -0.00000000000E+00 -0.46883983060E+03  0.46883983060E+03  0.00000000000E+00 0. -1.
         21    1    1    2  503  502  0.38165688721E+02  0.50242341492E+01  0.35384338333E+03  0.35593117685E+03  0.00000000000E+00 0. -1.
         21    1    1    2  504  505 -0.84046486669E+01  0.48267907654E+02  0.28212913211E+03  0.28635166529E+03  0.00000000000E+00 0. -1.
         21    1    1    2  505  501 -0.65595130560E+02  0.35053152097E+02  0.66460113144E+02  0.99741622526E+02  0.00000000000E+00 0. -1.
         -3    1    1    2    0  503  0.35834090506E+02 -0.88345293900E+02 -0.44398373207E+03  0.45410409306E+03  0.00000000000E+00 0. -1.
<scales pt_clust_3="38.49497" pt_clust_4="56.07364" pt_clust_5="14000.00000" pt_clust_6="93.18373"></scales>
<clustering>
<clus scale="   38.495">  1  3  2 -1</clus>
<clus scale="   56.074">  1  4  2 -1</clus>
<clus scale="   93.184">  2  6  1 -1</clus>
<clus scale="   38.495">  1  3  2 -1</clus>
</clustering>
</event>
<event>
 6    0  0.2839294E+002  0.2122616E+03  0.7546771E-02  0.1139787E+00
          2   -1    0    0  502    0 -0.00000000000E+00  0.00000000000E+00  0.20859968613E+04  0.20859968613E+04  0.00000000000E+00 0.  1.
         21   -1    0    0  505  502  0.00000000000E+00 -0.00000000000E+00 -0.15638680970E+03  0.15638680970E+03  0.00000000000E+00 0.  1.
         21    1    1    2  503  501  0.29714226087E+02 -0.15143754273E+02  0.26089102831E+03  0.26301406270E+03  0.00000000000E+00 0.  1.
         21    1    1    2  504  503 -0.26188507308E+03  0.10495237768E+03  0.17553529475E+03  0.33228215839E+03  0.00000000000E+00 0.  1.
         21    1    1    2  505  504  0.18067910912E+03 -0.31416117404E+02  0.34843699947E+02  0.18667082346E+03  0.00000000000E+00 0.  1.
          2    1    1    2  501    0  0.51491737878E+02 -0.58392506000E+02  0.14583400285E+04  0.14604166264E+04  0.00000000000E+00 0.  1.
<scales pt_clust_3="32.43562" pt_clust_4="14000.00000" pt_clust_5="212.26155" pt_clust_6="120.24106"></scales>
<clustering>
<clus scale="   32.436">  3  6 -1 -1</clus>
<clus scale="  120.241">  1  3  2 -1</clus>
<clus scale="  212.262">  2  5  1 -1</clus>
<clus scale="  212.262">  2  3  1 -1</clus>
</clustering>
</event>
<event>
 6    0  0.2839294E+002  0.1565378E+03  0.7546771E-02  0.1192662E+00
          2   -1    0    0  504    0 -0.00000000000E+00  0.00000000000E+00  0.24193440116E+04  0.24193440116E+04  0.00000000000E+00 0.  1.
         21   -1    0    0  505  502  0.00000000000E+00 -0.00000000000E+00 -0.10521332785E+04  0.10521332785E+04  0.00000000000E+00 0. -1.
         21    1    1    2  503  501  0.90525857485E+02  0.24315197485E+02 -0.11048268877E+03  0.14488817833E+03  0.00000000000E+00 0. -1.
         21    1    1    2  504  502 -0.41168607987E+02  0.47627525300E+02  0.48597434902E+03  0.49003500217E+03  0.00000000000E+00 0. -1.
         21    1    1    2  505  503  0.65067081186E+02  0.11631299436E+02 -0.91860612094E+03  0.92098111686E+03  0.00000000000E+00 0. -1.
          2    1    1    2  501    0 -0.11442433068E+03 -0.83574022220E+02  0.19103251938E+04  0.19155729928E+04  0.00000000000E+00 0.  1.
<scales pt_clust_3="14000.00000" pt_clust_4="62.95423" pt_clust_5="66.07875" pt_clust_6="156.53783"></scales>
<clustering>
<clus scale="   62.954">  1  4  2 -1</clus>
<clus scale="   66.079">  2  5  1 -1</clus>
<clus scale="  156.538">  1  6  2 -1</clus>
<clus scale="   66.079">  2  3  1 -1</clus>
</clustering>
</event>
<event>
 6    0  0.2839294E+002  0.1344170E+03  0.7546771E-02  0.1221045E+00
          2   -1    0    0  505    0 -0.00000000000E+00  0.00000000000E+00  0.26964173301E+03  0.26964173301E+03  0.00000000000E+00 0.  1.
         21   -1    0    0  501  502  0.00000000000E+00 -0.00000000000E+00 -0.17788236674E+04  0.17788236674E+04  0.00000000000E+00 0.  1.
         21    1    1    2  503  502 -0.67232671175E+01  0.45378292868E+02 -0.15498141836E+04  0.15504929524E+04  0.00000000000E+00 0.  1.
         21    1    1    2  504  503  0.98679815896E+02  0.54447464316E+02 -0.16824902435E+03  0.20250917666E+03  0.00000000000E+00 0.  1.
         21    1    1    2  505  504  0.77815093499E+01  0.35310665712E+02  0.64658539736E+02  0.74081858518E+02  0.00000000000E+00 0. -1.
          2    1    1    2  501    0 -0.99738058128E+02 -0.13513642290E+03  0.14422273377E+03  0.22138141288E+03  0.00000000000E+00 0.  1.
<scales pt_clust_3="45.93091" pt_clust_4="134.41700" pt_clust_5="36.15792" pt_clust_6="14000.00000"></scales>
<clustering>
<clus scale="   36.158">  1  5  2 -1</clus>
<clus scale="   45.931">  2  3  1 -1</clus>
<clus scale="  134.417">  2  4  1 -1</clus>
<clus scale="   45.931">  2  3  1 -1</clus>
</clustering>
</event>
<event>
 6    0  0.2839294E+002  0.1397924E+03  0.7546771E-02  0.1213609E+00
         21   -1    0    0  503  502  0.00000000000E+00  0.00000000000E+00  0.95847382131E+03  0.95847382131E+03  0.00000000000E+00 0. -1.
          2   -1    0    0  504    0 -0.00000000000E+00 -0.00000000000E+00 -0.18061232608E+04  0.18061232608E+04  0.00000000000E+00 0. -1.
         21    1    1    2  503  501  0.15756781296E+03 -0.19260702637E+02  0.83676396316E+03  0.85168804171E+03  0.00000000000E+00 0. -1.
         21    1    1    2  504  505 -0.42917331180E+02 -0.32945092685E+02 -0.12164158252E+04  0.12176184690E+04  0.00000000000E+00 0. -1.
         21    1    1    2  505  502 -0.91844462614E+02  0.63329493225E+01  0.93643018527E+02  0.13131841637E+03  0.00000000000E+00 0. -1.
          2    1    1    2  501    0 -0.22806019166E+02  0.45872845999E+02 -0.56164059604E+03  0.56397215502E+03  0.00000000000E+00 0. -1.
<scales pt_clust_3="139.79243" pt_clust_4="66.32767" pt_clust_5="14000.00000" pt_clust_6="51.22922"></scales>
<clustering>
<clus scale="   51.229">  2  6  1 -1</clus>
<clus scale="   66.328">  2  4  1 -1</clus>
<clus scale="  139.792">  1  3  2 -1</clus>
<clus scale="  139.792">  1  3  2 -1</clus>
</clustering>
</event>
<event>
 6    0  0.2839294E+002  0.8758971E+02  0.7546771E-02  0.1308796E+00
         21   -1    0    0  504  502  0.00000000000E+00  0.00000000000E+00  0.98432405836E+03  0.98432405836E+03  0.00000000000E+00 0.  1.
         -1   -1    0    0    0  501 -0.00000000000E+00 -0.00000000000E+00 -0.11666557319E+03  0.11666557319E+03  0.00000000000E+00 0.  1.
         21    1    1    2  503  501  0.23854788857E+02 -0.18480287653E+02  0.16935263718E+01  0.30223170163E+02  0.00000000000E+00 0.  1.
         21    1    1    2  504  503  0.63770177808E+02 -0.10684542481E+03  0.38930308149E+03  0.40870462395E+03  0.00000000000E+00 0.  1.
         21    1    1    2  505  502 -0.22838501270E+02  0.36653068408E+02  0.53566041962E+03  0.53739848317E+03  0.00000000000E+00 0.  1.
         -1    1    1    2    0  505 -0.64786465394E+02  0.88672644059E+02 -0.58998542312E+02  0.12466335427E+03  0.00000000000E+00 0.  1.
<scales pt_clust_3="30.17569" pt_clust_4="14000.00000" pt_clust_5="42.94608" pt_clust_6="87.58971"></scales>
<clustering>
<clus scale="   30.176">  2  3  1 -1</clus>
<clus scale="   42.946">  1  5  2 -1</clus>
<clus scale="   87.590">  2  6  1 -1</clus>
<clus scale="   42.946">  1  3  2 -1</clus>
</clustering>
</event>
<event>
 6    0  0.2839294E+002  0.3144844E+03  0.7546771E-02  0.1078216E+00
         21   -1    0    0  505  502  0.00000000000E+00  0.00000000000E+00  0.17735810626E+04  0.17735810626E+04  0.00000000000E+00 0.  1.
          2   -1    0    0  504    0 -0.00000000000E+00 -0.00000000000E+00 -0.14169041083E+04  0.14169041083E+04  0.00000000000E+00 0.  1.
         21    1    1    2  503  502 -0.43551876507E+02 -0.99756036330E+01  0.11020907422E+04  0.11029960483E+04  0.00000000000E+00 0.  1.
         21    1    1    2  504  503 -0.89027542182E+02  0.17171122460E+03  0.57763894130E+03  0.60916122203E+03  0.00000000000E+00 0.  1.
         21    1    1    2  505  501 -0.13673999226E+03  0.97041543790E+01 -0.22197471132E+02  0.13886944884E+03  0.00000000000E+00 0.  1.
          2    1    1    2  501    0  0.26931941095E+03 -0.17143977535E+03 -0.13008552580E+04  0.13394584517E+04  0.00000000000E+00 0.  1.
<scales pt_clust_3="44.67973" pt_clust_4="314.48444" pt_clust_5="140.80371" pt_clust_6="14000.00000"></scales>
<clustering>
<clus scale="   44.680">  1  3  2 -1</clus>
<clus scale="  140.804">  1  5  2 -1</clus>
<clus scale="  314.484">  1  4  2 -1</clus>
<clus scale="   44.680">  1  3  2 -1</clus>
</clustering>
</event>
<event>
 6    0  0.2839294E+002  0.1005581E+03  0.7546771E-02  0.1279127E+00
         21   -1    0    0  505  502  0.00000000000E+00  0.00000000000E+00  0.29361978310E+03  0.29361978310E+03  0.00000000000E+00 0. -1.
         -2   -1    0    0    0  501 -0.00000000000E+00 -0.00000000000E+00 -0.28858479530E+03  0.28858479530E+03  0.00000000000E+00 0.  1.
         21    1    1    2  503  504  0.10432000543E+03 -0.50546515909E+02  0.16744466897E+03  0.20365493112E+03  0.00000000000E+00 0. -1.
         21    1    1    2  504  501 -0.72020230663E+02  0.90047305413E+02 -0.20303928749E+03  0.23349600232E+03  0.00000000000E+00 0.  1.
         21    1    1    2  505  503 -0.86181135746E+01  0.29291891654E+02  0.62097103712E+02  0.69197811293E+02  0.00000000000E+00 0.  1.
         -2    1    1    2    0  502 -0.23681661195E+02 -0.68792681159E+02 -0.21467497388E+02  0.75855833672E+02  0.00000000000E+00 0.  1.
<scales pt_clust_3="100.55808" pt_clust_4="14000.00000" pt_clust_5="30.53337" pt_clust_6="69.81739"></scales>
<clustering>
<clus scale="   30.533">  1  5  2 -1</clus>
<clus scale="   69.817">  2  6  1 -1</clus>
<clus scale="  100.558">  1  3  2 -1</clus>
<clus scale="   30.533">  1  3  2 -1</clus>
</clustering>
</event>
<event>
 6    0  0.2839294E+002  0.1952819E+03  0.7546771E-02  0.1153782E+00
          2   -1    0    0  505    0 -0.00000000000E+00  0.00000000000E+00  0.68190883705E+03  0.68190883705E+03  0.00000000000E+00 0.  1.
         21   -1    0    0  503  502  0.00000000000E+00 -0.00000000000E+00 -0.75606862793E+02  0.75606862793E+02  0.00000000000E+00 0.  1.
         21    1    1    2  503  504  0.18931063639E+02 -0.36859211069E+02  0.45725750606E+01  0.41688068483E+02  0.00000000000E+00 0.  1.
         21    1    1    2  504  501  0.11011305159E+03 -0.70005312305E+01  0.11713684807E+03  0.16091902542E+03  0.00000000000E+00 0.  1.
         21    1    1    2  505  502 -0.19301285597E+03  0.63735909551E+02  0.35758141649E+03  0.41131581316E+03  0.00000000000E+00 0.  1.
          2    1    1    2  501    0  0.63968740739E+02 -0.19876167251E+02  0.12701113464E+03  0.14359279278E+03  0.00000000000E+00 0.  1.
<scales pt_clust_3="41.43654" pt_clust_4="35.64131" pt_clust_5="189.84903" pt_clust_6="35.64131"></scales>
<clustering>
<clus scale="   35.641">  4  6 -1 -1</clus>
<clus scale="   41.437">  2  3  1 -1</clus>
<clus scale="  189.849">  1  5  2 -1</clus>
<clus scale="   41.437">  2  3  1 -1</clus>
</clustering>
</event>
<event>
 6    0  0.2839294E+002  0.1043461E+03  0.7546771E-02  0.1271413E+00
         21   -1    0    0  505  502  0.00000000000E+00  0.00000000000E+00  0.12772613996E+03  0.12772613996E+03  0.00000000000E+00 0. -1.
          3   -1    0    0  504    0 -0.00000000000E+00 -0.00000000000E+00 -0.55553086266E+03  0.55553086266E+03  0.00000000000E+00 0.  1.
         21    1    1    2  503  502  0.36362086569E+02 -0.82889891392E+01  0.89500393095E+02  0.96959935256E+02  0.00000000000E+00 0. -1.
         21    1    1    2  504  503 -0.20801133594E+02  0.23166310870E+02 -0.60324109959E+02  0.67884927344E+02  0.00000000000E+00 0. -1.
         21    1    1    2  505  501 -0.52388187152E+02 -0.99499920751E+02 -0.10263653808E+03  0.15224656098E+03  0.00000000000E+00 0.  1.
          3    1    1    2  501    0  0.36827234177E+02  0.84622599020E+02 -0.35434446776E+03  0.36616557904E+03  0.00000000000E+00 0.  1.
<scales pt_clust_3="37.10214" pt_clust_4="31.13463" pt_clust_5="104.34606" pt_clust_6="14000.00000"></scales>
<clustering>
<clus scale="   31.135">  2  4  1 -1</clus>
<clus scale="   37.102">  1  3  2 -1</clus>
<clus scale="  104.346">  1  5  2 -1</clus>
<clus scale="   37.102">  1  3  2 -1</clus>
</clustering>
</event>
<event>
 6    0  0.2839294E+002  0.9332050E+02  0.7546771E-02  0.1295004E+00
         21   -1    0    0  505  502  0.00000000000E+00  0.00000000000E+00  0.21577567305E+03  0.21577567305E+03  0.00000000000E+00 0.  1.
          1   -1    0    0  503    0 -0.00000000000E+00 -0.00000000000E+00 -0.16362921362E+03  0.16362921362E+03  0.00000000000E+00 0. -1.
         21    1    1    2  503  504  0.52973506331E+02  0.19344942499E+02  0.89732561996E+02  0.10598279037E+03  0.00000000000E+00 0.  1.
         21    1    1    2  504  502 -0.59637648511E+01  0.51158537063E+02  0.57992113170E+02  0.77561895255E+02  0.00000000000E+00 0.  1.
         21    1    1    2  505  501  0.44321948230E+02 -0.26812491729E+02  0.63572854291E+01  0.52189653051E+02  0.00000000000E+00 0.  1.
          1    1    1    2  501    0 -0.91331689710E+02 -0.43690987833E+02 -0.10193550116E+03  0.14367054799E+03  0.00000000000E+00 0. -1.
<scales pt_clust_3="14000.00000" pt_clust_4="51.50497" pt_clust_5="46.25945" pt_clust_6="93.32050"></scales>
<clustering>
<clus scale="   51.505">  1  4  2 -1</clus>
<clus scale="   46.259">  1  5  2 -1</clus>
<clus scale="   93.321">  2  6  1 -1</clus>
<clus scale="   51.505">  1  3  2 -1</clus>
</clustering>
</event>
<event>
 6    0  0.2839294E+002  0.1877426E+03  0.7546771E-02  0.1160513E+00
         -4   -1    0    0    0  501 -0.00000000000E+00  0.00000000000E+00  0.81875211474E+02  0.81875211474E+02  0.00000000000E+00 0. -1.
         21   -1    0    0  505  502  0.00000000000E+00 -0.00000000000E+00 -0.22471003602E+04  0.22471003602E+04  0.00000000000E+00 0. -1.
         21    1    1    2  503  504  0.76484325670E+02  0.17474503855E+00 -0.51030939165E+02  0.91945850157E+02  0.00000000000E+00 0. -1.
         21    1    1    2  504  502  0.41106970768E+02 -0.88398967817E+02 -0.80296562872E+03  0.80886213996E+03  0.00000000000E+00 0. -1.
         21    1    1    2  505  501 -0.21049710865E+03  0.47212562728E+02 -0.13089283429E+04  0.13265863958E+04  0.00000000000E+00 0. -1.
         -4    1    1    2    0  503  0.92905812215E+02  0.41011660050E+02 -0.23002379933E+01  0.10158118575E+03  0.00000000000E+00 0. -1.
<scales pt_clust_3="56.37011" pt_clust_4="97.48928" pt_clust_5="176.14800" pt_clust_6="56.37011"></scales>
<clustering>
<clus scale="   56.370">  3  6 -1 -1</clus>
<clus scale="   97.489">  2  4  1 -1</clus>
<clus scale="  176.148">  2  5  1 -1</clus>
<clus scale="   97.489">  2  3  1 -1</clus>
</clustering>
</event>
<event>
 6    0  0.2839294E+002  0.1066651E+03  0.7546771E-02  0.1266873E+00
         21   -1    0    0  505  502  0.00000000000E+00  0.00000000000E+00  0.19485101655E+03  0.19485101655E+03  0.00000000000E+00 0. -1.
          2   -1    0    0  504    0 -0.00000000000E+00 -0.00000000000E+00 -0.14733453466E+04  0.14733453466E+04  0.00000000000E+00 0. -1.
         21    1    1    2  503  502  0.41529062362E+02  0.82709411044E+01  0.42142526729E+02  0.59741644157E+02  0.00000000000E+00 0. -1.
         21    1    1    2  504  503 -0.62986772497E+02  0.82145281875E+02 -0.10581119565E+04  0.10631632486E+04  0.00000000000E+00 0. -1.
         21    1    1    2  505  501 -0.13311139594E+02  0.30205530183E+02  0.12950912525E+03  0.13364944449E+03  0.00000000000E+00 0. -1.
          2    1    1    2  501    0  0.34768849729E+02 -0.12062175316E+03 -0.39203402556E+03  0.41164202585E+03  0.00000000000E+00 0. -1.
<scales pt_clust_3="44.84977" pt_clust_4="14000.00000" pt_clust_5="33.00849" pt_clust_6="106.66506"></scales>
<clustering>
<clus scale="   33.008">  1  5  2 -1</clus>
<clus scale="   44.850">  1  3  2 -1</clus>
<clus scale="  106.665">  1  6  2 -1</clus>
<clus scale="   33.008">  1  3  2 -1</clus>
</clustering>
</event>
<event>
 6    0  0.2839294E+002  0.1042696E+03  0.7546771E-02  0.1271565E+00
         21   -1    0    0  505  502  0.00000000000E+00  0.00000000000E+00  0.76053933692E+02  0.76053933692E+02  0.00000000000E+00 0. -1.
         -2   -1    0    0    0  501 -0.00000000000E+00 -0.00000000000E+00 -0.15688977125E+04  0.15688977125E+04  0.00000000000E+00 0.  1.
         21    1    1    2  503  502 -0.27842496171E+02 -0.84860316095E+02 -0.60074207678E+03  0.60734464734E+03  0.00000000000E+00 0.  1.
         21    1    1    2  504  501 -0.30931599551E+02  0.69516399781E+02 -0.35953077537E+02  0.84154129273E+02  0.00000000000E+00 0. -1.
         21    1    1    2  505  504  0.53193415073E+02  0.48234426494E+02  0.21666870098E+02  0.75003683684E+02  0.00000000000E+00 0. -1.
         -2    1    1    2    0  503  0.55806806490E+01 -0.32890510180E+02 -0.87781549460E+03  0.87844918590E+03  0.00000000000E+00 0.  1.
<scales pt_clust_3="104.26959" pt_clust_4="14000.00000" pt_clust_5="71.12090" pt_clust_6="33.36060"></scales>
<clustering>
<clus scale="   33.361">  2  6  1 -1</clus>
<clus scale="   71.121">  1  5  2 -1</clus>
<clus scale="  104.270">  2  3  1 -1</clus>
<clus scale="   71.121">  1  3  2 -1</clus>
</clustering>
</event>
<event>
 6    0  0.2839294E+002  0.1297627E+03  0.7546771E-02  0.1227808E+00
         -1   -1    0    0    0  501 -0.00000000000E+00  0.00000000000E+00  0.62323167545E+03  0.62323167545E+03  0.00000000000E+00 0.  1.
         21   -1    0    0  505  502  0.00000000000E+00 -0.00000000000E+00 -0.64141133726E+02  0.64141133726E+02  0.00000000000E+00 0.  1.
         21    1    1    2  503  501  0.81565931633E+02 -0.64805967633E+02  0.33370739659E+03  0.34959039058E+03  0.00000000000E+00 0.  1.
         21    1    1    2  504  503 -0.87015555100E+02  0.10487978832E+03  0.14643261619E+03  0.20003496672E+03  0.00000000000E+00 0.  1.
         21    1    1    2  505  504 -0.38776168978E+02  0.13002533239E+02  0.14870833070E+02  0.43517798973E+02  0.00000000000E+00 0.  1.
         -1    1    1    2    0  502  0.44225792444E+02 -0.53076353926E+02  0.64079695870E+02  0.94229652903E+02  0.00000000000E+00 0.  1.
<scales pt_clust_3="115.14773" pt_clust_4="32.77495" pt_clust_5="32.77495" pt_clust_6="69.08705"></scales>
<clustering>
<clus scale="   32.775">  4  5 -1 -1</clus>
<clus scale="   69.087">  2  6  1 -1</clus>
<clus scale="  115.148">  1  3  2 -1</clus>
<clus scale="   69.087">  2  3  1 -1</clus>
</clustering>
</event>
<event>
 6    0  0.2839294E+002  0.1220474E+03  0.7546771E-02  0.1239757E+00
         21   -1    0    0  501  502  0.00000000000E+00  0.00000000000E+00  0.76317157577E+02  0.76317157577E+02  0.00000000000E+00 0.  1.
          2   -1    0    0  505    0 -0.00000000000E+00 -0.00000000000E+00 -0.12414862700E+04  0.12414862700E+04  0.00000000000E+00 0.  1.
         21    1    1    2  503  502 -0.14410881692E+02 -0.12586336465E+03  0.98145426253E+01  0.12706527975E+03  0.00000000000E+00 0.  1.
         21    1    1    2  504  503  0.18088316598E+02  0.44106180962E+02 -0.95812817545E+02  0.10701700053E+03  0.00000000000E+00 0.  1.
         21    1    1    2  505  504 -0.43432678239E+01  0.32091178987E+02 -0.16192947623E+03  0.16513589257E+03  0.00000000000E+00 0. -1.
          2    1    1    2  501    0  0.66583291743E+00  0.49666004701E+02 -0.91724136131E+03  0.91858525476E+03  0.00000000000E+00 0.  1.
<scales pt_clust_3="122.04745" pt_clust_4="50.33260" pt_clust_5="32.38376" pt_clust_6="14000.00000"></scales>
<clustering>
<clus scale="   32.384">  2  5  1 -1</clus>
<clus scale="   50.333">  2  4  1 -1</clus>
<clus scale="  122.047">  1  3  2 -1</clus>
<clus scale="  122.047">  1  3  2 -1</clus>
</clustering>
</event>
<event>
 6    0  0.2839294E+002  0.8389809E+02  0.7546771E-02  0.1318340E+00
         -2   -1    0    0    0  501 -0.00000000000E+00  0.00000000000E+00  0.72688488251E+03  0.72688488251E+03  0.00000000000E+00 0.  1.
         21   -1    0    0  503  502  0.00000000000E+00 -0.00000000000E+00 -0.75066551492E+02  0.75066551492E+02  0.00000000000E+00 0. -1.
         21    1    1    2  503  504 -0.17486727309E+02  0.46712758841E+02 -0.33486945979E+02  0.60076975802E+02  0.00000000000E+00 0. -1.
         21    1    1    2  504  505  0.85630637531E+02  0.74960299964E+01  0.63009861307E+02  0.10657879325E+03  0.00000000000E+00 0.  1.
         21    1    1    2  505  501 -0.19735203095E+02  0.24894238599E+02  0.10312615273E+03  0.10790831633E+03  0.00000000000E+00 0.  1.
         -2    1    1    2    0  502 -0.48408707127E+02 -0.79103027437E+02  0.51916926296E+03  0.52738734861E+03  0.00000000000E+00 0.  1.
<scales pt_clust_3="50.52584" pt_clust_4="83.89809" pt_clust_5="31.76793" pt_clust_6="14000.00000"></scales>
<clustering>
<clus scale="   31.768">  1  5  2 -1</clus>
<clus scale="   50.526">  2  3  1 -1</clus>
<clus scale="   83.898">  2  4  1 -1</clus>
<clus scale="   50.526">  2  3  1 -1</clus>
</clustering>
</event>
<event>
 6    0  0.2839294E+002  0.9635937E+02  0.7546771E-02  0.1288143E+00
          2   -1    0    0  504    0 -0.00000000000E+00  0.00000000000E+00  0.12100894511E+04  0.12100894511E+04  0.00000000000E+00 0.  1.
         21   -1    0    0  503  502  0.00000000000E+00 -0.00000000000E+00 -0.10702981971E+03  0.10702981971E+03  0.00000000000E+00 0. -1.
         21    1    1    2  503  505  0.30289012624E+02 -0.24178901123E+02 -0.87008407852E+02  0.95249706468E+02  0.00000000000E+00 0. -1.
         21    1    1    2  504  502 -0.69279436270E+01 -0.89931120612E+02  0.17203997834E+03  0.19425075806E+03  0.00000000000E+00 0.  1.
         21    1    1    2  505  501 -0.47820845952E+02  0.76699411134E+02  0.54070465223E+03  0.54820721804E+03  0.00000000000E+00 0.  1.
          2    1    1    2  501    0  0.24459776955E+02  0.37410610601E+02  0.47732340869E+03  0.47941158826E+03  0.00000000000E+00 0.  1.
<scales pt_clust_3="38.75621" pt_clust_4="14000.00000" pt_clust_5="96.35937" pt_clust_6="44.52881"></scales>
<clustering>
<clus scale="   38.756">  2  3  1 -1</clus>
<clus scale="   44.529">  1  6  2 -1</clus>
<clus scale="   96.359">  1  5  2 -1</clus>
<clus scale="   38.756">  2  3  1 -1</clus>
</clustering>
</event>
<event>
 6    0  0.2839294E+002  0.1286196E+03  0.7546771E-02  0.1229519E+00
         21   -1    0    0  503  502  0.00000000000E+00  0.00000000000E+00  0.80019900736E+02  0.80019900736E+02  0.00000000000E+00 0. -1.
          1   -1    0    0  504    0 -0.00000000000E+00 -0.00000000000E+00 -0.79166207401E+03  0.79166207401E+03  0.00000000000E+00 0. -1.
         21    1    1    2  503  505 -0.18633255572E+02  0.11258502046E+03 -0.13606751224E+03  0.17758646608E+03  0.00000000000E+00 0. -1.
         21    1    1    2  504  502 -0.86915954834E+02 -0.37263545614E+02  0.72350313769E+01  0.94843559167E+02  0.00000000000E+00 0. -1.
         21    1    1    2  505  501  0.43669604114E+02 -0.18492347784E+02 -0.31566510186E+03  0.31920754656E+03  0.00000000000E+00 0.  1.
          1    1    1    2  501    0  0.61879606292E+02 -0.56829127066E+02 -0.26714459055E+03  0.28004440294E+03  0.00000000000E+00 0. -1.
<scales pt_clust_3="117.98808" pt_clust_4="94.56720" pt_clust_5="38.46955" pt_clust_6="38.46955"></scales>
<clustering>
<clus scale="   38.470">  5  6 -1 -1</clus>
<clus scale="   94.567">  1  4  2 -1</clus>
<clus scale="  117.988">  1  3  2 -1</clus>
<clus scale="   94.567">  1  3  2 -1</clus>
</clustering>
</event>
<event>
 6    0  0.2839294E+002  0.9609211E+02  0.7546771E-02  0.1288735E+00
          2   -1    0    0  503    0 -0.00000000000E+00  0.00000000000E+00  0.68425900310E+03  0.68425900310E+03  0.00000000000E+00 0.  1.
         21   -1    0    0  501  502  0.00000000000E+00 -0.00000000000E+00 -0.11717510462E+03  0.11717510462E+03  0.00000000000E+00 0.  1.
         21    1    1    2  503  505  0.31771300931E+01 -0.34822461032E+02  0.19179530713E+03  0.19495675876E+03  0.00000000000E+00 0. -1.
         21    1    1    2  504  502 -0.96404600137E+02  0.14445082765E+02 -0.82696449867E+02  0.12783274293E+03  0.00000000000E+00 0.  1.
         21    1    1    2  505  504  0.15089828621E+02  0.49648484435E+02  0.23239306309E+03  0.23811596063E+03  0.00000000000E+00 0.  1.
          2    1    1    2  501    0  0.78137641423E+02 -0.29271106168E+02  0.22559197813E+03  0.24052864540E+03  0.00000000000E+00 0.  1.
<scales pt_clust_3="34.96710" pt_clust_4="14000.00000" pt_clust_5="36.90974" pt_clust_6="96.09211"></scales>
<clustering>
<clus scale="   34.967">  1  3  2 -1</clus>
<clus scale="   36.910">  1  5  2 -1</clus>
<clus scale="   96.092">  1  6  2 -1</clus>
<clus scale="   96.092">  2  3  1 -1</clus>
</clustering>
</event>
<event>
 6    0  0.2839294E+002  0.9149913E+02  0.7546771E-02  0.1299261E+00
         21   -1    0    0  503  502  0.00000000000E+00  0.00000000000E+00  0.20259786894E+03  0.20259786894E+03  0.00000000000E+00 0. -1.
         -3   -1    0    0    0  501 -0.00000000000E+00 -0.00000000000E+00 -0.99769779710E+02  0.99769779710E+02  0.00000000000E+00 0. -1.
         21    1    1    2  503  505 -0.66932533575E+02 -0.16802273382E+02  0.69699598991E+02  0.98083202135E+02  0.00000000000E+00 0. -1.
         21    1    1    2  504  502  0.84358589803E+02  0.31511483033E+02  0.19014287566E+02  0.92037429170E+02  0.00000000000E+00 0. -1.
         21    1    1    2  505  501 -0.38691564465E+02 -0.54077137224E+02  0.58968581310E+01  0.66754377137E+02  0.00000000000E+00 0. -1.
         -3    1    1    2    0  504  0.21265508237E+02  0.39367927572E+02  0.82173445414E+01  0.45492640210E+02  0.00000000000E+00 0. -1.
<scales pt_clust_3="79.87161" pt_clust_4="31.46549" pt_clust_5="66.49341" pt_clust_6="31.46549"></scales>
<clustering>
<clus scale="   31.465">  4  6 -1 -1</clus>
<clus scale="   66.493">  2  5  1 -1</clus>
<clus scale="   79.872">  1  3  2 -1</clus>
<clus scale="   79.872">  1  3  2 -1</clus>
</clustering>
</event>
<event>
 6    0  0.2839294E+002  0.1179296E+03  0.7546771E-02  0.1246552E+00
         21   -1    0    0  505  502  0.00000000000E+00  0.00000000000E+00  0.23673258300E+03  0.23673258300E+03  0.00000000000E+00 0.  1.
          1   -1    0    0  504    0 -0.00000000000E+00 -0.00000000000E+00 -0.11947683351E+04  0.11947683351E+04  0.00000000000E+00 0. -1.
         21    1    1    2  503  502 -0.10605738966E+03 -0.88936259928E+02  0.13684596608E+03  0.19463978695E+03  0.00000000000E+00 0.  1.
         21    1    1    2  504  503  0.61730175138E+02  0.75100790603E+02 -0.12658567178E+03  0.15960788067E+03  0.00000000000E+00 0.  1.
         21    1    1    2  505  501 -0.26023104083E+01  0.34360572561E+02  0.48319526839E+02  0.59348105615E+02  0.00000000000E+00 0. -1.
          1    1    1    2  501    0  0.46929524931E+02 -0.20525103236E+02 -0.10166155732E+04  0.10179051448E+04  0.00000000000E+00 0. -1.
<scales pt_clust_3="14000.00000" pt_clust_4="117.92959" pt_clust_5="34.45898" pt_clust_6="51.16484"></scales>
<clustering>
<clus scale="   34.459">  1  5  2 -1</clus>
<clus scale="   51.165">  2  6  1 -1</clus>
<clus scale="  117.930">  2  4  1 -1</clus>
<clus scale="   34.459">  1  3  2 -1</clus>
</clustering>
</event>
<event>
 6    0  0.2839294E+002  0.1288353E+03  0.7546771E-02  0.1229194E+00
          2   -1    0    0  503    0 -0.00000000000E+00  0.00000000000E+00  0.11600911524E+04  0.11600911524E+04  0.00000000000E+00 0. -1.
         21   -1    0    0  501  502  0.00000000000E+00 -0.00000000000E+00 -0.51600324923E+02  0.51600324923E+02  0.00000000000E+00 0. -1.
         21    1    1    2  503  504  0.12704733401E+02  0.30691713959E+02  0.45735120842E+03  0.45855590652E+03  0.00000000000E+00 0. -1.
         21    1    1    2  504  505 -0.36036981643E+02  0.52935094997E+01  0.64513687803E+01  0.36990612970E+02  0.00000000000E+00 0. -1.
         21    1    1    2  505  502 -0.65979941877E+02 -0.68299671924E+02  0.38354026391E+02  0.10241693832E+03  0.00000000000E+00 0. -1.
          2    1    1    2  501    0  0.89312190119E+02  0.32314448466E+02  0.60633422390E+03  0.61372801953E+03  0.00000000000E+00 0. -1.
<scales pt_clust_3="33.21734" pt_clust_4="34.65813" pt_clust_5="34.65813" pt_clust_6="116.39944"></scales>
<clustering>
<clus scale="   33.217">  1  3  2 -1</clus>
<clus scale="   34.658">  4  5 -1 -1</clus>
<clus scale="  116.399">  1  6  2 -1</clus>
<clus scale="  128.835">  2  3  1 -1</clus>
</clustering>
</event>
<event>
 6    0  0.2839294E+002  0.1942557E+03  0.7546771E-02  0.1154678E+00
         21   -1    0    0  504  502  0.00000000000E+00  0.00000000000E+00  0.57286186928E+02  0.57286186928E+02  0.00000000000E+00 0.  1.
          2   -1    0    0  503    0 -0.00000000000E+00 -0.00000000000E+00 -0.31276667839E+04  0.31276667839E+04  0.00000000000E+00 0. -1.
         21    1    1    2  503  505  0.55824746727E+02  0.12174197172E+03 -0.11212427599E+04  0.11292133708E+04  0.00000000000E+00 0. -1.
         21    1    1    2  504  501 -0.18683720435E+03 -0.23622655188E+03 -0.94193850888E+03  0.98891823689E+03  0.00000000000E+00 0.  1.
         21    1    1    2  505  502  0.27026323162E+02  0.11841394020E+03 -0.11080793943E+03  0.16441010558E+03  0.00000000000E+00 0.  1.
          2    1    1    2  501    0  0.10398613446E+03 -0.39293600353E+01 -0.89639138872E+03  0.90241125757E+03  0.00000000000E+00 0. -1.
<scales pt_clust_3="194.25572" pt_clust_4="14000.00000" pt_clust_5="122.81379" pt_clust_6="104.06035"></scales>
<clustering>
<clus scale="  104.060">  2  6  1 -1</clus>
<clus scale="  122.814">  1  5  2 -1</clus>
<clus scale="  194.256">  2  3  1 -1</clus>
<clus scale="  122.814">  1  3  2 -1</clus>
</clustering>
</event>
<event>
 6    0  0.2839294E+002  0.1092155E+03  0.7546771E-02  0.1262030E+00
         21   -1    0    0  503  502  0.00000000000E+00  0.00000000000E+00  0.21605679808E+03  0.21605679808E+03  0.00000000000E+00 0. -1.
          2   -1    0    0  505    0 -0.00000000000E+00 -0.00000000000E+00 -0.18221293041E+04  0.18221293041E+04  0.00000000000E+00 0. -1.
         21    1    1    2  503  501 -0.84746626182E+02  0.18881793966E+02  0.44867182241E+02  0.97732168884E+02  0.00000000000E+00 0. -1.
         21    1    1    2  504  502  0.11587758553E+03 -0.95649598999E+02  0.10388807456E+03  0.18267236423E+03  0.00000000000E+00 0. -1.
         21    1    1    2  505  504 -0.31157241029E+02  0.26219558019E+02 -0.41316043584E+03  0.41516235937E+03  0.00000000000E+00 0. -1.
          2    1    1    2  501    0  0.26281685145E-01  0.50548247014E+02 -0.13416673270E+04  0.13426192097E+04  0.00000000000E+00 0. -1.
<scales pt_clust_3="14000.00000" pt_clust_4="109.21553" pt_clust_5="40.72148" pt_clust_6="81.16131"></scales>
<clustering>
<clus scale="   40.721">  2  5  1 -1</clus>
<clus scale="   81.161">  2  6  1 -1</clus>
<clus scale="  109.216">  2  4  1 -1</clus>
<clus scale="  109.216">  1  3  2 -1</clus>
</clustering>
</event>
<event>
 6    0  0.2839294E+002  0.1460673E+03  0.7546771E-02  0.1205390E+00
         21   -1    0    0  503  502  0.00000000000E+00  0.00000000000E+00  0.11301218438E+03  0.11301218438E+03  0.00000000000E+00 0. -1.
          2   -1    0    0  502    0 -0.00000000000E+00 -0.00000000000E+00 -0.25522528829E+04  0.25522528829E+04  0.00000000000E+00 0. -1.
         21    1    1    2  503  505  0.39187442273E+02 -0.91159836001E+01  0.50202481058E+02  0.64335417099E+02  0.00000000000E+00 0. -1.
         21    1    1    2  504  501  0.44329718696E+02  0.11996079605E+02 -0.57178834259E+03  0.57362961796E+03  0.00000000000E+00 0. -1.
         21    1    1    2  505  504 -0.15063911106E+03 -0.71929310290E+02 -0.76494143527E+02  0.18362276944E+03  0.00000000000E+00 0. -1.
          2    1    1    2  501    0  0.67121950095E+02  0.69049214285E+02 -0.18411606935E+04  0.18436772628E+04  0.00000000000E+00 0. -1.
<scales pt_clust_3="40.23378" pt_clust_4="31.34115" pt_clust_5="138.83792" pt_clust_6="31.34115"></scales>
<clustering>
<clus scale="   31.341">  4  6 -1 -1</clus>
<clus scale="   40.234">  1  3  2 -1</clus>
<clus scale="  138.838">  1  5  2 -1</clus>
<clus scale="   40.234">  1  3  2 -1</clus>
</clustering>
</event>
<event>
 6    0  0.2839294E+002  0.1096250E+03  0.7546771E-02  0.1261266E+00
          1   -1    0    0  505    0 -0.00000000000E+00  0.00000000000E+00  0.96584698249E+03  0.96584698249E+03  0.00000000000E+00 0. -1.
         21   -1    0    0  504  502  0.00000000000E+00 -0.00000000000E+00 -0.27100733644E+03  0.27100733644E+03  0.00000000000E+00 0.  1.
         21    1    1    2  503  501 -0.13121550016E+03 -0.29401617934E+02 -0.13393607845E+03  0.18979155864E+03  0.00000000000E+00 0.  1.
         21    1    1    2  504  503  0.35631621416E+02 -0.28068200067E+02 -0.97566530741E+02  0.10759490797E+03  0.00000000000E+00 0.  1.
         21    1    1    2  505  502  0.71839676520E+02 -0.20344322804E+02  0.40702580992E+03  0.41381739999E+03  0.00000000000E+00 0.  1.
          1    1    1    2  501    0  0.23744202229E+02  0.77814140804E+02  0.51931644533E+03  0.52565045233E+03  0.00000000000E+00 0. -1.
<scales pt_clust_3="14000.00000" pt_clust_4="45.35897" pt_clust_5="75.51101" pt_clust_6="109.62498"></scales>
<clustering>
<clus scale="   45.359">  2  4  1 -1</clus>
<clus scale="   75.511">  1  5  2 -1</clus>
<clus scale="  109.625">  1  6  2 -1</clus>
<clus scale="   45.359">  2  3  1 -1</clus>
</clustering>
</event>
<event>
 6    0  0.2839294E+002  0.1148350E+03  0.7546771E-02  0.1251869E+00
          2   -1    0    0  505    0 -0.00000000000E+00  0.00000000000E+00  0.10824643175E+04  0.10824643175E+04  0.00000000000E+00 0. -1.
         21   -1    0    0  504  502  0.00000000000E+00 -0.00000000000E+00 -0.86665391892E+02  0.86665391892E+02  0.00000000000E+00 0.  1.
         21    1    1    2  503  501  0.84401752580E+02  0.32025378474E+01  0.51858517582E+03  0.52541840153E+03  0.00000000000E+00 0. -1.
         21    1    1    2  504  503  0.32653959751E+02 -0.25427748939E+02  0.24062164362E+02  0.47873158004E+02  0.00000000000E+00 0.  1.
         21    1    1    2  505  502 -0.14172528418E+03  0.70318172724E+02  0.20164908929E+02  0.15949083090E+03  0.00000000000E+00 0.  1.
          2    1    1    2  501    0  0.24669571846E+02 -0.48092961633E+02  0.43298667650E+03  0.43634731896E+03  0.00000000000E+00 0. -1.
<scales pt_clust_3="114.83503" pt_clust_4="41.38661" pt_clust_5="14000.00000" pt_clust_6="54.89599"></scales>
<clustering>
<clus scale="   41.387">  2  4  1 -1</clus>
<clus scale="   54.896">  1  6  2 -1</clus>
<clus scale="  114.835">  1  3  2 -1</clus>
<clus scale="   41.387">  2  3  1 -1</clus>
</clustering>
</event>
<event>
 6    0  0.2839294E+002  0.1222456E+03  0.7546771E-02  0.1239438E+00
         21   -1    0    0  501  502  0.00000000000E+00  0.00000000000E+00  0.68220532446E+03  0.68220532446E+03  0.00000000000E+00 0. -1.
          2   -1    0    0  503    0 -0.00000000000E+00 -0.00000000000E+00 -0.41298045342E+03  0.41298045342E+03  0.00000000000E+00 0.  1.
         21    1    1    2  503  505 -0.15695235080E+03  0.58305807202E+02  0.26988389774E+01  0.16745414688E+03  0.00000000000E+00 0. -1.
         21    1    1    2  504  502  0.82782530485E+02 -0.23727765439E+02  0.42563820503E+03  0.43426240430E+03  0.00000000000E+00 0. -1.
         21    1    1    2  505  504 -0.38201930977E+02 -0.79913031123E+02  0.14286118115E+03  0.16809163321E+03  0.00000000000E+00 0. -1.
          2    1    1    2  501    0  0.11237175129E+03  0.45334989361E+02 -0.30197335412E+03  0.32537759349E+03  0.00000000000E+00 0.  1.
<scales pt_clust_3="122.24565" pt_clust_4="86.11593" pt_clust_5="95.40293" pt_clust_6="14000.00000"></scales>
<clustering>
<clus scale="   86.116">  1  4  2 -1</clus>
<clus scale="   95.403">  1  5  2 -1</clus>
<clus scale="  122.246">  1  3  2 -1</clus>
<clus scale="   86.116">  1  3  2 -1</clus>
</clustering>
</event>
<event>
 6    0  0.2839294E+002  0.7900086E+02  0.7546771E-02  0.1331911E+00
         -2   -1    0    0    0  501 -0.00000000000E+00  0.00000000000E+00  0.22847225148E+03  0.22847225148E+03  0.00000000000E+00 0.  1.
         21   -1    0    0  505  502  0.00000000000E+00 -0.00000000000E+00 -0.10104355870E+04  0.10104355870E+04  0.00000000000E+00 0. -1.
         21    1    1    2  503  502 -0.66054260845E+02  0.76007305137E+01 -0.52984156350E+03  0.53399720869E+03  0.00000000000E+00 0.  1.
         21    1    1    2  504  501  0.55378158976E+01  0.36829851528E+02  0.21553563724E+02  0.43030936286E+02  0.00000000000E+00 0.  1.
         21    1    1    2  505  504  0.56952982161E+02 -0.87518424815E+02 -0.45943684389E+03  0.47115319205E+03  0.00000000000E+00 0. -1.
         -2    1    1    2    0  503  0.35634627866E+01  0.43087842774E+02  0.18576150813E+03  0.19072650147E+03  0.00000000000E+00 0.  1.
<scales pt_clust_3="66.47761" pt_clust_4="37.24386" pt_clust_5="14000.00000" pt_clust_6="79.00086"></scales>
<clustering>
<clus scale="   37.244">  1  4  2 -1</clus>
<clus scale="   66.478">  2  3  1 -1</clus>
<clus scale="   79.001">  1  6  2 -1</clus>
<clus scale="   66.478">  2  3  1 -1</clus>
</clustering>
</event>
<event>
 6    0  0.2839294E+002  0.8890062E+02  0.7546771E-02  0.1305536E+00
         21   -1    0    0  504  502  0.00000000000E+00  0.00000000000E+00  0.10955332651E+04  0.10955332651E+04  0.00000000000E+00 0. -1.
          2   -1    0    0  505    0 -0.00000000000E+00 -0.00000000000E+00 -0.50222228991E+03  0.50222228991E+03  0.00000000000E+00 0. -1.
         21    1    1    2  503  502 -0.17675612303E+02 -0.11657633404E+03  0.10289182737E+04  0.10356521051E+04  0.00000000000E+00 0. -1.
         21    1    1    2  504  501 -0.30733724095E+02  0.41902636571E+02  0.43477406828E+02  0.67754539722E+02  0.00000000000E+00 0. -1.
         21    1    1    2  505  503 -0.22206503840E+02  0.22080312710E+02 -0.86015604801E+02  0.91538807570E+02  0.00000000000E+00 0.  1.
          2    1    1    2  501    0  0.70615840238E+02  0.52593384756E+02 -0.39306910050E+03  0.40281010262E+03  0.00000000000E+00 0. -1.
<scales pt_clust_3="14000.00000" pt_clust_4="52.87383" pt_clust_5="31.31564" pt_clust_6="88.90062"></scales>
<clustering>
<clus scale="   31.316">  2  5  1 -1</clus>
<clus scale="   52.874">  1  4  2 -1</clus>
<clus scale="   88.901">  2  6  1 -1</clus>
<clus scale="   52.874">  1  3  2 -1</clus>
</clustering>
</event>
<event>
 6    0  0.2839294E+002  0.1694959E+03  0.7546771E-02  0.1178375E+00
          2   -1    0    0  504    0 -0.00000000000E+00  0.00000000000E+00  0.35864727896E+04  0.35864727896E+04  0.00000000000E+00 0. -1.
         21   -1    0    0  505  502  0.00000000000E+00 -0.00000000000E+00 -0.18552480819E+02  0.18552480819E+02  0.00000000000E+00 0. -1.
         21    1    1    2  503  502  0.55886984188E+02  0.51278660761E+02  0.12272029790E+03  0.14426755549E+03  0.00000000000E+00 0. -1.
         21    1    1    2  504  503  0.10190047095E+03  0.49789641880E+02  0.84573792404E+03  0.85330847328E+03  0.00000000000E+00 0. -1.
         21    1    1    2  505  501 -0.80433384017E+02 -0.56179984981E+01  0.11152606593E+04  0.11181714668E+04  0.00000000000E+00 0. -1.
          2    1    1    2  501    0 -0.77354071117E+02 -0.95450304143E+02  0.14842014276E+04  0.14892777748E+04  0.00000000000E+00 0. -1.
<scales pt_clust_3="75.84758" pt_clust_4="149.17146" pt_clust_5="65.19589" pt_clust_6="65.19589"></scales>
<clustering>
<clus scale="   65.196">  5  6 -1 -1</clus>
<clus scale="   75.848">  2  3  1 -1</clus>
<clus scale="  149.171">  2  4  1 -1</clus>
<clus scale="   75.848">  2  3  1 -1</clus>
</clustering>
</event>
<event>
 6    0  0.2839294E+002  0.8627494E+02  0.7546771E-02  0.1312132E+00
         21   -1    0    0  505  502  0.00000000000E+00  0.00000000000E+00  0.48478448043E+03  0.48478448043E+03  0.00000000000E+00 0.  1.
          2   -1    0    0  503    0 -0.00000000000E+00 -0.00000000000E+00 -0.19777278889E+04  0.19777278889E+04  0.00000000000E+00 0. -1.
         21    1    1    2  503  504  0.27938267508E+02 -0.29691023166E+02 -0.17097154284E+03  0.17576510492E+03  0.00000000000E+00 0. -1.
         21    1    1    2  504  502  0.75905291933E+02  0.38235889701E+02 -0.99726220197E+03  0.10008773632E+04  0.00000000000E+00 0. -1.
         21    1    1    2  505  501 -0.32720575490E+02  0.41691518784E+02  0.47675358839E+03  0.47969031973E+03  0.00000000000E+00 0.  1.
          2    1    1    2  501    0 -0.71122983951E+02 -0.50236385319E+02 -0.80146325201E+03  0.80617958147E+03  0.00000000000E+00 0. -1.
<scales pt_clust_3="40.76891" pt_clust_4="86.27494" pt_clust_5="52.96525" pt_clust_6="14000.00000"></scales>
<clustering>
<clus scale="   40.769">  2  3  1 -1</clus>
<clus scale="   52.965">  1  5  2 -1</clus>
<clus scale="   86.275">  2  4  1 -1</clus>
<clus scale="   52.965">  1  3  2 -1</clus>
</clustering>
</event>
<event>
 6    0  0.2839294E+002  0.1279840E+03  0.7546771E-02  0.1230478E+00
          2   -1    0    0  503    0 -0.00000000000E+00  0.00000000000E+00  0.17364330973E+04  0.17364330973E+04  0.00000000000E+00 0.  1.
         21   -1    0    0  501  502  0.00000000000E+00 -0.00000000000E+00 -0.14266404734E+03  0.14266404734E+03  0.00000000000E+00 0. -1.
         21    1    1    2  503  505 -0.32293220364E+02 -0.10461101479E+02  0.13435400884E+03  0.13857592293E+03  0.00000000000E+00 0.  1.
         21    1    1    2  504  502  0.11180573394E+03  0.64640765693E+02 -0.10379283377E+03  0.16568615836E+03  0.00000000000E+00 0. -1.
         21    1    1    2  505  504 -0.71970935986E+01 -0.36203255048E+02  0.64800634045E+02  0.74576108808E+02  0.00000000000E+00 0. -1.
          2    1    1    2  501    0 -0.72315419973E+02 -0.17976409166E+02  0.14984072408E+04  0.15002589545E+04  0.00000000000E+00 0.  1.
<scales pt_clust_3="33.94535" pt_clust_4="127.98398" pt_clust_5="37.65499" pt_clust_6="14000.00000"></scales>
<clustering>
<clus scale="   33.945">  1  3  2 -1</clus>
<clus scale="   37.655">  1  5  2 -1</clus>
<clus scale="  127.984">  2  4  1 -1</clus>
<clus scale="  127.984">  2  3  1 -1</clus>
</clustering>
</event>
<event>
 6    0  0.2839294E+002  0.9709629E+02  0.7546771E-02  0.1286523E+00
          2   -1    0    0  504    0 -0.00000000000E+00  0.00000000000E+00  0.58418116487E+03  0.58418116487E+03  0.00000000000E+00 0.  1.
         21   -1    0    0  505  502  0.00000000000E+00 -0.00000000000E+00 -0.20064234384E+03  0.20064234384E+03  0.00000000000E+00 0. -1.
         21    1    1    2  503  502  0.10443554569E+03 -0.50526060795E+01 -0.13612247664E+03  0.17164393575E+03  0.00000000000E+00 0. -1.
         21    1    1    2  504  503  0.21230141750E+01 -0.33526390290E+02  0.72060252276E+02  0.79506012308E+02  0.00000000000E+00 0. -1.
         21    1    1    2  505  501 -0.64885453142E+02  0.70344199385E+02  0.13765001713E+02  0.96684557653E+02  0.00000000000E+00 0.  1.
          2    1    1    2  501    0 -0.41673106726E+02 -0.31765203015E+02  0.43383604368E+03  0.43698900300E+03  0.00000000000E+00 0.  1.
<scales pt_clust_3="97.09629" pt_clust_4="33.59354" pt_clust_5="14000.00000" pt_clust_6="72.42973"></scales>
<clustering>
<clus scale="   33.594">  1  4  2 -1</clus>
<clus scale="   72.430">  1  6  2 -1</clus>
<clus scale="   97.096">  2  3  1 -1</clus>
<clus scale="   97.096">  2  3  1 -1</clus>
</clustering>
</event>
<event>
 6    0  0.2839294E+002  0.8696797E+02  0.7546771E-02  0.1310365E+00
          1   -1    0    0  503    0 -0.00000000000E+00  0.00000000000E+00  0.75435728344E+03  0.75435728344E+03  0.00000000000E+00 0. -1.
         21   -1    0    0  501  502  0.00000000000E+00 -0.00000000000E+00 -0.87824090121E+02  0.87824090121E+02  0.00000000000E+00 0. -1.
         21    1    1    2  503  504  0.78174493838E+01 -0.46018021361E+02  0.16906527456E+03  0.17539052958E+03  0.00000000000E+00 0. -1.
         21    1    1    2  504  505  0.23831800553E+02  0.96719961314E+02 -0.24258276278E+02  0.10252399525E+03  0.00000000000E+00 0. -1.
         21    1    1    2  505  502 -0.62149636502E+02 -0.97175764254E+01  0.29643938698E+02  0.69539713190E+02  0.00000000000E+00 0. -1.
          1    1    1    2  501    0  0.30500386565E+02 -0.40984363528E+02  0.49208225634E+03  0.49472713554E+03  0.00000000000E+00 0. -1.
<scales pt_clust_3="46.67731" pt_clust_4="14000.00000" pt_clust_5="62.97803" pt_clust_6="86.96797"></scales>
<clustering>
<clus scale="   46.677">  1  3  2 -1</clus>
<clus scale="   62.978">  2  5  1 -1</clus>
<clus scale="   86.968">  1  6  2 -1</clus>
<clus scale="   62.978">  2  3  1 -1</clus>
</clustering>
</event>
<event>
 6    0  0.2839294E+002  0.2978007E+03  0.7546771E-02  0.1086345E+00
          2   -1    0    0  502    0 -0.00000000000E+00  0.00000000000E+00  0.20652580886E+04  0.20652580886E+04  0.00000000000E+00 0.  1.
         21   -1    0    0  503  502  0.00000000000E+00 -0.00000000000E+00 -0.95170436315E+02  0.95170436315E+02  0.00000000000E+00 0.  1.
         21    1    1    2  503  504  0.11019537460E+02  0.63268604978E+02  0.72991280278E+01  0.64634540702E+02  0.00000000000E+00 0.  1.
         21    1    1    2  504  505  0.26487130120E+03 -0.11574958644E+03  0.46478642505E+03  0.54734010804E+03  0.00000000000E+00 0.  1.
         21    1    1    2  505  501 -0.32684801116E+03  0.65571957973E+02  0.11823199556E+04  0.12284175925E+04  0.00000000000E+00 0.  1.
          2    1    1    2  501    0  0.50957172505E+02 -0.13090976516E+02  0.31568214356E+03  0.32003628366E+03  0.00000000000E+00 0.  1.
<scales pt_clust_3="64.14467" pt_clust_4="14000.00000" pt_clust_5="297.80069" pt_clust_6="52.61185"></scales>
<clustering>
<clus scale="   52.612">  1  6  2 -1</clus>
<clus scale="   64.145">  2  3  1 -1</clus>
<clus scale="  297.801">  1  5  2 -1</clus>
<clus scale="   64.145">  2  3  1 -1</clus>
</clustering>
</event>
<event>
 6    0  0.2839294E+002  0.7054290E+02  0.7546771E-02  0.1358257E+00
          2   -1    0    0  504    0 -0.00000000000E+00  0.00000000000E+00  0.27323832891E+04  0.27323832891E+04  0.00000000000E+00 0. -1.
         21   -1    0    0  505  502  0.00000000000E+00 -0.00000000000E+00 -0.11482236545E+02  0.11482236545E+02  0.00000000000E+00 0. -1.
         21    1    1    2  503  502 -0.61205658957E+02 -0.14395825867E+02  0.16262971843E+03  0.17436111323E+03  0.00000000000E+00 0. -1.
         21    1    1    2  504  503 -0.10615304645E+02 -0.67396456102E+02  0.17863410693E+04  0.17876435279E+04  0.00000000000E+00 0. -1.
         21    1    1    2  505  501  0.37548726808E+02  0.30451593956E+01  0.27417618145E+03  0.27675216053E+03  0.00000000000E+00 0.  1.
          2    1    1    2  501    0  0.34272236794E+02  0.78747122573E+02  0.49775408338E+03  0.50510872399E+03  0.00000000000E+00 0. -1.
<scales pt_clust_3="41.56986" pt_clust_4="70.54290" pt_clust_5="37.67200" pt_clust_6="14000.00000"></scales>
<clustering>
<clus scale="   37.672">  2  5  1 -1</clus>
<clus scale="   41.570">  2  3  1 -1</clus>
<clus scale="   70.543">  1  4  2 -1</clus>
<clus scale="   37.672">  2  3  1 -1</clus>
</clustering>
</event>
<event>
 6    0  0.2839294E+002  0.1683060E+03  0.7546771E-02  0.1179626E+00
          4   -1    0    0  505    0 -0.00000000000E+00  0.00000000000E+00  0.10352180861E+04  0.10352180861E+04  0.00000000000E+00 0. -1.
         21   -1    0    0  503  502  0.00000000000E+00 -0.00000000000E+00 -0.68487099033E+02  0.68487099033E+02  0.00000000000E+00 0. -1.
         21    1    1    2  503  501  0.43472580546E+02 -0.24842055962E+02  0.84109345243E+02  0.97884498062E+02  0.00000000000E+00 0.  1.
         21    1    1    2  504  502  0.42179098777E+01 -0.36195970342E+02  0.63229390033E+01  0.36985383469E+02  0.00000000000E+00 0. -1.
         21    1    1    2  505  504 -0.12590823051E+03 -0.95439627288E+02  0.13699261509E+03  0.20911380049E+03  0.00000000000E+00 0. -1.
          4    1    1    2  501    0  0.78217740083E+02  0.15647765359E+03  0.73930608775E+03  0.75972150313E+03  0.00000000000E+00 0. -1.
<scales pt_clust_3="53.00779" pt_clust_4="36.44090" pt_clust_5="168.30604" pt_clust_6="14000.00000"></scales>
<clustering>
<clus scale="   36.441">  2  4  1 -1</clus>
<clus scale="   53.008">  2  3  1 -1</clus>
<clus scale="  168.306">  2  5  1 -1</clus>
<clus scale="   36.441">  2  3  1 -1</clus>
</clustering>
</event>
<event>
 6    0  0.2839294E+002  0.9914923E+02  0.7546771E-02  0.1282095E+00
          2   -1    0    0  505    0 -0.00000000000E+00  0.00000000000E+00  0.20769204896E+04  0.20769204896E+04  0.00000000000E+00 0.  1.
         21   -1    0    0  503  502  0.00000000000E+00 -0.00000000000E+00 -0.18711202674E+02  0.18711202674E+02  0.00000000000E+00 0. -1.
         21    1    1    2  503  501 -0.82488979627E+02 -0.10352908138E+03  0.29865768900E+03  0.32667892134E+03  0.00000000000E+00 0. -1.
         21    1    1    2  504  502  0.52307313426E+01  0.32192307383E+02  0.10841142966E+03  0.11321105638E+03  0.00000000000E+00 0. -1.
         21    1    1    2  505  504  0.15995990167E+02  0.49774797450E+02  0.48869242723E+03  0.49148111927E+03  0.00000000000E+00 0. -1.
          2    1    1    2  501    0  0.61262258118E+02  0.21561976548E+02  0.11624477410E+04  0.11642605953E+04  0.00000000000E+00 0.  1.
<scales pt_clust_3="99.14923" pt_clust_4="32.61449" pt_clust_5="55.04026" pt_clust_6="14000.00000"></scales>
<clustering>
<clus scale="   32.614">  2  4  1 -1</clus>
<clus scale="   55.040">  1  5  2 -1</clus>
<clus scale="   99.149">  2  3  1 -1</clus>
<clus scale="   32.614">  2  3  1 -1</clus>
</clustering>
</event>
<event>
 6    0  0.2839294E+002  0.1735982E+03  0.7546771E-02  0.1174147E+00
          2   -1    0    0  504    0 -0.00000000000E+00  0.00000000000E+00  0.68699314584E+03  0.68699314584E+03  0.00000000000E+00 0. -1.
         21   -1    0    0  503  502  0.00000000000E+00 -0.00000000000E+00 -0.17403206181E+03  0.17403206181E+03  0.00000000000E+00 0. -1.
         21    1    1    2  503  501 -0.22426431942E+02 -0.60379146431E+02  0.34720474894E+03  0.35312848067E+03  0.00000000000E+00 0. -1.
         21    1    1    2  504  505  0.15940014988E+03  0.12900197910E+03  0.91722362771E+02  0.22463951172E+03  0.00000000000E+00 0. -1.
         21    1    1    2  505  502 -0.12715742252E+03 -0.98788076779E+02 -0.39148993753E+02  0.16571281763E+03  0.00000000000E+00 0. -1.
          2    1    1    2  501    0 -0.98162954182E+01  0.30165244114E+02  0.11318296607E+03  0.11754439764E+03  0.00000000000E+00 0. -1.
<scales pt_clust_3="50.64067" pt_clust_4="173.59820" pt_clust_5="14000.00000" pt_clust_6="31.72226"></scales>
<clustering>
<clus scale="   31.722">  1  6  2 -1</clus>
<clus scale="   50.641">  1  3  2 -1</clus>
<clus scale="  173.598">  1  4  2 -1</clus>
<clus scale="  173.598">  2  3  1 -1</clus>
</clustering>
</event>
<event>
 6    0  0.2839294E+002  0.1120821E+03  0.7546771E-02  0.1256762E+00
         21   -1    0    0  505  502  0.00000000000E+00  0.00000000000E+00  0.80218746212E+03  0.80218746212E+03  0.00000000000E+00 0. -1.
          2   -1    0    0  504    0 -0.00000000000E+00 -0.00000000000E+00 -0.17707363182E+04  0.17707363182E+04  0.00000000000E+00 0. -1.
         21    1    1    2  503  501  0.42886246708E+01  0.40079352370E+02 -0.37205188691E+03  0.37422901189E+03  0.00000000000E+00 0. -1.
         21    1    1    2  504  502 -0.28017922275E+02  0.12612466824E+02  0.70843336544E+03  0.70909936649E+03  0.00000000000E+00 0. -1.
         21    1    1    2  505  503  0.43129401595E+02 -0.11197222671E+03  0.52327638788E+02  0.13090495261E+03  0.00000000000E+00 0. -1.
          2    1    1    2  501    0 -0.19400103990E+02  0.59280407514E+02 -0.13572579734E+04  0.13586904493E+04  0.00000000000E+00 0. -1.
<scales pt_clust_3="39.35877" pt_clust_4="30.72586" pt_clust_5="100.82584" pt_clust_6="39.35877"></scales>
<clustering>
<clus scale="   30.726">  1  4  2 -1</clus>
<clus scale="   39.359">  3  6 -1 -1</clus>
<clus scale="  100.826">  1  5  2 -1</clus>
<clus scale="   30.726">  1  3  2 -1</clus>
</clustering>
</event>
<event>
 6    0  0.2839294E+002  0.1526597E+03  0.7546771E-02  0.1197242E+00
          2   -1    0    0  503    0 -0.00000000000E+00  0.00000000000E+00  0.26962133793E+03  0.26962133793E+03  0.00000000000E+00 0.  1.
         21   -1    0    0  501  502  0.00000000000E+00 -0.00000000000E+00 -0.31094689166E+04  0.31094689166E+04  0.00000000000E+00 0. -1.
         21    1    1    2  503  504  0.26235590326E+02 -0.39800930426E+02  0.29307018601E+02  0.55958212996E+02  0.00000000000E+00 0. -1.
         21    1    1    2  504  505 -0.11082625972E+03  0.82402509468E+02 -0.25019186698E+03  0.28577719243E+03  0.00000000000E+00 0. -1.
         21    1    1    2  505  502  0.10375241381E+03 -0.11472243423E+03 -0.28193159073E+04  0.28235559115E+04  0.00000000000E+00 0. -1.
          2    1    1    2  501    0 -0.19161744419E+02  0.72120855188E+02  0.20035317698E+03  0.21379893762E+03  0.00000000000E+00 0.  1.
<scales pt_clust_3="47.66991" pt_clust_4="14000.00000" pt_clust_5="152.65968" pt_clust_6="36.12806"></scales>
<clustering>
<clus scale="   47.670">  1  3  2 -1</clus>
<clus scale="   36.128">  1  6  2 -1</clus>
<clus scale="  152.660">  2  5  1 -1</clus>
<clus scale="  152.660">  2  3  1 -1</clus>
</clustering>
</event>
<event>
 6    0  0.2839294E+002  0.6795800E+02  0.7546771E-02  0.1367178E+00
          4   -1    0    0  505    0 -0.00000000000E+00  0.00000000000E+00  0.21024114998E+03  0.21024114998E+03  0.00000000000E+00 0. -1.
         21   -1    0    0  503  502  0.00000000000E+00 -0.00000000000E+00 -0.19741062871E+04  0.19741062871E+04  0.00000000000E+00 0. -1.
         21    1    1    2  503  501 -0.10180196227E+02 -0.66956296585E+02 -0.16901756565E+04  0.16915320074E+04  0.00000000000E+00 0. -1.
         21    1    1    2  504  502  0.68301049809E+02  0.27301180963E+02 -0.25728503808E+03  0.26759293471E+03  0.00000000000E+00 0. -1.
         21    1    1    2  505  504 -0.36298590578E+02 -0.35990897308E+02  0.83042507886E+02  0.97514052746E+02  0.00000000000E+00 0. -1.
          4    1    1    2  501    0 -0.21822263005E+02  0.75646012930E+02  0.10055304960E+03  0.12770844224E+03  0.00000000000E+00 0. -1.
<scales pt_clust_3="67.95800" pt_clust_4="14000.00000" pt_clust_5="51.11685" pt_clust_6="67.52265"></scales>
<clustering>
<clus scale="   51.117">  1  5  2 -1</clus>
<clus scale="   67.958">  2  3  1 -1</clus>
<clus scale="   67.523">  1  6  2 -1</clus>
<clus scale="   67.958">  2  3  1 -1</clus>
</clustering>
</event>
<event>
 6    0  0.2839294E+002  0.3498729E+03  0.7546771E-02  0.1062667E+00
          1   -1    0    0  504    0 -0.00000000000E+00  0.00000000000E+00  0.54447162385E+03  0.54447162385E+03  0.00000000000E+00 0. -1.
         21   -1    0    0  505  502  0.00000000000E+00 -0.00000000000E+00 -0.79699644633E+03  0.79699644633E+03  0.00000000000E+00 0.  1.
         21    1    1    2  503  502 -0.36785761071E+03  0.26217629222E+03 -0.50416440368E+03  0.67693232741E+03  0.00000000000E+00 0.  1.
         21    1    1    2  504  503 -0.94966134156E+01 -0.48417014208E+02  0.52970571454E+02  0.72389739406E+02  0.00000000000E+00 0.  1.
         21    1    1    2  505  501  0.22038454123E+03 -0.10867574753E+03 -0.77411053472E+02  0.25762809497E+03  0.00000000000E+00 0.  1.
          1    1    1    2  501    0  0.15696968290E+03 -0.10508353047E+03  0.27608006322E+03  0.33451790839E+03  0.00000000000E+00 0. -1.
<scales pt_clust_3="14000.00000" pt_clust_4="49.33957" pt_clust_5="349.87294" pt_clust_6="203.02313"></scales>
<clustering>
<clus scale="   49.340">  1  4  2 -1</clus>
<clus scale="  203.023">  1  6  2 -1</clus>
<clus scale="  349.873">  1  5  2 -1</clus>
<clus scale="  349.873">  2  3  1 -1</clus>
</clustering>
</event>
<event>
 6    0  0.2839294E+002  0.1310894E+03  0.7546771E-02  0.1225848E+00
          2   -1    0    0  502    0 -0.00000000000E+00  0.00000000000E+00  0.48306189694E+04  0.48306189694E+04  0.00000000000E+00 0.  1.
         21   -1    0    0  505  502  0.00000000000E+00 -0.00000000000E+00 -0.70422741854E+01  0.70422741854E+01  0.00000000000E+00 0. -1.
         21    1    1    2  503  501 -0.37437511551E+02 -0.22279758479E+02  0.15998725523E+04  0.16004656006E+04  0.00000000000E+00 0.  1.
         21    1    1    2  504  503  0.10466531917E+03 -0.22212556266E+02  0.89274508616E+03  0.89913403648E+03  0.00000000000E+00 0. -1.
         21    1    1    2  505  504  0.24161053581E+02  0.37210878326E+02  0.18884839842E+03  0.19399000892E+03  0.00000000000E+00 0. -1.
          2    1    1    2  501    0 -0.91388861204E+02  0.72814364184E+01  0.21421106583E+04  0.21440715976E+04  0.00000000000E+00 0.  1.
<scales pt_clust_3="33.05485" pt_clust_4="122.00463" pt_clust_5="44.36672" pt_clust_6="33.05485"></scales>
<clustering>
<clus scale="   33.055">  3  6 -1 -1</clus>
<clus scale="   44.367">  2  5  1 -1</clus>
<clus scale="  122.005">  2  4  1 -1</clus>
<clus scale="   44.367">  2  3  1 -1</clus>
</clustering>
</event>
<event>
 6    0  0.2839294E+002  0.9235646E+02  0.7546771E-02  0.1297243E+00
          4   -1    0    0  505    0 -0.00000000000E+00  0.00000000000E+00  0.42423925225E+03  0.42423925225E+03  0.00000000000E+00 0.  1.
         21   -1    0    0  501  502  0.00000000000E+00 -0.00000000000E+00 -0.48508227689E+03  0.48508227689E+03  0.00000000000E+00 0. -1.
         21    1    1    2  503  504 -0.14107559871E+02  0.49077879424E+02 -0.37740970087E+03  0.38084871511E+03  0.00000000000E+00 0. -1.
         21    1    1    2  504  502 -0.64083142317E+01  0.43131437951E+02 -0.83061346276E+02  0.93811378181E+02  0.00000000000E+00 0.  1.
         21    1    1    2  505  503  0.79295529029E+02 -0.73431583961E+02  0.22907775790E+03  0.25329152692E+03  0.00000000000E+00 0.  1.
          4    1    1    2  501    0 -0.58779654926E+02 -0.18777733414E+02  0.17055026460E+03  0.18136990892E+03  0.00000000000E+00 0.  1.
<scales pt_clust_3="14000.00000" pt_clust_4="43.60490" pt_clust_5="92.35646" pt_clust_6="61.61321"></scales>
<clustering>
<clus scale="   43.605">  2  4  1 -1</clus>
<clus scale="   61.613">  1  6  2 -1</clus>
<clus scale="   92.356">  1  5  2 -1</clus>
<clus scale="   43.605">  2  3  1 -1</clus>
</clustering>
</event>
<event>
 6    0  0.2839294E+002  0.5529832E+02  0.7546771E-02  0.1418693E+00
         21   -1    0    0  501  502  0.00000000000E+00  0.00000000000E+00  0.69213783826E+03  0.69213783826E+03  0.00000000000E+00 0.  1.
          1   -1    0    0  505    0 -0.00000000000E+00 -0.00000000000E+00 -0.42559649093E+02  0.42559649093E+02  0.00000000000E+00 0.  1.
         21    1    1    2  503  504 -0.64346474707E+02  0.67597188680E+02  0.38644828260E+03  0.39755769876E+03  0.00000000000E+00 0.  1.
         21    1    1    2  504  502  0.38803877800E+02 -0.26905670319E+02  0.20667367846E+03  0.21199921084E+03  0.00000000000E+00 0.  1.
         21    1    1    2  505  503 -0.25124065368E+02 -0.53582270500E+02  0.26040747716E+02  0.64656004471E+02  0.00000000000E+00 0.  1.
          1    1    1    2  501    0  0.50666662276E+02  0.12890752139E+02  0.30415480388E+02  0.60484573273E+02  0.00000000000E+00 0.  1.
<scales pt_clust_3="14000.00000" pt_clust_4="47.21923" pt_clust_5="52.66504" pt_clust_6="55.29832"></scales>
<clustering>
<clus scale="   47.219">  1  4  2 -1</clus>
<clus scale="   55.298">  2  6  1 -1</clus>
<clus scale="   52.665">  2  5  1 -1</clus>
<clus scale="   47.219">  1  3  2 -1</clus>
</clustering>
</event>
<event>
 6    0  0.2839294E+002  0.9619111E+02  0.7546771E-02  0.1288516E+00
          2   -1    0    0  504    0 -0.00000000000E+00  0.00000000000E+00  0.18808168971E+04  0.18808168971E+04  0.00000000000E+00 0. -1.
         21   -1    0    0  505  502  0.00000000000E+00 -0.00000000000E+00 -0.39880184458E+02  0.39880184458E+02  0.00000000000E+00 0. -1.
         21    1    1    2  503  502 -0.17448905514E+02 -0.25122612718E+02 -0.93571538735E+01  0.31986970817E+02  0.00000000000E+00 0. -1.
         21    1    1    2  504  503 -0.12552691551E+03  0.14314021580E+02  0.11600562926E+04  0.11669158066E+04  0.00000000000E+00 0. -1.
         21    1    1    2  505  501  0.10386102397E+03  0.18821357861E+01  0.16466497389E+03  0.19469259966E+03  0.00000000000E+00 0. -1.
          2    1    1    2  501    0  0.39114797047E+02  0.89264553520E+01  0.52557260002E+03  0.52710170446E+03  0.00000000000E+00 0. -1.
<scales pt_clust_3="30.58774" pt_clust_4="14000.00000" pt_clust_5="96.19111" pt_clust_6="39.22940"></scales>
<clustering>
<clus scale="   30.588">  2  3  1 -1</clus>
<clus scale="   39.229">  1  6  2 -1</clus>
<clus scale="   96.191">  2  5  1 -1</clus>
<clus scale="   30.588">  2  3  1 -1</clus>
</clustering>
</event>
<event>
 6    0  0.2839294E+002  0.2269201E+03  0.7546771E-02  0.1128826E+00
         21   -1    0    0  504  502  0.00000000000E+00  0.00000000000E+00  0.45563772411E+03  0.45563772411E+03  0.00000000000E+00 0.  1.
          1   -1    0    0  505    0 -0.00000000000E+00 -0.00000000000E+00 -0.47594841958E+03  0.47594841958E+03  0.00000000000E+00 0. -1.
         21    1    1    2  503  501 -0.40042136017E+02  0.11897681599E+02  0.94286856432E+02  0.10312583954E+03  0.00000000000E+00 0.  1.
         21    1    1    2  504  503 -0.13946319403E+03 -0.11455888710E+03  0.27955582073E+03  0.33275393011E+03  0.00000000000E+00 0.  1.
         21    1    1    2  505  502 -0.17127517536E+02 -0.49118996618E+02 -0.61662551866E+02  0.80674023009E+02  0.00000000000E+00 0.  1.
          1    1    1    2  501    0  0.19663284758E+03  0.15178020212E+03 -0.33249082077E+03  0.41503235103E+03  0.00000000000E+00 0. -1.
<scales pt_clust_3="41.58405" pt_clust_4="41.58405" pt_clust_5="52.01949" pt_clust_6="209.81280"></scales>
<clustering>
<clus scale="   41.584">  3  4 -1 -1</clus>
<clus scale="   52.019">  2  5  1 -1</clus>
<clus scale="  209.813">  2  6  1 -1</clus>
<clus scale="  226.920">  1  3  2 -1</clus>
</clustering>
</event>
<event>
 6    0  0.2839294E+002  0.2239404E+03  0.7546771E-02  0.1130979E+00
          2   -1    0    0  504    0 -0.00000000000E+00  0.00000000000E+00  0.11627591477E+04  0.11627591477E+04  0.00000000000E+00 0. -1.
         21   -1    0    0  505  502  0.00000000000E+00 -0.00000000000E+00 -0.36370932238E+03  0.36370932238E+03  0.00000000000E+00 0. -1.
         21    1    1    2  503  502  0.15350573429E+03  0.17243039770E+03 -0.22192977350E+03  0.32023284791E+03  0.00000000000E+00 0. -1.
         21    1    1    2  504  503  0.60191348309E+01  0.50649236810E+02  0.28149778019E+03  0.28608141398E+03  0.00000000000E+00 0. -1.
         21    1    1    2  505  501 -0.14171364548E+03 -0.15080526561E+03  0.32755068748E+02  0.20951820918E+03  0.00000000000E+00 0. -1.
          2    1    1    2  501    0 -0.17811223643E+02 -0.72274368898E+02  0.70672674992E+03  0.71063599904E+03  0.00000000000E+00 0. -1.
<scales pt_clust_3="14000.00000" pt_clust_4="51.00564" pt_clust_5="223.94035" pt_clust_6="34.00361"></scales>
<clustering>
<clus scale="   51.006">  1  4  2 -1</clus>
<clus scale="   34.004">  1  6  2 -1</clus>
<clus scale="  223.940">  1  5  2 -1</clus>
<clus scale="  223.940">  2  3  1 -1</clus>
</clustering>
</event>
<event>
 6    0  0.2839294E+002  0.9264844E+02  0.7546771E-02  0.1296562E+00
          1   -1    0    0  505    0 -0.00000000000E+00  0.00000000000E+00  0.39580618478E+03  0.39580618478E+03  0.00000000000E+00 0. -1.
         21   -1    0    0  504  502  0.00000000000E+00 -0.00000000000E+00 -0.11084186316E+03  0.11084186316E+03  0.00000000000E+00 0. -1.
         21    1    1    2  503  502 -0.17323617173E+02 -0.31309158064E+02  0.87769142857E+01  0.36842981897E+02  0.00000000000E+00 0. -1.
         21    1    1    2  504  501 -0.35095765331E+02  0.11536282880E+03 -0.42040347790E+02  0.12770154993E+03  0.00000000000E+00 0. -1.
         21    1    1    2  505  503  0.26059403224E+02 -0.64504083833E+02  0.10241134904E+03  0.12380611350E+03  0.00000000000E+00 0. -1.
          1    1    1    2  501    0  0.26359979280E+02 -0.19549586898E+02  0.21581640608E+03  0.21829740261E+03  0.00000000000E+00 0. -1.
<scales pt_clust_3="36.57292" pt_clust_4="92.64844" pt_clust_5="14000.00000" pt_clust_6="32.81821"></scales>
<clustering>
<clus scale="   32.818">  1  6  2 -1</clus>
<clus scale="   36.573">  2  3  1 -1</clus>
<clus scale="   92.648">  2  4  1 -1</clus>
<clus scale="   36.573">  2  3  1 -1</clus>
</clustering>
</event>
<event>
 6    0  0.2839294E+002  0.1080425E+03  0.7546771E-02  0.1264238E+00
          2   -1    0    0  503    0 -0.00000000000E+00  0.00000000000E+00  0.37497586559E+02  0.37497586559E+02  0.00000000000E+00 0. -1.
         21   -1    0    0  505  502  0.00000000000E+00 -0.00000000000E+00 -0.90688708591E+03  0.90688708591E+03  0.00000000000E+00 0.  1.
         21    1    1    2  503  502  0.62323898407E+00  0.59436862494E+02 -0.57234860142E+03  0.57542684209E+03  0.00000000000E+00 0.  1.
         21    1    1    2  504  501  0.39984556937E+02 -0.30635894164E+02 -0.57734580279E+02  0.76619870560E+02  0.00000000000E+00 0. -1.
         21    1    1    2  505  504 -0.53911775426E+02  0.43907294551E+02 -0.19293470302E+03  0.20508078816E+03  0.00000000000E+00 0. -1.
          2    1    1    2  501    0  0.13303979505E+02 -0.72708262881E+02 -0.46371614633E+02  0.87257171657E+02  0.00000000000E+00 0. -1.
<scales pt_clust_3="59.44013" pt_clust_4="41.25857" pt_clust_5="95.78766" pt_clust_6="41.25857"></scales>
<clustering>
<clus scale="   41.259">  4  6 -1 -1</clus>
<clus scale="   59.440">  2  3  1 -1</clus>
<clus scale="   95.788">  2  5  1 -1</clus>
<clus scale="   59.440">  2  3  1 -1</clus>
</clustering>
</event>
<event>
 6    0  0.2839294E+002  0.2056108E+03  0.7546771E-02  0.1145090E+00
         21   -1    0    0  503  502  0.00000000000E+00  0.00000000000E+00  0.66181350389E+03  0.66181350389E+03  0.00000000000E+00 0. -1.
          1   -1    0    0  504    0 -0.00000000000E+00 -0.00000000000E+00 -0.35431311099E+03  0.35431311099E+03  0.00000000000E+00 0. -1.
         21    1    1    2  503  505 -0.20143922698E+03 -0.67064719979E+02  0.15856239903E+02  0.21290105490E+03  0.00000000000E+00 0. -1.
         21    1    1    2  504  502  0.89499690411E+01  0.45828106804E+02  0.50638197152E+03  0.50853025318E+03  0.00000000000E+00 0. -1.
         21    1    1    2  505  501  0.53103072058E+02  0.28501764249E+02 -0.84526547562E+02  0.10381244661E+03  0.00000000000E+00 0. -1.
          1    1    1    2  501    0  0.13938618588E+03 -0.72651510750E+01 -0.13021127096E+03  0.19088286020E+03  0.00000000000E+00 0. -1.
<scales pt_clust_3="197.60037" pt_clust_4="46.69387" pt_clust_5="37.34514" pt_clust_6="37.34514"></scales>
<clustering>
<clus scale="   37.345">  5  6 -1 -1</clus>
<clus scale="   46.694">  1  4  2 -1</clus>
<clus scale="  197.600">  1  3  2 -1</clus>
<clus scale="   46.694">  1  3  2 -1</clus>
</clustering>
</event>
<event>
 6    0  0.2839294E+002  0.1403822E+03  0.7546771E-02  0.1212816E+00
          2   -1    0    0  505    0 -0.00000000000E+00  0.00000000000E+00  0.35650692833E+03  0.35650692833E+03  0.00000000000E+00 0. -1.
         21   -1    0    0  501  502  0.00000000000E+00 -0.00000000000E+00 -0.44099791909E+03  0.44099791909E+03  0.00000000000E+00 0.  1.
         21    1    1    2  503  502 -0.10827479402E+02  0.44100025860E+02 -0.16223989523E+03  0.16847501357E+03  0.00000000000E+00 0.  1.
         21    1    1    2  504  503  0.47653359419E+02  0.81636043920E+02 -0.24478617232E+03  0.26240342317E+03  0.00000000000E+00 0.  1.
         21    1    1    2  505  504 -0.10780801715E+02 -0.28604309361E+02  0.19408823374E+01  0.30630037935E+02  0.00000000000E+00 0. -1.
          2    1    1    2  501    0 -0.26045078301E+02 -0.97131760419E+02  0.32059419446E+03  0.33599637275E+03  0.00000000000E+00 0. -1.
<scales pt_clust_3="36.86711" pt_clust_4="36.86711" pt_clust_5="30.56848" pt_clust_6="129.94948"></scales>
<clustering>
<clus scale="   30.568">  1  5  2 -1</clus>
<clus scale="   36.867">  3  4 -1 -1</clus>
<clus scale="  129.949">  1  6  2 -1</clus>
<clus scale="  140.382">  2  3  1 -1</clus>
</clustering>
</event>
<event>
 6    0  0.2839294E+002  0.1335840E+03  0.7546771E-02  0.1222233E+00
         21   -1    0    0  503  502  0.00000000000E+00  0.00000000000E+00  0.71903494922E+02  0.71903494922E+02  0.00000000000E+00 0. -1.
          1   -1    0    0  505    0 -0.00000000000E+00 -0.00000000000E+00 -0.10822587677E+04  0.10822587677E+04  0.00000000000E+00 0. -1.
         21    1    1    2  503  501 -0.42325738552E+02 -0.21409228070E+02  0.45383316435E+02  0.65646542949E+02  0.00000000000E+00 0. -1.
         21    1    1    2  504  502  0.37963796736E+02  0.99780806753E+01 -0.15609841493E+03  0.16095815326E+03  0.00000000000E+00 0. -1.
         21    1    1    2  505  504  0.78949349413E+02 -0.72289105402E+02 -0.32804043061E+03  0.34506410802E+03  0.00000000000E+00 0. -1.
          1    1    1    2  501    0 -0.74587407596E+02  0.83720252797E+02 -0.57159974370E+03  0.58249345841E+03  0.00000000000E+00 0. -1.
<scales pt_clust_3="47.43230" pt_clust_4="38.85359" pt_clust_5="38.85359" pt_clust_6="117.16628"></scales>
<clustering>
<clus scale="   38.854">  4  5 -1 -1</clus>
<clus scale="   47.432">  1  3  2 -1</clus>
<clus scale="  117.166">  2  6  1 -1</clus>
<clus scale="   47.432">  1  3  2 -1</clus>
</clustering>
</event>
<event>
 6    0  0.2839294E+002  0.1134895E+03  0.7546771E-02  0.1254241E+00
          2   -1    0    0  505    0 -0.00000000000E+00  0.00000000000E+00  0.35076055253E+04  0.35076055253E+04  0.00000000000E+00 0. -1.
         21   -1    0    0  503  502  0.00000000000E+00 -0.00000000000E+00 -0.32281961992E+02  0.32281961992E+02  0.00000000000E+00 0. -1.
         21    1    1    2  503  504  0.31596451425E+02  0.59298773374E+01  0.13211743567E+03  0.13597248249E+03  0.00000000000E+00 0. -1.
         21    1    1    2  504  501 -0.40622919253E+02  0.22193391835E+02  0.18393372883E+03  0.18966914565E+03  0.00000000000E+00 0.  1.
         21    1    1    2  505  502  0.12207641468E+03 -0.31654759076E+02  0.12398857856E+03  0.17685542798E+03  0.00000000000E+00 0. -1.
          2    1    1    2  501    0 -0.11304994685E+03  0.35314899042E+01  0.30352838202E+04  0.30373904311E+04  0.00000000000E+00 0. -1.
<scales pt_clust_3="32.14808" pt_clust_4="43.98109" pt_clust_5="113.48948" pt_clust_6="14000.00000"></scales>
<clustering>
<clus scale="   32.148">  2  3  1 -1</clus>
<clus scale="   43.981">  2  4  1 -1</clus>
<clus scale="  113.489">  2  5  1 -1</clus>
<clus scale="   32.148">  2  3  1 -1</clus>
</clustering>
</event>
<event>
 6    0  0.2839294E+002  0.1582892E+03  0.7546771E-02  0.1190642E+00
         21   -1    0    0  504  502  0.00000000000E+00  0.00000000000E+00  0.17461001391E+03  0.17461001391E+03  0.00000000000E+00 0.  1.
          2   -1    0    0  503    0 -0.00000000000E+00 -0.00000000000E+00 -0.20701331785E+04  0.20701331785E+04  0.00000000000E+00 0. -1.
         21    1    1    2  503  502  0.41621498883E+02 -0.19210779832E+01 -0.26969823456E+03  0.27289774171E+03  0.00000000000E+00 0. -1.
         21    1    1    2  504  505 -0.62935066924E+02 -0.54934659121E+02  0.97065024287E+02  0.12806349348E+03  0.00000000000E+00 0.  1.
         21    1    1    2  505  501 -0.57113339742E+02 -0.41668619001E+02  0.36724359630E+02  0.79667345734E+02  0.00000000000E+00 0.  1.
          2    1    1    2  501    0  0.78426907783E+02  0.98524356105E+02 -0.17596143139E+04  0.17641146115E+04  0.00000000000E+00 0. -1.
<scales pt_clust_3="41.66581" pt_clust_4="35.73228" pt_clust_5="35.73228" pt_clust_6="153.44963"></scales>
<clustering>
<clus scale="   35.732">  4  5 -1 -1</clus>
<clus scale="   41.666">  2  3  1 -1</clus>
<clus scale="  153.450">  2  6  1 -1</clus>
<clus scale="  158.289">  1  3  2 -1</clus>
</clustering>
</event>
<event>
 6    0  0.2839294E+002  0.1495621E+03  0.7546771E-02  0.1201012E+00
         21   -1    0    0  505  502  0.00000000000E+00  0.00000000000E+00  0.16197729794E+04  0.16197729794E+04  0.00000000000E+00 0. -1.
          1   -1    0    0  503    0 -0.00000000000E+00 -0.00000000000E+00 -0.80636238052E+02  0.80636238052E+02  0.00000000000E+00 0. -1.
         21    1    1    2  503  504  0.27193253169E+02  0.29539689780E+02  0.12202481967E+03  0.12846058892E+03  0.00000000000E+00 0.  1.
         21    1    1    2  504  502  0.14573932324E+03  0.25221450293E+02  0.68868660017E+03  0.70439002346E+03  0.00000000000E+00 0. -1.
         21    1    1    2  505  501 -0.84068648018E+02 -0.91197300000E+02  0.75720433900E+03  0.76729583350E+03  0.00000000000E+00 0. -1.
          1    1    1    2  501    0 -0.88863928387E+02  0.36436159926E+02 -0.28779017481E+02  0.10026277158E+03  0.00000000000E+00 0. -1.
<scales pt_clust_3="30.74752" pt_clust_4="30.74752" pt_clust_5="137.42686" pt_clust_6="96.04370"></scales>
<clustering>
<clus scale="   30.748">  3  4 -1 -1</clus>
<clus scale="   96.044">  2  6  1 -1</clus>
<clus scale="  137.427">  1  5  2 -1</clus>
<clus scale="  137.427">  1  3  2 -1</clus>
</clustering>
</event>
<event>
 6    0  0.2839294E+002  0.1879294E+03  0.7546771E-02  0.1160342E+00
         21   -1    0    0  504  502  0.00000000000E+00  0.00000000000E+00  0.16100092187E+04  0.16100092187E+04  0.00000000000E+00 0.  1.
         -2   -1    0    0    0  501 -0.00000000000E+00 -0.00000000000E+00 -0.17472356218E+03  0.17472356218E+03  0.00000000000E+00 0.  1.
         21    1    1    2  503  502 -0.39958407684E+01  0.55612875706E+02  0.84452701072E+03  0.84636554191E+03  0.00000000000E+00 0.  1.
         21    1    1    2  504  501  0.35622234335E+02  0.37848123909E+02  0.11329149891E+03  0.12464504718E+03  0.00000000000E+00 0. -1.
         21    1    1    2  505  503  0.30616756994E+02  0.75525904250E+02  0.59377615243E+03  0.59934269597E+03  0.00000000000E+00 0.  1.
         -2    1    1    2    0  505 -0.62243150560E+02 -0.16898690387E+03 -0.11630900552E+03  0.21437949584E+03  0.00000000000E+00 0.  1.
<scales pt_clust_3="48.58540" pt_clust_4="51.97523" pt_clust_5="48.58540" pt_clust_6="178.51385"></scales>
<clustering>
<clus scale="   48.585">  3  5 -1 -1</clus>
<clus scale="   51.975">  1  4  2 -1</clus>
<clus scale="  178.514">  2  6  1 -1</clus>
<clus scale="   51.975">  1  3  2 -1</clus>
</clustering>
</event>
<event>
 6    0  0.2839294E+002  0.1503700E+03  0.7546771E-02  0.1200019E+00
         21   -1    0    0  505  502  0.00000000000E+00  0.00000000000E+00  0.28227560981E+03  0.28227560981E+03  0.00000000000E+00 0.  1.
          1   -1    0    0  502    0 -0.00000000000E+00 -0.00000000000E+00 -0.27773600094E+03  0.27773600094E+03  0.00000000000E+00 0. -1.
         21    1    1    2  503  504 -0.13389019075E+02  0.78808177306E+02  0.85059502306E+02  0.11672666180E+03  0.00000000000E+00 0. -1.
         21    1    1    2  504  501  0.24848832536E+02 -0.50005209195E+02 -0.64000193900E+02  0.84935329777E+02  0.00000000000E+00 0. -1.
         21    1    1    2  505  503  0.19676346549E+02  0.57580095771E+02  0.15349883759E+03  0.16511971167E+03  0.00000000000E+00 0.  1.
          1    1    1    2  501    0 -0.31136160009E+02 -0.86383063882E+02 -0.17001853712E+03  0.19322990750E+03  0.00000000000E+00 0. -1.
<scales pt_clust_3="150.09096" pt_clust_4="49.13364" pt_clust_5="54.38812" pt_clust_6="49.13364"></scales>
<clustering>
<clus scale="   49.134">  4  6 -1 -1</clus>
<clus scale="   54.388">  3  5 -1 -1</clus>
<clus scale="  150.091">  1  3  2 -1</clus>
<clus scale="  150.091">  1  3  2 -1</clus>
</clustering>
</event>
<event>
 6    0  0.2839294E+002  0.1186922E+03  0.7546771E-02  0.1245270E+00
          1   -1    0    0  503    0 -0.00000000000E+00  0.00000000000E+00  0.17673308018E+04  0.17673308018E+04  0.00000000000E+00 0.  1.
         21   -1    0    0  504  502  0.00000000000E+00 -0.00000000000E+00 -0.11512937820E+03  0.11512937820E+03  0.00000000000E+00 0. -1.
         21    1    1    2  503  502 -0.37457190800E+02  0.23606026016E+02  0.25871828227E+02  0.51279987351E+02  0.00000000000E+00 0. -1.
         21    1    1    2  504  505 -0.25377006155E+02 -0.11565401540E+03 -0.65415950288E+02  0.13527413009E+03  0.00000000000E+00 0. -1.
         21    1    1    2  505  501  0.32925448263E+02  0.36258496590E+02  0.47584715924E+03  0.47836103800E+03  0.00000000000E+00 0. -1.
          1    1    1    2  501    0  0.29908748692E+02  0.55789492794E+02  0.12158983865E+04  0.12175450246E+04  0.00000000000E+00 0.  1.
<scales pt_clust_3="44.27511" pt_clust_4="111.42009" pt_clust_5="35.98269" pt_clust_6="35.98269"></scales>
<clustering>
<clus scale="   35.983">  5  6 -1 -1</clus>
<clus scale="   44.275">  2  3  1 -1</clus>
<clus scale="  111.420">  2  4  1 -1</clus>
<clus scale="   44.275">  2  3  1 -1</clus>
</clustering>
</event>
<event>
 6    0  0.2839294E+002  0.2180223E+03  0.7546771E-02  0.1135366E+00
         21   -1    0    0  501  502  0.00000000000E+00  0.00000000000E+00  0.12662423237E+03  0.12662423237E+03  0.00000000000E+00 0.  1.
          2   -1    0    0  503    0 -0.00000000000E+00 -0.00000000000E+00 -0.19900803869E+04  0.19900803869E+04  0.00000000000E+00 0.  1.
         21    1    1    2  503  504  0.12549245776E+03 -0.13363156309E+03 -0.14366265510E+04  0.14482753877E+04  0.00000000000E+00 0.  1.
         21    1    1    2  504  505 -0.13853585826E+03  0.46519793555E+02 -0.27932711660E+02  0.14878343859E+03  0.00000000000E+00 0.  1.
         21    1    1    2  505  502 -0.44690854525E+02  0.36364439396E+02  0.42506674361E+02  0.71599317706E+02  0.00000000000E+00 0.  1.
          2    1    1    2  501    0  0.57734255031E+02  0.50747330135E+02 -0.44140356627E+03  0.44804647531E+03  0.00000000000E+00 0.  1.
<scales pt_clust_3="199.04614" pt_clust_4="55.85972" pt_clust_5="55.85972" pt_clust_6="76.86700"></scales>
<clustering>
<clus scale="   55.860">  4  5 -1 -1</clus>
<clus scale="   76.867">  2  6  1 -1</clus>
<clus scale="  199.046">  2  3  1 -1</clus>
<clus scale="  218.022">  1  3  2 -1</clus>
</clustering>
</event>
<event>
 6    0  0.2839294E+002  0.1243975E+03  0.7546771E-02  0.1236014E+00
         21   -1    0    0  504  502  0.00000000000E+00  0.00000000000E+00  0.81844008467E+03  0.81844008467E+03  0.00000000000E+00 0.  1.
          2   -1    0    0  503    0 -0.00000000000E+00 -0.00000000000E+00 -0.86295359420E+03  0.86295359420E+03  0.00000000000E+00 0. -1.
         21    1    1    2  503  502  0.93539783714E+02  0.61354158287E+02  0.39602788708E+02  0.11866930837E+03  0.00000000000E+00 0.  1.
         21    1    1    2  504  505 -0.12442090365E+03  0.46401884828E+02  0.70810618073E+03  0.72044990067E+03  0.00000000000E+00 0.  1.
         21    1    1    2  505  501 -0.14403507330E+02 -0.69132109836E+02 -0.28363086093E+02  0.76099765351E+02  0.00000000000E+00 0.  1.
          2    1    1    2  501    0  0.45284627267E+02 -0.38623933279E+02 -0.76385939288E+03  0.76617470448E+03  0.00000000000E+00 0. -1.
<scales pt_clust_3="124.39751" pt_clust_4="14000.00000" pt_clust_5="90.25889" pt_clust_6="59.51895"></scales>
<clustering>
<clus scale="   59.519">  2  6  1 -1</clus>
<clus scale="   90.259">  2  5  1 -1</clus>
<clus scale="  124.398">  2  3  1 -1</clus>
<clus scale="  124.398">  1  3  2 -1</clus>
</clustering>
</event>
<event>
 6    0  0.2839294E+002  0.1358534E+03  0.7546771E-02  0.1219020E+00
          2   -1    0    0  504    0 -0.00000000000E+00  0.00000000000E+00  0.17524731260E+03  0.17524731260E+03  0.00000000000E+00 0. -1.
         21   -1    0    0  505  502  0.00000000000E+00 -0.00000000000E+00 -0.26134192470E+04  0.26134192470E+04  0.00000000000E+00 0. -1.
         21    1    1    2  503  502  0.43751234999E+02 -0.10304183015E+03 -0.10555601062E+04  0.10614795934E+04  0.00000000000E+00 0. -1.
         21    1    1    2  504  503 -0.55694037837E+02  0.42193138349E+02 -0.36082927408E+02  0.78638822630E+02  0.00000000000E+00 0. -1.
         21    1    1    2  505  501  0.68518581504E+02  0.17503776218E+02 -0.14882424632E+04  0.14899217454E+04  0.00000000000E+00 0. -1.
          2    1    1    2  501    0 -0.56575778667E+02  0.43344915587E+02  0.14171356240E+03  0.15862639820E+03  0.00000000000E+00 0. -1.
<scales pt_clust_3="135.85344" pt_clust_4="69.87193" pt_clust_5="70.48232" pt_clust_6="14000.00000"></scales>
<clustering>
<clus scale="   69.872">  1  4  2 -1</clus>
<clus scale="   70.482">  2  5  1 -1</clus>
<clus scale="  135.853">  2  3  1 -1</clus>
<clus scale="   70.482">  2  3  1 -1</clus>
</clustering>
</event>
<event>
 6    0  0.2839294E+002  0.1898030E+03  0.7546771E-02  0.1158639E+00
          2   -1    0    0  504    0 -0.00000000000E+00  0.00000000000E+00  0.12851662572E+04  0.12851662572E+04  0.00000000000E+00 0.  1.
         21   -1    0    0  503  502  0.00000000000E+00 -0.00000000000E+00 -0.20148783706E+03  0.20148783706E+03  0.00000000000E+00 0.  1.
         21    1    1    2  503  501  0.63997064846E+02 -0.16724474993E+03  0.30403696716E+02  0.18163373987E+03  0.00000000000E+00 0.  1.
         21    1    1    2  504  505 -0.52940789341E+02  0.65553174833E+02  0.14883753972E+03  0.17103379530E+03  0.00000000000E+00 0.  1.
         21    1    1    2  505  502 -0.75015689855E+02 -0.38067846529E+02 -0.92638776420E+02  0.12513375868E+03  0.00000000000E+00 0.  1.
          2    1    1    2  501    0  0.63959414351E+02  0.13975942162E+03  0.99707596016E+03  0.10088528004E+04  0.00000000000E+00 0.  1.
<scales pt_clust_3="189.80303" pt_clust_4="86.92159" pt_clust_5="84.12202" pt_clust_6="14000.00000"></scales>
<clustering>
<clus scale="   84.122">  2  5  1 -1</clus>
<clus scale="   86.922">  1  4  2 -1</clus>
<clus scale="  189.803">  2  3  1 -1</clus>
<clus scale="   84.122">  2  3  1 -1</clus>
</clustering>
</event>
<event>
 6    0  0.2839294E+002  0.1359361E+03  0.7546771E-02  0.1218904E+00
         21   -1    0    0  505  502  0.00000000000E+00  0.00000000000E+00  0.85520593110E+02  0.85520593110E+02  0.00000000000E+00 0.  1.
          2   -1    0    0  504    0 -0.00000000000E+00 -0.00000000000E+00 -0.60371604787E+03  0.60371604787E+03  0.00000000000E+00 0.  1.
         21    1    1    2  503  502  0.80365295267E+02  0.14019037429E+03 -0.37562006278E+02  0.16590004835E+03  0.00000000000E+00 0.  1.
         21    1    1    2  504  503  0.21141490801E+01 -0.34857891623E+02 -0.15962325820E+03  0.16339867439E+03  0.00000000000E+00 0.  1.
         21    1    1    2  505  501  0.92096714242E+01 -0.33668874700E+02 -0.28278882187E+02  0.44923338579E+02  0.00000000000E+00 0.  1.
          2    1    1    2  501    0 -0.91689115772E+02 -0.71663607968E+02 -0.29273130810E+03  0.31501457966E+03  0.00000000000E+00 0.  1.
<scales pt_clust_3="14000.00000" pt_clust_4="35.75779" pt_clust_5="34.90575" pt_clust_6="135.93607"></scales>
<clustering>
<clus scale="   34.906">  1  5  2 -1</clus>
<clus scale="   35.758">  2  4  1 -1</clus>
<clus scale="  135.936">  2  6  1 -1</clus>
<clus scale="   34.906">  1  3  2 -1</clus>
</clustering>
</event>
<event>
 6    0  0.2839294E+002  0.6983120E+02  0.7546771E-02  0.1360668E+00
         21   -1    0    0  503  502  0.00000000000E+00  0.00000000000E+00  0.40658293405E+03  0.40658293405E+03  0.00000000000E+00 0. -1.
          2   -1    0    0  504    0 -0.00000000000E+00 -0.00000000000E+00 -0.30039464521E+04  0.30039464521E+04  0.00000000000E+00 0.  1.
         21    1    1    2  503  505 -0.54915580930E+02 -0.77308852763E+02  0.41385278733E+02  0.10346555485E+03  0.00000000000E+00 0. -1.
         21    1    1    2  504  502  0.16846127381E+02  0.32559437024E+02  0.32615990273E+03  0.32821363636E+03  0.00000000000E+00 0. -1.
         21    1    1    2  505  501  0.60534894913E+02 -0.23406907882E+02 -0.15518784062E+03  0.16821302778E+03  0.00000000000E+00 0.  1.
          2    1    1    2  501    0 -0.22465441363E+02  0.68156323621E+02 -0.28097208589E+04  0.28106371672E+04  0.00000000000E+00 0.  1.
<scales pt_clust_3="61.89191" pt_clust_4="36.65936" pt_clust_5="69.83120" pt_clust_6="14000.00000"></scales>
<clustering>
<clus scale="   36.659">  1  4  2 -1</clus>
<clus scale="   61.892">  1  3  2 -1</clus>
<clus scale="   69.831">  1  5  2 -1</clus>
<clus scale="   36.659">  1  3  2 -1</clus>
</clustering>
</event>
<event>
 6    0  0.2839294E+002  0.8017912E+02  0.7546771E-02  0.1328544E+00
         21   -1    0    0  503  502  0.00000000000E+00  0.00000000000E+00  0.30285095118E+03  0.30285095118E+03  0.00000000000E+00 0. -1.
          2   -1    0    0  504    0 -0.00000000000E+00 -0.00000000000E+00 -0.31762728440E+04  0.31762728440E+04  0.00000000000E+00 0.  1.
         21    1    1    2  503  501  0.49690268872E+02  0.45798012093E+02 -0.44274000442E+03  0.44786749407E+03  0.00000000000E+00 0. -1.
         21    1    1    2  504  505  0.31012419898E+02 -0.65010992216E+02 -0.12629723350E+04  0.12650246314E+04  0.00000000000E+00 0.  1.
         21    1    1    2  505  502  0.73882309934E+01  0.41342410279E+02  0.29637331808E+03  0.29933413523E+03  0.00000000000E+00 0. -1.
          2    1    1    2  501    0 -0.88090919764E+02 -0.22129430156E+02 -0.14640828715E+04  0.14668975344E+04  0.00000000000E+00 0.  1.
<scales pt_clust_3="14000.00000" pt_clust_4="65.21397" pt_clust_5="41.99739" pt_clust_6="80.17912"></scales>
<clustering>
<clus scale="   41.997">  1  5  2 -1</clus>
<clus scale="   65.214">  2  4  1 -1</clus>
<clus scale="   80.179">  2  6  1 -1</clus>
<clus scale="   41.997">  1  3  2 -1</clus>
</clustering>
</event>
<event>
 6    0  0.2839294E+002  0.7199389E+02  0.7546771E-02  0.1353441E+00
          2   -1    0    0  503    0 -0.00000000000E+00  0.00000000000E+00  0.97316583541E+02  0.97316583541E+02  0.00000000000E+00 0. -1.
         21   -1    0    0  505  502  0.00000000000E+00 -0.00000000000E+00 -0.67843429489E+03  0.67843429489E+03  0.00000000000E+00 0.  1.
         21    1    1    2  503  504 -0.42434992279E+02 -0.26903561212E+02 -0.20499020288E+02  0.54265458704E+02  0.00000000000E+00 0. -1.
         21    1    1    2  504  502 -0.48644223046E+02 -0.56154477291E+02 -0.48609158045E+03  0.49173632197E+03  0.00000000000E+00 0.  1.
         21    1    1    2  505  501  0.23797211717E+02  0.63994286642E+02 -0.12573346085E+03  0.14307508234E+03  0.00000000000E+00 0. -1.
          2    1    1    2  501    0  0.67282003608E+02  0.19063751861E+02  0.51206350242E+02  0.86674015423E+02  0.00000000000E+00 0. -1.
<scales pt_clust_3="50.24470" pt_clust_4="14000.00000" pt_clust_5="71.99389" pt_clust_6="31.16774"></scales>
<clustering>
<clus scale="   50.245">  1  3  2 -1</clus>
<clus scale="   31.168">  1  6  2 -1</clus>
<clus scale="   71.994">  1  5  2 -1</clus>
<clus scale="   71.994">  2  3  1 -1</clus>
</clustering>
</event>
<event>
 6    0  0.2839294E+002  0.2037298E+03  0.7546771E-02  0.1146630E+00
         21   -1    0    0  505  502  0.00000000000E+00  0.00000000000E+00  0.13915710671E+04  0.13915710671E+04  0.00000000000E+00 0.  1.
          2   -1    0    0  504    0 -0.00000000000E+00 -0.00000000000E+00 -0.15208489454E+04  0.15208489454E+04  0.00000000000E+00 0.  1.
         21    1    1    2  503  501 -0.78278134529E+02 -0.37726402708E+01 -0.46553224503E+03  0.47208258845E+03  0.00000000000E+00 0.  1.
         21    1    1    2  504  502  0.21919151894E+03  0.62941838455E+02  0.12380668602E+04  0.12588948119E+04  0.00000000000E+00 0.  1.
         21    1    1    2  505  503 -0.23911167535E+02 -0.23743639542E+02  0.13413712009E+03  0.13830499390E+03  0.00000000000E+00 0.  1.
          2    1    1    2  501    0 -0.11700221688E+03 -0.35425558643E+02 -0.10359496135E+04  0.10431376183E+04  0.00000000000E+00 0.  1.
<scales pt_clust_3="33.72158" pt_clust_4="199.32946" pt_clust_5="33.69725" pt_clust_6="33.72158"></scales>
<clustering>
<clus scale="   33.697">  1  5  2 -1</clus>
<clus scale="   33.722">  3  6 -1 -1</clus>
<clus scale="  199.329">  1  4  2 -1</clus>
<clus scale="   33.697">  1  3  2 -1</clus>
</clustering>
</event>
<event>
 6    0  0.2839294E+002  0.8387122E+02  0.7546771E-02  0.1318411E+00
          2   -1    0    0  504    0 -0.00000000000E+00  0.00000000000E+00  0.74593301062E+03  0.74593301062E+03  0.00000000000E+00 0. -1.
         21   -1    0    0  503  502  0.00000000000E+00 -0.00000000000E+00 -0.59377211723E+02  0.59377211723E+02  0.00000000000E+00 0. -1.
         21    1    1    2  503  501  0.20126575086E+02  0.62193143534E+02 -0.59758148282E+01  0.65641271242E+02  0.00000000000E+00 0. -1.
         21    1    1    2  504  505 -0.10173164497E+03 -0.65450118228E+02  0.42723185244E+03  0.44402714028E+03  0.00000000000E+00 0. -1.
         21    1    1    2  505  502  0.40638815081E+02 -0.44224432257E+01  0.17679134932E+02  0.44537883955E+02  0.00000000000E+00 0. -1.
          2    1    1    2  501    0  0.40966254807E+02  0.76794179196E+01  0.24762062635E+03  0.25110392686E+03  0.00000000000E+00 0. -1.
<scales pt_clust_3="14000.00000" pt_clust_4="83.87122" pt_clust_5="40.87874" pt_clust_6="43.16531"></scales>
<clustering>
<clus scale="   40.879">  2  5  1 -1</clus>
<clus scale="   43.165">  1  6  2 -1</clus>
<clus scale="   83.871">  1  4  2 -1</clus>
<clus scale="   40.879">  2  3  1 -1</clus>
</clustering>
</event>
<event>
 6    0  0.2839294E+002  0.1212707E+03  0.7546771E-02  0.1241015E+00
         21   -1    0    0  503  502  0.00000000000E+00  0.00000000000E+00  0.64039548713E+03  0.64039548713E+03  0.00000000000E+00 0. -1.
          3   -1    0    0  505    0 -0.00000000000E+00 -0.00000000000E+00 -0.26246491322E+03  0.26246491322E+03  0.00000000000E+00 0.  1.
         21    1    1    2  503  501  0.32075734371E+02  0.30333120423E+01  0.21992923832E+03  0.22227668250E+03  0.00000000000E+00 0. -1.
         21    1    1    2  504  502 -0.46988179184E+01 -0.11939048947E+03  0.35473999876E+03  0.37432156575E+03  0.00000000000E+00 0. -1.
         21    1    1    2  505  504 -0.11742503704E+02 -0.49535494093E+02 -0.33913586287E+01  0.51021102316E+02  0.00000000000E+00 0.  1.
          3    1    1    2  501    0 -0.15634412748E+02  0.16589267152E+03 -0.19334730454E+03  0.25524104979E+03  0.00000000000E+00 0.  1.
<scales pt_clust_3="32.21884" pt_clust_4="14000.00000" pt_clust_5="50.35023" pt_clust_6="121.27069"></scales>
<clustering>
<clus scale="   32.219">  1  3  2 -1</clus>
<clus scale="   50.350">  2  5  1 -1</clus>
<clus scale="  121.271">  2  6  1 -1</clus>
<clus scale="   32.219">  1  3  2 -1</clus>
</clustering>
</event>
<event>
 6    0  0.2839294E+002  0.1491717E+03  0.7546771E-02  0.1201495E+00
         21   -1    0    0  503  502  0.00000000000E+00  0.00000000000E+00  0.28196663611E+03  0.28196663611E+03  0.00000000000E+00 0. -1.
          2   -1    0    0  505    0 -0.00000000000E+00 -0.00000000000E+00 -0.66127346040E+03  0.66127346040E+03  0.00000000000E+00 0.  1.
         21    1    1    2  503  504 -0.57766229912E+01 -0.37963720985E+02  0.19935377075E+03  0.20301856909E+03  0.00000000000E+00 0. -1.
         21    1    1    2  504  501 -0.13753761689E+03 -0.25018031045E+02 -0.29690270377E+01  0.13982600995E+03  0.00000000000E+00 0. -1.
         21    1    1    2  505  502  0.29156956046E+02  0.88620649163E+01 -0.41614342907E+02  0.51579238227E+02  0.00000000000E+00 0.  1.
          2    1    1    2  501    0  0.11415728384E+03  0.54119687114E+02 -0.53407722510E+03  0.54881627924E+03  0.00000000000E+00 0.  1.
<scales pt_clust_3="38.36159" pt_clust_4="14000.00000" pt_clust_5="30.47399" pt_clust_6="149.17169"></scales>
<clustering>
<clus scale="   30.474">  2  5  1 -1</clus>
<clus scale="   38.362">  1  3  2 -1</clus>
<clus scale="  149.172">  2  6  1 -1</clus>
<clus scale="   38.362">  1  3  2 -1</clus>
</clustering>
</event>
<event>
 6    0  0.2839294E+002  0.1849202E+03  0.7546771E-02  0.1163124E+00
         21   -1    0    0  504  502  0.00000000000E+00  0.00000000000E+00  0.23813795800E+03  0.23813795800E+03  0.00000000000E+00 0.  1.
          4   -1    0    0  505    0 -0.00000000000E+00 -0.00000000000E+00 -0.23779372467E+03  0.23779372467E+03  0.00000000000E+00 0. -1.
         21    1    1    2  503  502  0.15809014035E+03 -0.90623401834E+02  0.12544168519E+03  0.22122547281E+03  0.00000000000E+00 0.  1.
         21    1    1    2  504  501 -0.43522779154E+02 -0.18951537647E+02 -0.31918498287E+02  0.57203003570E+02  0.00000000000E+00 0.  1.
         21    1    1    2  505  503 -0.23022147596E+02  0.51241569774E+02 -0.27875704918E+01  0.56244895787E+02  0.00000000000E+00 0.  1.
          4    1    1    2  501    0 -0.91545213598E+02  0.58333369707E+02 -0.90391383080E+02  0.14125831051E+03  0.00000000000E+00 0. -1.
<scales pt_clust_3="171.93777" pt_clust_4="45.01100" pt_clust_5="56.17578" pt_clust_6="45.01100"></scales>
<clustering>
<clus scale="   45.011">  4  6 -1 -1</clus>
<clus scale="   56.176">  2  5  1 -1</clus>
<clus scale="  171.938">  1  3  2 -1</clus>
<clus scale="  171.938">  1  3  2 -1</clus>
</clustering>
</event>
<event>
 6    0  0.2839294E+002  0.2233068E+03  0.7546771E-02  0.1131441E+00
         21   -1    0    0  504  502  0.00000000000E+00  0.00000000000E+00  0.18204638085E+03  0.18204638085E+03  0.00000000000E+00 0.  1.
          2   -1    0    0  505    0 -0.00000000000E+00 -0.00000000000E+00 -0.39064902847E+04  0.39064902847E+04  0.00000000000E+00 0.  1.
         21    1    1    2  503  502  0.17050946599E+02 -0.20699210099E+03  0.40372405021E+02  0.21158070739E+03  0.00000000000E+00 0.  1.
         21    1    1    2  504  501  0.50714480484E+02 -0.76550091913E+01  0.38504692637E+02  0.64133992949E+02  0.00000000000E+00 0.  1.
         21    1    1    2  505  503 -0.75163801725E+01  0.20428028927E+03 -0.31590607892E+04  0.31656677024E+04  0.00000000000E+00 0.  1.
          2    1    1    2  501    0 -0.60249046910E+02  0.10366820912E+02 -0.64426021234E+03  0.64715426278E+03  0.00000000000E+00 0.  1.
<scales pt_clust_3="223.30684" pt_clust_4="51.28896" pt_clust_5="14000.00000" pt_clust_6="60.56683"></scales>
<clustering>
<clus scale="   51.289">  1  4  2 -1</clus>
<clus scale="   60.567">  2  6  1 -1</clus>
<clus scale="  223.307">  1  3  2 -1</clus>
<clus scale="   51.289">  1  3  2 -1</clus>
</clustering>
</event>
<event>
 6    0  0.2839294E+002  0.7067586E+02  0.7546771E-02  0.1357810E+00
         21   -1    0    0  505  502  0.00000000000E+00  0.00000000000E+00  0.28801604552E+03  0.28801604552E+03  0.00000000000E+00 0.  1.
          1   -1    0    0  503    0 -0.00000000000E+00 -0.00000000000E+00 -0.54702157012E+03  0.54702157012E+03  0.00000000000E+00 0. -1.
         21    1    1    2  503  502  0.40084808023E+02  0.44241744176E+02  0.15486161864E+03  0.16597061394E+03  0.00000000000E+00 0.  1.
         21    1    1    2  504  501  0.17337507269E+02 -0.73331978331E+02 -0.11806234147E+03  0.14006028944E+03  0.00000000000E+00 0. -1.
         21    1    1    2  505  504 -0.86497456057E+02  0.11028371990E+02  0.99454982633E+02  0.13226763952E+03  0.00000000000E+00 0. -1.
          1    1    1    2  501    0  0.29075140765E+02  0.18061862166E+02 -0.39525978440E+03  0.39673907275E+03  0.00000000000E+00 0. -1.
<scales pt_clust_3="60.91157" pt_clust_4="14000.00000" pt_clust_5="70.67586" pt_clust_6="34.22857"></scales>
<clustering>
<clus scale="   34.229">  2  6  1 -1</clus>
<clus scale="   60.912">  1  3  2 -1</clus>
<clus scale="   70.676">  1  5  2 -1</clus>
<clus scale="   60.912">  1  3  2 -1</clus>
</clustering>
</event>
<event>
 6    0  0.2839294E+002  0.1072481E+03  0.7546771E-02  0.1265752E+00
          2   -1    0    0  504    0 -0.00000000000E+00  0.00000000000E+00  0.16117898723E+04  0.16117898723E+04  0.00000000000E+00 0.  1.
         21   -1    0    0  501  502  0.00000000000E+00 -0.00000000000E+00 -0.43182372809E+03  0.43182372809E+03  0.00000000000E+00 0. -1.
         21    1    1    2  503  502 -0.35062563978E+02  0.43913688299E+02 -0.10257620037E+03  0.11696013122E+03  0.00000000000E+00 0. -1.
         21    1    1    2  504  505  0.53390597940E+02  0.29787628825E+02  0.44081746041E+03  0.44503695597E+03  0.00000000000E+00 0.  1.
         21    1    1    2  505  503 -0.64902770387E+02 -0.19732905579E+01 -0.31505641572E+03  0.32167811328E+03  0.00000000000E+00 0. -1.
          2    1    1    2  501    0  0.46574736426E+02 -0.71728026566E+02  0.11567812998E+04  0.11599383999E+04  0.00000000000E+00 0.  1.
<scales pt_clust_3="56.19426" pt_clust_4="61.07869" pt_clust_5="107.24811" pt_clust_6="14000.00000"></scales>
<clustering>
<clus scale="   56.194">  2  3  1 -1</clus>
<clus scale="   61.079">  1  4  2 -1</clus>
<clus scale="  107.248">  2  5  1 -1</clus>
<clus scale="   56.194">  2  3  1 -1</clus>
</clustering>
</event>
<event>
 6    0  0.2839294E+002  0.1072093E+03  0.7546771E-02  0.1265827E+00
         21   -1    0    0  505  502  0.00000000000E+00  0.00000000000E+00  0.99132690368E+02  0.99132690368E+02  0.00000000000E+00 0.  1.
          2   -1    0    0  504    0 -0.00000000000E+00 -0.00000000000E+00 -0.12204845950E+04  0.12204845950E+04  0.00000000000E+00 0. -1.
         21    1    1    2  503  501  0.60040824090E+02 -0.42209366842E+02 -0.15450350292E+03  0.17104930172E+03  0.00000000000E+00 0. -1.
         21    1    1    2  504  502 -0.76697037241E+02  0.19322724931E+03 -0.45145502747E+03  0.49702197862E+03  0.00000000000E+00 0. -1.
         21    1    1    2  505  503  0.72827710733E-01 -0.10022368740E+03  0.29158316223E+02  0.10437911777E+03  0.00000000000E+00 0.  1.
          2    1    1    2  501    0  0.16583385441E+02 -0.50794195068E+02 -0.54455169048E+03  0.54716688727E+03  0.00000000000E+00 0. -1.
<scales pt_clust_3="84.07052" pt_clust_4="14000.00000" pt_clust_5="107.20934" pt_clust_6="53.43275"></scales>
<clustering>
<clus scale="   53.433">  2  6  1 -1</clus>
<clus scale="   84.071">  2  3  1 -1</clus>
<clus scale="  107.209">  1  5  2 -1</clus>
<clus scale="  107.209">  1  3  2 -1</clus>
</clustering>
</event>
<event>
 6    0  0.2839294E+002  0.1142220E+03  0.7546771E-02  0.1252945E+00
         21   -1    0    0  505  502  0.00000000000E+00  0.00000000000E+00  0.52189447373E+03  0.52189447373E+03  0.00000000000E+00 0. -1.
          1   -1    0    0  503    0 -0.00000000000E+00 -0.00000000000E+00 -0.14207043457E+03  0.14207043457E+03  0.00000000000E+00 0. -1.
         21    1    1    2  503  504  0.45430584840E+02 -0.10217435332E+03  0.11902315818E+03  0.16330967117E+03  0.00000000000E+00 0. -1.
         21    1    1    2  504  502  0.40642521441E+02  0.27763039628E+01  0.29572158075E+03  0.29851428062E+03  0.00000000000E+00 0. -1.
         21    1    1    2  505  501 -0.53636060860E+02 -0.10872509794E+02  0.37448984654E+02  0.66313384361E+02  0.00000000000E+00 0. -1.
          1    1    1    2  501    0 -0.32437045421E+02  0.11027055915E+03 -0.72369684424E+02  0.13582757214E+03  0.00000000000E+00 0. -1.
<scales pt_clust_3="114.22202" pt_clust_4="40.73724" pt_clust_5="45.42264" pt_clust_6="14000.00000"></scales>
<clustering>
<clus scale="   40.737">  1  4  2 -1</clus>
<clus scale="   45.423">  1  5  2 -1</clus>
<clus scale="  114.222">  1  3  2 -1</clus>
<clus scale="   40.737">  1  3  2 -1</clus>
</clustering>
</event>
<event>
 6    0  0.2839294E+002  0.1681560E+03  0.7546771E-02  0.1179785E+00
          2   -1    0    0  503    0 -0.00000000000E+00  0.00000000000E+00  0.73053280310E+03  0.73053280310E+03  0.00000000000E+00 0.  1.
         21   -1    0    0  504  502  0.00000000000E+00 -0.00000000000E+00 -0.37359964966E+03  0.37359964966E+03  0.00000000000E+00 0.  1.
         21    1    1    2  503  505 -0.59538970837E+02 -0.34119563157E+02  0.38534813661E+02  0.78701750313E+02  0.00000000000E+00 0.  1.
         21    1    1    2  504  501  0.16627788181E+03  0.38969827612E+02 -0.31307843040E+03  0.35663017964E+03  0.00000000000E+00 0.  1.
         21    1    1    2  505  502 -0.51173315855E+01 -0.34908187567E+02  0.77335697611E+01  0.36118924998E+02  0.00000000000E+00 0.  1.
          2    1    1    2  501    0 -0.10162157939E+03  0.30057923112E+02  0.62374320042E+03  0.63268159782E+03  0.00000000000E+00 0.  1.
<scales pt_clust_3="105.08579" pt_clust_4="14000.00000" pt_clust_5="32.84103" pt_clust_6="168.15596"></scales>
<clustering>
<clus scale="   32.841">  3  5 -1 -1</clus>
<clus scale="  105.086">  1  3  2 -1</clus>
<clus scale="  168.156">  1  6  2 -1</clus>
<clus scale="  168.156">  2  3  1 -1</clus>
</clustering>
</event>
<event>
 6    0  0.2839294E+002  0.7301424E+02  0.7546771E-02  0.1350133E+00
         21   -1    0    0  504  502  0.00000000000E+00  0.00000000000E+00  0.30886551477E+03  0.30886551477E+03  0.00000000000E+00 0. -1.
          1   -1    0    0  503    0 -0.00000000000E+00 -0.00000000000E+00 -0.94609980047E+02  0.94609980047E+02  0.00000000000E+00 0. -1.
         21    1    1    2  503  505  0.28798794557E+02 -0.14058496565E+02 -0.39614597332E+02  0.50954177604E+02  0.00000000000E+00 0. -1.
         21    1    1    2  504  501  0.76462042962E+02  0.24501721707E+02  0.67133611784E+02  0.10465992648E+03  0.00000000000E+00 0. -1.
         21    1    1    2  505  502 -0.67904052256E+02  0.38627792962E+02  0.16484344590E+03  0.18241827858E+03  0.00000000000E+00 0. -1.
          1    1    1    2  501    0 -0.37356785262E+02 -0.49071018104E+02  0.21893074369E+02  0.65443112152E+02  0.00000000000E+00 0. -1.
<scales pt_clust_3="32.04703" pt_clust_4="14000.00000" pt_clust_5="73.01424" pt_clust_6="60.52163"></scales>
<clustering>
<clus scale="   32.047">  2  3  1 -1</clus>
<clus scale="   60.522">  2  6  1 -1</clus>
<clus scale="   73.014">  1  5  2 -1</clus>
<clus scale="   73.014">  1  3  2 -1</clus>
</clustering>
</event>
<event>
 6    0  0.2839294E+002  0.1892489E+03  0.7546771E-02  0.1159141E+00
          2   -1    0    0  505    0 -0.00000000000E+00  0.00000000000E+00  0.84780676660E+03  0.84780676660E+03  0.00000000000E+00 0. -1.
         21   -1    0    0  504  502  0.00000000000E+00 -0.00000000000E+00 -0.33984478158E+03  0.33984478158E+03  0.00000000000E+00 0.  1.
         21    1    1    2  503  502  0.29556823686E+02 -0.25854903253E+02 -0.16616028129E+03  0.17073757913E+03  0.00000000000E+00 0.  1.
         21    1    1    2  504  501 -0.41150214071E+02  0.75780136825E+02  0.34142856747E+03  0.35214973511E+03  0.00000000000E+00 0.  1.
         21    1    1    2  505  503  0.29494825001E+01 -0.15431840723E+03 -0.12288966405E+03  0.19729353711E+03  0.00000000000E+00 0.  1.
          2    1    1    2  501    0  0.86439078849E+01  0.10439317365E+03  0.45558336289E+03  0.46747069683E+03  0.00000000000E+00 0. -1.
<scales pt_clust_3="39.26935" pt_clust_4="49.80486" pt_clust_5="181.06512" pt_clust_6="49.80486"></scales>
<clustering>
<clus scale="   39.269">  2  3  1 -1</clus>
<clus scale="   49.805">  4  6 -1 -1</clus>
<clus scale="  181.065">  2  5  1 -1</clus>
<clus scale="   39.269">  2  3  1 -1</clus>
</clustering>
</event>
<event>
 6    0  0.2839294E+002  0.1319009E+03  0.7546771E-02  0.1224662E+00
         21   -1    0    0  503  502  0.00000000000E+00  0.00000000000E+00  0.76640017685E+03  0.76640017685E+03  0.00000000000E+00 0. -1.
          2   -1    0    0  504    0 -0.00000000000E+00 -0.00000000000E+00 -0.16320610677E+03  0.16320610677E+03  0.00000000000E+00 0. -1.
         21    1    1    2  503  501  0.69077983846E+02  0.11911884817E+03  0.15206685895E+03  0.20514725792E+03  0.00000000000E+00 0. -1.
         21    1    1    2  504  505 -0.34532912818E+02 -0.25257052053E+01  0.71207475500E+01  0.35349770864E+02  0.00000000000E+00 0. -1.
         21    1    1    2  505  502  0.48070212780E+02 -0.41577068477E+02  0.53889430859E+03  0.54262922315E+03  0.00000000000E+00 0. -1.
          2    1    1    2  501    0 -0.82615283808E+02 -0.75016074487E+02 -0.94887845016E+02  0.14648003168E+03  0.00000000000E+00 0. -1.
<scales pt_clust_3="14000.00000" pt_clust_4="34.62515" pt_clust_5="63.25055" pt_clust_6="131.90092"></scales>
<clustering>
<clus scale="   34.625">  2  4  1 -1</clus>
<clus scale="   63.251">  1  5  2 -1</clus>
<clus scale="  131.901">  2  6  1 -1</clus>
<clus scale="   63.251">  1  3  2 -1</clus>
</clustering>
</event>
<event>
 6    0  0.2839294E+002  0.7566036E+02  0.7546771E-02  0.1341838E+00
         21   -1    0    0  503  502  0.00000000000E+00  0.00000000000E+00  0.29075890582E+02  0.29075890582E+02  0.00000000000E+00 0. -1.
          2   -1    0    0  505    0 -0.00000000000E+00 -0.00000000000E+00 -0.14418297341E+04  0.14418297341E+04  0.00000000000E+00 0. -1.
         21    1    1    2  503  501  0.50159954805E+02  0.30050213984E+02 -0.18071395714E+03  0.18993833402E+03  0.00000000000E+00 0. -1.
         21    1    1    2  504  502 -0.80627439041E+02 -0.10403075580E+03 -0.17000525277E+03  0.21499992569E+03  0.00000000000E+00 0. -1.
         21    1    1    2  505  504  0.13635513492E+01  0.35232662678E+02 -0.24829010754E+03  0.25078113425E+03  0.00000000000E+00 0. -1.
          2    1    1    2  501    0  0.29103932886E+02  0.38747879139E+02 -0.81374452607E+03  0.81518623072E+03  0.00000000000E+00 0. -1.
<scales pt_clust_3="61.63986" pt_clust_4="75.66036" pt_clust_5="35.25904" pt_clust_6="14000.00000"></scales>
<clustering>
<clus scale="   35.259">  2  5  1 -1</clus>
<clus scale="   61.640">  1  3  2 -1</clus>
<clus scale="   75.660">  1  4  2 -1</clus>
<clus scale="   61.640">  1  3  2 -1</clus>
</clustering>
</event>
<event>
 6    0  0.2839294E+002  0.1298123E+03  0.7546771E-02  0.1227735E+00
          1   -1    0    0  503    0 -0.00000000000E+00  0.00000000000E+00  0.25994910156E+04  0.25994910156E+04  0.00000000000E+00 0. -1.
         21   -1    0    0  505  502  0.00000000000E+00 -0.00000000000E+00 -0.21481933411E+02  0.21481933411E+02  0.00000000000E+00 0. -1.
         21    1    1    2  503  504 -0.47850487448E+02  0.29441060540E+02  0.73322741507E+03  0.73537669762E+03  0.00000000000E+00 0. -1.
         21    1    1    2  504  502 -0.43379775777E+01 -0.12289440162E+03  0.28216260839E+03  0.30779471986E+03  0.00000000000E+00 0. -1.
         21    1    1    2  505  501  0.38442823092E+02 -0.15528182992E+02  0.71569676022E+02  0.82711508511E+02  0.00000000000E+00 0.  1.
          1    1    1    2  501    0  0.13745641934E+02  0.10898152407E+03  0.14910493827E+04  0.14950900230E+04  0.00000000000E+00 0. -1.
<scales pt_clust_3="53.42330" pt_clust_4="14000.00000" pt_clust_5="41.46052" pt_clust_6="129.81228"></scales>
<clustering>
<clus scale="   41.461">  2  5  1 -1</clus>
<clus scale="   53.423">  1  3  2 -1</clus>
<clus scale="  129.812">  1  6  2 -1</clus>
<clus scale="   41.461">  2  3  1 -1</clus>
</clustering>
</event>
<event>
 6    0  0.2839294E+002  0.2130244E+03  0.7546771E-02  0.1139193E+00
          2   -1    0    0  505    0 -0.00000000000E+00  0.00000000000E+00  0.40522657820E+03  0.40522657820E+03  0.00000000000E+00 0.  1.
         21   -1    0    0  504  502  0.00000000000E+00 -0.00000000000E+00 -0.14898637265E+03  0.14898637265E+03  0.00000000000E+00 0.  1.
         21    1    1    2  503  501  0.37321000534E+02 -0.42300766166E+02  0.25072596144E+02  0.61732057932E+02  0.00000000000E+00 0.  1.
         21    1    1    2  504  503 -0.69765846861E+02 -0.11832929934E+02  0.30669323986E+02  0.77122623482E+02  0.00000000000E+00 0.  1.
         21    1    1    2  505  502  0.42929663994E+02  0.20609332281E+03  0.10164201231E+03  0.23377021287E+03  0.00000000000E+00 0.  1.
          2    1    1    2  501    0 -0.10484817667E+02 -0.15195962671E+03  0.98856273115E+02  0.18158805656E+03  0.00000000000E+00 0.  1.
<scales pt_clust_3="44.67432" pt_clust_4="70.76222" pt_clust_5="199.97589" pt_clust_6="44.67432"></scales>
<clustering>
<clus scale="   44.674">  3  6 -1 -1</clus>
<clus scale="   70.762">  2  4  1 -1</clus>
<clus scale="  199.976">  2  5  1 -1</clus>
<clus scale="   70.762">  2  3  1 -1</clus>
</clustering>
</event>
<event>
 6    0  0.2839294E+002  0.1979527E+03  0.7546771E-02  0.1151478E+00
         21   -1    0    0  501  502  0.00000000000E+00  0.00000000000E+00  0.18747380239E+03  0.18747380239E+03  0.00000000000E+00 0. -1.
         -4   -1    0    0    0  501 -0.00000000000E+00 -0.00000000000E+00 -0.14946917597E+04  0.14946917597E+04  0.00000000000E+00 0. -1.
         21    1    1    2  503  504  0.26789859527E+03 -0.55227312057E+01 -0.52936262011E+03  0.59331689802E+03  0.00000000000E+00 0. -1.
         21    1    1    2  504  502 -0.11264940621E+03  0.58032627907E+02  0.11924479555E+03  0.17400286172E+03  0.00000000000E+00 0. -1.
         21    1    1    2  505  503 -0.85788979819E+02 -0.65409869515E+02 -0.49938770861E+03  0.51090731410E+03  0.00000000000E+00 0. -1.
         -4    1    1    2    0  505 -0.69460209242E+02  0.12899972814E+02 -0.39771242415E+03  0.40393848825E+03  0.00000000000E+00 0. -1.
<scales pt_clust_3="184.09424" pt_clust_4="126.71888" pt_clust_5="58.88363" pt_clust_6="58.88363"></scales>
<clustering>
<clus scale="   58.884">  5  6 -1 -1</clus>
<clus scale="  126.719">  1  4  2 -1</clus>
<clus scale="  184.094">  1  3  2 -1</clus>
<clus scale="  126.719">  1  3  2 -1</clus>
</clustering>
</event>
<event>
 6    0  0.2839294E+002  0.7289495E+02  0.7546771E-02  0.1350516E+00
          1   -1    0    0  505    0 -0.00000000000E+00  0.00000000000E+00  0.12802975980E+04  0.12802975980E+04  0.00000000000E+00 0. -1.
         21   -1    0    0  503  502  0.00000000000E+00 -0.00000000000E+00 -0.20143041257E+03  0.20143041257E+03  0.00000000000E+00 0. -1.
         21    1    1    2  503  504 -0.29194798340E+02 -0.13790616220E+02 -0.16830736541E+03  0.17137644703E+03  0.00000000000E+00 0. -1.
         21    1    1    2  504  501  0.56413157159E+02  0.60019311437E+02  0.46843942993E+02  0.94758203028E+02  0.00000000000E+00 0. -1.
         21    1    1    2  505  502 -0.87733277879E+02 -0.68649630536E+02  0.49818177776E+03  0.51048504729E+03  0.00000000000E+00 0. -1.
          1    1    1    2  501    0  0.60514919060E+02  0.22420935319E+02  0.70214883012E+03  0.70510831324E+03  0.00000000000E+00 0. -1.
<scales pt_clust_3="32.28804" pt_clust_4="60.25577" pt_clust_5="72.89495" pt_clust_6="14000.00000"></scales>
<clustering>
<clus scale="   32.288">  2  3  1 -1</clus>
<clus scale="   60.256">  2  4  1 -1</clus>
<clus scale="   72.895">  2  5  1 -1</clus>
<clus scale="   32.288">  2  3  1 -1</clus>
</clustering>
</event>
<event>
 6    0  0.2839294E+002  0.1415781E+03  0.7546771E-02  0.1211221E+00
          2   -1    0    0  505    0 -0.00000000000E+00  0.00000000000E+00  0.38978403665E+04  0.38978403665E+04  0.00000000000E+00 0.  1.
         21   -1    0    0  503  502  0.00000000000E+00 -0.00000000000E+00 -0.15024422699E+02  0.15024422699E+02  0.00000000000E+00 0.  1.
         21    1    1    2  503  504  0.13477239846E+03  0.10072033923E+03  0.66112583668E+03  0.68219906043E+03  0.00000000000E+00 0.  1.
         21    1    1    2  504  501 -0.77094520914E+02 -0.24681355157E+02  0.21237101979E+04  0.21252523942E+04  0.00000000000E+00 0.  1.
         21    1    1    2  505  502 -0.34581638626E+02 -0.28390095969E+02  0.16580788342E+03  0.17173858472E+03  0.00000000000E+00 0.  1.
          2    1    1    2  501    0 -0.23096238922E+02 -0.47648888104E+02  0.93217202577E+03  0.93367474980E+03  0.00000000000E+00 0.  1.
<scales pt_clust_3="129.20957" pt_clust_4="47.14762" pt_clust_5="44.74245" pt_clust_6="47.14762"></scales>
<clustering>
<clus scale="   44.742">  2  5  1 -1</clus>
<clus scale="   47.148">  4  6 -1 -1</clus>
<clus scale="  129.210">  2  3  1 -1</clus>
<clus scale="   44.742">  2  3  1 -1</clus>
</clustering>
</event>
<event>
 6    0  0.2839294E+002  0.1352744E+03  0.7546771E-02  0.1219833E+00
          1   -1    0    0  504    0 -0.00000000000E+00  0.00000000000E+00  0.80973001402E+03  0.80973001402E+03  0.00000000000E+00 0.  1.
         21   -1    0    0  503  502  0.00000000000E+00 -0.00000000000E+00 -0.55568104521E+02  0.55568104521E+02  0.00000000000E+00 0. -1.
         21    1    1    2  503  501 -0.71479834264E+02  0.26887078043E+02  0.18663518352E+03  0.20165558113E+03  0.00000000000E+00 0.  1.
         21    1    1    2  504  505  0.77038808644E+02 -0.84766766254E+02  0.25800039827E+03  0.28228458726E+03  0.00000000000E+00 0.  1.
         21    1    1    2  505  502  0.61320302134E+02  0.25480334424E+02  0.35629622884E+01  0.66499034553E+02  0.00000000000E+00 0. -1.
          1    1    1    2  501    0 -0.66879276514E+02  0.32399353788E+02  0.30596336541E+03  0.31485891559E+03  0.00000000000E+00 0.  1.
<scales pt_clust_3="37.89525" pt_clust_4="129.70503" pt_clust_5="66.40352" pt_clust_6="37.89525"></scales>
<clustering>
<clus scale="   37.895">  3  6 -1 -1</clus>
<clus scale="   66.404">  2  5  1 -1</clus>
<clus scale="  129.705">  2  4  1 -1</clus>
<clus scale="   66.404">  2  3  1 -1</clus>
</clustering>
</event>
<event>
 6    0  0.2839294E+002  0.9527258E+02  0.7546771E-02  0.1290563E+00
         21   -1    0    0  505  502  0.00000000000E+00  0.00000000000E+00  0.42446219019E+03  0.42446219019E+03  0.00000000000E+00 0. -1.
          2   -1    0    0  503    0 -0.00000000000E+00 -0.00000000000E+00 -0.12334797730E+03  0.12334797730E+03  0.00000000000E+00 0. -1.
         21    1    1    2  503  502 -0.22185388181E+02 -0.39724424977E+02  0.82943468074E+02  0.94603595516E+02  0.00000000000E+00 0. -1.
         21    1    1    2  504  501  0.54582936003E+02 -0.21634740163E+02  0.23518999787E+03  0.24240811452E+03  0.00000000000E+00 0. -1.
         21    1    1    2  505  504  0.47438279094E+02  0.28600175686E+01  0.66196560184E+02  0.81489598134E+02  0.00000000000E+00 0.  1.
          2    1    1    2  501    0 -0.79835826917E+02  0.58499147572E+02 -0.83215813245E+02  0.12930885933E+03  0.00000000000E+00 0. -1.
<scales pt_clust_3="45.49969" pt_clust_4="95.27258" pt_clust_5="42.96211" pt_clust_6="14000.00000"></scales>
<clustering>
<clus scale="   45.500">  1  3  2 -1</clus>
<clus scale="   42.962">  1  5  2 -1</clus>
<clus scale="   95.273">  1  4  2 -1</clus>
<clus scale="   45.500">  1  3  2 -1</clus>
</clustering>
</event>
<event>
 6    0  0.2839294E+002  0.2940489E+03  0.7546771E-02  0.1088254E+00
          1   -1    0    0  503    0 -0.00000000000E+00  0.00000000000E+00  0.81471737286E+03  0.81471737286E+03  0.00000000000E+00 0. -1.
         21   -1    0    0  504  502  0.00000000000E+00 -0.00000000000E+00 -0.76059350625E+03  0.76059350625E+03  0.00000000000E+00 0.  1.
         21    1    1    2  503  505 -0.10863214369E+03 -0.73068147400E+02  0.42778384900E+03  0.44736888389E+03  0.00000000000E+00 0. -1.
         21    1    1    2  504  501  0.40499575891E+02  0.30788867605E+03 -0.35275347768E+03  0.46996879524E+03  0.00000000000E+00 0.  1.
         21    1    1    2  505  502  0.45569926334E+02 -0.10369700057E+02 -0.29744649570E+03  0.30109561051E+03  0.00000000000E+00 0.  1.
          1    1    1    2  501    0  0.22562641464E+02 -0.22445082860E+03  0.27653999100E+03  0.35687758947E+03  0.00000000000E+00 0. -1.
<scales pt_clust_3="130.24164" pt_clust_4="14000.00000" pt_clust_5="46.73488" pt_clust_6="294.04887"></scales>
<clustering>
<clus scale="   46.735">  2  5  1 -1</clus>
<clus scale="  130.242">  1  3  2 -1</clus>
<clus scale="  294.049">  1  6  2 -1</clus>
<clus scale="   46.735">  2  3  1 -1</clus>
</clustering>
</event>
<event>
 6    0  0.2839294E+002  0.1325177E+03  0.7546771E-02  0.1223767E+00
          1   -1    0    0  504    0 -0.00000000000E+00  0.00000000000E+00  0.92300262964E+03  0.92300262964E+03  0.00000000000E+00 0. -1.
         21   -1    0    0  505  502  0.00000000000E+00 -0.00000000000E+00 -0.86132472702E+02  0.86132472702E+02  0.00000000000E+00 0.  1.
         21    1    1    2  503  502 -0.92274471794E+02 -0.11749378234E+02  0.76742518864E+02  0.12059038202E+03  0.00000000000E+00 0.  1.
         21    1    1    2  504  503 -0.71555932749E+02 -0.11629182734E+02  0.23339140449E+03  0.24439115592E+03  0.00000000000E+00 0. -1.
         21    1    1    2  505  501  0.20621479745E+03  0.19793236620E+02  0.12877334777E+03  0.24392394307E+03  0.00000000000E+00 0.  1.
          1    1    1    2  501    0 -0.42384392909E+02  0.35853243474E+01  0.39796288581E+03  0.40022962134E+03  0.00000000000E+00 0. -1.
<scales pt_clust_3="14000.00000" pt_clust_4="91.43029" pt_clust_5="132.51773" pt_clust_6="42.53577"></scales>
<clustering>
<clus scale="   42.536">  1  6  2 -1</clus>
<clus scale="   91.430">  1  4  2 -1</clus>
<clus scale="  132.518">  1  5  2 -1</clus>
<clus scale="  132.518">  2  3  1 -1</clus>
</clustering>
</event>
<event>
 6    0  0.2839294E+002  0.1397387E+03  0.7546771E-02  0.1213681E+00
          1   -1    0    0  505    0 -0.00000000000E+00  0.00000000000E+00  0.14471320520E+04  0.14471320520E+04  0.00000000000E+00 0. -1.
         21   -1    0    0  501  502  0.00000000000E+00 -0.00000000000E+00 -0.88256520024E+03  0.88256520024E+03  0.00000000000E+00 0.  1.
         21    1    1    2  503  502  0.56622650675E+02 -0.11052085100E+02 -0.56809827050E+03  0.57102006804E+03  0.00000000000E+00 0.  1.
         21    1    1    2  504  503  0.56883447575E+02 -0.77005364631E+02 -0.28360383484E+03  0.29932705846E+03  0.00000000000E+00 0.  1.
         21    1    1    2  505  504  0.39577114509E+02  0.93816633386E+02  0.13571562369E+03  0.16966625830E+03  0.00000000000E+00 0.  1.
          1    1    1    2  501    0 -0.15308321276E+03 -0.57591836553E+01  0.12805533334E+04  0.12896838674E+04  0.00000000000E+00 0. -1.
<scales pt_clust_3="57.69119" pt_clust_4="139.73873" pt_clust_5="102.51001" pt_clust_6="14000.00000"></scales>
<clustering>
<clus scale="   57.691">  2  3  1 -1</clus>
<clus scale="  102.510">  1  5  2 -1</clus>
<clus scale="  139.739">  2  4  1 -1</clus>
<clus scale="   57.691">  2  3  1 -1</clus>
</clustering>
</event>
<event>
 6    0  0.2839294E+002  0.1287699E+03  0.7546771E-02  0.1229293E+00
         21   -1    0    0  504  502  0.00000000000E+00  0.00000000000E+00  0.39335580145E+02  0.39335580145E+02  0.00000000000E+00 0. -1.
          2   -1    0    0  503    0 -0.00000000000E+00 -0.00000000000E+00 -0.23511062756E+04  0.23511062756E+04  0.00000000000E+00 0. -1.
         21    1    1    2  503  502  0.28432550588E+02 -0.22583691788E+02 -0.41672019980E+03  0.41829912501E+03  0.00000000000E+00 0. -1.
         21    1    1    2  504  505 -0.52585862927E+02  0.12656374777E+03 -0.19912727052E+03  0.24173399657E+03  0.00000000000E+00 0. -1.
         21    1    1    2  505  501 -0.19064636986E+02 -0.12826237381E+03 -0.23305506050E+03  0.26670087766E+03  0.00000000000E+00 0. -1.
          2    1    1    2  501    0  0.43217949325E+02  0.24282317822E+02 -0.14628681646E+04  0.14637078565E+04  0.00000000000E+00 0. -1.
<scales pt_clust_3="36.31023" pt_clust_4="14000.00000" pt_clust_5="128.76988" pt_clust_6="65.13310"></scales>
<clustering>
<clus scale="   36.310">  2  3  1 -1</clus>
<clus scale="   65.133">  2  6  1 -1</clus>
<clus scale="  128.770">  2  5  1 -1</clus>
<clus scale="  128.770">  1  3  2 -1</clus>
</clustering>
</event>
<event>
 6    0  0.2839294E+002  0.1073464E+03  0.7546771E-02  0.1265564E+00
          1   -1    0    0  505    0 -0.00000000000E+00  0.00000000000E+00  0.34762425388E+04  0.34762425388E+04  0.00000000000E+00 0.  1.
         21   -1    0    0  504  502  0.00000000000E+00 -0.00000000000E+00 -0.38980694438E+03  0.38980694438E+03  0.00000000000E+00 0.  1.
         21    1    1    2  503  501 -0.76140954318E+02  0.13076964055E+03 -0.43140987475E+02  0.15735084561E+03  0.00000000000E+00 0.  1.
         21    1    1    2  504  503  0.29764131696E+02 -0.34522222813E+02 -0.28559173659E+03  0.28920637513E+03  0.00000000000E+00 0.  1.
         21    1    1    2  505  502  0.31893282996E+02 -0.26077931281E+02  0.23961830790E+03  0.24313406483E+03  0.00000000000E+00 0.  1.
          1    1    1    2  501    0  0.14483539625E+02 -0.70169486457E+02  0.31755500106E+04  0.31763581976E+04  0.00000000000E+00 0.  1.
<scales pt_clust_3="14000.00000" pt_clust_4="45.60433" pt_clust_5="41.19757" pt_clust_6="107.34636"></scales>
<clustering>
<clus scale="   41.198">  1  5  2 -1</clus>
<clus scale="   45.604">  2  4  1 -1</clus>
<clus scale="  107.346">  1  6  2 -1</clus>
<clus scale="   45.604">  2  3  1 -1</clus>
</clustering>
</event>
<event>
 6    0  0.2839294E+002  0.9122233E+02  0.7546771E-02  0.1299918E+00
         21   -1    0    0  504  502  0.00000000000E+00  0.00000000000E+00  0.40042699042E+03  0.40042699042E+03  0.00000000000E+00 0. -1.
          1   -1    0    0  502    0 -0.00000000000E+00 -0.00000000000E+00 -0.95945506822E+03  0.95945506822E+03  0.00000000000E+00 0. -1.
         21    1    1    2  503  501 -0.43565501952E+02  0.48982264684E+01 -0.27532949793E+03  0.27879791608E+03  0.00000000000E+00 0.  1.
         21    1    1    2  504  505 -0.54146119502E+02 -0.47120384967E+01  0.36346961965E+03  0.36751077531E+03  0.00000000000E+00 0. -1.
         21    1    1    2  505  503  0.13321050150E+03  0.92062425103E+01 -0.10422286755E+03  0.16938771718E+03  0.00000000000E+00 0. -1.
          1    1    1    2  501    0 -0.35498880043E+02 -0.93924304821E+01 -0.54294533197E+03  0.54418565007E+03  0.00000000000E+00 0. -1.
<scales pt_clust_3="34.93254" pt_clust_4="54.35076" pt_clust_5="82.85309" pt_clust_6="34.93254"></scales>
<clustering>
<clus scale="   34.933">  3  6 -1 -1</clus>
<clus scale="   54.351">  1  4  2 -1</clus>
<clus scale="   82.853">  1  5  2 -1</clus>
<clus scale="   54.351">  1  3  2 -1</clus>
</clustering>
</event>
<event>
 6    0  0.2839294E+002  0.9112756E+02  0.7546771E-02  0.1300144E+00
         21   -1    0    0  503  502  0.00000000000E+00  0.00000000000E+00  0.25703319988E+03  0.25703319988E+03  0.00000000000E+00 0.  1.
          2   -1    0    0  505    0 -0.00000000000E+00 -0.00000000000E+00 -0.46434832673E+03  0.46434832673E+03  0.00000000000E+00 0.  1.
         21    1    1    2  503  501 -0.62266017929E+02 -0.17010690877E+02  0.19763508269E+02  0.67505680146E+02  0.00000000000E+00 0. -1.
         21    1    1    2  504  502  0.11205792777E+03  0.92804821559E+02  0.17432869913E+03  0.22706873281E+03  0.00000000000E+00 0.  1.
         21    1    1    2  505  504 -0.16625714078E+01 -0.31213196644E+02 -0.14641319355E+02  0.34516605002E+02  0.00000000000E+00 0. -1.
          2    1    1    2  501    0 -0.48129338429E+02 -0.44580934038E+02 -0.38676601490E+03  0.39229050865E+03  0.00000000000E+00 0.  1.
<scales pt_clust_3="65.10130" pt_clust_4="91.12756" pt_clust_5="31.25744" pt_clust_6="14000.00000"></scales>
<clustering>
<clus scale="   31.257">  2  5  1 -1</clus>
<clus scale="   65.101">  1  3  2 -1</clus>
<clus scale="   91.128">  1  4  2 -1</clus>
<clus scale="   65.101">  1  3  2 -1</clus>
</clustering>
</event>
<event>
 6    0  0.2839294E+002  0.7741649E+02  0.7546771E-02  0.1336547E+00
         21   -1    0    0  503  502  0.00000000000E+00  0.00000000000E+00  0.35289909302E+03  0.35289909302E+03  0.00000000000E+00 0. -1.
          1   -1    0    0  505    0 -0.00000000000E+00 -0.00000000000E+00 -0.38314680113E+03  0.38314680113E+03  0.00000000000E+00 0. -1.
         21    1    1    2  503  501  0.43916585280E+02  0.94983334868E+01  0.18331604580E+03  0.18874230434E+03  0.00000000000E+00 0. -1.
         21    1    1    2  504  502 -0.64948326633E+02  0.47399824221E+02  0.12542823162E+03  0.14898748188E+03  0.00000000000E+00 0. -1.
         21    1    1    2  505  504  0.55275249617E+02 -0.11387189257E+03 -0.14108779904E+03  0.18954663852E+03  0.00000000000E+00 0. -1.
          1    1    1    2  501    0 -0.34243508264E+02  0.56973734861E+02 -0.19790418650E+03  0.20876946941E+03  0.00000000000E+00 0. -1.
<scales pt_clust_3="44.93200" pt_clust_4="62.28771" pt_clust_5="77.41649" pt_clust_6="14000.00000"></scales>
<clustering>
<clus scale="   44.932">  1  3  2 -1</clus>
<clus scale="   62.288">  1  4  2 -1</clus>
<clus scale="   77.416">  1  5  2 -1</clus>
<clus scale="   44.932">  1  3  2 -1</clus>
</clustering>
</event>
<event>
 6    0  0.2839294E+002  0.7867910E+02  0.7546771E-02  0.1332842E+00
          2   -1    0    0  505    0 -0.00000000000E+00  0.00000000000E+00  0.19257587192E+04  0.19257587192E+04  0.00000000000E+00 0. -1.
         21   -1    0    0  504  502  0.00000000000E+00 -0.00000000000E+00 -0.35812246742E+03  0.35812246742E+03  0.00000000000E+00 0.  1.
         21    1    1    2  503  502 -0.71662093481E+02 -0.23817803839E+02 -0.19501536595E+02  0.77993931504E+02  0.00000000000E+00 0. -1.
         21    1    1    2  504  501  0.77649217902E+02 -0.25283258995E+02 -0.29818564261E+03  0.30916552474E+03  0.00000000000E+00 0.  1.
         21    1    1    2  505  503  0.35848312438E+02  0.45105976324E+02  0.14696694386E+03  0.15785731909E+03  0.00000000000E+00 0.  1.
          2    1    1    2  501    0 -0.41835436859E+02  0.39950865105E+01  0.17383564871E+04  0.17388644113E+04  0.00000000000E+00 0. -1.
<scales pt_clust_3="14000.00000" pt_clust_4="78.67910" pt_clust_5="48.39221" pt_clust_6="42.02576"></scales>
<clustering>
<clus scale="   42.026">  1  6  2 -1</clus>
<clus scale="   48.392">  1  5  2 -1</clus>
<clus scale="   78.679">  2  4  1 -1</clus>
<clus scale="   78.679">  2  3  1 -1</clus>
</clustering>
</event>
<event>
 6    0  0.2839294E+002  0.1150618E+03  0.7546771E-02  0.1251473E+00
          1   -1    0    0  504    0 -0.00000000000E+00  0.00000000000E+00  0.10678367709E+04  0.10678367709E+04  0.00000000000E+00 0.  1.
         21   -1    0    0  503  502  0.00000000000E+00 -0.00000000000E+00 -0.74897948308E+02  0.74897948308E+02  0.00000000000E+00 0.  1.
         21    1    1    2  503  501  0.14091124472E+03  0.75009862020E+02  0.22295124026E+03  0.27420742846E+03  0.00000000000E+00 0.  1.
         21    1    1    2  504  505 -0.29527583606E+01 -0.87007875392E+02  0.26521622840E+03  0.27913927880E+03  0.00000000000E+00 0.  1.
         21    1    1    2  505  502 -0.53045908065E+02  0.28668534615E+01 -0.20705980931E+02  0.57016005275E+02  0.00000000000E+00 0.  1.
          1    1    1    2  501    0 -0.84912578297E+02  0.91311599107E+01  0.52547733490E+03  0.53237200671E+03  0.00000000000E+00 0.  1.
<scales pt_clust_3="115.06181" pt_clust_4="87.45597" pt_clust_5="53.12332" pt_clust_6="14000.00000"></scales>
<clustering>
<clus scale="   53.123">  2  5  1 -1</clus>
<clus scale="   87.456">  1  4  2 -1</clus>
<clus scale="  115.062">  2  3  1 -1</clus>
<clus scale="   53.123">  2  3  1 -1</clus>
</clustering>
</event>
<event>
 6    0  0.2839294E+002  0.1175765E+03  0.7546771E-02  0.1247149E+00
         21   -1    0    0  505  502  0.00000000000E+00  0.00000000000E+00  0.27169160464E+02  0.27169160464E+02  0.00000000000E+00 0.  1.
          2   -1    0    0  504    0 -0.00000000000E+00 -0.00000000000E+00 -0.33975360113E+04  0.33975360113E+04  0.00000000000E+00 0.  1.
         21    1    1    2  503  501 -0.98220879426E+02 -0.57102293012E+02 -0.43212905647E+03  0.44681487718E+03  0.00000000000E+00 0.  1.
         21    1    1    2  504  502  0.90298315621E+02  0.13742608876E+03 -0.17030749010E+04  0.17109949836E+04  0.00000000000E+00 0.  1.
         21    1    1    2  505  503  0.26199341439E+02 -0.18401047300E+02 -0.20370534880E+01  0.32080424257E+02  0.00000000000E+00 0.  1.
          2    1    1    2  501    0 -0.18276777634E+02 -0.61922748443E+02 -0.12331258400E+04  0.12348148868E+04  0.00000000000E+00 0.  1.
<scales pt_clust_3="117.57654" pt_clust_4="14000.00000" pt_clust_5="32.01568" pt_clust_6="65.30908"></scales>
<clustering>
<clus scale="   32.016">  1  5  2 -1</clus>
<clus scale="   65.309">  2  6  1 -1</clus>
<clus scale="  117.577">  1  3  2 -1</clus>
<clus scale="   32.016">  1  3  2 -1</clus>
</clustering>
</event>
<event>
 6    0  0.2839294E+002  0.1428196E+03  0.7546771E-02  0.1209585E+00
         21   -1    0    0  504  502  0.00000000000E+00  0.00000000000E+00  0.21245385458E+03  0.21245385458E+03  0.00000000000E+00 0.  1.
         -1   -1    0    0    0  501 -0.00000000000E+00 -0.00000000000E+00 -0.46516228411E+03  0.46516228411E+03  0.00000000000E+00 0. -1.
         21    1    1    2  503  501 -0.10153611039E+03  0.11187604205E+03  0.12818533739E+03  0.19813457856E+03  0.00000000000E+00 0.  1.
         21    1    1    2  504  503 -0.32691162026E+02 -0.14635881004E+02  0.12528274296E+02  0.37945734203E+02  0.00000000000E+00 0.  1.
         21    1    1    2  505  502  0.30802831615E+02  0.36141081562E+00 -0.96771893875E+01  0.32289209463E+02  0.00000000000E+00 0.  1.
         -1    1    1    2    0  505  0.10342444080E+03 -0.97601571857E+02 -0.38374485183E+03  0.40924661647E+03  0.00000000000E+00 0. -1.
<scales pt_clust_3="142.81958" pt_clust_4="32.30867" pt_clust_5="30.80495" pt_clust_6="14000.00000"></scales>
<clustering>
<clus scale="   30.805">  1  5  2 -1</clus>
<clus scale="   32.309">  1  4  2 -1</clus>
<clus scale="  142.820">  1  3  2 -1</clus>
<clus scale="   30.805">  1  3  2 -1</clus>
</clustering>
</event>
<event>
 6    0  0.2839294E+002  0.8017893E+02  0.7546771E-02  0.1328544E+00
          2   -1    0    0  505    0 -0.00000000000E+00  0.00000000000E+00  0.14901116163E+03  0.14901116163E+03  0.00000000000E+00 0.  1.
         21   -1    0    0  504  502  0.00000000000E+00 -0.00000000000E+00 -0.10155642696E+04  0.10155642696E+04  0.00000000000E+00 0. -1.
         21    1    1    2  503  502  0.81408398110E+02  0.52203283473E+02 -0.47803114259E+03  0.48771537127E+03  0.00000000000E+00 0. -1.
         21    1    1    2  504  501 -0.28324540542E+02 -0.70972262277E+02 -0.48801209368E+03  0.49395864724E+03  0.00000000000E+00 0. -1.
         21    1    1    2  505  503 -0.26159446472E+02 -0.40871347187E+02 -0.15205172734E+02  0.50852541121E+02  0.00000000000E+00 0. -1.
          2    1    1    2  501    0 -0.26924411096E+02  0.59640325992E+02  0.11469530106E+03  0.13204887157E+03  0.00000000000E+00 0.  1.
<scales pt_clust_3="14000.00000" pt_clust_4="80.17893" pt_clust_5="48.52611" pt_clust_6="55.71780"></scales>
<clustering>
<clus scale="   48.526">  1  5  2 -1</clus>
<clus scale="   55.718">  1  6  2 -1</clus>
<clus scale="   80.179">  2  4  1 -1</clus>
<clus scale="   80.179">  2  3  1 -1</clus>
</clustering>
</event>
<event>
 6    0  0.2839294E+002  0.1107650E+03  0.7546771E-02  0.1259160E+00
          1   -1    0    0  502    0 -0.00000000000E+00  0.00000000000E+00  0.11670072141E+04  0.11670072141E+04  0.00000000000E+00 0.  1.
         21   -1    0    0  505  502  0.00000000000E+00 -0.00000000000E+00 -0.86002622679E+02  0.86002622679E+02  0.00000000000E+00 0.  1.
         21    1    1    2  503  501 -0.93335205650E+02  0.15343253901E+03  0.18280243016E+03  0.25626106437E+03  0.00000000000E+00 0.  1.
         21    1    1    2  504  503 -0.26932352890E+01 -0.88776363508E+02  0.12679511416E+03  0.15480793652E+03  0.00000000000E+00 0. -1.
         21    1    1    2  505  504  0.31088371387E+02  0.17165665347E+02 -0.21941808588E+02  0.41744339333E+02  0.00000000000E+00 0.  1.
          1    1    1    2  501    0  0.64940069552E+02 -0.81821840851E+02  0.79334885565E+03  0.80019649651E+03  0.00000000000E+00 0.  1.
<scales pt_clust_3="110.76498" pt_clust_4="84.50639" pt_clust_5="35.51263" pt_clust_6="14000.00000"></scales>
<clustering>
<clus scale="   35.513">  2  5  1 -1</clus>
<clus scale="   84.506">  2  4  1 -1</clus>
<clus scale="  110.765">  2  3  1 -1</clus>
<clus scale="   35.513">  2  3  1 -1</clus>
</clustering>
</event>
<event>
 6    0  0.2839294E+002  0.1626285E+03  0.7546771E-02  0.1185761E+00
         21   -1    0    0  504  502  0.00000000000E+00  0.00000000000E+00  0.21248577273E+03  0.21248577273E+03  0.00000000000E+00 0. -1.
         -1   -1    0    0    0  501 -0.00000000000E+00 -0.00000000000E+00 -0.70591175805E+03  0.70591175805E+03  0.00000000000E+00 0. -1.
         21    1    1    2  503  505 -0.39954144744E+02 -0.23380670905E+02 -0.25229342154E+03  0.25650528261E+03  0.00000000000E+00 0. -1.
         21    1    1    2  504  501  0.22089562031E+03  0.25317726564E+02 -0.39894603365E+02  0.22589254465E+03  0.00000000000E+00 0. -1.
         21    1    1    2  505  502 -0.78798321821E+02 -0.11235611842E+02  0.94164620680E+02  0.12329797356E+03  0.00000000000E+00 0. -1.
         -1    1    1    2    0  503 -0.10214315375E+03  0.92985561830E+01 -0.29540258109E+03  0.31270172996E+03  0.00000000000E+00 0. -1.
<scales pt_clust_3="40.50906" pt_clust_4="151.03731" pt_clust_5="79.59532" pt_clust_6="40.50906"></scales>
<clustering>
<clus scale="   40.509">  3  6 -1 -1</clus>
<clus scale="   79.595">  1  5  2 -1</clus>
<clus scale="  151.037">  1  4  2 -1</clus>
<clus scale="   79.595">  1  3  2 -1</clus>
</clustering>
</event>
<event>
 6    0  0.2839294E+002  0.1257104E+03  0.7546771E-02  0.1233963E+00
          2   -1    0    0  503    0 -0.00000000000E+00  0.00000000000E+00  0.22269171452E+04  0.22269171452E+04  0.00000000000E+00 0.  1.
         21   -1    0    0  505  502  0.00000000000E+00 -0.00000000000E+00 -0.45101668076E+03  0.45101668076E+03  0.00000000000E+00 0. -1.
         21    1    1    2  503  504 -0.30019138273E+02  0.20422803975E+02  0.12723557433E+03  0.13231451530E+03  0.00000000000E+00 0.  1.
         21    1    1    2  504  502  0.21281891212E+02  0.36607598582E+02 -0.43891579026E+03  0.44095363260E+03  0.00000000000E+00 0. -1.
         21    1    1    2  505  501  0.12266342640E+03 -0.41053686829E+02  0.66648512805E+03  0.67892131156E+03  0.00000000000E+00 0. -1.
          2    1    1    2  501    0 -0.11392617934E+03 -0.15976715728E+02  0.14210955523E+04  0.14257443665E+04  0.00000000000E+00 0.  1.
<scales pt_clust_3="36.30757" pt_clust_4="42.34550" pt_clust_5="14000.00000" pt_clust_6="125.71044"></scales>
<clustering>
<clus scale="   36.308">  1  3  2 -1</clus>
<clus scale="   42.345">  2  4  1 -1</clus>
<clus scale="  125.710">  1  6  2 -1</clus>
<clus scale="   42.345">  2  3  1 -1</clus>
</clustering>
</event>
<event>
 6    0  0.2839294E+002  0.1234675E+03  0.7546771E-02  0.1237484E+00
         21   -1    0    0  504  502  0.00000000000E+00  0.00000000000E+00  0.17011366670E+03  0.17011366670E+03  0.00000000000E+00 0.  1.
          2   -1    0    0  503    0 -0.00000000000E+00 -0.00000000000E+00 -0.22471089018E+03  0.22471089018E+03  0.00000000000E+00 0.  1.
         21    1    1    2  503  502 -0.23355667266E+02 -0.66428415479E+02  0.20792143103E+01  0.70445331347E+02  0.00000000000E+00 0.  1.
         21    1    1    2  504  505  0.55075815600E+02 -0.49306100531E+02  0.96541157912E+02  0.12159207287E+03  0.00000000000E+00 0.  1.
         21    1    1    2  505  501 -0.18112723295E+02  0.46129761329E+02 -0.23279282041E+02  0.54753544157E+02  0.00000000000E+00 0.  1.
          2    1    1    2  501    0 -0.13607425039E+02  0.69604754682E+02 -0.12993831366E+03  0.14803360851E+03  0.00000000000E+00 0.  1.
<scales pt_clust_3="70.41464" pt_clust_4="109.53477" pt_clust_5="47.62822" pt_clust_6="47.62822"></scales>
<clustering>
<clus scale="   47.628">  5  6 -1 -1</clus>
<clus scale="   70.415">  1  3  2 -1</clus>
<clus scale="  109.535">  1  4  2 -1</clus>
<clus scale="   70.415">  1  3  2 -1</clus>
</clustering>
</event>
<event>
 6    0  0.2839294E+002  0.1244801E+03  0.7546771E-02  0.1235884E+00
          2   -1    0    0  504    0 -0.00000000000E+00  0.00000000000E+00  0.15051139991E+04  0.15051139991E+04  0.00000000000E+00 0.  1.
         21   -1    0    0  505  502  0.00000000000E+00 -0.00000000000E+00 -0.29063494424E+03  0.29063494424E+03  0.00000000000E+00 0.  1.
         21    1    1    2  503  502  0.47484276595E+02 -0.13112822014E+03 -0.12497461121E+03  0.18726457243E+03  0.00000000000E+00 0.  1.
         21    1    1    2  504  503  0.31655418877E+02  0.87716448696E+01  0.47310890021E+02  0.57596246515E+02  0.00000000000E+00 0.  1.
         21    1    1    2  505  501 -0.56417985877E+02  0.98325748684E+02 -0.10430606903E+03  0.15404771346E+03  0.00000000000E+00 0.  1.
          2    1    1    2  501    0 -0.22721709596E+02  0.24030826589E+02  0.13964488451E+04  0.13968404109E+04  0.00000000000E+00 0.  1.
<scales pt_clust_3="124.48008" pt_clust_4="32.84825" pt_clust_5="14000.00000" pt_clust_6="33.36791"></scales>
<clustering>
<clus scale="   32.848">  1  4  2 -1</clus>
<clus scale="   33.368">  1  6  2 -1</clus>
<clus scale="  124.480">  1  3  2 -1</clus>
<clus scale="  124.480">  2  3  1 -1</clus>
</clustering>
</event>
<event>
 6    0  0.2839294E+002  0.8395468E+02  0.7546771E-02  0.1318189E+00
          1   -1    0    0  504    0 -0.00000000000E+00  0.00000000000E+00  0.10572030826E+04  0.10572030826E+04  0.00000000000E+00 0. -1.
         21   -1    0    0  503  502  0.00000000000E+00 -0.00000000000E+00 -0.96081513307E+02  0.96081513307E+02  0.00000000000E+00 0.  1.
         21    1    1    2  503  501 -0.83118296173E+02 -0.65084924932E+00 -0.60827214262E+02  0.10300012019E+03  0.00000000000E+00 0.  1.
         21    1    1    2  504  505 -0.27885919808E+02  0.26657003277E+02  0.59951819391E+02  0.71291240665E+02  0.00000000000E+00 0.  1.
         21    1    1    2  505  502 -0.77445640499E+01 -0.38777595594E+02  0.83217193887E+02  0.92134583902E+02  0.00000000000E+00 0. -1.
          1    1    1    2  501    0  0.11874878003E+03  0.12771441566E+02  0.87877977028E+03  0.88685865116E+03  0.00000000000E+00 0. -1.
<scales pt_clust_3="83.95468" pt_clust_4="38.57746" pt_clust_5="37.82469" pt_clust_6="14000.00000"></scales>
<clustering>
<clus scale="   38.577">  1  4  2 -1</clus>
<clus scale="   37.825">  1  5  2 -1</clus>
<clus scale="   83.955">  2  3  1 -1</clus>
<clus scale="   83.955">  2  3  1 -1</clus>
</clustering>
</event>
<event>
 6    0  0.2839294E+002  0.9108486E+02  0.7546771E-02  0.1300246E+00
         21   -1    0    0  503  502  0.00000000000E+00  0.00000000000E+00  0.40314256442E+03  0.40314256442E+03  0.00000000000E+00 0. -1.
          2   -1    0    0  504    0 -0.00000000000E+00 -0.00000000000E+00 -0.22906645068E+04  0.22906645068E+04  0.00000000000E+00 0.  1.
         21    1    1    2  503  501 -0.44467477744E+02 -0.72328349138E+02 -0.26916585167E+03  0.28223926440E+03  0.00000000000E+00 0.  1.
         21    1    1    2  504  505  0.67245593912E+02  0.24759680457E+02 -0.58993624560E+02  0.92818421747E+02  0.00000000000E+00 0. -1.
         21    1    1    2  505  502  0.41029701731E+02 -0.23436614347E+02  0.37704297196E+03  0.37999225521E+03  0.00000000000E+00 0. -1.
          2    1    1    2  501    0 -0.63807817899E+02  0.71005283028E+02 -0.19364054381E+04  0.19387571299E+04  0.00000000000E+00 0.  1.
<scales pt_clust_3="85.42481" pt_clust_4="14000.00000" pt_clust_5="47.25157" pt_clust_6="91.08486"></scales>
<clustering>
<clus scale="   47.252">  1  5  2 -1</clus>
<clus scale="   85.425">  1  3  2 -1</clus>
<clus scale="   91.085">  2  6  1 -1</clus>
<clus scale="   47.252">  1  3  2 -1</clus>
</clustering>
</event>
<event>
 6    0  0.2839294E+002  0.8717948E+02  0.7546771E-02  0.1309829E+00
         21   -1    0    0  504  502  0.00000000000E+00  0.00000000000E+00  0.59090643035E+02  0.59090643035E+02  0.00000000000E+00 0.  1.
          2   -1    0    0  503    0 -0.00000000000E+00 -0.00000000000E+00 -0.13227305786E+04  0.13227305786E+04  0.00000000000E+00 0.  1.
         21    1    1    2  503  505  0.11391581549E+02 -0.29871445741E+02 -0.16904603280E+03  0.17204253139E+03  0.00000000000E+00 0.  1.
         21    1    1    2  504  501 -0.96019342383E+02  0.15292489135E+02 -0.30578187754E+02  0.10192448137E+03  0.00000000000E+00 0.  1.
         21    1    1    2  505  502  0.56036344991E+02  0.68416463662E+02 -0.72195579536E+02  0.11416254274E+03  0.00000000000E+00 0.  1.
          2    1    1    2  501    0  0.28591415843E+02 -0.53837507056E+02 -0.99182013548E+03  0.99369166614E+03  0.00000000000E+00 0.  1.
<scales pt_clust_3="31.96985" pt_clust_4="14000.00000" pt_clust_5="87.17948" pt_clust_6="85.59097"></scales>
<clustering>
<clus scale="   31.970">  2  3  1 -1</clus>
<clus scale="   87.179">  1  5  2 -1</clus>
<clus scale="   85.591">  2  6  1 -1</clus>
<clus scale="   87.179">  1  3  2 -1</clus>
</clustering>
</event>
<event>
 6    0  0.2839294E+002  0.1504326E+03  0.7546771E-02  0.1199942E+00
          2   -1    0    0  504    0 -0.00000000000E+00  0.00000000000E+00  0.27602379927E+04  0.27602379927E+04  0.00000000000E+00 0. -1.
         21   -1    0    0  505  502  0.00000000000E+00 -0.00000000000E+00 -0.24873020000E+02  0.24873020000E+02  0.00000000000E+00 0. -1.
         21    1    1    2  503  502  0.28196257350E+02  0.60820739337E+02  0.57603098660E+02  0.88387262868E+02  0.00000000000E+00 0. -1.
         21    1    1    2  504  503 -0.20443900691E+02  0.96608864121E+02  0.37538808837E+03  0.38815904291E+03  0.00000000000E+00 0.  1.
         21    1    1    2  505  501  0.22132759665E+02 -0.26179699153E+02  0.44220045567E+03  0.44352731448E+03  0.00000000000E+00 0. -1.
          2    1    1    2  501    0 -0.29885116323E+02 -0.13124990431E+03  0.18601733300E+04  0.18650373925E+04  0.00000000000E+00 0. -1.
<scales pt_clust_3="67.03873" pt_clust_4="137.57973" pt_clust_5="30.70428" pt_clust_6="30.70428"></scales>
<clustering>
<clus scale="   30.704">  5  6 -1 -1</clus>
<clus scale="   67.039">  2  3  1 -1</clus>
<clus scale="  137.580">  2  4  1 -1</clus>
<clus scale="   67.039">  2  3  1 -1</clus>
</clustering>
</event>
<event>
 6    0  0.2839294E+002  0.8790374E+02  0.7546771E-02  0.1308009E+00
         21   -1    0    0  501  502  0.00000000000E+00  0.00000000000E+00  0.21167717888E+02  0.21167717888E+02  0.00000000000E+00 0. -1.
          1   -1    0    0  504    0 -0.00000000000E+00 -0.00000000000E+00 -0.86735016680E+03  0.86735016680E+03  0.00000000000E+00 0. -1.
         21    1    1    2  503  502 -0.56609930339E+02  0.40562462038E+02 -0.14073140015E+03  0.15702014052E+03  0.00000000000E+00 0. -1.
         21    1    1    2  504  505 -0.13183496215E+02 -0.43843082745E+02 -0.97014106365E+02  0.10727421550E+03  0.00000000000E+00 0. -1.
         21    1    1    2  505  503  0.19408006312E+02 -0.55727712108E+02 -0.20185557279E+03  0.21030435295E+03  0.00000000000E+00 0. -1.
          1    1    1    2  501    0  0.50385420241E+02  0.59008332815E+02 -0.40658136961E+03  0.41391917572E+03  0.00000000000E+00 0. -1.
<scales pt_clust_3="69.64192" pt_clust_4="35.01136" pt_clust_5="35.01136" pt_clust_6="78.40340"></scales>
<clustering>
<clus scale="   35.011">  4  5 -1 -1</clus>
<clus scale="   69.642">  1  3  2 -1</clus>
<clus scale="   78.403">  2  6  1 -1</clus>
<clus scale="   69.642">  1  3  2 -1</clus>
</clustering>
</event>
<event>
 6    0  0.5020344E+002  0.8018065E+02  0.7546771E-02  0.1328540E+00
         21   -1    0    0  505  502  0.00000000000E+00  0.00000000000E+00  0.12939144859E+04  0.12939144859E+04  0.00000000000E+00 0.  1.
          2   -1    0    0  502    0 -0.00000000000E+00 -0.00000000000E+00 -0.97567855972E+03  0.97567855972E+03  0.00000000000E+00 0.  1.
         21    1    1    2  503  501  0.37623245860E+01  0.46028429481E+02 -0.45421465300E+02  0.64775619771E+02  0.00000000000E+00 0. -1.
         21    1    1    2  504  503 -0.39041624346E+02 -0.83629736556E+02 -0.12625790356E+02  0.93153592793E+02  0.00000000000E+00 0.  1.
         21    1    1    2  505  504  0.69291072652E+02  0.40531406405E+02  0.12423418295E+04  0.12449326363E+04  0.00000000000E+00 0.  1.
          2    1    1    2  501    0 -0.34011772893E+02 -0.29300993289E+01 -0.86605864767E+03  0.86673119673E+03  0.00000000000E+00 0.  1.
<scales pt_clust_3="46.51861" pt_clust_4="14000.00000" pt_clust_5="80.18065" pt_clust_6="34.13775"></scales>
<clustering>
<clus scale="   34.138">  2  6  1 -1</clus>
<clus scale="   46.519">  2  3  1 -1</clus>
<clus scale="   80.181">  1  5  2 -1</clus>
<clus scale="   80.181">  1  3  2 -1</clus>
</clustering>
</event>
<event>
 6    0  0.2839294E+002  0.1351662E+03  0.7546771E-02  0.1219985E+00
         21   -1    0    0  503  502  0.00000000000E+00  0.00000000000E+00  0.21878700562E+03  0.21878700562E+03  0.00000000000E+00 0.  1.
          1   -1    0    0  505    0 -0.00000000000E+00 -0.00000000000E+00 -0.63150546229E+03  0.63150546229E+03  0.00000000000E+00 0. -1.
         21    1    1    2  503  501 -0.23684568005E+02 -0.66313179891E+02  0.13025819404E+03  0.14807293373E+03  0.00000000000E+00 0.  1.
         21    1    1    2  504  502 -0.23452513880E+02  0.21556193837E+02  0.27527079833E+02  0.42100237816E+02  0.00000000000E+00 0.  1.
         21    1    1    2  505  504 -0.14150482863E+02 -0.90374483555E+02 -0.25049627333E+02  0.94843382862E+02  0.00000000000E+00 0. -1.
          1    1    1    2  501    0  0.61287564749E+02  0.13513146961E+03 -0.54545410322E+03  0.56527591350E+03  0.00000000000E+00 0. -1.
<scales pt_clust_3="64.93651" pt_clust_4="31.85420" pt_clust_5="135.16616" pt_clust_6="14000.00000"></scales>
<clustering>
<clus scale="   31.854">  1  4  2 -1</clus>
<clus scale="   64.937">  1  3  2 -1</clus>
<clus scale="  135.166">  1  5  2 -1</clus>
<clus scale="   31.854">  1  3  2 -1</clus>
</clustering>
</event>
<event>
 6    0  0.2839294E+002  0.1282788E+03  0.7546771E-02  0.1230032E+00
          2   -1    0    0  504    0 -0.00000000000E+00  0.00000000000E+00  0.11595734191E+04  0.11595734191E+04  0.00000000000E+00 0.  1.
         21   -1    0    0  505  502  0.00000000000E+00 -0.00000000000E+00 -0.14701690806E+04  0.14701690806E+04  0.00000000000E+00 0. -1.
         21    1    1    2  503  502 -0.82713597929E+01  0.49462249677E+02 -0.57420457849E+02  0.76236726815E+02  0.00000000000E+00 0. -1.
         21    1    1    2  504  503  0.10303652473E+03 -0.47805924530E+02  0.10615890165E+04  0.10676484308E+04  0.00000000000E+00 0.  1.
         21    1    1    2  505  501 -0.11767198178E+03 -0.23606660358E+02 -0.13947007698E+04  0.13998550664E+04  0.00000000000E+00 0. -1.
          2    1    1    2  501    0  0.22906816844E+02  0.21950335211E+02  0.79936549525E+02  0.86002275689E+02  0.00000000000E+00 0.  1.
<scales pt_clust_3="50.30577" pt_clust_4="128.27880" pt_clust_5="14000.00000" pt_clust_6="31.72601"></scales>
<clustering>
<clus scale="   31.726">  1  6  2 -1</clus>
<clus scale="   50.306">  2  3  1 -1</clus>
<clus scale="  128.279">  1  4  2 -1</clus>
<clus scale="   50.306">  2  3  1 -1</clus>
</clustering>
</event>
<event>
 6    0  0.2839294E+002  0.1177998E+03  0.7546771E-02  0.1246771E+00
          2   -1    0    0  503    0 -0.00000000000E+00  0.00000000000E+00  0.15978534061E+04  0.15978534061E+04  0.00000000000E+00 0.  1.
         21   -1    0    0  504  502  0.00000000000E+00 -0.00000000000E+00 -0.64397971098E+02  0.64397971098E+02  0.00000000000E+00 0.  1.
         21    1    1    2  503  505 -0.89678054484E+01 -0.16261628771E+03  0.99709495016E+03  0.10103082788E+04  0.00000000000E+00 0.  1.
         21    1    1    2  504  501 -0.39493168530E+01  0.87699030619E+02  0.19361915881E+03  0.21259138207E+03  0.00000000000E+00 0.  1.
         21    1    1    2  505  502  0.21780343055E+02  0.32828545737E+02 -0.38858176840E+02  0.55335835280E+02  0.00000000000E+00 0.  1.
          2    1    1    2  501    0 -0.88632207539E+01  0.42088711354E+02  0.38159950287E+03  0.38401588105E+03  0.00000000000E+00 0.  1.
<scales pt_clust_3="14000.00000" pt_clust_4="117.79977" pt_clust_5="39.39666" pt_clust_6="44.98448"></scales>
<clustering>
<clus scale="   39.397">  2  5  1 -1</clus>
<clus scale="   44.984">  1  6  2 -1</clus>
<clus scale="  117.800">  2  4  1 -1</clus>
<clus scale="   39.397">  2  3  1 -1</clus>
</clustering>
</event>
<event>
 6    0  0.2839294E+002  0.1348027E+03  0.7546771E-02  0.1220498E+00
          2   -1    0    0  505    0 -0.00000000000E+00  0.00000000000E+00  0.18935061259E+04  0.18935061259E+04  0.00000000000E+00 0. -1.
         21   -1    0    0  503  502  0.00000000000E+00 -0.00000000000E+00 -0.38463957355E+02  0.38463957355E+02  0.00000000000E+00 0. -1.
         21    1    1    2  503  501 -0.61841376955E+02 -0.15981734388E+03  0.21124249151E+03  0.27200979676E+03  0.00000000000E+00 0. -1.
         21    1    1    2  504  502 -0.17561767922E+02  0.61964594568E+02  0.53751255935E+03  0.54135734790E+03  0.00000000000E+00 0. -1.
         21    1    1    2  505  504  0.50296299838E+02  0.49356240547E+02  0.23146125540E+03  0.24195055076E+03  0.00000000000E+00 0. -1.
          2    1    1    2  501    0  0.29106845040E+02  0.48496508769E+02  0.87482586232E+03  0.87665238788E+03  0.00000000000E+00 0. -1.
<scales pt_clust_3="134.80273" pt_clust_4="14000.00000" pt_clust_5="83.26547" pt_clust_6="56.56076"></scales>
<clustering>
<clus scale="   56.561">  1  6  2 -1</clus>
<clus scale="   83.265">  1  5  2 -1</clus>
<clus scale="  134.803">  2  3  1 -1</clus>
<clus scale="  134.803">  2  3  1 -1</clus>
</clustering>
</event>
<event>
 6    0  0.2839294E+002  0.3442315E+03  0.7546771E-02  0.1065008E+00
          2   -1    0    0  503    0 -0.00000000000E+00  0.00000000000E+00  0.52479434453E+03  0.52479434453E+03  0.00000000000E+00 0. -1.
         21   -1    0    0  505  502  0.00000000000E+00 -0.00000000000E+00 -0.53232051149E+03  0.53232051149E+03  0.00000000000E+00 0.  1.
         21    1    1    2  503  502  0.19135808515E+03  0.31965646005E+03 -0.18955539921E+03  0.41800648149E+03  0.00000000000E+00 0.  1.
         21    1    1    2  504  501 -0.24934754706E+02 -0.47192838008E+02  0.14009450942E+02  0.55183065039E+02  0.00000000000E+00 0. -1.
         21    1    1    2  505  504 -0.18827798466E+02 -0.47961272593E+02 -0.15525267777E+03  0.16357922735E+03  0.00000000000E+00 0.  1.
          2    1    1    2  501    0 -0.14759553198E+03 -0.22450234945E+03  0.32327245908E+03  0.42034608214E+03  0.00000000000E+00 0. -1.
<scales pt_clust_3="331.22711" pt_clust_4="41.77347" pt_clust_5="51.52446" pt_clust_6="41.77347"></scales>
<clustering>
<clus scale="   41.773">  4  6 -1 -1</clus>
<clus scale="   51.524">  2  5  1 -1</clus>
<clus scale="  331.227">  2  3  1 -1</clus>
<clus scale="   51.524">  2  3  1 -1</clus>
</clustering>
</event>
<event>
 6    0  0.2839294E+002  0.1100553E+03  0.7546771E-02  0.1260468E+00
         21   -1    0    0  503  502  0.00000000000E+00  0.00000000000E+00  0.37970552290E+02  0.37970552290E+02  0.00000000000E+00 0. -1.
          1   -1    0    0  505    0 -0.00000000000E+00 -0.00000000000E+00 -0.35238272436E+04  0.35238272436E+04  0.00000000000E+00 0. -1.
         21    1    1    2  503  501 -0.32823641901E+02  0.33805043461E+02 -0.96644136054E+03  0.96758931154E+03  0.00000000000E+00 0. -1.
         21    1    1    2  504  502 -0.10470545255E+02  0.35799562295E+02 -0.64476263481E+02  0.74487781085E+02  0.00000000000E+00 0. -1.
         21    1    1    2  505  504  0.84458432755E+02 -0.10663039432E+03 -0.11220564418E+03  0.17633313484E+03  0.00000000000E+00 0. -1.
          1    1    1    2  501    0 -0.41164245599E+02  0.37025788567E+02 -0.23427334231E+04  0.23433875684E+04  0.00000000000E+00 0. -1.
<scales pt_clust_3="34.99416" pt_clust_4="37.29934" pt_clust_5="103.31130" pt_clust_6="34.99416"></scales>
<clustering>
<clus scale="   34.994">  3  6 -1 -1</clus>
<clus scale="   37.299">  1  4  2 -1</clus>
<clus scale="  103.311">  1  5  2 -1</clus>
<clus scale="   37.299">  1  3  2 -1</clus>
</clustering>
</event>
<event>
 6    0  0.2839294E+002  0.8243516E+02  0.7546771E-02  0.1322279E+00
         21   -1    0    0  501  502  0.00000000000E+00  0.00000000000E+00  0.28586405550E+03  0.28586405550E+03  0.00000000000E+00 0.  1.
          1   -1    0    0  505    0 -0.00000000000E+00 -0.00000000000E+00 -0.72399653431E+03  0.72399653431E+03  0.00000000000E+00 0.  1.
         21    1    1    2  503  502  0.11572328435E+02  0.78372988011E+02  0.21375204776E+03  0.22796092199E+03  0.00000000000E+00 0.  1.
         21    1    1    2  504  503 -0.82204895063E+02 -0.10000916414E+03 -0.76300218609E+01  0.12968305563E+03  0.00000000000E+00 0. -1.
         21    1    1    2  505  504  0.31938312928E+02  0.34607989270E+01 -0.78081918355E+02  0.84432333474E+02  0.00000000000E+00 0. -1.
          1    1    1    2  501    0  0.38694253700E+02  0.18175377206E+02 -0.56617258635E+03  0.56778427870E+03  0.00000000000E+00 0.  1.
<scales pt_clust_3="82.43516" pt_clust_4="14000.00000" pt_clust_5="32.12527" pt_clust_6="70.15667"></scales>
<clustering>
<clus scale="   32.125">  2  5  1 -1</clus>
<clus scale="   70.157">  2  6  1 -1</clus>
<clus scale="   82.435">  1  3  2 -1</clus>
<clus scale="   82.435">  1  3  2 -1</clus>
</clustering>
</event>
<event>
 6    0  0.2839294E+002  0.9411308E+02  0.7546771E-02  0.1293186E+00
          4   -1    0    0  505    0 -0.00000000000E+00  0.00000000000E+00  0.86360215023E+03  0.86360215023E+03  0.00000000000E+00 0.  1.
         21   -1    0    0  503  502  0.00000000000E+00 -0.00000000000E+00 -0.24386961252E+03  0.24386961252E+03  0.00000000000E+00 0.  1.
         21    1    1    2  503  501 -0.30059669363E+02 -0.74456657383E+02 -0.77645187869E+02  0.11169669982E+03  0.00000000000E+00 0.  1.
         21    1    1    2  504  502  0.12005515945E+03  0.50604942341E+02 -0.11323084295E+03  0.17261322457E+03  0.00000000000E+00 0.  1.
         21    1    1    2  505  504  0.16042367453E+02  0.27683777738E+02  0.10982720358E+03  0.11439302317E+03  0.00000000000E+00 0. -1.
          4    1    1    2  501    0 -0.10603785754E+03 -0.38320626961E+01  0.70078136495E+03  0.70876881520E+03  0.00000000000E+00 0.  1.
<scales pt_clust_3="79.57797" pt_clust_4="14000.00000" pt_clust_5="31.99608" pt_clust_6="94.11308"></scales>
<clustering>
<clus scale="   31.996">  1  5  2 -1</clus>
<clus scale="   79.578">  2  3  1 -1</clus>
<clus scale="   94.113">  1  6  2 -1</clus>
<clus scale="   79.578">  2  3  1 -1</clus>
</clustering>
</event>
<event>
 6    0  0.2839294E+002  0.7692611E+02  0.7546771E-02  0.1338008E+00
          3   -1    0    0  503    0 -0.00000000000E+00  0.00000000000E+00  0.27671782710E+04  0.27671782710E+04  0.00000000000E+00 0.  1.
         21   -1    0    0  505  502  0.00000000000E+00 -0.00000000000E+00 -0.37312724386E+03  0.37312724386E+03  0.00000000000E+00 0.  1.
         21    1    1    2  503  504 -0.33379971735E+02  0.22513847402E+02  0.21006305824E+04  0.21010164063E+04  0.00000000000E+00 0. -1.
         21    1    1    2  504  502  0.11190770487E+03 -0.96790432038E+02 -0.32575563514E+03  0.35778269378E+03  0.00000000000E+00 0.  1.
         21    1    1    2  505  501 -0.46772535800E+02  0.54527820528E+02  0.11587675681E+02  0.72768314151E+02  0.00000000000E+00 0.  1.
          3    1    1    2  501    0 -0.31755197338E+02  0.19748764109E+02  0.60758840421E+03  0.60873810064E+03  0.00000000000E+00 0.  1.
<scales pt_clust_3="76.92611" pt_clust_4="14000.00000" pt_clust_5="72.53684" pt_clust_6="37.39527"></scales>
<clustering>
<clus scale="   37.395">  1  6  2 -1</clus>
<clus scale="   72.537">  2  5  1 -1</clus>
<clus scale="   76.926">  1  3  2 -1</clus>
<clus scale="   72.537">  2  3  1 -1</clus>
</clustering>
</event>
<event>
 6    0  0.2839294E+002  0.2819647E+03  0.7546771E-02  0.1094621E+00
          2   -1    0    0  503    0 -0.00000000000E+00  0.00000000000E+00  0.45272862066E+03  0.45272862066E+03  0.00000000000E+00 0. -1.
         21   -1    0    0  505  502  0.00000000000E+00 -0.00000000000E+00 -0.30479637038E+03  0.30479637038E+03  0.00000000000E+00 0. -1.
         21    1    1    2  503  504 -0.22563137044E+03 -0.20015730769E+03  0.14758404004E+03  0.33578789737E+03  0.00000000000E+00 0. -1.
         21    1    1    2  504  502 -0.15275512179E+02  0.78327811185E+02 -0.28586359488E+02  0.84768904831E+02  0.00000000000E+00 0. -1.
         21    1    1    2  505  501  0.20408252202E+02 -0.22059127026E+02 -0.53251173364E+02  0.61145640137E+02  0.00000000000E+00 0. -1.
          2    1    1    2  501    0  0.22049863042E+03  0.14388862353E+03  0.82185743097E+02  0.27582254869E+03  0.00000000000E+00 0. -1.
<scales pt_clust_3="281.96466" pt_clust_4="74.04151" pt_clust_5="30.05165" pt_clust_6="14000.00000"></scales>
<clustering>
<clus scale="   30.052">  2  5  1 -1</clus>
<clus scale="   74.042">  2  4  1 -1</clus>
<clus scale="  281.965">  1  3  2 -1</clus>
<clus scale="   30.052">  2  3  1 -1</clus>
</clustering>
</event>
<event>
 6    0  0.2839294E+002  0.2327763E+03  0.7546771E-02  0.1124701E+00
         21   -1    0    0  505  502  0.00000000000E+00  0.00000000000E+00  0.68407202469E+03  0.68407202469E+03  0.00000000000E+00 0.  1.
          1   -1    0    0  504    0 -0.00000000000E+00 -0.00000000000E+00 -0.14301679197E+04  0.14301679197E+04  0.00000000000E+00 0.  1.
         21    1    1    2  503  502  0.38783981348E+02 -0.79282019131E+02  0.15940290577E+03  0.18220626261E+03  0.00000000000E+00 0.  1.
         21    1    1    2  504  503 -0.48145861037E+02 -0.12589580532E+03 -0.14419943219E+03  0.19738605314E+03  0.00000000000E+00 0.  1.
         21    1    1    2  505  501  0.29083511104E+02  0.32349689712E+03  0.42913001010E+03  0.53819016958E+03  0.00000000000E+00 0.  1.
          1    1    1    2  501    0 -0.19721631415E+02 -0.11831907267E+03 -0.11904293786E+04  0.11964574590E+04  0.00000000000E+00 0.  1.
<scales pt_clust_3="88.26005" pt_clust_4="14000.00000" pt_clust_5="232.77634" pt_clust_6="120.37359"></scales>
<clustering>
<clus scale="   88.260">  1  3  2 -1</clus>
<clus scale="  120.374">  2  6  1 -1</clus>
<clus scale="  232.776">  1  5  2 -1</clus>
<clus scale="   88.260">  1  3  2 -1</clus>
</clustering>
</event>
<event>
 6    0  0.2839294E+002  0.2014885E+03  0.7546771E-02  0.1148489E+00
         -1   -1    0    0    0  501 -0.00000000000E+00  0.00000000000E+00  0.30732786442E+03  0.30732786442E+03  0.00000000000E+00 0.  1.
         21   -1    0    0  503  502  0.00000000000E+00 -0.00000000000E+00 -0.46657403232E+03  0.46657403232E+03  0.00000000000E+00 0. -1.
         21    1    1    2  503  505  0.22752293353E+03  0.75023570297E+02 -0.89607010518E+02  0.25578240306E+03  0.00000000000E+00 0. -1.
         21    1    1    2  504  502 -0.19035028743E+03  0.54008323780E+01 -0.24820451056E+03  0.31283842472E+03  0.00000000000E+00 0. -1.
         21    1    1    2  505  501 -0.11688817879E+02 -0.39326585385E+02  0.35464666355E+02  0.54230538824E+02  0.00000000000E+00 0.  1.
         -1    1    1    2    0  504 -0.25483828215E+02 -0.41097817290E+02  0.14310068683E+03  0.15105053014E+03  0.00000000000E+00 0.  1.
<scales pt_clust_3="14000.00000" pt_clust_4="201.48849" pt_clust_5="41.02693" pt_clust_6="70.79550"></scales>
<clustering>
<clus scale="   41.027">  1  5  2 -1</clus>
<clus scale="   70.796">  1  6  2 -1</clus>
<clus scale="  201.488">  2  4  1 -1</clus>
<clus scale="  201.488">  2  3  1 -1</clus>
</clustering>
</event>
<event>
 6    0  0.2839294E+002  0.9565110E+02  0.7546771E-02  0.1289716E+00
         21   -1    0    0  503  502  0.00000000000E+00  0.00000000000E+00  0.39938876794E+03  0.39938876794E+03  0.00000000000E+00 0. -1.
          1   -1    0    0  505    0 -0.00000000000E+00 -0.00000000000E+00 -0.45758488075E+03  0.45758488075E+03  0.00000000000E+00 0. -1.
         21    1    1    2  503  504  0.51476160378E+02 -0.79296387403E+02  0.34112771992E+03  0.35398564016E+03  0.00000000000E+00 0. -1.
         21    1    1    2  504  501 -0.15285722019E+03  0.61420860033E+02 -0.20432093609E+03  0.26245932396E+03  0.00000000000E+00 0. -1.
         21    1    1    2  505  502  0.74961150415E+02  0.56287024275E+02 -0.12096987829E+03  0.15303958516E+03  0.00000000000E+00 0. -1.
          1    1    1    2  501    0  0.26419909396E+02 -0.38411496906E+02 -0.74033018363E+02  0.87489099406E+02  0.00000000000E+00 0. -1.
<scales pt_clust_3="14000.00000" pt_clust_4="95.65110" pt_clust_5="94.56562" pt_clust_6="46.62033"></scales>
<clustering>
<clus scale="   46.620">  2  6  1 -1</clus>
<clus scale="   94.566">  2  5  1 -1</clus>
<clus scale="   95.651">  2  4  1 -1</clus>
<clus scale="   95.651">  1  3  2 -1</clus>
</clustering>
</event>
<event>
 6    0  0.2839294E+002  0.1460222E+03  0.7546771E-02  0.1205448E+00
         21   -1    0    0  501  502  0.00000000000E+00  0.00000000000E+00  0.72150179745E+02  0.72150179745E+02  0.00000000000E+00 0.  1.
          1   -1    0    0  504    0 -0.00000000000E+00 -0.00000000000E+00 -0.11952788632E+04  0.11952788632E+04  0.00000000000E+00 0.  1.
         21    1    1    2  503  505 -0.10941139388E+03 -0.12976864138E+02 -0.24518619961E+03  0.26880387756E+03  0.00000000000E+00 0.  1.
         21    1    1    2  504  503  0.17437698217E+03  0.77722410813E+02 -0.65944964183E+03  0.68652890338E+03  0.00000000000E+00 0.  1.
         21    1    1    2  505  502 -0.54096680109E+02 -0.30130986655E+02  0.24365205779E+02  0.66543146967E+02  0.00000000000E+00 0.  1.
          1    1    1    2  501    0 -0.10868908188E+02 -0.34614560020E+02 -0.24285804782E+03  0.24555311507E+03  0.00000000000E+00 0.  1.
<scales pt_clust_3="146.02223" pt_clust_4="14000.00000" pt_clust_5="62.50842" pt_clust_6="36.28086"></scales>
<clustering>
<clus scale="   36.281">  2  6  1 -1</clus>
<clus scale="   62.508">  1  5  2 -1</clus>
<clus scale="  146.022">  1  3  2 -1</clus>
<clus scale="   62.508">  1  3  2 -1</clus>
</clustering>
</event>
<event>
 6    0  0.2839294E+002  0.7534404E+02  0.7546771E-02  0.1342809E+00
          1   -1    0    0  502    0 -0.00000000000E+00  0.00000000000E+00  0.10949512525E+04  0.10949512525E+04  0.00000000000E+00 0. -1.
         21   -1    0    0  505  502  0.00000000000E+00 -0.00000000000E+00 -0.28468620975E+02  0.28468620975E+02  0.00000000000E+00 0. -1.
         21    1    1    2  503  504 -0.71186208773E+02 -0.59062239086E+02  0.24239136933E+03  0.25944055260E+03  0.00000000000E+00 0. -1.
         21    1    1    2  504  501  0.29564327253E+02  0.65519249726E+02  0.32407433523E+03  0.33195029189E+03  0.00000000000E+00 0. -1.
         21    1    1    2  505  503 -0.77922835314E+00  0.42150266489E+02  0.18207699163E+02  0.45921372701E+02  0.00000000000E+00 0. -1.
          1    1    1    2  501    0  0.42401109873E+02 -0.48607277129E+02  0.48180922781E+03  0.48610765629E+03  0.00000000000E+00 0. -1.
<scales pt_clust_3="75.34404" pt_clust_4="14000.00000" pt_clust_5="42.15747" pt_clust_6="59.88775"></scales>
<clustering>
<clus scale="   42.157">  2  5  1 -1</clus>
<clus scale="   59.888">  1  6  2 -1</clus>
<clus scale="   75.344">  2  3  1 -1</clus>
<clus scale="   42.157">  2  3  1 -1</clus>
</clustering>
</event>
<event>
 6    0  0.2839294E+002  0.7251985E+02  0.7546771E-02  0.1351728E+00
         21   -1    0    0  505  502  0.00000000000E+00  0.00000000000E+00  0.66567654425E+02  0.66567654425E+02  0.00000000000E+00 0.  1.
          2   -1    0    0  504    0 -0.00000000000E+00 -0.00000000000E+00 -0.49294087586E+03  0.49294087586E+03  0.00000000000E+00 0.  1.
         21    1    1    2  503  502 -0.69676677364E+02  0.13424470835E+02  0.36002778276E+01  0.71049403841E+02  0.00000000000E+00 0.  1.
         21    1    1    2  504  503 -0.38270321719E+02  0.13607412844E+02 -0.99962518370E+02  0.10789941746E+03  0.00000000000E+00 0. -1.
         21    1    1    2  505  501  0.26997457332E+02  0.40168583704E+02 -0.18586877005E+02  0.51844477199E+02  0.00000000000E+00 0.  1.
          2    1    1    2  501    0  0.80949541752E+02 -0.67200467384E+02 -0.31142410388E+03  0.32871523178E+03  0.00000000000E+00 0.  1.
<scales pt_clust_3="14000.00000" pt_clust_4="40.61747" pt_clust_5="47.62138" pt_clust_6="72.51985"></scales>
<clustering>
<clus scale="   40.617">  2  4  1 -1</clus>
<clus scale="   47.621">  1  5  2 -1</clus>
<clus scale="   72.520">  2  6  1 -1</clus>
<clus scale="   47.621">  1  3  2 -1</clus>
</clustering>
</event>
<event>
 6    0  0.2839294E+002  0.1314585E+03  0.7546771E-02  0.1225307E+00
         21   -1    0    0  503  502  0.00000000000E+00  0.00000000000E+00  0.11422385934E+03  0.11422385934E+03  0.00000000000E+00 0. -1.
         -1   -1    0    0    0  501 -0.00000000000E+00 -0.00000000000E+00 -0.26608368318E+03  0.26608368318E+03  0.00000000000E+00 0. -1.
         21    1    1    2  503  501  0.11523140422E+03 -0.67474692220E+02  0.21061687755E+02  0.13518396835E+03  0.00000000000E+00 0. -1.
         21    1    1    2  504  502 -0.34047730726E+02 -0.17246683028E+02 -0.14365103997E+02  0.40780537710E+02  0.00000000000E+00 0. -1.
         21    1    1    2  505  504 -0.32426589118E+02  0.18711346872E+02 -0.89766857102E+02  0.97260921328E+02  0.00000000000E+00 0.  1.
         -1    1    1    2    0  505 -0.48757084375E+02  0.66010028376E+02 -0.68789550497E+02  0.10708211513E+03  0.00000000000E+00 0. -1.
<scales pt_clust_3="120.14115" pt_clust_4="38.16669" pt_clust_5="36.04174" pt_clust_6="36.04174"></scales>
<clustering>
<clus scale="   36.042">  5  6 -1 -1</clus>
<clus scale="   38.167">  1  4  2 -1</clus>
<clus scale="  120.141">  1  3  2 -1</clus>
<clus scale="   38.167">  1  3  2 -1</clus>
</clustering>
</event>
<event>
 6    0  0.2839294E+002  0.1321989E+03  0.7546771E-02  0.1224229E+00
          1   -1    0    0  503    0 -0.00000000000E+00  0.00000000000E+00  0.72497329906E+03  0.72497329906E+03  0.00000000000E+00 0.  1.
         21   -1    0    0  501  502  0.00000000000E+00 -0.00000000000E+00 -0.31392641455E+03  0.31392641455E+03  0.00000000000E+00 0.  1.
         21    1    1    2  503  504 -0.46886833065E+02  0.23679186905E+02  0.13987941184E+03  0.14941662847E+03  0.00000000000E+00 0.  1.
         21    1    1    2  504  505  0.17330470637E+03  0.21147867478E+02  0.54141447350E+03  0.56886851351E+03  0.00000000000E+00 0.  1.
         21    1    1    2  505  502 -0.62705175398E+02 -0.31631867403E+02 -0.23770976752E+03  0.24786780273E+03  0.00000000000E+00 0.  1.
          1    1    1    2  501    0 -0.63712697904E+02 -0.13195186980E+02 -0.32537233306E+02  0.72746768896E+02  0.00000000000E+00 0.  1.
<scales pt_clust_3="52.52694" pt_clust_4="14000.00000" pt_clust_5="132.19891" pt_clust_6="66.49862"></scales>
<clustering>
<clus scale="   52.527">  1  3  2 -1</clus>
<clus scale="   66.499">  2  6  1 -1</clus>
<clus scale="  132.199">  2  5  1 -1</clus>
<clus scale="   66.499">  2  3  1 -1</clus>
</clustering>
</event>
<event>
 6    0  0.2839294E+002  0.1317541E+03  0.7546771E-02  0.1224876E+00
          2   -1    0    0  504    0 -0.00000000000E+00  0.00000000000E+00  0.96234680113E+03  0.96234680113E+03  0.00000000000E+00 0.  1.
         21   -1    0    0  505  502  0.00000000000E+00 -0.00000000000E+00 -0.14947195328E+03  0.14947195328E+03  0.00000000000E+00 0.  1.
         21    1    1    2  503  501 -0.68592504868E+02  0.13241200440E+02  0.48976455379E+03  0.49472171902E+03  0.00000000000E+00 0.  1.
         21    1    1    2  504  502 -0.32753105806E+02 -0.84472370510E+01  0.46198398931E+01  0.34138902653E+02  0.00000000000E+00 0. -1.
         21    1    1    2  505  503  0.14822548701E+03 -0.43716614126E+02 -0.83993055702E+02  0.17588851798E+03  0.00000000000E+00 0.  1.
          2    1    1    2  501    0 -0.46879876336E+02  0.38922650737E+02  0.40248350987E+03  0.40706961476E+03  0.00000000000E+00 0.  1.
<scales pt_clust_3="30.49322" pt_clust_4="33.82487" pt_clust_5="127.64438" pt_clust_6="30.49322"></scales>
<clustering>
<clus scale="   30.493">  3  6 -1 -1</clus>
<clus scale="   33.825">  2  4  1 -1</clus>
<clus scale="  127.644">  2  5  1 -1</clus>
<clus scale="   33.825">  2  3  1 -1</clus>
</clustering>
</event>
<event>
 6    0  0.2839294E+002  0.1508842E+03  0.7546771E-02  0.1199391E+00
         21   -1    0    0  504  502  0.00000000000E+00  0.00000000000E+00  0.29747603029E+03  0.29747603029E+03  0.00000000000E+00 0. -1.
          1   -1    0    0  502    0 -0.00000000000E+00 -0.00000000000E+00 -0.14053834339E+04  0.14053834339E+04  0.00000000000E+00 0. -1.
         21    1    1    2  503  505  0.70789195282E+02 -0.11450432347E+03  0.15880157429E+03  0.20818330927E+03  0.00000000000E+00 0. -1.
         21    1    1    2  504  503  0.50894492845E+02  0.35922634305E+02  0.10097266988E+03  0.11864301547E+03  0.00000000000E+00 0. -1.
         21    1    1    2  505  501 -0.82546528415E+02  0.34893994979E+02 -0.95647770483E+03  0.96066701831E+03  0.00000000000E+00 0. -1.
          1    1    1    2  501    0 -0.39137159713E+02  0.43687694185E+02 -0.41120394292E+03  0.41536612112E+03  0.00000000000E+00 0. -1.
<scales pt_clust_3="144.33969" pt_clust_4="62.29514" pt_clust_5="35.56039" pt_clust_6="35.56039"></scales>
<clustering>
<clus scale="   35.560">  5  6 -1 -1</clus>
<clus scale="   62.295">  1  4  2 -1</clus>
<clus scale="  144.340">  1  3  2 -1</clus>
<clus scale="   62.295">  1  3  2 -1</clus>
</clustering>
</event>
<event>
 6    0  0.2839294E+002  0.9808349E+02  0.7546771E-02  0.1284379E+00
         21   -1    0    0  504  502  0.00000000000E+00  0.00000000000E+00  0.38879612690E+02  0.38879612690E+02  0.00000000000E+00 0. -1.
          2   -1    0    0  503    0 -0.00000000000E+00 -0.00000000000E+00 -0.20268906774E+04  0.20268906774E+04  0.00000000000E+00 0.  1.
         21    1    1    2  503  505 -0.33767203818E+02  0.81796674967E+01 -0.19539685876E+03  0.19846174298E+03  0.00000000000E+00 0. -1.
         21    1    1    2  504  501  0.20016242237E+02  0.89679627897E+02 -0.99895928037E+02  0.13572870754E+03  0.00000000000E+00 0. -1.
         21    1    1    2  505  502 -0.57480449408E+02 -0.93578562051E+02 -0.14341711459E+03  0.18063614837E+03  0.00000000000E+00 0. -1.
          2    1    1    2  501    0  0.71231410989E+02 -0.42807333420E+01 -0.15493011633E+04  0.15509436912E+04  0.00000000000E+00 0.  1.
<scales pt_clust_3="34.74379" pt_clust_4="98.08349" pt_clust_5="14000.00000" pt_clust_6="42.71008"></scales>
<clustering>
<clus scale="   34.744">  2  3  1 -1</clus>
<clus scale="   42.710">  2  6  1 -1</clus>
<clus scale="   98.083">  1  4  2 -1</clus>
<clus scale="   98.083">  1  3  2 -1</clus>
</clustering>
</event>
<event>
 6    0  0.2839294E+002  0.1512369E+03  0.7546771E-02  0.1198961E+00
          2   -1    0    0  502    0 -0.00000000000E+00  0.00000000000E+00  0.23178696684E+04  0.23178696684E+04  0.00000000000E+00 0.  1.
         21   -1    0    0  504  502  0.00000000000E+00 -0.00000000000E+00 -0.29268070510E+03  0.29268070510E+03  0.00000000000E+00 0. -1.
         21    1    1    2  503  505  0.98300510151E+02  0.13811175785E+03 -0.52519721242E+02  0.17747160075E+03  0.00000000000E+00 0. -1.
         21    1    1    2  504  503 -0.55328912426E+02  0.71975345503E+00 -0.17078572822E+03  0.17952596347E+03  0.00000000000E+00 0. -1.
         21    1    1    2  505  501 -0.41285132727E+02 -0.64768324639E+02  0.11272457947E+04  0.11298594956E+04  0.00000000000E+00 0.  1.
          2    1    1    2  501    0 -0.16864649979E+01 -0.74063186666E+02  0.11212486181E+04  0.11236933138E+04  0.00000000000E+00 0.  1.
<scales pt_clust_3="145.67154" pt_clust_4="55.33359" pt_clust_5="39.92200" pt_clust_6="39.92200"></scales>
<clustering>
<clus scale="   39.922">  5  6 -1 -1</clus>
<clus scale="   55.334">  2  4  1 -1</clus>
<clus scale="  145.672">  2  3  1 -1</clus>
<clus scale="   55.334">  2  3  1 -1</clus>
</clustering>
</event>
<event>
 6    0  0.2839294E+002  0.1163395E+03  0.7546771E-02  0.1249261E+00
          1   -1    0    0  504    0 -0.00000000000E+00  0.00000000000E+00  0.69194048167E+03  0.69194048167E+03  0.00000000000E+00 0. -1.
         21   -1    0    0  501  502  0.00000000000E+00 -0.00000000000E+00 -0.59733132977E+03  0.59733132977E+03  0.00000000000E+00 0.  1.
         21    1    1    2  503  505 -0.36346375810E+02 -0.94903652802E+02 -0.19213768390E+03  0.21735834910E+03  0.00000000000E+00 0.  1.
         21    1    1    2  504  503 -0.97135638048E+02  0.14013987897E+02  0.19941131360E+02  0.10014675609E+03  0.00000000000E+00 0.  1.
         21    1    1    2  505  502  0.31057257750E+02  0.13799370048E+02 -0.34558673241E+03  0.34725374799E+03  0.00000000000E+00 0.  1.
          1    1    1    2  501    0  0.10242475611E+03  0.67090294858E+02  0.61239243685E+03  0.62451295826E+03  0.00000000000E+00 0. -1.
<scales pt_clust_3="84.36373" pt_clust_4="116.33952" pt_clust_5="33.98494" pt_clust_6="14000.00000"></scales>
<clustering>
<clus scale="   33.985">  2  5  1 -1</clus>
<clus scale="   84.364">  2  3  1 -1</clus>
<clus scale="  116.340">  2  4  1 -1</clus>
<clus scale="   33.985">  2  3  1 -1</clus>
</clustering>
</event>
<event>
 6    0  0.2839294E+002  0.1210051E+03  0.7546771E-02  0.1241448E+00
         21   -1    0    0  503  502  0.00000000000E+00  0.00000000000E+00  0.21609606890E+02  0.21609606890E+02  0.00000000000E+00 0. -1.
          2   -1    0    0  505    0 -0.00000000000E+00 -0.00000000000E+00 -0.24173599200E+04  0.24173599200E+04  0.00000000000E+00 0. -1.
         21    1    1    2  503  501  0.28958251333E+02 -0.87477749456E+02 -0.72427317664E+03  0.73011134176E+03  0.00000000000E+00 0. -1.
         21    1    1    2  504  502  0.11058752970E+02  0.13285558952E+03 -0.23979354638E+03  0.27436079999E+03  0.00000000000E+00 0. -1.
         21    1    1    2  505  504 -0.50625271166E+02 -0.11227536436E+02 -0.68615888146E+03  0.68811553264E+03  0.00000000000E+00 0.  1.
          2    1    1    2  501    0  0.10608266863E+02 -0.34150303630E+02 -0.74552470865E+03  0.74638185252E+03  0.00000000000E+00 0. -1.
<scales pt_clust_3="121.00507" pt_clust_4="14000.00000" pt_clust_5="52.71427" pt_clust_6="35.76001"></scales>
<clustering>
<clus scale="   35.760">  2  6  1 -1</clus>
<clus scale="   52.714">  2  5  1 -1</clus>
<clus scale="  121.005">  2  3  1 -1</clus>
<clus scale="  121.005">  1  3  2 -1</clus>
</clustering>
</event>
<event>
 6    0  0.2839294E+002  0.1115158E+03  0.7546771E-02  0.1257788E+00
         21   -1    0    0  504  502  0.00000000000E+00  0.00000000000E+00  0.98874704935E+02  0.98874704935E+02  0.00000000000E+00 0. -1.
          2   -1    0    0  503    0 -0.00000000000E+00 -0.00000000000E+00 -0.13585704409E+04  0.13585704409E+04  0.00000000000E+00 0. -1.
         21    1    1    2  503  505 -0.23617425541E+02  0.44943326138E+02 -0.30611259338E+03  0.31029438471E+03  0.00000000000E+00 0.  1.
         21    1    1    2  504  501  0.92122205686E+01  0.41615779647E+02  0.14827471158E+02  0.45128616469E+02  0.00000000000E+00 0.  1.
         21    1    1    2  505  502  0.10420622562E+03 -0.49705610191E+02  0.12673823536E+02  0.11614736736E+03  0.00000000000E+00 0. -1.
          2    1    1    2  501    0 -0.89801020645E+02 -0.36853495595E+02 -0.98108443724E+03  0.98587477726E+03  0.00000000000E+00 0. -1.
<scales pt_clust_3="51.76560" pt_clust_4="42.62321" pt_clust_5="111.51578" pt_clust_6="14000.00000"></scales>
<clustering>
<clus scale="   42.623">  1  4  2 -1</clus>
<clus scale="   51.766">  2  3  1 -1</clus>
<clus scale="  111.516">  1  5  2 -1</clus>
<clus scale="   42.623">  1  3  2 -1</clus>
</clustering>
</event>
<event>
 6    0  0.2839294E+002  0.1496108E+03  0.7546771E-02  0.1200952E+00
          1   -1    0    0  503    0 -0.00000000000E+00  0.00000000000E+00  0.32507274366E+02  0.32507274366E+02  0.00000000000E+00 0.  1.
         21   -1    0    0  505  502  0.00000000000E+00 -0.00000000000E+00 -0.16442253421E+04  0.16442253421E+04  0.00000000000E+00 0. -1.
         21    1    1    2  503  502  0.11420215555E+03  0.10598752674E+03 -0.62541330485E+03  0.64452873484E+03  0.00000000000E+00 0. -1.
         21    1    1    2  504  501 -0.45073368645E+02  0.59923929665E+02 -0.31085082330E+03  0.31976666532E+03  0.00000000000E+00 0. -1.
         21    1    1    2  505  504 -0.10935614648E+01 -0.32605927716E+02 -0.37847004011E+03  0.37987354957E+03  0.00000000000E+00 0. -1.
          1    1    1    2  501    0 -0.68035225439E+02 -0.13330552869E+03 -0.29698389945E+03  0.33256366671E+03  0.00000000000E+00 0.  1.
<scales pt_clust_3="149.61078" pt_clust_4="68.84176" pt_clust_5="32.62426" pt_clust_6="14000.00000"></scales>
<clustering>
<clus scale="   32.624">  2  5  1 -1</clus>
<clus scale="   68.842">  2  4  1 -1</clus>
<clus scale="  149.611">  2  3  1 -1</clus>
<clus scale="   32.624">  2  3  1 -1</clus>
</clustering>
</event>
<event>
 6    0  0.2839294E+002  0.6737496E+02  0.7546771E-02  0.1369254E+00
         -2   -1    0    0    0  501 -0.00000000000E+00  0.00000000000E+00  0.16283826822E+04  0.16283826822E+04  0.00000000000E+00 0.  1.
         21   -1    0    0  503  502  0.00000000000E+00 -0.00000000000E+00 -0.14084816248E+03  0.14084816248E+03  0.00000000000E+00 0.  1.
         21    1    1    2  503  505 -0.10360619646E+02 -0.54891065635E+02 -0.31137979951E+02  0.63952680330E+02  0.00000000000E+00 0.  1.
         21    1    1    2  504  502  0.69624604272E+02  0.22567164305E+02 -0.73038393065E+02  0.10339956135E+03  0.00000000000E+00 0.  1.
         21    1    1    2  505  501  0.24520843307E+02 -0.20842106452E+02  0.71222179357E+02  0.78155383629E+02  0.00000000000E+00 0.  1.
         -2    1    1    2    0  504 -0.83784827933E+02  0.53166007781E+02  0.15204887134E+04  0.15237232194E+04  0.00000000000E+00 0.  1.
<scales pt_clust_3="56.02931" pt_clust_4="67.37496" pt_clust_5="32.18175" pt_clust_6="14000.00000"></scales>
<clustering>
<clus scale="   32.182">  1  5  2 -1</clus>
<clus scale="   56.029">  2  3  1 -1</clus>
<clus scale="   67.375">  2  4  1 -1</clus>
<clus scale="   56.029">  2  3  1 -1</clus>
</clustering>
</event>
<event>
 6    0  0.2839294E+002  0.1955789E+03  0.7546771E-02  0.1153524E+00
          1   -1    0    0  503    0 -0.00000000000E+00  0.00000000000E+00  0.20962204140E+04  0.20962204140E+04  0.00000000000E+00 0.  1.
         21   -1    0    0  505  502  0.00000000000E+00 -0.00000000000E+00 -0.44949959098E+03  0.44949959098E+03  0.00000000000E+00 0.  1.
         21    1    1    2  503  504 -0.32998828493E+02 -0.42588263139E+02  0.68725101459E+02  0.87325954959E+02  0.00000000000E+00 0. -1.
         21    1    1    2  504  502 -0.14994816412E+03  0.96031249789E+02 -0.21815232756E+03  0.28159703635E+03  0.00000000000E+00 0.  1.
         21    1    1    2  505  501  0.25401237699E+03 -0.42581002995E+02 -0.10219683398E+03  0.27709136103E+03  0.00000000000E+00 0.  1.
          1    1    1    2  501    0 -0.71065384380E+02 -0.10861983655E+02  0.18983448830E+04  0.18997056526E+04  0.00000000000E+00 0.  1.
<scales pt_clust_3="53.87655" pt_clust_4="14000.00000" pt_clust_5="195.57888" pt_clust_6="114.11417"></scales>
<clustering>
<clus scale="   53.877">  1  3  2 -1</clus>
<clus scale="  114.114">  1  6  2 -1</clus>
<clus scale="  195.579">  1  5  2 -1</clus>
<clus scale="  195.579">  2  3  1 -1</clus>
</clustering>
</event>
<event>
 6    0  0.2839294E+002  0.2575551E+03  0.7546771E-02  0.1108621E+00
          1   -1    0    0  503    0 -0.00000000000E+00  0.00000000000E+00  0.14431782903E+04  0.14431782903E+04  0.00000000000E+00 0.  1.
         21   -1    0    0  505  502  0.00000000000E+00 -0.00000000000E+00 -0.18431536295E+03  0.18431536295E+03  0.00000000000E+00 0.  1.
         21    1    1    2  503  504 -0.19299642780E+03  0.64263791841E+02 -0.33784537960E+02  0.20620099682E+03  0.00000000000E+00 0.  1.
         21    1    1    2  504  502 -0.33832284571E+02  0.31011755500E+02 -0.42153041728E+02  0.62315578994E+02  0.00000000000E+00 0.  1.
         21    1    1    2  505  501  0.10327447605E+03 -0.76132412398E+02  0.59387341791E+03  0.60757501440E+03  0.00000000000E+00 0.  1.
          1    1    1    2  501    0  0.12355423631E+03 -0.19143134942E+02  0.74092708911E+03  0.75140206301E+03  0.00000000000E+00 0.  1.
<scales pt_clust_3="36.19329" pt_clust_4="36.19329" pt_clust_5="66.93470" pt_clust_6="255.19856"></scales>
<clustering>
<clus scale="   36.193">  3  4 -1 -1</clus>
<clus scale="   66.935">  5  6 -1 -1</clus>
<clus scale="  255.199">  1  5  2 -1</clus>
<clus scale="  257.555">  2  3  1 -1</clus>
</clustering>
</event>
<event>
 6    0  0.2839294E+002  0.7706543E+02  0.7546771E-02  0.1337592E+00
          2   -1    0    0  503    0 -0.00000000000E+00  0.00000000000E+00  0.15151714073E+04  0.15151714073E+04  0.00000000000E+00 0.  1.
         21   -1    0    0  505  502  0.00000000000E+00 -0.00000000000E+00 -0.46320263212E+03  0.46320263212E+03  0.00000000000E+00 0. -1.
         21    1    1    2  503  504  0.50200099007E+02 -0.35863264931E+02  0.26352294114E+03  0.27064841441E+03  0.00000000000E+00 0.  1.
         21    1    1    2  504  502 -0.14934340496E+02  0.30075720343E+02 -0.42578185891E+03  0.42710393918E+03  0.00000000000E+00 0. -1.
         21    1    1    2  505  501  0.62049729068E+02  0.33303340413E+02  0.88122293867E+01  0.70971379773E+02  0.00000000000E+00 0. -1.
          2    1    1    2  501    0 -0.97315487579E+02 -0.27515795825E+02  0.12054154635E+04  0.12096503060E+04  0.00000000000E+00 0.  1.
<scales pt_clust_3="58.84230" pt_clust_4="33.57951" pt_clust_5="14000.00000" pt_clust_6="77.06543"></scales>
<clustering>
<clus scale="   33.580">  2  4  1 -1</clus>
<clus scale="   58.842">  1  3  2 -1</clus>
<clus scale="   77.065">  1  6  2 -1</clus>
<clus scale="   33.580">  2  3  1 -1</clus>
</clustering>
</event>
<event>
 6    0  0.2839294E+002  0.1757016E+03  0.7546771E-02  0.1172029E+00
         21   -1    0    0  501  502  0.00000000000E+00  0.00000000000E+00  0.17733758409E+04  0.17733758409E+04  0.00000000000E+00 0. -1.
         -1   -1    0    0    0  501 -0.00000000000E+00 -0.00000000000E+00 -0.67366663543E+02  0.67366663543E+02  0.00000000000E+00 0. -1.
         21    1    1    2  503  505 -0.10819616468E+02  0.82528906751E+02  0.25602669223E+03  0.26921692310E+03  0.00000000000E+00 0. -1.
         21    1    1    2  504  502  0.76333518043E+02 -0.17887783545E+03  0.14052687304E+04  0.14186628530E+04  0.00000000000E+00 0. -1.
         21    1    1    2  505  504 -0.13317833668E+02  0.40240719836E+02  0.61230370602E+02  0.74470386803E+02  0.00000000000E+00 0. -1.
         -1    1    1    2    0  503 -0.52196067907E+02  0.56108208861E+02 -0.16516615860E+02  0.78392341501E+02  0.00000000000E+00 0. -1.
<scales pt_clust_3="30.39304" pt_clust_4="170.46153" pt_clust_5="30.39304" pt_clust_6="76.63263"></scales>
<clustering>
<clus scale="   30.393">  3  5 -1 -1</clus>
<clus scale="   76.633">  2  6  1 -1</clus>
<clus scale="  170.462">  1  4  2 -1</clus>
<clus scale="  170.462">  1  3  2 -1</clus>
</clustering>
</event>
<event>
 6    0  0.2839294E+002  0.1551095E+03  0.7546771E-02  0.1194331E+00
         21   -1    0    0  501  502  0.00000000000E+00  0.00000000000E+00  0.16724529271E+03  0.16724529271E+03  0.00000000000E+00 0.  1.
          2   -1    0    0  504    0 -0.00000000000E+00 -0.00000000000E+00 -0.40767659302E+04  0.40767659302E+04  0.00000000000E+00 0.  1.
         21    1    1    2  503  502 -0.12823332186E+03 -0.90288405055E+02  0.11898445300E+03  0.19685802239E+03  0.00000000000E+00 0.  1.
         21    1    1    2  504  505  0.36037045640E+02  0.23921684564E+02 -0.19544028332E+04  0.19548814159E+04  0.00000000000E+00 0. -1.
         21    1    1    2  505  503 -0.26939359863E+01  0.77462213698E+02 -0.18274098032E+03  0.19849916305E+03  0.00000000000E+00 0.  1.
          2    1    1    2  501    0  0.94890212209E+02 -0.11095493206E+02 -0.18913612770E+04  0.18937726216E+04  0.00000000000E+00 0.  1.
<scales pt_clust_3="155.10953" pt_clust_4="43.25408" pt_clust_5="79.61283" pt_clust_6="14000.00000"></scales>
<clustering>
<clus scale="   43.254">  2  4  1 -1</clus>
<clus scale="   79.613">  2  5  1 -1</clus>
<clus scale="  155.110">  1  3  2 -1</clus>
<clus scale="  155.110">  1  3  2 -1</clus>
</clustering>
</event>
<event>
 6    0  0.2839294E+002  0.7428682E+02  0.7546771E-02  0.1346094E+00
         21   -1    0    0  505  502  0.00000000000E+00  0.00000000000E+00  0.12952340745E+04  0.12952340745E+04  0.00000000000E+00 0.  1.
         -4   -1    0    0    0  501 -0.00000000000E+00 -0.00000000000E+00 -0.98456636415E+02  0.98456636415E+02  0.00000000000E+00 0. -1.
         21    1    1    2  503  501  0.14776448112E+02  0.58673614686E+02 -0.12521456658E+02  0.61787728199E+02  0.00000000000E+00 0.  1.
         21    1    1    2  504  503  0.47023527495E+02 -0.88688365547E+02  0.15890681124E+03  0.18795800855E+03  0.00000000000E+00 0.  1.
         21    1    1    2  505  504 -0.30375350907E+02  0.65436048734E+02  0.10836703775E+04  0.10860690704E+04  0.00000000000E+00 0.  1.
         -4    1    1    2    0  502 -0.31424624699E+02 -0.35421297873E+02 -0.33278294077E+02  0.57875903770E+02  0.00000000000E+00 0. -1.
<scales pt_clust_3="34.56601" pt_clust_4="74.28682" pt_clust_5="14000.00000" pt_clust_6="47.35161"></scales>
<clustering>
<clus scale="   47.352">  2  6  1 -1</clus>
<clus scale="   34.566">  2  3  1 -1</clus>
<clus scale="   74.287">  2  4  1 -1</clus>
<clus scale="   74.287">  1  3  2 -1</clus>
</clustering>
</event>
<event>
 6    0  0.2839294E+002  0.9785345E+02  0.7546771E-02  0.1284876E+00
         21   -1    0    0  505  502  0.00000000000E+00  0.00000000000E+00  0.89986596953E+03  0.89986596953E+03  0.00000000000E+00 0.  1.
          1   -1    0    0  504    0 -0.00000000000E+00 -0.00000000000E+00 -0.21481685815E+03  0.21481685815E+03  0.00000000000E+00 0.  1.
         21    1    1    2  503  501 -0.11512753681E+03  0.45204794981E+02  0.44582638329E+03  0.46266509189E+03  0.00000000000E+00 0.  1.
         21    1    1    2  504  502  0.18896494644E+02 -0.44688645848E+02 -0.42714579795E+02  0.64642771480E+02  0.00000000000E+00 0. -1.
         21    1    1    2  505  503  0.40480420283E+02  0.20281720730E+02  0.42761917371E+03  0.43000950030E+03  0.00000000000E+00 0.  1.
          1    1    1    2  501    0  0.55750621882E+02 -0.20797869863E+02 -0.14568186583E+03  0.15736546401E+03  0.00000000000E+00 0.  1.
<scales pt_clust_3="14000.00000" pt_clust_4="48.46318" pt_clust_5="45.27707" pt_clust_6="97.85345"></scales>
<clustering>
<clus scale="   45.277">  1  5  2 -1</clus>
<clus scale="   48.463">  2  4  1 -1</clus>
<clus scale="   97.853">  2  6  1 -1</clus>
<clus scale="   45.277">  1  3  2 -1</clus>
</clustering>
</event>
<event>
 6    0  0.2839294E+002  0.1015542E+03  0.7546771E-02  0.1277061E+00
          2   -1    0    0  504    0 -0.00000000000E+00  0.00000000000E+00  0.15473939390E+03  0.15473939390E+03  0.00000000000E+00 0. -1.
         21   -1    0    0  505  502  0.00000000000E+00 -0.00000000000E+00 -0.39738412011E+03  0.39738412011E+03  0.00000000000E+00 0. -1.
         21    1    1    2  503  501  0.10967018637E+03  0.41473171415E+02 -0.38134077897E+02  0.12329550528E+03  0.00000000000E+00 0.  1.
         21    1    1    2  504  502 -0.52463892759E+02 -0.21724230470E+02  0.46537804239E+02  0.73417773436E+02  0.00000000000E+00 0. -1.
         21    1    1    2  505  503 -0.92251369674E+02 -0.34587050437E+02 -0.28676559690E+03  0.30321788672E+03  0.00000000000E+00 0. -1.
          2    1    1    2  501    0  0.35045076063E+02  0.14838109491E+02  0.35717144340E+02  0.52192348571E+02  0.00000000000E+00 0. -1.
<scales pt_clust_3="14000.00000" pt_clust_4="36.18119" pt_clust_5="101.55418" pt_clust_6="38.05689"></scales>
<clustering>
<clus scale="   38.057">  1  6  2 -1</clus>
<clus scale="   36.181">  1  4  2 -1</clus>
<clus scale="  101.554">  2  5  1 -1</clus>
<clus scale="  101.554">  2  3  1 -1</clus>
</clustering>
</event>
<event>
 6    0  0.2839294E+002  0.9267167E+02  0.7546771E-02  0.1296508E+00
         21   -1    0    0  503  502  0.00000000000E+00  0.00000000000E+00  0.74770242410E+02  0.74770242410E+02  0.00000000000E+00 0. -1.
          1   -1    0    0  504    0 -0.00000000000E+00 -0.00000000000E+00 -0.24771776726E+04  0.24771776726E+04  0.00000000000E+00 0. -1.
         21    1    1    2  503  501 -0.23769187263E+02 -0.27619321402E+02 -0.27248680365E+02  0.45500458893E+02  0.00000000000E+00 0. -1.
         21    1    1    2  504  505  0.18581080640E+02 -0.82188680300E+02 -0.11212114660E+04  0.11243733309E+04  0.00000000000E+00 0.  1.
         21    1    1    2  505  502 -0.45464610937E+02 -0.11060504196E+01  0.52779865414E+02  0.69670426928E+02  0.00000000000E+00 0. -1.
          1    1    1    2  501    0  0.50652717560E+02  0.11091405212E+03 -0.13067271492E+04  0.13124036983E+04  0.00000000000E+00 0. -1.
<scales pt_clust_3="36.43901" pt_clust_4="14000.00000" pt_clust_5="72.77426" pt_clust_6="92.67167"></scales>
<clustering>
<clus scale="   36.439">  1  3  2 -1</clus>
<clus scale="   72.774">  1  5  2 -1</clus>
<clus scale="   92.672">  1  6  2 -1</clus>
<clus scale="   36.439">  1  3  2 -1</clus>
</clustering>
</event>
<event>
 6    0  0.2839294E+002  0.1014061E+03  0.7546771E-02  0.1277367E+00
          2   -1    0    0  504    0 -0.00000000000E+00  0.00000000000E+00  0.19383883097E+04  0.19383883097E+04  0.00000000000E+00 0. -1.
         21   -1    0    0  505  502  0.00000000000E+00 -0.00000000000E+00 -0.98807551399E+02  0.98807551399E+02  0.00000000000E+00 0. -1.
         21    1    1    2  503  501 -0.39294391785E+01 -0.10516363171E+03  0.13925962893E+03  0.17455106466E+03  0.00000000000E+00 0. -1.
         21    1    1    2  504  502  0.56649520427E+02 -0.39998611813E+02  0.11577527886E+04  0.11598278220E+04  0.00000000000E+00 0. -1.
         21    1    1    2  505  503 -0.36137752427E+02  0.18159360930E+02 -0.67913511369E+02  0.79043940732E+02  0.00000000000E+00 0. -1.
          2    1    1    2  501    0 -0.16582328822E+02  0.12700288259E+03  0.61048185212E+03  0.62377303370E+03  0.00000000000E+00 0. -1.
<scales pt_clust_3="101.40609" pt_clust_4="67.70955" pt_clust_5="40.44378" pt_clust_6="14000.00000"></scales>
<clustering>
<clus scale="   40.444">  2  5  1 -1</clus>
<clus scale="   67.710">  1  4  2 -1</clus>
<clus scale="  101.406">  2  3  1 -1</clus>
<clus scale="   40.444">  2  3  1 -1</clus>
</clustering>
</event>
<event>
 6    0  0.2839294E+002  0.2775791E+03  0.7546771E-02  0.1097019E+00
          2   -1    0    0  503    0 -0.00000000000E+00  0.00000000000E+00  0.10471815949E+04  0.10471815949E+04  0.00000000000E+00 0.  1.
         21   -1    0    0  504  502  0.00000000000E+00 -0.00000000000E+00 -0.18417628124E+03  0.18417628124E+03  0.00000000000E+00 0.  1.
         21    1    1    2  503  505 -0.39333296926E+02  0.15286115265E+02  0.80864099341E+02  0.91212806827E+02  0.00000000000E+00 0.  1.
         21    1    1    2  504  501  0.23788916766E+03 -0.25551702627E+03  0.23891736308E+03  0.42303866630E+03  0.00000000000E+00 0.  1.
         21    1    1    2  505  502 -0.20475923186E+03  0.12847174211E+03  0.10279165957E+03  0.26267366985E+03  0.00000000000E+00 0.  1.
          2    1    1    2  501    0  0.62033611299E+01  0.11175916890E+03  0.44043219169E+03  0.45443273319E+03  0.00000000000E+00 0.  1.
<scales pt_clust_3="42.19921" pt_clust_4="277.57912" pt_clust_5="14000.00000" pt_clust_6="119.49013"></scales>
<clustering>
<clus scale="   42.199">  1  3  2 -1</clus>
<clus scale="  119.490">  1  6  2 -1</clus>
<clus scale="  277.579">  1  4  2 -1</clus>
<clus scale="  277.579">  2  3  1 -1</clus>
</clustering>
</event>
<event>
 6    0  0.2839294E+002  0.8071621E+02  0.7546771E-02  0.1327031E+00
          1   -1    0    0  505    0 -0.00000000000E+00  0.00000000000E+00  0.12024137905E+04  0.12024137905E+04  0.00000000000E+00 0. -1.
         21   -1    0    0  504  502  0.00000000000E+00 -0.00000000000E+00 -0.20304252652E+03  0.20304252652E+03  0.00000000000E+00 0.  1.
         21    1    1    2  503  501 -0.10362305615E+03  0.32374148053E+02  0.36609279048E+03  0.38185043469E+03  0.00000000000E+00 0.  1.
         21    1    1    2  504  503 -0.36192416268E+02 -0.27213044807E+01 -0.18406694252E+02  0.40695244030E+02  0.00000000000E+00 0. -1.
         21    1    1    2  505  502  0.11300751117E+03  0.15087683458E+02 -0.14503689841E+03  0.18448316366E+03  0.00000000000E+00 0.  1.
          1    1    1    2  501    0  0.26807961247E+02 -0.44740527030E+02  0.79672206614E+03  0.79842747462E+03  0.00000000000E+00 0. -1.
<scales pt_clust_3="80.71621" pt_clust_4="36.29458" pt_clust_5="14000.00000" pt_clust_6="52.07756"></scales>
<clustering>
<clus scale="   36.295">  2  4  1 -1</clus>
<clus scale="   52.078">  1  6  2 -1</clus>
<clus scale="   80.716">  1  3  2 -1</clus>
<clus scale="   36.295">  2  3  1 -1</clus>
</clustering>
</event>
<event>
 6    0  0.2839294E+002  0.7817753E+02  0.7546771E-02  0.1334304E+00
          2   -1    0    0  505    0 -0.00000000000E+00  0.00000000000E+00  0.17737490924E+04  0.17737490924E+04  0.00000000000E+00 0. -1.
         21   -1    0    0  503  502  0.00000000000E+00 -0.00000000000E+00 -0.23754967921E+02  0.23754967921E+02  0.00000000000E+00 0.  1.
         21    1    1    2  503  504  0.50766399919E+02 -0.24704782519E+02  0.54811245288E+02  0.78688158258E+02  0.00000000000E+00 0.  1.
         21    1    1    2  504  501 -0.42075484033E+02 -0.92530640703E+02  0.39633332849E+03  0.40916057129E+03  0.00000000000E+00 0.  1.
         21    1    1    2  505  502 -0.23972792451E+02  0.44657637517E+02  0.14839103598E+03  0.15680847849E+03  0.00000000000E+00 0.  1.
          2    1    1    2  501    0  0.15281876566E+02  0.72577785705E+02  0.11504585148E+04  0.11528468523E+04  0.00000000000E+00 0. -1.
<scales pt_clust_3="36.21569" pt_clust_4="78.17753" pt_clust_5="50.68530" pt_clust_6="14000.00000"></scales>
<clustering>
<clus scale="   50.685">  2  5  1 -1</clus>
<clus scale="   36.216">  2  3  1 -1</clus>
<clus scale="   78.178">  2  4  1 -1</clus>
<clus scale="   50.685">  2  3  1 -1</clus>
</clustering>
</event>
<event>
 6    0  0.2839294E+002  0.1912516E+03  0.7546771E-02  0.1157337E+00
          2   -1    0    0  505    0 -0.00000000000E+00  0.00000000000E+00  0.15567356128E+04  0.15567356128E+04  0.00000000000E+00 0.  1.
         21   -1    0    0  503  502  0.00000000000E+00 -0.00000000000E+00 -0.15032979375E+03  0.15032979375E+03  0.00000000000E+00 0.  1.
         21    1    1    2  503  501 -0.15033992889E+03  0.15298410749E+02 -0.89631790313E+02  0.17569858686E+03  0.00000000000E+00 0.  1.
         21    1    1    2  504  502 -0.45444101644E+02 -0.18103964950E+02  0.56516612091E+02  0.74746554191E+02  0.00000000000E+00 0. -1.
         21    1    1    2  505  504  0.18609609385E+02 -0.36393653160E+02  0.24150631063E+03  0.24494104112E+03  0.00000000000E+00 0.  1.
          2    1    1    2  501    0  0.17717442114E+03  0.39199207360E+02  0.11980146867E+04  0.12116792244E+04  0.00000000000E+00 0.  1.
<scales pt_clust_3="14000.00000" pt_clust_4="48.76906" pt_clust_5="40.87561" pt_clust_6="191.25161"></scales>
<clustering>
<clus scale="   40.876">  1  5  2 -1</clus>
<clus scale="   48.769">  2  4  1 -1</clus>
<clus scale="  191.252">  1  6  2 -1</clus>
<clus scale="   48.769">  2  3  1 -1</clus>
</clustering>
</event>
<event>
 6    0  0.2839294E+002  0.1081918E+03  0.7546771E-02  0.1263955E+00
         21   -1    0    0  504  502  0.00000000000E+00  0.00000000000E+00  0.25341693567E+03  0.25341693567E+03  0.00000000000E+00 0. -1.
          2   -1    0    0  505    0 -0.00000000000E+00 -0.00000000000E+00 -0.66320341003E+03  0.66320341003E+03  0.00000000000E+00 0. -1.
         21    1    1    2  503  502  0.26478910160E+02  0.16341797304E+02  0.15921191673E+03  0.16222398544E+03  0.00000000000E+00 0. -1.
         21    1    1    2  504  501 -0.90770412670E+02  0.38477333758E+02  0.41213184198E+02  0.10685644380E+03  0.00000000000E+00 0.  1.
         21    1    1    2  505  503  0.35231404744E+02  0.52997012222E+02 -0.64833205377E+02  0.90847563006E+02  0.00000000000E+00 0.  1.
          2    1    1    2  501    0  0.29060097765E+02 -0.10781614328E+03 -0.54537836991E+03  0.55669235346E+03  0.00000000000E+00 0. -1.
<scales pt_clust_3="31.11570" pt_clust_4="14000.00000" pt_clust_5="67.63019" pt_clust_6="108.19181"></scales>
<clustering>
<clus scale="   31.116">  1  3  2 -1</clus>
<clus scale="   67.630">  1  5  2 -1</clus>
<clus scale="  108.192">  2  6  1 -1</clus>
<clus scale="   31.116">  1  3  2 -1</clus>
</clustering>
</event>
<event>
 6    0  0.2839294E+002  0.1017457E+03  0.7546771E-02  0.1276667E+00
          2   -1    0    0  505    0 -0.00000000000E+00  0.00000000000E+00  0.27021764524E+04  0.27021764524E+04  0.00000000000E+00 0. -1.
         21   -1    0    0  503  502  0.00000000000E+00 -0.00000000000E+00 -0.31380452662E+02  0.31380452662E+02  0.00000000000E+00 0.  1.
         21    1    1    2  503  501  0.91383086476E+02 -0.26414038127E+02  0.78898728660E+02  0.12358632323E+03  0.00000000000E+00 0.  1.
         21    1    1    2  504  502 -0.10852185118E+02 -0.46948110928E+02  0.75238497167E+02  0.89346105106E+02  0.00000000000E+00 0.  1.
         21    1    1    2  505  504 -0.52280430838E+02  0.22503566181E+02  0.51773998101E+03  0.52085923422E+03  0.00000000000E+00 0. -1.
          2    1    1    2  501    0 -0.28250470520E+02  0.50858582874E+02  0.19989187929E+04  0.19997652426E+04  0.00000000000E+00 0. -1.
<scales pt_clust_3="14000.00000" pt_clust_4="48.18605" pt_clust_5="56.44890" pt_clust_6="101.74574"></scales>
<clustering>
<clus scale="   48.186">  2  4  1 -1</clus>
<clus scale="   56.449">  1  5  2 -1</clus>
<clus scale="  101.746">  1  6  2 -1</clus>
<clus scale="   48.186">  2  3  1 -1</clus>
</clustering>
</event>
<event>
 6    0  0.2839294E+002  0.1723512E+03  0.7546771E-02  0.1175418E+00
         21   -1    0    0  504  502  0.00000000000E+00  0.00000000000E+00  0.87192869498E+03  0.87192869498E+03  0.00000000000E+00 0.  1.
          2   -1    0    0  505    0 -0.00000000000E+00 -0.00000000000E+00 -0.86038660892E+03  0.86038660892E+03  0.00000000000E+00 0.  1.
         21    1    1    2  503  502  0.79200242677E+02  0.33761184416E+02  0.64062995329E+03  0.64638938193E+03  0.00000000000E+00 0.  1.
         21    1    1    2  504  501 -0.37914795484E+02 -0.59716643518E+02 -0.29919737809E+03  0.30744541025E+03  0.00000000000E+00 0.  1.
         21    1    1    2  505  503  0.49122669122E+02  0.77179979365E+02  0.20979897856E+03  0.22887856440E+03  0.00000000000E+00 0.  1.
          2    1    1    2  501    0 -0.90408116316E+02 -0.51224520264E+02 -0.53968946769E+03  0.54960194733E+03  0.00000000000E+00 0.  1.
<scales pt_clust_3="86.09585" pt_clust_4="37.12180" pt_clust_5="166.37491" pt_clust_6="37.12180"></scales>
<clustering>
<clus scale="   37.122">  4  6 -1 -1</clus>
<clus scale="   86.096">  1  3  2 -1</clus>
<clus scale="  166.375">  1  5  2 -1</clus>
<clus scale="   86.096">  1  3  2 -1</clus>
</clustering>
</event>
<event>
 6    0  0.2839294E+002  0.1942867E+03  0.7546771E-02  0.1154651E+00
         21   -1    0    0  504  502  0.00000000000E+00  0.00000000000E+00  0.45455185947E+02  0.45455185947E+02  0.00000000000E+00 0. -1.
         -2   -1    0    0    0  501 -0.00000000000E+00 -0.00000000000E+00 -0.10655396197E+04  0.10655396197E+04  0.00000000000E+00 0. -1.
         21    1    1    2  503  502  0.12707818002E+03 -0.11539048514E+03 -0.32582310829E+03  0.36827235275E+03  0.00000000000E+00 0. -1.
         21    1    1    2  504  501  0.36600566331E+02  0.34069793885E+02 -0.62470080821E+02  0.80017893680E+02  0.00000000000E+00 0. -1.
         21    1    1    2  505  503 -0.12943470462E+03  0.24280075594E+02 -0.46002488876E+03  0.47850367095E+03  0.00000000000E+00 0. -1.
         -2    1    1    2    0  505 -0.34244041732E+02  0.57040615663E+02 -0.17176635585E+03  0.18420088825E+03  0.00000000000E+00 0. -1.
<scales pt_clust_3="176.44814" pt_clust_4="50.00352" pt_clust_5="60.41829" pt_clust_6="60.41829"></scales>
<clustering>
<clus scale="   50.004">  1  4  2 -1</clus>
<clus scale="   60.418">  5  6 -1 -1</clus>
<clus scale="  176.448">  1  3  2 -1</clus>
<clus scale="   50.004">  1  3  2 -1</clus>
</clustering>
</event>
<event>
 6    0  0.5335481E+002  0.1301624E+03  0.7546771E-02  0.1227215E+00
         21   -1    0    0  503  502  0.00000000000E+00  0.00000000000E+00  0.14723509677E+04  0.14723509677E+04  0.00000000000E+00 0. -1.
          1   -1    0    0  504    0 -0.00000000000E+00 -0.00000000000E+00 -0.36840963996E+04  0.36840963996E+04  0.00000000000E+00 0. -1.
         21    1    1    2  503  501 -0.12249580302E+03  0.69983381653E+01  0.13459886658E+04  0.13515693422E+04  0.00000000000E+00 0. -1.
         21    1    1    2  504  505  0.44085231309E+02  0.17783749095E+02 -0.14503551438E+03  0.15262722491E+03  0.00000000000E+00 0.  1.
         21    1    1    2  505  502  0.86061356234E+00  0.39649033122E+02  0.11575339403E+03  0.12235863154E+03  0.00000000000E+00 0. -1.
          1    1    1    2  501    0  0.77549958153E+02 -0.64431120383E+02 -0.35284519774E+04  0.35298921686E+04  0.00000000000E+00 0. -1.
<scales pt_clust_3="130.16238" pt_clust_4="47.58098" pt_clust_5="39.65837" pt_clust_6="14000.00000"></scales>
<clustering>
<clus scale="   39.658">  1  5  2 -1</clus>
<clus scale="   47.581">  2  4  1 -1</clus>
<clus scale="  130.162">  1  3  2 -1</clus>
<clus scale="   39.658">  1  3  2 -1</clus>
</clustering>
</event>
<event>
 6    0  0.2839294E+002  0.1075513E+03  0.7546771E-02  0.1265173E+00
         21   -1    0    0  503  502  0.00000000000E+00  0.00000000000E+00  0.16174967957E+03  0.16174967957E+03  0.00000000000E+00 0. -1.
          1   -1    0    0  502    0 -0.00000000000E+00 -0.00000000000E+00 -0.73379261621E+03  0.73379261621E+03  0.00000000000E+00 0. -1.
         21    1    1    2  503  504  0.75601108481E+02 -0.26109691303E+02  0.10769219235E+03  0.13414489136E+03  0.00000000000E+00 0. -1.
         21    1    1    2  504  505 -0.75213267256E+02  0.62697452052E+02 -0.41850501141E+02  0.10648694996E+03  0.00000000000E+00 0. -1.
         21    1    1    2  505  501 -0.45416489635E+02  0.10859248949E+02 -0.75778053259E+02  0.89010640792E+02  0.00000000000E+00 0. -1.
          1    1    1    2  501    0  0.45028648410E+02 -0.47447009698E+02 -0.56210657460E+03  0.56589981367E+03  0.00000000000E+00 0. -1.
<scales pt_clust_3="84.53745" pt_clust_4="45.91523" pt_clust_5="45.91523" pt_clust_6="65.41252"></scales>
<clustering>
<clus scale="   45.915">  4  5 -1 -1</clus>
<clus scale="   65.413">  2  6  1 -1</clus>
<clus scale="   84.537">  1  3  2 -1</clus>
<clus scale="   84.537">  1  3  2 -1</clus>
</clustering>
</event>
<event>
 6    0  0.2839294E+002  0.2195870E+03  0.7546771E-02  0.1134191E+00
         21   -1    0    0  504  502  0.00000000000E+00  0.00000000000E+00  0.26259318826E+03  0.26259318826E+03  0.00000000000E+00 0.  1.
         -3   -1    0    0    0  501 -0.00000000000E+00 -0.00000000000E+00 -0.34989405397E+03  0.34989405397E+03  0.00000000000E+00 0. -1.
         21    1    1    2  503  502  0.48363106394E+02 -0.28236733534E+02 -0.96465825321E+02  0.11154352799E+03  0.00000000000E+00 0. -1.
         21    1    1    2  504  505 -0.11429332690E+02 -0.28488587627E+02  0.82080385179E+01  0.31774221737E+02  0.00000000000E+00 0.  1.
         21    1    1    2  505  501 -0.12392961417E+03  0.18566000487E+03  0.13752305036E+03  0.26218462208E+03  0.00000000000E+00 0.  1.
         -3    1    1    2    0  503  0.86995840469E+02 -0.12893468371E+03 -0.13656612927E+03  0.20698487043E+03  0.00000000000E+00 0. -1.
<scales pt_clust_3="38.30818" pt_clust_4="30.69575" pt_clust_5="209.96884" pt_clust_6="38.30818"></scales>
<clustering>
<clus scale="   30.696">  1  4  2 -1</clus>
<clus scale="   38.308">  3  6 -1 -1</clus>
<clus scale="  209.969">  1  5  2 -1</clus>
<clus scale="   30.696">  1  3  2 -1</clus>
</clustering>
</event>
<event>
 6    0  0.2839294E+002  0.1634582E+03  0.7546771E-02  0.1184847E+00
         21   -1    0    0  501  502  0.00000000000E+00  0.00000000000E+00  0.34796377268E+02  0.34796377268E+02  0.00000000000E+00 0. -1.
          3   -1    0    0  503    0 -0.00000000000E+00 -0.00000000000E+00 -0.22274712236E+04  0.22274712236E+04  0.00000000000E+00 0. -1.
         21    1    1    2  503  504 -0.16182692187E+02  0.26866091347E+02 -0.21313616014E+03  0.21543140242E+03  0.00000000000E+00 0.  1.
         21    1    1    2  504  505  0.14208555143E+03  0.15126152645E+03 -0.43839925508E+03  0.48503841102E+03  0.00000000000E+00 0. -1.
         21    1    1    2  505  502 -0.40250896296E+02 -0.40306409521E+02 -0.13781902806E+03  0.14912687818E+03  0.00000000000E+00 0.  1.
          3    1    1    2  501    0 -0.85651962948E+02 -0.13782120827E+03 -0.14033204031E+04  0.14126709092E+04  0.00000000000E+00 0. -1.
<scales pt_clust_3="31.36346" pt_clust_4="14000.00000" pt_clust_5="56.46444" pt_clust_6="163.45821"></scales>
<clustering>
<clus scale="   31.363">  2  3  1 -1</clus>
<clus scale="   56.464">  1  5  2 -1</clus>
<clus scale="  163.458">  2  6  1 -1</clus>
<clus scale="   56.464">  1  3  2 -1</clus>
</clustering>
</event>
<event>
 6    0  0.2839294E+002  0.8768113E+02  0.7546771E-02  0.1308566E+00
          1   -1    0    0  504    0 -0.00000000000E+00  0.00000000000E+00  0.35274788376E+03  0.35274788376E+03  0.00000000000E+00 0.  1.
         21   -1    0    0  505  502  0.00000000000E+00 -0.00000000000E+00 -0.80487942320E+02  0.80487942320E+02  0.00000000000E+00 0.  1.
         21    1    1    2  503  502  0.18962371858E+02  0.23252225837E+02 -0.19018188190E+02  0.35523640508E+02  0.00000000000E+00 0. -1.
         21    1    1    2  504  503 -0.92735058516E+02  0.68863210689E+02  0.63875825197E+02  0.13199262824E+03  0.00000000000E+00 0.  1.
         21    1    1    2  505  501  0.38095096758E+02 -0.56900759038E+02  0.60238020234E+02  0.91200613254E+02  0.00000000000E+00 0.  1.
          1    1    1    2  501    0  0.35677589899E+02 -0.35214677489E+02  0.16716428420E+03  0.17451894408E+03  0.00000000000E+00 0.  1.
<scales pt_clust_3="30.00396" pt_clust_4="14000.00000" pt_clust_5="87.68113" pt_clust_6="49.97598"></scales>
<clustering>
<clus scale="   30.004">  2  3  1 -1</clus>
<clus scale="   49.976">  1  6  2 -1</clus>
<clus scale="   87.681">  2  5  1 -1</clus>
<clus scale="   30.004">  2  3  1 -1</clus>
</clustering>
</event>
<event>
 6    0  0.2839294E+002  0.6955884E+02  0.7546771E-02  0.1361600E+00
         21   -1    0    0  503  502  0.00000000000E+00  0.00000000000E+00  0.21646113673E+03  0.21646113673E+03  0.00000000000E+00 0. -1.
          2   -1    0    0  505    0 -0.00000000000E+00 -0.00000000000E+00 -0.36012624197E+03  0.36012624197E+03  0.00000000000E+00 0. -1.
         21    1    1    2  503  501 -0.63400766113E+02  0.94799909591E+00  0.16955449923E+02  0.65635684868E+02  0.00000000000E+00 0. -1.
         21    1    1    2  504  502  0.12298719222E+03  0.19434137373E+02  0.13616658804E+03  0.18451253303E+03  0.00000000000E+00 0. -1.
         21    1    1    2  505  504 -0.80486196215E+02  0.21719767243E+02 -0.14189475478E+03  0.16457186122E+03  0.00000000000E+00 0. -1.
          2    1    1    2  501    0  0.20899770110E+02 -0.42101903712E+02 -0.15489238842E+03  0.16186729959E+03  0.00000000000E+00 0. -1.
<scales pt_clust_3="61.01930" pt_clust_4="69.55884" pt_clust_5="14000.00000" pt_clust_6="47.00394"></scales>
<clustering>
<clus scale="   47.004">  2  6  1 -1</clus>
<clus scale="   61.019">  1  3  2 -1</clus>
<clus scale="   69.559">  1  4  2 -1</clus>
<clus scale="   61.019">  1  3  2 -1</clus>
</clustering>
</event>
<event>
 6    0  0.2839294E+002  0.1617656E+03  0.7546771E-02  0.1186718E+00
          2   -1    0    0  504    0 -0.00000000000E+00  0.00000000000E+00  0.11456488178E+04  0.11456488178E+04  0.00000000000E+00 0.  1.
         21   -1    0    0  503  502  0.00000000000E+00 -0.00000000000E+00 -0.86993092209E+03  0.86993092209E+03  0.00000000000E+00 0. -1.
         21    1    1    2  503  501 -0.35543575363E+02 -0.18652725316E+03 -0.62212730510E+03  0.65045994932E+03  0.00000000000E+00 0. -1.
         21    1    1    2  504  505 -0.35943994641E+02  0.42010574550E+02  0.25011668541E+03  0.25615467094E+03  0.00000000000E+00 0.  1.
         21    1    1    2  505  502  0.99039863024E+02  0.95882619998E+02 -0.20902652862E+03  0.25038861986E+03  0.00000000000E+00 0. -1.
          2    1    1    2  501    0 -0.27552293020E+02  0.48634058611E+02  0.85675504404E+03  0.85857649979E+03  0.00000000000E+00 0.  1.
<scales pt_clust_3="14000.00000" pt_clust_4="55.28887" pt_clust_5="161.76556" pt_clust_6="108.52329"></scales>
<clustering>
<clus scale="   55.289">  1  4  2 -1</clus>
<clus scale="  108.523">  1  6  2 -1</clus>
<clus scale="  161.766">  1  5  2 -1</clus>
<clus scale="  161.766">  2  3  1 -1</clus>
</clustering>
</event>
<event>
 6    0  0.2839294E+002  0.1626809E+03  0.7546771E-02  0.1185703E+00
          1   -1    0    0  504    0 -0.00000000000E+00  0.00000000000E+00  0.24819901132E+03  0.24819901132E+03  0.00000000000E+00 0. -1.
         21   -1    0    0  501  502  0.00000000000E+00 -0.00000000000E+00 -0.40038555124E+03  0.40038555124E+03  0.00000000000E+00 0. -1.
         21    1    1    2  503  502  0.30993509912E+02  0.50877161575E+02 -0.19113153465E+03  0.20020076614E+03  0.00000000000E+00 0.  1.
         21    1    1    2  504  505  0.43914317884E+02 -0.52367460814E+02  0.72870496999E+02  0.99904592487E+02  0.00000000000E+00 0. -1.
         21    1    1    2  505  503 -0.45765751902E+02  0.14509968999E+03 -0.10574948649E+03  0.18528728498E+03  0.00000000000E+00 0. -1.
          1    1    1    2  501    0 -0.29142075893E+02 -0.14360939075E+03  0.71823984228E+02  0.16319191895E+03  0.00000000000E+00 0. -1.
<scales pt_clust_3="59.57418" pt_clust_4="67.18773" pt_clust_5="14000.00000" pt_clust_6="162.68089"></scales>
<clustering>
<clus scale="   59.574">  2  3  1 -1</clus>
<clus scale="   67.188">  1  4  2 -1</clus>
<clus scale="  162.681">  1  6  2 -1</clus>
<clus scale="   59.574">  2  3  1 -1</clus>
</clustering>
</event>
<event>
 6    0  0.2839294E+002  0.1761670E+03  0.7546771E-02  0.1171565E+00
          2   -1    0    0  503    0 -0.00000000000E+00  0.00000000000E+00  0.22208412045E+04  0.22208412045E+04  0.00000000000E+00 0.  1.
         21   -1    0    0  504  502  0.00000000000E+00 -0.00000000000E+00 -0.11179972864E+03  0.11179972864E+03  0.00000000000E+00 0.  1.
         21    1    1    2  503  505  0.86895175916E+02 -0.13574434384E+02  0.66470249375E+03  0.67049566894E+03  0.00000000000E+00 0.  1.
         21    1    1    2  504  501 -0.13378466398E+03  0.20230137804E+03  0.67279207610E+02  0.25169560117E+03  0.00000000000E+00 0.  1.
         21    1    1    2  505  502  0.24277688760E+02 -0.60180195858E+02  0.64771137738E+02  0.91686217224E+02  0.00000000000E+00 0.  1.
          2    1    1    2  501    0  0.22611799300E+02 -0.12854674779E+03  0.13122886368E+04  0.13187634459E+04  0.00000000000E+00 0.  1.
<scales pt_clust_3="88.94429" pt_clust_4="176.16700" pt_clust_5="64.89270" pt_clust_6="14000.00000"></scales>
<clustering>
<clus scale="   64.893">  2  5  1 -1</clus>
<clus scale="   88.944">  1  3  2 -1</clus>
<clus scale="  176.167">  2  4  1 -1</clus>
<clus scale="   64.893">  2  3  1 -1</clus>
</clustering>
</event>
<event>
 6    0  0.2839294E+002  0.1790201E+03  0.7546771E-02  0.1168755E+00
         21   -1    0    0  505  502  0.00000000000E+00  0.00000000000E+00  0.21653278259E+03  0.21653278259E+03  0.00000000000E+00 0. -1.
         -2   -1    0    0    0  501 -0.00000000000E+00 -0.00000000000E+00 -0.13587330171E+04  0.13587330171E+04  0.00000000000E+00 0.  1.
         21    1    1    2  503  504 -0.34425923481E+02  0.62817966036E+02  0.36693239500E+02  0.80483755438E+02  0.00000000000E+00 0. -1.
         21    1    1    2  504  502  0.41658060678E+02  0.12992311316E+03  0.98466345156E+02  0.16825881992E+03  0.00000000000E+00 0. -1.
         21    1    1    2  505  501  0.63323090146E+02 -0.49481872470E+02 -0.64092276771E+02  0.10279148501E+03  0.00000000000E+00 0.  1.
         -2    1    1    2    0  503 -0.70555227343E+02 -0.14325920672E+03 -0.12132675424E+04  0.12237317394E+04  0.00000000000E+00 0.  1.
<scales pt_clust_3="57.98162" pt_clust_4="57.98162" pt_clust_5="80.36336" pt_clust_6="160.14018"></scales>
<clustering>
<clus scale="   57.982">  3  4 -1 -1</clus>
<clus scale="   80.363">  1  5  2 -1</clus>
<clus scale="  160.140">  2  6  1 -1</clus>
<clus scale="   80.363">  1  3  2 -1</clus>
</clustering>
</event>
<event>
 6    0  0.2839294E+002  0.7119981E+02  0.7546771E-02  0.1356060E+00
         21   -1    0    0  505  502  0.00000000000E+00  0.00000000000E+00  0.18931812009E+03  0.18931812009E+03  0.00000000000E+00 0.  1.
          1   -1    0    0  503    0 -0.00000000000E+00 -0.00000000000E+00 -0.13585955754E+04  0.13585955754E+04  0.00000000000E+00 0.  1.
         21    1    1    2  503  502 -0.23791135152E+02 -0.22541250601E+02 -0.37199330287E+03  0.37343425589E+03  0.00000000000E+00 0. -1.
         21    1    1    2  504  501 -0.45838550887E+02 -0.76112052321E+02 -0.32136463901E+02  0.94482641622E+02  0.00000000000E+00 0. -1.
         21    1    1    2  505  504 -0.21667769728E+02  0.69031835972E+02  0.14645647999E+03  0.16335356486E+03  0.00000000000E+00 0.  1.
          1    1    1    2  501    0  0.91297455766E+02  0.29621466950E+02 -0.91160416851E+03  0.91664323310E+03  0.00000000000E+00 0.  1.
<scales pt_clust_3="32.77386" pt_clust_4="14000.00000" pt_clust_5="71.19981" pt_clust_6="69.78504"></scales>
<clustering>
<clus scale="   32.774">  2  3  1 -1</clus>
<clus scale="   69.785">  2  6  1 -1</clus>
<clus scale="   71.200">  1  5  2 -1</clus>
<clus scale="   71.200">  1  3  2 -1</clus>
</clustering>
</event>
<event>
 6    0  0.2839294E+002  0.1431652E+03  0.7546771E-02  0.1209132E+00
          2   -1    0    0  502    0 -0.00000000000E+00  0.00000000000E+00  0.14135582528E+04  0.14135582528E+04  0.00000000000E+00 0. -1.
         21   -1    0    0  503  502  0.00000000000E+00 -0.00000000000E+00 -0.17018345411E+04  0.17018345411E+04  0.00000000000E+00 0. -1.
         21    1    1    2  503  505 -0.72656004452E+02 -0.57670767645E+02 -0.12347715349E+04  0.12382510067E+04  0.00000000000E+00 0. -1.
         21    1    1    2  504  501  0.28032823536E+02  0.73277143560E+02  0.28658048938E+03  0.29712582496E+03  0.00000000000E+00 0. -1.
         21    1    1    2  505  504 -0.35168662967E+01 -0.48814136220E+02 -0.45798249154E+03  0.46059000294E+03  0.00000000000E+00 0. -1.
          2    1    1    2  501    0  0.48140047213E+02  0.33207760305E+02  0.11178972487E+04  0.11194259592E+04  0.00000000000E+00 0. -1.
<scales pt_clust_3="42.99170" pt_clust_4="130.35730" pt_clust_5="42.99170" pt_clust_6="58.48264"></scales>
<clustering>
<clus scale="   42.992">  3  5 -1 -1</clus>
<clus scale="   58.483">  1  6  2 -1</clus>
<clus scale="  130.357">  1  4  2 -1</clus>
<clus scale="  143.165">  2  3  1 -1</clus>
</clustering>
</event>
<event>
 6    0  0.2839294E+002  0.1002038E+03  0.7546771E-02  0.1279868E+00
         21   -1    0    0  504  502  0.00000000000E+00  0.00000000000E+00  0.11436632595E+03  0.11436632595E+03  0.00000000000E+00 0.  1.
          2   -1    0    0  503    0 -0.00000000000E+00 -0.00000000000E+00 -0.96685747828E+03  0.96685747828E+03  0.00000000000E+00 0.  1.
         21    1    1    2  503  505  0.52003904398E+02  0.42003543322E+02 -0.65881179255E+02  0.93856451586E+02  0.00000000000E+00 0. -1.
         21    1    1    2  504  501  0.60313306074E+02  0.35873306165E+01  0.56199595205E+02  0.82516412499E+02  0.00000000000E+00 0.  1.
         21    1    1    2  505  502 -0.32899979775E+02  0.28213201434E+02  0.10571122199E+02  0.44611007934E+02  0.00000000000E+00 0. -1.
          2    1    1    2  501    0 -0.79417230698E+02 -0.73804075372E+02 -0.85338069049E+03  0.86023993221E+03  0.00000000000E+00 0.  1.
<scales pt_clust_3="14000.00000" pt_clust_4="42.89904" pt_clust_5="43.34044" pt_clust_6="100.20385"></scales>
<clustering>
<clus scale="   43.340">  1  5  2 -1</clus>
<clus scale="   42.899">  1  4  2 -1</clus>
<clus scale="  100.204">  2  6  1 -1</clus>
<clus scale="   43.340">  1  3  2 -1</clus>
</clustering>
</event>
<event>
 6    0  0.2839294E+002  0.8262603E+02  0.7546771E-02  0.1321760E+00
         21   -1    0    0  503  502  0.00000000000E+00  0.00000000000E+00  0.98486790086E+03  0.98486790086E+03  0.00000000000E+00 0.  1.
          2   -1    0    0  504    0 -0.00000000000E+00 -0.00000000000E+00 -0.28150690984E+03  0.28150690984E+03  0.00000000000E+00 0.  1.
         21    1    1    2  503  501 -0.11357990544E+02 -0.72383701602E+02 -0.55570058776E+02  0.91958880154E+02  0.00000000000E+00 0.  1.
         21    1    1    2  504  505  0.21050410702E+02  0.86368500484E+02 -0.18790928064E+02  0.90861084322E+02  0.00000000000E+00 0.  1.
         21    1    1    2  505  502 -0.55744968755E+02  0.14100840220E+02  0.92496078367E+03  0.92674634424E+03  0.00000000000E+00 0.  1.
          2    1    1    2  501    0  0.46052548597E+02 -0.28085639103E+02 -0.14723880582E+03  0.15680850199E+03  0.00000000000E+00 0.  1.
<scales pt_clust_3="14000.00000" pt_clust_4="82.62603" pt_clust_5="57.14552" pt_clust_6="53.94108"></scales>
<clustering>
<clus scale="   53.941">  2  6  1 -1</clus>
<clus scale="   57.146">  1  5  2 -1</clus>
<clus scale="   82.626">  1  4  2 -1</clus>
<clus scale="   57.146">  1  3  2 -1</clus>
</clustering>
</event>
<event>
 6    0  0.3984613E+002  0.1569426E+03  0.7546771E-02  0.1192192E+00
          2   -1    0    0  505    0 -0.00000000000E+00  0.00000000000E+00  0.18366815054E+04  0.18366815054E+04  0.00000000000E+00 0. -1.
         21   -1    0    0  503  502  0.00000000000E+00 -0.00000000000E+00 -0.63840803280E+03  0.63840803280E+03  0.00000000000E+00 0. -1.
         21    1    1    2  503  501  0.15755415288E+03  0.58472108024E+02 -0.58895747140E+03  0.61246485746E+03  0.00000000000E+00 0. -1.
         21    1    1    2  504  502 -0.26336343887E+01 -0.30351032714E+02 -0.16408068581E+02  0.34602686767E+02  0.00000000000E+00 0.  1.
         21    1    1    2  505  504 -0.52952571873E+02 -0.39126874009E+02  0.91029834700E+02  0.11234463914E+03  0.00000000000E+00 0. -1.
          2    1    1    2  501    0 -0.10196794662E+03  0.11005798699E+02  0.17126091779E+04  0.17156773549E+04  0.00000000000E+00 0. -1.
<scales pt_clust_3="156.94262" pt_clust_4="30.46508" pt_clust_5="66.19151" pt_clust_6="14000.00000"></scales>
<clustering>
<clus scale="   30.465">  2  4  1 -1</clus>
<clus scale="   66.192">  1  5  2 -1</clus>
<clus scale="  156.943">  2  3  1 -1</clus>
<clus scale="   30.465">  2  3  1 -1</clus>
</clustering>
</event>
<event>
 6    0  0.2839294E+002  0.9703311E+02  0.7546771E-02  0.1286662E+00
         -2   -1    0    0    0  501 -0.00000000000E+00  0.00000000000E+00  0.79495281038E+03  0.79495281038E+03  0.00000000000E+00 0. -1.
         21   -1    0    0  505  502  0.00000000000E+00 -0.00000000000E+00 -0.11221956778E+03  0.11221956778E+03  0.00000000000E+00 0. -1.
         21    1    1    2  503  502  0.40716261943E+02 -0.83087945699E+02  0.20543791515E+03  0.22531346539E+03  0.00000000000E+00 0. -1.
         21    1    1    2  504  501 -0.13085646661E+03 -0.24782097726E+02  0.10966607213E+03  0.17252308425E+03  0.00000000000E+00 0. -1.
         21    1    1    2  505  504  0.16826157560E+02  0.84567477552E+02 -0.39614518511E+02  0.94889872561E+02  0.00000000000E+00 0. -1.
         -2    1    1    2    0  503  0.73314047108E+02  0.23302565873E+02  0.40724377384E+03  0.41444595596E+03  0.00000000000E+00 0. -1.
<scales pt_clust_3="14000.00000" pt_clust_4="97.03311" pt_clust_5="89.03103" pt_clust_6="76.92827"></scales>
<clustering>
<clus scale="   76.928">  1  6  2 -1</clus>
<clus scale="   89.031">  2  5  1 -1</clus>
<clus scale="   97.033">  2  4  1 -1</clus>
<clus scale="   89.031">  2  3  1 -1</clus>
</clustering>
</event>
<event>
 6    0  0.2839294E+002  0.8022923E+02  0.7546771E-02  0.1328402E+00
          2   -1    0    0  505    0 -0.00000000000E+00  0.00000000000E+00  0.34307681002E+04  0.34307681002E+04  0.00000000000E+00 0.  1.
         21   -1    0    0  504  502  0.00000000000E+00 -0.00000000000E+00 -0.83588657344E+02  0.83588657344E+02  0.00000000000E+00 0. -1.
         21    1    1    2  503  501  0.11713075195E+03 -0.30408667810E+01  0.91955127685E+02  0.14894497451E+03  0.00000000000E+00 0. -1.
         21    1    1    2  504  503 -0.37211029656E+02  0.29785332640E+01 -0.47125330408E+02  0.60119291035E+02  0.00000000000E+00 0. -1.
         21    1    1    2  505  502 -0.37847138167E+02 -0.56945612066E+02  0.15293665996E+04  0.15308943153E+04  0.00000000000E+00 0.  1.
          2    1    1    2  501    0 -0.42072584132E+02  0.57007945583E+02  0.17729830460E+04  0.17743981767E+04  0.00000000000E+00 0.  1.
<scales pt_clust_3="14000.00000" pt_clust_4="37.33005" pt_clust_5="68.84232" pt_clust_6="80.22923"></scales>
<clustering>
<clus scale="   37.330">  2  4  1 -1</clus>
<clus scale="   68.842">  1  5  2 -1</clus>
<clus scale="   80.229">  1  6  2 -1</clus>
<clus scale="   37.330">  2  3  1 -1</clus>
</clustering>
</event>
<event>
 6    0  0.2839294E+002  0.1039623E+03  0.7546771E-02  0.1272178E+00
          2   -1    0    0  503    0 -0.00000000000E+00  0.00000000000E+00  0.26952696192E+04  0.26952696192E+04  0.00000000000E+00 0. -1.
         21   -1    0    0  501  502  0.00000000000E+00 -0.00000000000E+00 -0.11991261889E+03  0.11991261889E+03  0.00000000000E+00 0. -1.
         21    1    1    2  503  505  0.10560940628E+02  0.28376751382E+02  0.96340852669E+03  0.96388420610E+03  0.00000000000E+00 0.  1.
         21    1    1    2  504  502  0.97032867337E+02  0.45006824190E+01 -0.29516669405E+02  0.10152274257E+03  0.00000000000E+00 0. -1.
         21    1    1    2  505  504 -0.11614345572E+03  0.25604617818E+02  0.12331538323E+02  0.11956991928E+03  0.00000000000E+00 0. -1.
          2    1    1    2  501    0  0.85496477517E+01 -0.58482051619E+02  0.16291336047E+04  0.16302053701E+04  0.00000000000E+00 0. -1.
<scales pt_clust_3="30.27827" pt_clust_4="14000.00000" pt_clust_5="103.96232" pt_clust_6="36.76347"></scales>
<clustering>
<clus scale="   30.278">  1  3  2 -1</clus>
<clus scale="   36.763">  1  6  2 -1</clus>
<clus scale="  103.962">  1  5  2 -1</clus>
<clus scale="  103.962">  2  3  1 -1</clus>
</clustering>
</event>
<event>
 6    0  0.2839294E+002  0.9574546E+02  0.7546771E-02  0.1289506E+00
          2   -1    0    0  505    0 -0.00000000000E+00  0.00000000000E+00  0.26640577513E+03  0.26640577513E+03  0.00000000000E+00 0.  1.
         21   -1    0    0  503  502  0.00000000000E+00 -0.00000000000E+00 -0.10614843414E+04  0.10614843414E+04  0.00000000000E+00 0.  1.
         21    1    1    2  503  504  0.36680808726E+02 -0.27483724058E+02 -0.54117200247E+02  0.70919025511E+02  0.00000000000E+00 0. -1.
         21    1    1    2  504  501 -0.76140441440E+02  0.91760448361E+02 -0.69913040564E+02  0.13822148873E+03  0.00000000000E+00 0.  1.
         21    1    1    2  505  502  0.58432656145E+02 -0.97729035574E+00 -0.88904170563E+03  0.89096042827E+03  0.00000000000E+00 0.  1.
          2    1    1    2  501    0 -0.18973023431E+02 -0.63299433947E+02  0.21799338022E+03  0.22778917397E+03  0.00000000000E+00 0.  1.
<scales pt_clust_3="45.83489" pt_clust_4="14000.00000" pt_clust_5="95.74546" pt_clust_6="66.15950"></scales>
<clustering>
<clus scale="   45.835">  2  3  1 -1</clus>
<clus scale="   66.160">  1  6  2 -1</clus>
<clus scale="   95.745">  2  5  1 -1</clus>
<clus scale="   45.835">  2  3  1 -1</clus>
</clustering>
</event>
<event>
 6    0  0.2839294E+002  0.1195661E+03  0.7546771E-02  0.1243815E+00
         21   -1    0    0  505  502  0.00000000000E+00  0.00000000000E+00  0.32814150044E+03  0.32814150044E+03  0.00000000000E+00 0.  1.
          2   -1    0    0  504    0 -0.00000000000E+00 -0.00000000000E+00 -0.28281485480E+04  0.28281485480E+04  0.00000000000E+00 0. -1.
         21    1    1    2  503  501  0.31632352997E+02  0.12918901194E+02 -0.69398460265E+01  0.34866391082E+02  0.00000000000E+00 0.  1.
         21    1    1    2  504  502  0.86353915321E+02  0.28853779979E+02 -0.67284011757E+03  0.67897228451E+03  0.00000000000E+00 0. -1.
         21    1    1    2  505  503  0.46719962021E+01  0.31768469465E+02  0.30787711309E+03  0.30954705614E+03  0.00000000000E+00 0.  1.
          2    1    1    2  501    0 -0.12265826452E+03 -0.73541150638E+02 -0.21281041971E+04  0.21329043167E+04  0.00000000000E+00 0. -1.
<scales pt_clust_3="50.02348" pt_clust_4="119.56613" pt_clust_5="32.11017" pt_clust_6="14000.00000"></scales>
<clustering>
<clus scale="   32.110">  1  5  2 -1</clus>
<clus scale="   50.023">  1  3  2 -1</clus>
<clus scale="  119.566">  1  4  2 -1</clus>
<clus scale="   32.110">  1  3  2 -1</clus>
</clustering>
</event>
<event>
 6    0  0.2839294E+002  0.1091383E+03  0.7546771E-02  0.1262174E+00
         21   -1    0    0  505  502  0.00000000000E+00  0.00000000000E+00  0.11437960821E+03  0.11437960821E+03  0.00000000000E+00 0. -1.
          1   -1    0    0  504    0 -0.00000000000E+00 -0.00000000000E+00 -0.16894976175E+04  0.16894976175E+04  0.00000000000E+00 0.  1.
         21    1    1    2  503  501  0.28788271665E+02 -0.31257037121E+02 -0.48063790234E+03  0.48251275643E+03  0.00000000000E+00 0.  1.
         21    1    1    2  504  502 -0.67271294127E+02  0.92996190121E+02  0.78448692681E+02  0.13902487466E+03  0.00000000000E+00 0. -1.
         21    1    1    2  505  503 -0.22047462096E+01 -0.69522387064E+02 -0.28212579696E+03  0.29057389511E+03  0.00000000000E+00 0.  1.
          1    1    1    2  501    0  0.40687768671E+02  0.77832340633E+01 -0.89080300265E+03  0.89176569949E+03  0.00000000000E+00 0.  1.
<scales pt_clust_3="59.58370" pt_clust_4="109.13828" pt_clust_5="14000.00000" pt_clust_6="41.42551"></scales>
<clustering>
<clus scale="   41.426">  2  6  1 -1</clus>
<clus scale="   59.584">  2  3  1 -1</clus>
<clus scale="  109.138">  1  4  2 -1</clus>
<clus scale="  109.138">  1  3  2 -1</clus>
</clustering>
</event>
<event>
 6    0  0.2839294E+002  0.2855046E+03  0.7546771E-02  0.1092720E+00
          2   -1    0    0  503    0 -0.00000000000E+00  0.00000000000E+00  0.25877091592E+04  0.25877091592E+04  0.00000000000E+00 0.  1.
         21   -1    0    0  505  502  0.00000000000E+00 -0.00000000000E+00 -0.65643955234E+03  0.65643955234E+03  0.00000000000E+00 0. -1.
         21    1    1    2  503  502  0.41195322919E+03  0.19572787969E+01  0.29270443166E+03  0.50535648634E+03  0.00000000000E+00 0.  1.
         21    1    1    2  504  501 -0.87501153310E+02 -0.38619227189E+02  0.64138015884E+03  0.64847236232E+03  0.00000000000E+00 0.  1.
         21    1    1    2  505  504 -0.15910814172E+03 -0.26558834013E+02 -0.52943873097E+03  0.55346738140E+03  0.00000000000E+00 0. -1.
          2    1    1    2  501    0 -0.16534393416E+03  0.63220782406E+02  0.15266237473E+04  0.15368524814E+04  0.00000000000E+00 0.  1.
<scales pt_clust_3="265.79135" pt_clust_4="76.62902" pt_clust_5="161.30955" pt_clust_6="76.62902"></scales>
<clustering>
<clus scale="   76.629">  4  6 -1 -1</clus>
<clus scale="  161.310">  2  5  1 -1</clus>
<clus scale="  265.791">  2  3  1 -1</clus>
<clus scale="  161.310">  2  3  1 -1</clus>
</clustering>
</event>
<event>
 6    0  0.2839294E+002  0.8947308E+02  0.7546771E-02  0.1304133E+00
          1   -1    0    0  505    0 -0.00000000000E+00  0.00000000000E+00  0.46046766143E+02  0.46046766143E+02  0.00000000000E+00 0.  1.
         21   -1    0    0  503  502  0.00000000000E+00 -0.00000000000E+00 -0.62124460416E+03  0.62124460416E+03  0.00000000000E+00 0. -1.
         21    1    1    2  503  501  0.26152951610E+01  0.55943331072E+02 -0.11803416941E+03  0.13064670378E+03  0.00000000000E+00 0. -1.
         21    1    1    2  504  502 -0.10334657559E+03 -0.78410825162E+02 -0.35794065274E+03  0.38072336817E+03  0.00000000000E+00 0. -1.
         21    1    1    2  505  504  0.33456811160E+02  0.19425533745E+02 -0.34485257216E+01  0.38840724812E+02  0.00000000000E+00 0.  1.
          1    1    1    2  501    0  0.67274469267E+02  0.30419603445E+01 -0.95774490150E+02  0.11708057354E+03  0.00000000000E+00 0.  1.
<scales pt_clust_3="61.09777" pt_clust_4="14000.00000" pt_clust_5="38.68733" pt_clust_6="89.47308"></scales>
<clustering>
<clus scale="   38.687">  1  5  2 -1</clus>
<clus scale="   61.098">  2  3  1 -1</clus>
<clus scale="   89.473">  1  6  2 -1</clus>
<clus scale="   61.098">  2  3  1 -1</clus>
</clustering>
</event>
<event>
 6    0  0.2839294E+002  0.1011264E+03  0.7546771E-02  0.1277945E+00
         -1   -1    0    0    0  501 -0.00000000000E+00  0.00000000000E+00  0.41093886395E+03  0.41093886395E+03  0.00000000000E+00 0.  1.
         21   -1    0    0  503  502  0.00000000000E+00 -0.00000000000E+00 -0.17516679255E+04  0.17516679255E+04  0.00000000000E+00 0. -1.
         21    1    1    2  503  501  0.32351302995E+02  0.68653834404E+02 -0.46390924637E+03  0.47007631790E+03  0.00000000000E+00 0.  1.
         21    1    1    2  504  502 -0.50585333722E+02 -0.34246223543E+02 -0.12423820929E+04  0.12438830108E+04  0.00000000000E+00 0. -1.
         21    1    1    2  505  504  0.44866793846E+02  0.68707838566E+02  0.16502666657E+02  0.83702653944E+02  0.00000000000E+00 0.  1.
         -1    1    1    2    0  505 -0.26632763118E+02 -0.10311544943E+03  0.34905961103E+03  0.36494480683E+03  0.00000000000E+00 0.  1.
<scales pt_clust_3="39.78800" pt_clust_4="61.08748" pt_clust_5="101.12638" pt_clust_6="14000.00000"></scales>
<clustering>
<clus scale="   61.087">  2  4  1 -1</clus>
<clus scale="   39.788">  2  3  1 -1</clus>
<clus scale="  101.126">  2  5  1 -1</clus>
<clus scale="   61.087">  2  3  1 -1</clus>
</clustering>
</event>
<event>
 6    0  0.2839294E+002  0.8985525E+02  0.7546771E-02  0.1303203E+00
         21   -1    0    0  505  502  0.00000000000E+00  0.00000000000E+00  0.19842025047E+04  0.19842025047E+04  0.00000000000E+00 0. -1.
          1   -1    0    0  503    0 -0.00000000000E+00 -0.00000000000E+00 -0.61773903371E+03  0.61773903371E+03  0.00000000000E+00 0.  1.
         21    1    1    2  503  504 -0.52137525542E+02 -0.29433866539E+02 -0.76092403345E+02  0.96823178609E+02  0.00000000000E+00 0. -1.
         21    1    1    2  504  502  0.39986447620E+02 -0.44029499111E+02  0.27007540579E+03  0.27654698985E+03  0.00000000000E+00 0. -1.
         21    1    1    2  505  501 -0.10598616477E+02 -0.42965463708E+02  0.16935703484E+04  0.16941484253E+04  0.00000000000E+00 0. -1.
          1    1    1    2  501    0  0.22749694400E+02  0.11642882936E+03 -0.52108987987E+03  0.53442294469E+03  0.00000000000E+00 0.  1.
<scales pt_clust_3="60.96656" pt_clust_4="14000.00000" pt_clust_5="44.25338" pt_clust_6="89.85525"></scales>
<clustering>
<clus scale="   44.253">  1  5  2 -1</clus>
<clus scale="   60.967">  2  3  1 -1</clus>
<clus scale="   89.855">  2  6  1 -1</clus>
<clus scale="   44.253">  1  3  2 -1</clus>
</clustering>
</event>
<event>
 6    0  0.2839294E+002  0.7592904E+02  0.7546771E-02  0.1341018E+00
         -1   -1    0    0    0  501 -0.00000000000E+00  0.00000000000E+00  0.54272070415E+03  0.54272070415E+03  0.00000000000E+00 0. -1.
         21   -1    0    0  503  502  0.00000000000E+00 -0.00000000000E+00 -0.49850843136E+03  0.49850843136E+03  0.00000000000E+00 0. -1.
         21    1    1    2  503  505 -0.76686893385E+02  0.35242233307E+02 -0.19219566751E+03  0.20990966923E+03  0.00000000000E+00 0. -1.
         21    1    1    2  504  502  0.20587938300E+02 -0.80925023335E+02 -0.27250856399E+03  0.28501515759E+03  0.00000000000E+00 0. -1.
         21    1    1    2  505  501  0.43836371544E+02 -0.80643820562E+00  0.98621322625E+01  0.44939286438E+02  0.00000000000E+00 0. -1.
         -1    1    1    2    0  504  0.12262583540E+02  0.46489228234E+02  0.49905437203E+03  0.50136502225E+03  0.00000000000E+00 0. -1.
<scales pt_clust_3="75.92904" pt_clust_4="14000.00000" pt_clust_5="43.84379" pt_clust_6="71.36951"></scales>
<clustering>
<clus scale="   43.844">  1  5  2 -1</clus>
<clus scale="   71.370">  1  6  2 -1</clus>
<clus scale="   75.929">  1  3  2 -1</clus>
<clus scale="   75.929">  2  3  1 -1</clus>
</clustering>
</event>
<event>
 6    0  0.2839294E+002  0.1507429E+03  0.7546771E-02  0.1199563E+00
          2   -1    0    0  505    0 -0.00000000000E+00  0.00000000000E+00  0.18724683251E+04  0.18724683251E+04  0.00000000000E+00 0. -1.
         21   -1    0    0  501  502  0.00000000000E+00 -0.00000000000E+00 -0.85177821490E+03  0.85177821490E+03  0.00000000000E+00 0.  1.
         21    1    1    2  503  502  0.38382328862E+02 -0.53504500291E+02 -0.66671258131E+03  0.66995641709E+03  0.00000000000E+00 0.  1.
         21    1    1    2  504  503  0.53870397324E+02 -0.68374537753E+02 -0.16803101619E+03  0.18923931812E+03  0.00000000000E+00 0. -1.
         21    1    1    2  505  504 -0.32107920871E+02 -0.15927049739E+01  0.12132229774E+03  0.12550918381E+03  0.00000000000E+00 0. -1.
          2    1    1    2  501    0 -0.60144805315E+02  0.12347174302E+03  0.17341114100E+04  0.17395416210E+04  0.00000000000E+00 0. -1.
<scales pt_clust_3="65.83166" pt_clust_4="150.74286" pt_clust_5="32.14740" pt_clust_6="14000.00000"></scales>
<clustering>
<clus scale="   32.147">  1  5  2 -1</clus>
<clus scale="   65.832">  2  3  1 -1</clus>
<clus scale="  150.743">  2  4  1 -1</clus>
<clus scale="   65.832">  2  3  1 -1</clus>
</clustering>
</event>
<event>
 6    0  0.2839294E+002  0.1616942E+03  0.7546771E-02  0.1186797E+00
          2   -1    0    0  503    0 -0.00000000000E+00  0.00000000000E+00  0.19179212705E+04  0.19179212705E+04  0.00000000000E+00 0. -1.
         21   -1    0    0  505  502  0.00000000000E+00 -0.00000000000E+00 -0.15820767993E+03  0.15820767993E+03  0.00000000000E+00 0.  1.
         21    1    1    2  503  502 -0.87498682844E+02 -0.29948084249E+02  0.34833261025E+03  0.36040049197E+03  0.00000000000E+00 0.  1.
         21    1    1    2  504  501  0.11915399647E+03 -0.51751518485E+02 -0.11371736401E+03  0.17264858360E+03  0.00000000000E+00 0.  1.
         21    1    1    2  505  504  0.37533630130E+02 -0.93792676741E+01  0.48416673807E+02  0.61975143045E+02  0.00000000000E+00 0.  1.
          2    1    1    2  501    0 -0.69188943760E+02  0.91078870408E+02  0.14766816705E+04  0.14811047318E+04  0.00000000000E+00 0. -1.
<scales pt_clust_3="91.19180" pt_clust_4="14000.00000" pt_clust_5="38.68778" pt_clust_6="161.69415"></scales>
<clustering>
<clus scale="   38.688">  2  5  1 -1</clus>
<clus scale="   91.192">  1  3  2 -1</clus>
<clus scale="  161.694">  1  6  2 -1</clus>
<clus scale="   38.688">  2  3  1 -1</clus>
</clustering>
</event>
<event>
 6    0  0.2839294E+002  0.1166010E+03  0.7546771E-02  0.1248812E+00
          1   -1    0    0  504    0 -0.00000000000E+00  0.00000000000E+00  0.79075244600E+03  0.79075244600E+03  0.00000000000E+00 0. -1.
         21   -1    0    0  505  502  0.00000000000E+00 -0.00000000000E+00 -0.33236634846E+03  0.33236634846E+03  0.00000000000E+00 0. -1.
         21    1    1    2  503  501  0.11491640385E+03  0.46772518526E+02  0.41015688372E+02  0.13067415603E+03  0.00000000000E+00 0. -1.
         21    1    1    2  504  502 -0.47131926617E+02  0.78493941725E+02  0.29976300550E+03  0.31343352861E+03  0.00000000000E+00 0. -1.
         21    1    1    2  505  503 -0.70603757558E+01 -0.11805431666E+03 -0.26571297276E+03  0.29084369424E+03  0.00000000000E+00 0. -1.
          1    1    1    2  501    0 -0.60724101474E+02 -0.72121435887E+01  0.38332037644E+03  0.38816741557E+03  0.00000000000E+00 0. -1.
<scales pt_clust_3="111.62560" pt_clust_4="116.60097" pt_clust_5="14000.00000" pt_clust_6="61.15089"></scales>
<clustering>
<clus scale="   61.151">  1  6  2 -1</clus>
<clus scale="  111.626">  1  3  2 -1</clus>
<clus scale="  116.601">  1  4  2 -1</clus>
<clus scale="  116.601">  2  3  1 -1</clus>
</clustering>
</event>
<event>
 6    0  0.2839294E+002  0.2387494E+03  0.7546771E-02  0.1120629E+00
         21   -1    0    0  503  502  0.00000000000E+00  0.00000000000E+00  0.44919031513E+03  0.44919031513E+03  0.00000000000E+00 0. -1.
          2   -1    0    0  504    0 -0.00000000000E+00 -0.00000000000E+00 -0.85350319989E+03  0.85350319989E+03  0.00000000000E+00 0.  1.
         21    1    1    2  503  505 -0.18278657853E+03  0.11919904439E+03  0.29856145407E+03  0.36980844681E+03  0.00000000000E+00 0. -1.
         21    1    1    2  504  502  0.43285437900E+02  0.58537379425E+02  0.83514050213E+02  0.11079192438E+03  0.00000000000E+00 0. -1.
         21    1    1    2  505  501 -0.20046583520E-01 -0.50859762721E+02 -0.18125832086E+03  0.18825858479E+03  0.00000000000E+00 0.  1.
          2    1    1    2  501    0  0.13952118722E+03 -0.12687666109E+03 -0.60513006819E+03  0.63383455904E+03  0.00000000000E+00 0.  1.
<scales pt_clust_3="224.99252" pt_clust_4="72.80284" pt_clust_5="41.47944" pt_clust_6="41.47944"></scales>
<clustering>
<clus scale="   41.479">  5  6 -1 -1</clus>
<clus scale="   72.803">  1  4  2 -1</clus>
<clus scale="  224.993">  1  3  2 -1</clus>
<clus scale="   72.803">  1  3  2 -1</clus>
</clustering>
</event>
<event>
 6    0  0.2839294E+002  0.9594342E+02  0.7546771E-02  0.1289065E+00
         21   -1    0    0  504  502  0.00000000000E+00  0.00000000000E+00  0.64799936589E+02  0.64799936589E+02  0.00000000000E+00 0.  1.
          2   -1    0    0  505    0 -0.00000000000E+00 -0.00000000000E+00 -0.23947007553E+04  0.23947007553E+04  0.00000000000E+00 0.  1.
         21    1    1    2  503  502  0.30933618045E+02  0.72572235768E+02 -0.97549632891E+02  0.12545735932E+03  0.00000000000E+00 0.  1.
         21    1    1    2  504  501 -0.78386390557E+02 -0.40752282702E+02 -0.26586406666E+01  0.88386894618E+02  0.00000000000E+00 0.  1.
         21    1    1    2  505  503 -0.41074272640E+02 -0.78291319535E+02 -0.28507068445E+03  0.29846594734E+03  0.00000000000E+00 0.  1.
          2    1    1    2  501    0  0.88527045152E+02  0.46471366470E+02 -0.19446218607E+04  0.19471904907E+04  0.00000000000E+00 0.  1.
<scales pt_clust_3="78.88991" pt_clust_4="56.15594" pt_clust_5="95.94342" pt_clust_6="14000.00000"></scales>
<clustering>
<clus scale="   78.890">  1  3  2 -1</clus>
<clus scale="   56.156">  1  4  2 -1</clus>
<clus scale="   95.943">  1  5  2 -1</clus>
<clus scale="   78.890">  1  3  2 -1</clus>
</clustering>
</event>
<event>
 6    0  0.2839294E+002  0.8275974E+02  0.7546771E-02  0.1321397E+00
          1   -1    0    0  505    0 -0.00000000000E+00  0.00000000000E+00  0.10634136607E+04  0.10634136607E+04  0.00000000000E+00 0.  1.
         21   -1    0    0  501  502  0.00000000000E+00 -0.00000000000E+00 -0.81463265570E+02  0.81463265570E+02  0.00000000000E+00 0. -1.
         21    1    1    2  503  504  0.51239626489E+02  0.36799078504E+02 -0.30454155559E+01  0.63158103656E+02  0.00000000000E+00 0. -1.
         21    1    1    2  504  502  0.48621489730E+01 -0.36335382288E+02 -0.32695466895E+02  0.49121217963E+02  0.00000000000E+00 0. -1.
         21    1    1    2  505  503  0.53326417998E+02 -0.18752399731E+02  0.21636143998E+03  0.22362386291E+03  0.00000000000E+00 0.  1.
          1    1    1    2  501    0 -0.10942819346E+03  0.18288703515E+02  0.80132983763E+03  0.80897374178E+03  0.00000000000E+00 0.  1.
<scales pt_clust_3="55.66818" pt_clust_4="36.65925" pt_clust_5="82.75974" pt_clust_6="14000.00000"></scales>
<clustering>
<clus scale="   36.659">  2  4  1 -1</clus>
<clus scale="   55.668">  2  3  1 -1</clus>
<clus scale="   82.760">  1  5  2 -1</clus>
<clus scale="   36.659">  2  3  1 -1</clus>
</clustering>
</event>
<event>
 6    0  0.2839294E+002  0.1876419E+03  0.7546771E-02  0.1160606E+00
         21   -1    0    0  504  502  0.00000000000E+00  0.00000000000E+00  0.70942944127E+03  0.70942944127E+03  0.00000000000E+00 0. -1.
          1   -1    0    0  502    0 -0.00000000000E+00 -0.00000000000E+00 -0.10292152103E+04  0.10292152103E+04  0.00000000000E+00 0.  1.
         21    1    1    2  503  501  0.98002437507E+02 -0.58459563801E+02 -0.48679381679E+03  0.49999021833E+03  0.00000000000E+00 0.  1.
         21    1    1    2  504  505  0.42964547266E+01 -0.46665878550E+02  0.58795611394E+03  0.58982078267E+03  0.00000000000E+00 0. -1.
         21    1    1    2  505  503 -0.15166517073E+03  0.15200488155E+03  0.76489461197E+01  0.21486347853E+03  0.00000000000E+00 0.  1.
          1    1    1    2  501    0  0.49366278499E+02 -0.46879439199E+02 -0.42859701234E+03  0.43397017209E+03  0.00000000000E+00 0.  1.
<scales pt_clust_3="30.19041" pt_clust_4="46.86325" pt_clust_5="183.52573" pt_clust_6="30.19041"></scales>
<clustering>
<clus scale="   30.190">  3  6 -1 -1</clus>
<clus scale="   46.863">  1  4  2 -1</clus>
<clus scale="  183.526">  1  5  2 -1</clus>
<clus scale="   46.863">  1  3  2 -1</clus>
</clustering>
</event>
<event>
 6    0  0.2839294E+002  0.1101043E+03  0.7546771E-02  0.1260377E+00
         21   -1    0    0  503  502  0.00000000000E+00  0.00000000000E+00  0.10411974616E+04  0.10411974616E+04  0.00000000000E+00 0.  1.
         -1   -1    0    0    0  501 -0.00000000000E+00 -0.00000000000E+00 -0.14724301901E+03  0.14724301901E+03  0.00000000000E+00 0.  1.
         21    1    1    2  503  505 -0.67708846184E+02 -0.16049128071E+03  0.82917905449E+03  0.84727790214E+03  0.00000000000E+00 0.  1.
         21    1    1    2  504  502 -0.15872022194E+01  0.72448928938E+02  0.14961767970E+03  0.16624324526E+03  0.00000000000E+00 0.  1.
         21    1    1    2  505  501  0.41099561510E+02  0.51717894244E+02 -0.10552621901E+03  0.12449778086E+03  0.00000000000E+00 0.  1.
         -1    1    1    2    0  504  0.28196486893E+02  0.36324457529E+02  0.20683927390E+02  0.50421552338E+02  0.00000000000E+00 0.  1.
<scales pt_clust_3="14000.00000" pt_clust_4="74.73024" pt_clust_5="110.10434" pt_clust_6="45.98378"></scales>
<clustering>
<clus scale="   45.984">  2  6  1 -1</clus>
<clus scale="   74.730">  1  4  2 -1</clus>
<clus scale="  110.104">  2  5  1 -1</clus>
<clus scale="   74.730">  1  3  2 -1</clus>
</clustering>
</event>
<event>
 6    0  0.2839294E+002  0.1524805E+03  0.7546771E-02  0.1197458E+00
          1   -1    0    0  504    0 -0.00000000000E+00  0.00000000000E+00  0.21116803865E+04  0.21116803865E+04  0.00000000000E+00 0. -1.
         21   -1    0    0  501  502  0.00000000000E+00 -0.00000000000E+00 -0.66414685351E+02  0.66414685351E+02  0.00000000000E+00 0.  1.
         21    1    1    2  503  505 -0.81484293629E+02 -0.33938325345E+02  0.36926126218E+02  0.95681967125E+02  0.00000000000E+00 0.  1.
         21    1    1    2  504  503 -0.41093006992E+02  0.15730066168E+03  0.11741870006E+04  0.11853890694E+04  0.00000000000E+00 0. -1.
         21    1    1    2  505  502 -0.98270514411E+01 -0.30645574964E+02 -0.12911147646E+02  0.34675927362E+02  0.00000000000E+00 0.  1.
          1    1    1    2  501    0  0.13240435206E+03 -0.92716761370E+02  0.84706372202E+03  0.86234810805E+03  0.00000000000E+00 0. -1.
<scales pt_clust_3="104.02523" pt_clust_4="152.48046" pt_clust_5="32.18264" pt_clust_6="14000.00000"></scales>
<clustering>
<clus scale="   32.183">  2  5  1 -1</clus>
<clus scale="  104.025">  2  3  1 -1</clus>
<clus scale="  152.480">  1  4  2 -1</clus>
<clus scale="   32.183">  2  3  1 -1</clus>
</clustering>
</event>
<event>
 6    0  0.2839294E+002  0.9533254E+02  0.7546771E-02  0.1290429E+00
         21   -1    0    0  505  502  0.00000000000E+00  0.00000000000E+00  0.10035713644E+02  0.10035713644E+02  0.00000000000E+00 0.  1.
         -3   -1    0    0    0  501 -0.00000000000E+00 -0.00000000000E+00 -0.21727062951E+04  0.21727062951E+04  0.00000000000E+00 0.  1.
         21    1    1    2  503  502 -0.55758831855E+02  0.31818657706E+02 -0.45917136764E+03  0.46363759465E+03  0.00000000000E+00 0.  1.
         21    1    1    2  504  503 -0.32958814440E+02 -0.89136498272E+01 -0.40645954176E+03  0.40789103409E+03  0.00000000000E+00 0.  1.
         21    1    1    2  505  501  0.75488160420E+02  0.54196200981E+02 -0.39482848513E+03  0.40561708943E+03  0.00000000000E+00 0.  1.
         -3    1    1    2    0  504  0.13229485875E+02 -0.77101208860E+02 -0.90221118694E+03  0.90559629060E+03  0.00000000000E+00 0.  1.
<scales pt_clust_3="31.36546" pt_clust_4="31.36546" pt_clust_5="85.07922" pt_clust_6="78.22797"></scales>
<clustering>
<clus scale="   31.365">  3  4 -1 -1</clus>
<clus scale="   78.228">  2  6  1 -1</clus>
<clus scale="   85.079">  1  5  2 -1</clus>
<clus scale="   85.079">  1  3  2 -1</clus>
</clustering>
</event>
<event>
 6    0  0.2839294E+002  0.1799298E+03  0.7546771E-02  0.1167871E+00
          1   -1    0    0  502    0 -0.00000000000E+00  0.00000000000E+00  0.13666390708E+04  0.13666390708E+04  0.00000000000E+00 0. -1.
         21   -1    0    0  504  502  0.00000000000E+00 -0.00000000000E+00 -0.15874985281E+04  0.15874985281E+04  0.00000000000E+00 0.  1.
         21    1    1    2  503  505 -0.11693478113E+03 -0.37946671679E+02  0.21282578258E+03  0.24578142050E+03  0.00000000000E+00 0.  1.
         21    1    1    2  504  503  0.17745546919E+03 -0.38649258542E+02 -0.15629193475E+04  0.15734360793E+04  0.00000000000E+00 0.  1.
         21    1    1    2  505  501 -0.30050173863E+02  0.53647152731E+02  0.93230204325E+03  0.93432763514E+03  0.00000000000E+00 0. -1.
          1    1    1    2  501    0 -0.30470514197E+02  0.22948777489E+02  0.19693206434E+03  0.20059246394E+03  0.00000000000E+00 0. -1.
<scales pt_clust_3="179.92983" pt_clust_4="14000.00000" pt_clust_5="90.23054" pt_clust_6="38.14575"></scales>
<clustering>
<clus scale="   38.146">  1  6  2 -1</clus>
<clus scale="   90.231">  1  5  2 -1</clus>
<clus scale="  179.930">  1  3  2 -1</clus>
<clus scale="  179.930">  2  3  1 -1</clus>
</clustering>
</event>
<event>
 6    0  0.2839294E+002  0.1571747E+03  0.7546771E-02  0.1191924E+00
         21   -1    0    0  505  502  0.00000000000E+00  0.00000000000E+00  0.13822712635E+04  0.13822712635E+04  0.00000000000E+00 0.  1.
          2   -1    0    0  503    0 -0.00000000000E+00 -0.00000000000E+00 -0.36583068313E+04  0.36583068313E+04  0.00000000000E+00 0. -1.
         21    1    1    2  503  504 -0.23791725577E+02  0.12801697335E+03 -0.98115618463E+03  0.98975848080E+03  0.00000000000E+00 0. -1.
         21    1    1    2  504  502  0.11356183358E+03  0.39903833854E+02  0.14534948619E+03  0.18871957804E+03  0.00000000000E+00 0. -1.
         21    1    1    2  505  501  0.43402464086E+02 -0.71936903832E+02  0.12069327031E+04  0.12098533969E+04  0.00000000000E+00 0.  1.
          2    1    1    2  501    0 -0.13317257209E+03 -0.95983903369E+02 -0.26471615724E+04  0.26522466390E+04  0.00000000000E+00 0. -1.
<scales pt_clust_3="128.26542" pt_clust_4="14000.00000" pt_clust_5="84.01602" pt_clust_6="157.17474"></scales>
<clustering>
<clus scale="   84.016">  1  5  2 -1</clus>
<clus scale="  128.265">  2  3  1 -1</clus>
<clus scale="  157.175">  2  6  1 -1</clus>
<clus scale="   84.016">  1  3  2 -1</clus>
</clustering>
</event>
<event>
 6    0  0.2839294E+002  0.1346444E+03  0.7546771E-02  0.1220723E+00
          2   -1    0    0  504    0 -0.00000000000E+00  0.00000000000E+00  0.12905496349E+04  0.12905496349E+04  0.00000000000E+00 0.  1.
         21   -1    0    0  505  502  0.00000000000E+00 -0.00000000000E+00 -0.10492270253E+04  0.10492270253E+04  0.00000000000E+00 0. -1.
         21    1    1    2  503  501  0.13071686788E+03 -0.10986734652E+03 -0.66120482170E+03  0.68289790571E+03  0.00000000000E+00 0. -1.
         21    1    1    2  504  502 -0.59505318922E+02  0.50282888324E+02  0.19804751758E+03  0.21281933901E+03  0.00000000000E+00 0.  1.
         21    1    1    2  505  503  0.29478994424E+01  0.88172784371E+02 -0.36302946969E+03  0.37359540399E+03  0.00000000000E+00 0. -1.
          2    1    1    2  501    0 -0.74159448401E+02 -0.28588326175E+02  0.10675093834E+04  0.10704640114E+04  0.00000000000E+00 0.  1.
<scales pt_clust_3="134.64444" pt_clust_4="77.90540" pt_clust_5="88.45754" pt_clust_6="14000.00000"></scales>
<clustering>
<clus scale="   77.905">  1  4  2 -1</clus>
<clus scale="   88.458">  2  5  1 -1</clus>
<clus scale="  134.644">  2  3  1 -1</clus>
<clus scale="   88.458">  2  3  1 -1</clus>
</clustering>
</event>
<event>
 6    0  0.2839294E+002  0.1516376E+03  0.7546771E-02  0.1198475E+00
         21   -1    0    0  505  502  0.00000000000E+00  0.00000000000E+00  0.39894957480E+02  0.39894957480E+02  0.00000000000E+00 0.  1.
          2   -1    0    0  504    0 -0.00000000000E+00 -0.00000000000E+00 -0.34207705086E+04  0.34207705086E+04  0.00000000000E+00 0. -1.
         21    1    1    2  503  501 -0.55902156451E+02  0.79242271302E+01 -0.84791090394E+03  0.84978864754E+03  0.00000000000E+00 0.  1.
         21    1    1    2  504  502  0.15833792704E+03 -0.54941210341E+00 -0.18648690919E+03  0.24463967032E+03  0.00000000000E+00 0.  1.
         21    1    1    2  505  503 -0.19366760478E+02  0.24623069893E+02 -0.18143003242E+02  0.36201319714E+02  0.00000000000E+00 0.  1.
          2    1    1    2  501    0 -0.83069010115E+02 -0.31997884920E+02 -0.23283347348E+04  0.23300358285E+04  0.00000000000E+00 0. -1.
<scales pt_clust_3="42.75042" pt_clust_4="141.91251" pt_clust_5="31.32678" pt_clust_6="42.75042"></scales>
<clustering>
<clus scale="   31.327">  1  5  2 -1</clus>
<clus scale="   42.750">  3  6 -1 -1</clus>
<clus scale="  141.913">  1  4  2 -1</clus>
<clus scale="   31.327">  1  3  2 -1</clus>
</clustering>
</event>
<event>
 6    0  0.2839294E+002  0.1170765E+03  0.7546771E-02  0.1247999E+00
         21   -1    0    0  504  502  0.00000000000E+00  0.00000000000E+00  0.34313492547E+03  0.34313492547E+03  0.00000000000E+00 0.  1.
          1   -1    0    0  505    0 -0.00000000000E+00 -0.00000000000E+00 -0.19043248984E+04  0.19043248984E+04  0.00000000000E+00 0. -1.
         21    1    1    2  503  501  0.60689341933E+02  0.58508498025E+02  0.78137876113E+02  0.11494332625E+03  0.00000000000E+00 0.  1.
         21    1    1    2  504  503 -0.14469115804E+02  0.54381662368E+02  0.23693075079E+03  0.24352187004E+03  0.00000000000E+00 0.  1.
         21    1    1    2  505  502  0.30961186219E+02 -0.11094429397E+03 -0.63676415081E+03  0.64709799503E+03  0.00000000000E+00 0.  1.
          1    1    1    2  501    0 -0.77181412349E+02 -0.19458664252E+01 -0.12394944490E+04  0.12418966326E+04  0.00000000000E+00 0. -1.
<scales pt_clust_3="117.07650" pt_clust_4="56.27362" pt_clust_5="14000.00000" pt_clust_6="77.36140"></scales>
<clustering>
<clus scale="   56.274">  1  4  2 -1</clus>
<clus scale="   77.361">  2  6  1 -1</clus>
<clus scale="  117.077">  1  3  2 -1</clus>
<clus scale="   56.274">  1  3  2 -1</clus>
</clustering>
</event>
<event>
 6    0  0.2839294E+002  0.9680398E+02  0.7546771E-02  0.1287164E+00
         21   -1    0    0  503  502  0.00000000000E+00  0.00000000000E+00  0.80792838389E+03  0.80792838389E+03  0.00000000000E+00 0. -1.
          2   -1    0    0  505    0 -0.00000000000E+00 -0.00000000000E+00 -0.88324065329E+02  0.88324065329E+02  0.00000000000E+00 0. -1.
         21    1    1    2  503  501 -0.44413246695E+02 -0.28258503110E+02  0.45448831873E+03  0.45752673293E+03  0.00000000000E+00 0. -1.
         21    1    1    2  504  502 -0.59536763000E+02  0.29872186847E+02  0.24523083068E+03  0.25411637887E+03  0.00000000000E+00 0. -1.
         21    1    1    2  505  504 -0.17321702957E+02  0.34145601333E+02 -0.30049541041E+02  0.48671741293E+02  0.00000000000E+00 0. -1.
          2    1    1    2  501    0  0.12127171265E+03 -0.35759285070E+02  0.49934710188E+02  0.13593759612E+03  0.00000000000E+00 0. -1.
<scales pt_clust_3="52.53907" pt_clust_4="96.80398" pt_clust_5="38.28790" pt_clust_6="14000.00000"></scales>
<clustering>
<clus scale="   38.288">  2  5  1 -1</clus>
<clus scale="   52.539">  1  3  2 -1</clus>
<clus scale="   96.804">  1  4  2 -1</clus>
<clus scale="   52.539">  1  3  2 -1</clus>
</clustering>
</event>
<event>
 6    0  0.2839294E+002  0.8877161E+02  0.7546771E-02  0.1305854E+00
         21   -1    0    0  503  502  0.00000000000E+00  0.00000000000E+00  0.39664834240E+03  0.39664834240E+03  0.00000000000E+00 0.  1.
          3   -1    0    0  505    0 -0.00000000000E+00 -0.00000000000E+00 -0.30172268357E+03  0.30172268357E+03  0.00000000000E+00 0. -1.
         21    1    1    2  503  501 -0.10555114761E+03 -0.25882639081E+02  0.28528794946E+03  0.30528702867E+03  0.00000000000E+00 0.  1.
         21    1    1    2  504  502  0.31288138525E+02 -0.26194303911E+02  0.87190709750E+02  0.96266863647E+02  0.00000000000E+00 0.  1.
         21    1    1    2  505  504  0.43917603446E+02  0.18235558126E+01 -0.87758509096E+02  0.98151093560E+02  0.00000000000E+00 0. -1.
          3    1    1    2  501    0  0.30345405638E+02  0.50253387179E+02 -0.18979449128E+03  0.19866604010E+03  0.00000000000E+00 0. -1.
<scales pt_clust_3="88.77161" pt_clust_4="40.80550" pt_clust_5="44.47213" pt_clust_6="14000.00000"></scales>
<clustering>
<clus scale="   40.806">  1  4  2 -1</clus>
<clus scale="   44.472">  2  5  1 -1</clus>
<clus scale="   88.772">  1  3  2 -1</clus>
<clus scale="   40.806">  1  3  2 -1</clus>
</clustering>
</event>
<event>
 6    0  0.2839294E+002  0.8080432E+02  0.7546771E-02  0.1326784E+00
         21   -1    0    0  503  502  0.00000000000E+00  0.00000000000E+00  0.46150981884E+03  0.46150981884E+03  0.00000000000E+00 0. -1.
          2   -1    0    0  505    0 -0.00000000000E+00 -0.00000000000E+00 -0.30064676966E+03  0.30064676966E+03  0.00000000000E+00 0. -1.
         21    1    1    2  503  501  0.71014748029E+02 -0.80769375916E+02  0.39408802388E+03  0.40849988627E+03  0.00000000000E+00 0. -1.
         21    1    1    2  504  502 -0.19314179598E+02  0.25091461924E+02  0.24976474618E+02  0.40329186446E+02  0.00000000000E+00 0.  1.
         21    1    1    2  505  504 -0.98257818849E+02  0.74194383026E+02 -0.14979246506E+03  0.19389994334E+03  0.00000000000E+00 0. -1.
          2    1    1    2  501    0  0.46557250418E+02 -0.18516469034E+02 -0.10840898426E+03  0.11942757244E+03  0.00000000000E+00 0. -1.
<scales pt_clust_3="14000.00000" pt_clust_4="31.66416" pt_clust_5="80.80432" pt_clust_6="49.75502"></scales>
<clustering>
<clus scale="   31.664">  1  4  2 -1</clus>
<clus scale="   49.755">  2  6  1 -1</clus>
<clus scale="   80.804">  2  5  1 -1</clus>
<clus scale="   31.664">  1  3  2 -1</clus>
</clustering>
</event>
<event>
 6    0  0.2839294E+002  0.9002569E+02  0.7546771E-02  0.1302790E+00
         21   -1    0    0  504  502  0.00000000000E+00  0.00000000000E+00  0.50129934943E+03  0.50129934943E+03  0.00000000000E+00 0. -1.
          2   -1    0    0  505    0 -0.00000000000E+00 -0.00000000000E+00 -0.76770674708E+03  0.76770674708E+03  0.00000000000E+00 0.  1.
         21    1    1    2  503  502  0.90359603363E+02 -0.54487367518E+02  0.45716125713E+03  0.46918029175E+03  0.00000000000E+00 0. -1.
         21    1    1    2  504  501 -0.25799453004E+01  0.33470756234E+02  0.19029584013E+02  0.38588504873E+02  0.00000000000E+00 0. -1.
         21    1    1    2  505  503 -0.11651290743E+02  0.41279260790E+02 -0.58082321934E+02  0.72203089051E+02  0.00000000000E+00 0.  1.
          2    1    1    2  501    0 -0.76128367320E+02 -0.20262649506E+02 -0.68451591686E+03  0.68903421085E+03  0.00000000000E+00 0.  1.
<scales pt_clust_3="90.02569" pt_clust_4="33.57004" pt_clust_5="43.38400" pt_clust_6="14000.00000"></scales>
<clustering>
<clus scale="   33.570">  1  4  2 -1</clus>
<clus scale="   43.384">  2  5  1 -1</clus>
<clus scale="   90.026">  1  3  2 -1</clus>
<clus scale="   33.570">  1  3  2 -1</clus>
</clustering>
</event>
<event>
 6    0  0.2839294E+002  0.1483368E+03  0.7546771E-02  0.1202532E+00
          1   -1    0    0  502    0 -0.00000000000E+00  0.00000000000E+00  0.48766508259E+03  0.48766508259E+03  0.00000000000E+00 0. -1.
         21   -1    0    0  503  502  0.00000000000E+00 -0.00000000000E+00 -0.24124605440E+03  0.24124605440E+03  0.00000000000E+00 0.  1.
         21    1    1    2  503  504  0.13970362686E+03  0.10635804478E+02 -0.24283744801E+01  0.14012894311E+03  0.00000000000E+00 0.  1.
         21    1    1    2  504  505 -0.97773468674E+02 -0.14966146542E+03 -0.10285757917E+03  0.20624715028E+03  0.00000000000E+00 0.  1.
         21    1    1    2  505  501 -0.12066172353E+02  0.72768763685E+02  0.13319098735E+03  0.15225217435E+03  0.00000000000E+00 0. -1.
          1    1    1    2  501    0 -0.29863985837E+02  0.66256897253E+02  0.21851399448E+03  0.23028286924E+03  0.00000000000E+00 0. -1.
<scales pt_clust_3="140.10790" pt_clust_4="143.01543" pt_clust_5="39.08406" pt_clust_6="39.08406"></scales>
<clustering>
<clus scale="   39.084">  5  6 -1 -1</clus>
<clus scale="  140.108">  2  3  1 -1</clus>
<clus scale="  143.015">  2  4  1 -1</clus>
<clus scale="  140.108">  2  3  1 -1</clus>
</clustering>
</event>
<event>
 6    0  0.2839294E+002  0.5654217E+03  0.7546771E-02  0.9979861E-01
          2   -1    0    0  503    0 -0.00000000000E+00  0.00000000000E+00  0.12073307856E+04  0.12073307856E+04  0.00000000000E+00 0. -1.
         21   -1    0    0  501  502  0.00000000000E+00 -0.00000000000E+00 -0.49458398394E+03  0.49458398394E+03  0.00000000000E+00 0. -1.
         21    1    1    2  503  505  0.42419767986E+03  0.38970932460E+03  0.55246613398E+03  0.79814526151E+03  0.00000000000E+00 0. -1.
         21    1    1    2  504  502  0.77253994238E+02 -0.16518269366E+03 -0.41598820933E+02  0.18704000592E+03  0.00000000000E+00 0. -1.
         21    1    1    2  505  504  0.58136953248E+02 -0.55764718903E+02 -0.32683914300E+02  0.86935881322E+02  0.00000000000E+00 0. -1.
          2    1    1    2  501    0 -0.55958862735E+03 -0.16876191204E+03  0.23456340292E+03  0.62979362080E+03  0.00000000000E+00 0. -1.
<scales pt_clust_3="565.42171" pt_clust_4="263.71360" pt_clust_5="32.53677" pt_clust_6="14000.00000"></scales>
<clustering>
<clus scale="   32.537">  4  5 -1 -1</clus>
<clus scale="  263.714">  2  4  1 -1</clus>
<clus scale="  565.422">  1  3  2 -1</clus>
<clus scale="  263.714">  2  3  1 -1</clus>
</clustering>
</event>
<event>
 6    0  0.2839294E+002  0.1000785E+03  0.7546771E-02  0.1280131E+00
         -3   -1    0    0    0  501 -0.00000000000E+00  0.00000000000E+00  0.18415119279E+02  0.18415119279E+02  0.00000000000E+00 0. -1.
         21   -1    0    0  505  502  0.00000000000E+00 -0.00000000000E+00 -0.35021983228E+04  0.35021983228E+04  0.00000000000E+00 0.  1.
         21    1    1    2  503  501 -0.10699431614E+03 -0.42038469663E+02 -0.48558458107E+03  0.49900641477E+03  0.00000000000E+00 0. -1.
         21    1    1    2  504  502  0.11242597678E+03  0.11719608726E+02 -0.15734853046E+04  0.15775401590E+04  0.00000000000E+00 0.  1.
         21    1    1    2  505  503 -0.27157541453E+02 -0.73871780867E+02 -0.10900356511E+04  0.10928734112E+04  0.00000000000E+00 0.  1.
         -3    1    1    2    0  504  0.21725880810E+02  0.10419064180E+03 -0.33467766668E+03  0.35119345710E+03  0.00000000000E+00 0. -1.
<scales pt_clust_3="14000.00000" pt_clust_4="100.07848" pt_clust_5="78.70560" pt_clust_6="95.36992"></scales>
<clustering>
<clus scale="   78.706">  2  5  1 -1</clus>
<clus scale="   95.370">  1  6  2 -1</clus>
<clus scale="  100.078">  2  4  1 -1</clus>
<clus scale="   78.706">  2  3  1 -1</clus>
</clustering>
</event>
<event>
 6    0  0.2839294E+002  0.1483081E+03  0.7546771E-02  0.1202567E+00
          2   -1    0    0  503    0 -0.00000000000E+00  0.00000000000E+00  0.21241133455E+04  0.21241133455E+04  0.00000000000E+00 0. -1.
         21   -1    0    0  505  502  0.00000000000E+00 -0.00000000000E+00 -0.25960225427E+03  0.25960225427E+03  0.00000000000E+00 0. -1.
         21    1    1    2  503  502 -0.27696503098E+02 -0.62893398723E+02 -0.22985376098E+03  0.23990712229E+03  0.00000000000E+00 0. -1.
         21    1    1    2  504  501  0.37371997872E+02  0.41316556966E+02  0.47137230495E+03  0.47465310910E+03  0.00000000000E+00 0. -1.
         21    1    1    2  505  504 -0.38666101693E+02 -0.54669559279E+02  0.28824729108E+02  0.72901941950E+02  0.00000000000E+00 0.  1.
          2    1    1    2  501    0  0.28990606918E+02  0.76246401036E+02  0.15941678182E+04  0.15962534265E+04  0.00000000000E+00 0. -1.
<scales pt_clust_3="134.24779" pt_clust_4="52.08957" pt_clust_5="66.96139" pt_clust_6="52.08957"></scales>
<clustering>
<clus scale="   52.090">  4  6 -1 -1</clus>
<clus scale="   66.961">  2  5  1 -1</clus>
<clus scale="  134.248">  2  3  1 -1</clus>
<clus scale="   66.961">  2  3  1 -1</clus>
</clustering>
</event>
<event>
 6    0  0.2839294E+002  0.9234455E+02  0.7546771E-02  0.1297271E+00
         21   -1    0    0  505  502  0.00000000000E+00  0.00000000000E+00  0.49877499488E+03  0.49877499488E+03  0.00000000000E+00 0.  1.
          2   -1    0    0  503    0 -0.00000000000E+00 -0.00000000000E+00 -0.97338760853E+03  0.97338760853E+03  0.00000000000E+00 0. -1.
         21    1    1    2  503  502 -0.57745849644E+02  0.75442063927E+02  0.22863439064E+03  0.24758790912E+03  0.00000000000E+00 0.  1.
         21    1    1    2  504  501  0.87655293946E+02 -0.71053793240E+01 -0.33000558467E+03  0.34152250714E+03  0.00000000000E+00 0. -1.
         21    1    1    2  505  504 -0.23344845552E+02 -0.30033117641E+02  0.25288045651E+03  0.25572542942E+03  0.00000000000E+00 0. -1.
          2    1    1    2  501    0 -0.65645987498E+01 -0.38303566962E+02 -0.62612187613E+03  0.62732675773E+03  0.00000000000E+00 0. -1.
<scales pt_clust_3="14000.00000" pt_clust_4="92.34455" pt_clust_5="38.03906" pt_clust_6="38.94472"></scales>
<clustering>
<clus scale="   38.039">  1  5  2 -1</clus>
<clus scale="   38.945">  2  6  1 -1</clus>
<clus scale="   92.345">  2  4  1 -1</clus>
<clus scale="   38.039">  1  3  2 -1</clus>
</clustering>
</event>
<event>
 6    0  0.2839294E+002  0.8709202E+02  0.7546771E-02  0.1310051E+00
          1   -1    0    0  503    0 -0.00000000000E+00  0.00000000000E+00  0.22859265526E+04  0.22859265526E+04  0.00000000000E+00 0. -1.
         21   -1    0    0  505  502  0.00000000000E+00 -0.00000000000E+00 -0.17686296510E+02  0.17686296510E+02  0.00000000000E+00 0.  1.
         21    1    1    2  503  504 -0.22866428423E+02  0.28356042023E+02  0.88531320965E+03  0.88606231036E+03  0.00000000000E+00 0.  1.
         21    1    1    2  504  502  0.64825374328E+02  0.13552735098E+02  0.21897444311E+03  0.22877021774E+03  0.00000000000E+00 0. -1.
         21    1    1    2  505  501 -0.10439209951E+03 -0.54546758110E+02  0.29717908517E+03  0.31966931026E+03  0.00000000000E+00 0.  1.
          1    1    1    2  501    0  0.62433153600E+02  0.12637980989E+02  0.86677351813E+03  0.86911101072E+03  0.00000000000E+00 0. -1.
<scales pt_clust_3="36.42717" pt_clust_4="87.09202" pt_clust_5="14000.00000" pt_clust_6="56.93753"></scales>
<clustering>
<clus scale="   36.427">  1  3  2 -1</clus>
<clus scale="   56.938">  1  6  2 -1</clus>
<clus scale="   87.092">  2  4  1 -1</clus>
<clus scale="   87.092">  2  3  1 -1</clus>
</clustering>
</event>
<event>
 6    0  0.2839294E+002  0.1060033E+03  0.7546771E-02  0.1268155E+00
         21   -1    0    0  504  502  0.00000000000E+00  0.00000000000E+00  0.56469833954E+03  0.56469833954E+03  0.00000000000E+00 0.  1.
          1   -1    0    0  503    0 -0.00000000000E+00 -0.00000000000E+00 -0.14443727324E+03  0.14443727324E+03  0.00000000000E+00 0.  1.
         21    1    1    2  503  502  0.28905514030E+02  0.37343474917E+02  0.46524895732E+01  0.47452181399E+02  0.00000000000E+00 0. -1.
         21    1    1    2  504  505 -0.43349494221E+02 -0.41155985844E+02  0.39801061649E+03  0.40247415402E+03  0.00000000000E+00 0.  1.
         21    1    1    2  505  501 -0.69567155976E+02 -0.22484434966E+02  0.10968287875E+03  0.13181605705E+03  0.00000000000E+00 0.  1.
          1    1    1    2  501    0  0.84011136167E+02  0.26296945892E+02 -0.92084918508E+02  0.12739322031E+03  0.00000000000E+00 0.  1.
<scales pt_clust_3="47.22355" pt_clust_4="58.92804" pt_clust_5="106.00332" pt_clust_6="14000.00000"></scales>
<clustering>
<clus scale="   47.224">  2  3  1 -1</clus>
<clus scale="   58.928">  1  4  2 -1</clus>
<clus scale="  106.003">  1  5  2 -1</clus>
<clus scale="   58.928">  1  3  2 -1</clus>
</clustering>
</event>
<event>
 6    0  0.2839294E+002  0.1559612E+03  0.7546771E-02  0.1193333E+00
          2   -1    0    0  504    0 -0.00000000000E+00  0.00000000000E+00  0.37007967269E+04  0.37007967269E+04  0.00000000000E+00 0.  1.
         21   -1    0    0  503  502  0.00000000000E+00 -0.00000000000E+00 -0.42674912032E+02  0.42674912032E+02  0.00000000000E+00 0. -1.
         21    1    1    2  503  505  0.10399416962E+02 -0.16497399230E+03  0.44222703277E+03  0.47211154881E+03  0.00000000000E+00 0. -1.
         21    1    1    2  504  502 -0.26471549912E+02  0.20271684774E+02 -0.15162654586E+02  0.36627725188E+02  0.00000000000E+00 0. -1.
         21    1    1    2  505  501  0.14172460773E+02  0.85228648449E+02  0.13684842243E+04  0.13712089022E+04  0.00000000000E+00 0.  1.
          2    1    1    2  501    0  0.18996721769E+01  0.59473659073E+02  0.18625732123E+04  0.18635234627E+04  0.00000000000E+00 0.  1.
<scales pt_clust_3="147.51155" pt_clust_4="33.34193" pt_clust_5="41.90456" pt_clust_6="41.90456"></scales>
<clustering>
<clus scale="   33.342">  2  4  1 -1</clus>
<clus scale="   41.905">  5  6 -1 -1</clus>
<clus scale="  147.512">  2  3  1 -1</clus>
<clus scale="   33.342">  2  3  1 -1</clus>
</clustering>
</event>
<event>
 6    0  0.2839294E+002  0.1108491E+03  0.7546771E-02  0.1259006E+00
         21   -1    0    0  501  502  0.00000000000E+00  0.00000000000E+00  0.32927066660E+03  0.32927066660E+03  0.00000000000E+00 0. -1.
         -1   -1    0    0    0  501 -0.00000000000E+00 -0.00000000000E+00 -0.32318458404E+03  0.32318458404E+03  0.00000000000E+00 0. -1.
         21    1    1    2  503  504  0.99416559693E+02 -0.77748653711E+02  0.15455194781E+03  0.19953648806E+03  0.00000000000E+00 0. -1.
         21    1    1    2  504  502 -0.50338270404E+02 -0.14899543125E+02  0.13709720772E+03  0.14680457151E+03  0.00000000000E+00 0. -1.
         21    1    1    2  505  503 -0.23325474329E+02  0.40830521905E+02 -0.82421777593E+02  0.94892353187E+02  0.00000000000E+00 0. -1.
         -1    1    1    2    0  505 -0.25752814960E+02  0.51817674930E+02 -0.20314129537E+03  0.21122183788E+03  0.00000000000E+00 0. -1.
<scales pt_clust_3="105.45263" pt_clust_4="52.49703" pt_clust_5="30.79898" pt_clust_6="30.79898"></scales>
<clustering>
<clus scale="   30.799">  5  6 -1 -1</clus>
<clus scale="   52.497">  1  4  2 -1</clus>
<clus scale="  105.453">  1  3  2 -1</clus>
<clus scale="   52.497">  1  3  2 -1</clus>
</clustering>
</event>
<event>
 6    0  0.2839294E+002  0.9611032E+02  0.7546771E-02  0.1288695E+00
         21   -1    0    0  505  502  0.00000000000E+00  0.00000000000E+00  0.90654208763E+02  0.90654208763E+02  0.00000000000E+00 0.  1.
         -1   -1    0    0    0  501 -0.00000000000E+00 -0.00000000000E+00 -0.75972482242E+03  0.75972482242E+03  0.00000000000E+00 0.  1.
         21    1    1    2  503  504 -0.55644972817E+02 -0.32173979806E+02 -0.23654701717E+03  0.24512449757E+03  0.00000000000E+00 0.  1.
         21    1    1    2  504  502  0.51461081130E+02  0.90878829848E+02 -0.87463007189E+01  0.10480316008E+03  0.00000000000E+00 0.  1.
         21    1    1    2  505  501  0.33986736522E+02 -0.25030412988E+02  0.25245213661E+02  0.49182727116E+02  0.00000000000E+00 0.  1.
         -1    1    1    2    0  503 -0.29802844834E+02 -0.33674437053E+02 -0.44902250943E+03  0.45126864642E+03  0.00000000000E+00 0.  1.
<scales pt_clust_3="96.11032" pt_clust_4="14000.00000" pt_clust_5="42.20924" pt_clust_6="44.89786"></scales>
<clustering>
<clus scale="   42.209">  1  5  2 -1</clus>
<clus scale="   44.898">  2  6  1 -1</clus>
<clus scale="   96.110">  2  3  1 -1</clus>
<clus scale="   42.209">  1  3  2 -1</clus>
</clustering>
</event>
<event>
 6    0  0.2839294E+002  0.1571227E+03  0.7546771E-02  0.1191984E+00
         21   -1    0    0  504  502  0.00000000000E+00  0.00000000000E+00  0.62594139052E+03  0.62594139052E+03  0.00000000000E+00 0. -1.
          1   -1    0    0  505    0 -0.00000000000E+00 -0.00000000000E+00 -0.16261336582E+04  0.16261336582E+04  0.00000000000E+00 0.  1.
         21    1    1    2  503  501 -0.20238261755E+03 -0.83000346947E+01  0.32552854095E+03  0.38340115472E+03  0.00000000000E+00 0. -1.
         21    1    1    2  504  503  0.48144256449E+02  0.43232187099E+02  0.26179678195E+03  0.26967470491E+03  0.00000000000E+00 0.  1.
         21    1    1    2  505  502  0.44574008629E+02 -0.11355534253E+01 -0.96264186867E+03  0.96367395889E+03  0.00000000000E+00 0.  1.
          1    1    1    2  501    0  0.10966435248E+03 -0.33796598979E+02 -0.62487572191E+03  0.63532523021E+03  0.00000000000E+00 0.  1.
<scales pt_clust_3="14000.00000" pt_clust_4="64.89899" pt_clust_5="44.58847" pt_clust_6="157.12270"></scales>
<clustering>
<clus scale="   44.588">  2  5  1 -1</clus>
<clus scale="   64.899">  1  4  2 -1</clus>
<clus scale="  157.123">  2  6  1 -1</clus>
<clus scale="   64.899">  1  3  2 -1</clus>
</clustering>
</event>
<event>
 6    0  0.2839294E+002  0.1992315E+03  0.7546771E-02  0.1150389E+00
         21   -1    0    0  504  502  0.00000000000E+00  0.00000000000E+00  0.81665217047E+02  0.81665217047E+02  0.00000000000E+00 0.  1.
          2   -1    0    0  505    0 -0.00000000000E+00 -0.00000000000E+00 -0.29746404572E+04  0.29746404572E+04  0.00000000000E+00 0.  1.
         21    1    1    2  503  501 -0.25473567097E+03 -0.92093834406E+02 -0.98873125108E+03  0.10251639007E+04  0.00000000000E+00 0.  1.
         21    1    1    2  504  503  0.25600734833E+02  0.48180786939E+02 -0.83137269190E+02  0.99441396724E+02  0.00000000000E+00 0.  1.
         21    1    1    2  505  502  0.46318928991E+02  0.30440161081E+02  0.35660085538E+02  0.65906663472E+02  0.00000000000E+00 0.  1.
          2    1    1    2  501    0  0.18281600715E+03  0.13472886386E+02 -0.18567668055E+04  0.18657937134E+04  0.00000000000E+00 0.  1.
<scales pt_clust_3="14000.00000" pt_clust_4="54.55993" pt_clust_5="90.31745" pt_clust_6="199.23148"></scales>
<clustering>
<clus scale="   54.560">  1  4  2 -1</clus>
<clus scale="   90.317">  1  5  2 -1</clus>
<clus scale="  199.231">  2  6  1 -1</clus>
<clus scale="   54.560">  1  3  2 -1</clus>
</clustering>
</event>
<event>
 6    0  0.2839294E+002  0.1198491E+03  0.7546771E-02  0.1243346E+00
         21   -1    0    0  504  502  0.00000000000E+00  0.00000000000E+00  0.41201984630E+03  0.41201984630E+03  0.00000000000E+00 0. -1.
         -4   -1    0    0    0  501 -0.00000000000E+00 -0.00000000000E+00 -0.83511066697E+03  0.83511066697E+03  0.00000000000E+00 0. -1.
         21    1    1    2  503  502 -0.71384319552E+02 -0.14057273840E+03  0.17271386951E+03  0.23385144126E+03  0.00000000000E+00 0. -1.
         21    1    1    2  504  505  0.87159633123E+02  0.20852954531E+02  0.17685551318E+03  0.19826628533E+03  0.00000000000E+00 0. -1.
         21    1    1    2  505  501 -0.80950735281E+02  0.37258035246E+02 -0.98990642048E+02  0.13319282994E+03  0.00000000000E+00 0.  1.
         -4    1    1    2    0  503  0.65175421711E+02  0.82461748620E+02 -0.67366956131E+03  0.68181995675E+03  0.00000000000E+00 0. -1.
<scales pt_clust_3="119.84910" pt_clust_4="88.58015" pt_clust_5="89.11331" pt_clust_6="14000.00000"></scales>
<clustering>
<clus scale="   89.113">  2  5  1 -1</clus>
<clus scale="   88.580">  1  4  2 -1</clus>
<clus scale="  119.849">  1  3  2 -1</clus>
<clus scale="   88.580">  1  3  2 -1</clus>
</clustering>
</event>
<event>
 6    0  0.2839294E+002  0.1017986E+03  0.7546771E-02  0.1276559E+00
         21   -1    0    0  501  502  0.00000000000E+00  0.00000000000E+00  0.71755861676E+02  0.71755861676E+02  0.00000000000E+00 0.  1.
          2   -1    0    0  503    0 -0.00000000000E+00 -0.00000000000E+00 -0.34565089288E+04  0.34565089288E+04  0.00000000000E+00 0.  1.
         21    1    1    2  503  505  0.14891295828E+02 -0.10238689941E+03 -0.29324020372E+04  0.29342267356E+04  0.00000000000E+00 0.  1.
         21    1    1    2  504  502 -0.21709813723E+02  0.21768943594E+02  0.46201585300E+02  0.55495850307E+02  0.00000000000E+00 0.  1.
         21    1    1    2  505  504 -0.73400209479E+02 -0.12147919047E+02 -0.12603000132E+03  0.14635137143E+03  0.00000000000E+00 0.  1.
          2    1    1    2  501    0  0.80218727375E+02  0.92765874862E+02 -0.37252261392E+03  0.39219083320E+03  0.00000000000E+00 0.  1.
<scales pt_clust_3="101.79858" pt_clust_4="30.74415" pt_clust_5="83.96563" pt_clust_6="14000.00000"></scales>
<clustering>
<clus scale="   30.744">  1  4  2 -1</clus>
<clus scale="   83.966">  1  5  2 -1</clus>
<clus scale="  101.799">  2  3  1 -1</clus>
<clus scale="   30.744">  1  3  2 -1</clus>
</clustering>
</event>
<event>
 6    0  0.2839294E+002  0.1270748E+03  0.7546771E-02  0.1231862E+00
         21   -1    0    0  503  502  0.00000000000E+00  0.00000000000E+00  0.87934417578E+02  0.87934417578E+02  0.00000000000E+00 0.  1.
          2   -1    0    0  504    0 -0.00000000000E+00 -0.00000000000E+00 -0.82515343898E+03  0.82515343898E+03  0.00000000000E+00 0.  1.
         21    1    1    2  503  505 -0.77651946574E+02  0.34586030878E+02 -0.17716207925E+01  0.85024449301E+02  0.00000000000E+00 0.  1.
         21    1    1    2  504  502  0.94224731896E+02  0.87745292776E+02 -0.18122244312E+03  0.22230409442E+03  0.00000000000E+00 0.  1.
         21    1    1    2  505  501  0.39149919488E+02 -0.16640750032E+03 -0.34975906712E+03  0.38930139659E+03  0.00000000000E+00 0.  1.
          2    1    1    2  501    0 -0.55722704810E+02  0.44076176662E+02 -0.20446589037E+03  0.21645791625E+03  0.00000000000E+00 0.  1.
<scales pt_clust_3="89.87442" pt_clust_4="127.07475" pt_clust_5="14000.00000" pt_clust_6="71.04737"></scales>
<clustering>
<clus scale="   71.047">  2  6  1 -1</clus>
<clus scale="   89.874">  1  3  2 -1</clus>
<clus scale="  127.075">  1  4  2 -1</clus>
<clus scale="   89.874">  1  3  2 -1</clus>
</clustering>
</event>
<event>
 6    0  0.2839294E+002  0.1033001E+03  0.7546771E-02  0.1273505E+00
         -2   -1    0    0    0  501 -0.00000000000E+00  0.00000000000E+00  0.26395319089E+03  0.26395319089E+03  0.00000000000E+00 0. -1.
         21   -1    0    0  504  502  0.00000000000E+00 -0.00000000000E+00 -0.10729524835E+03  0.10729524835E+03  0.00000000000E+00 0. -1.
         21    1    1    2  503  501 -0.29057821924E+02 -0.37931195112E+02  0.27597137809E+02  0.55179113738E+02  0.00000000000E+00 0.  1.
         21    1    1    2  504  505 -0.92682161598E+02  0.97141547768E+02  0.65199011075E+02  0.14925606998E+03  0.00000000000E+00 0. -1.
         21    1    1    2  505  503  0.93395221560E+02 -0.12150565106E+02  0.60150109112E+02  0.11175123833E+03  0.00000000000E+00 0.  1.
         -2    1    1    2    0  502  0.28344761962E+02 -0.47059787551E+02  0.37116845396E+01  0.55062017191E+02  0.00000000000E+00 0. -1.
<scales pt_clust_3="47.78214" pt_clust_4="14000.00000" pt_clust_5="103.30013" pt_clust_6="57.54766"></scales>
<clustering>
<clus scale="   47.782">  1  3  2 -1</clus>
<clus scale="   57.548">  2  6  1 -1</clus>
<clus scale="  103.300">  1  5  2 -1</clus>
<clus scale="   57.548">  2  3  1 -1</clus>
</clustering>
</event>
<event>
 6    0  0.2839294E+002  0.8259375E+02  0.7546771E-02  0.1321848E+00
          2   -1    0    0  505    0 -0.00000000000E+00  0.00000000000E+00  0.12031854512E+04  0.12031854512E+04  0.00000000000E+00 0. -1.
         21   -1    0    0  503  502  0.00000000000E+00 -0.00000000000E+00 -0.18418190505E+03  0.18418190505E+03  0.00000000000E+00 0.  1.
         21    1    1    2  503  504 -0.41706975535E+02  0.39845704739E+02 -0.77792323832E+02  0.96844192607E+02  0.00000000000E+00 0.  1.
         21    1    1    2  504  501  0.16078813830E+02 -0.63202762211E+02 -0.72880804817E+02  0.97799433107E+02  0.00000000000E+00 0. -1.
         21    1    1    2  505  502  0.10390245276E+03  0.11199522231E+02  0.26925029235E+03  0.28881978623E+03  0.00000000000E+00 0. -1.
          2    1    1    2  501    0 -0.78274291060E+02  0.12157535240E+02  0.90042638249E+03  0.90390394433E+03  0.00000000000E+00 0. -1.
<scales pt_clust_3="57.68147" pt_clust_4="34.87926" pt_clust_5="14000.00000" pt_clust_6="82.59375"></scales>
<clustering>
<clus scale="   57.681">  2  3  1 -1</clus>
<clus scale="   34.879">  2  4  1 -1</clus>
<clus scale="   82.594">  1  6  2 -1</clus>
<clus scale="   57.681">  2  3  1 -1</clus>
</clustering>
</event>
<event>
 6    0  0.2839294E+002  0.2024022E+03  0.7546771E-02  0.1147728E+00
          1   -1    0    0  505    0 -0.00000000000E+00  0.00000000000E+00  0.11400165532E+04  0.11400165532E+04  0.00000000000E+00 0.  1.
         21   -1    0    0  504  502  0.00000000000E+00 -0.00000000000E+00 -0.40534897309E+03  0.40534897309E+03  0.00000000000E+00 0. -1.
         21    1    1    2  503  501  0.12589902791E+01 -0.47154801326E+02  0.38055502659E+03  0.38346745443E+03  0.00000000000E+00 0.  1.
         21    1    1    2  504  503  0.70876513512E+02  0.21181262616E+03 -0.33890913975E+03  0.40589096291E+03  0.00000000000E+00 0. -1.
         21    1    1    2  505  502 -0.39094046449E+02 -0.11696675515E+03  0.96299396646E+02  0.15647089209E+03  0.00000000000E+00 0. -1.
          1    1    1    2  501    0 -0.33041457342E+02 -0.47691069684E+02  0.59672229663E+03  0.59953621686E+03  0.00000000000E+00 0.  1.
<scales pt_clust_3="31.48668" pt_clust_4="202.40219" pt_clust_5="14000.00000" pt_clust_6="105.94929"></scales>
<clustering>
<clus scale="   31.487">  3  6 -1 -1</clus>
<clus scale="  105.949">  1  3  2 -1</clus>
<clus scale="  202.402">  2  4  1 -1</clus>
<clus scale="  202.402">  2  3  1 -1</clus>
</clustering>
</event>
<event>
 6    0  0.2839294E+002  0.2810392E+03  0.7546771E-02  0.1095123E+00
         21   -1    0    0  501  502  0.00000000000E+00  0.00000000000E+00  0.66603944664E+03  0.66603944664E+03  0.00000000000E+00 0. -1.
          2   -1    0    0  504    0 -0.00000000000E+00 -0.00000000000E+00 -0.37402913978E+03  0.37402913978E+03  0.00000000000E+00 0. -1.
         21    1    1    2  503  502  0.88794550816E+02 -0.12629064936E+03  0.36546869348E+03  0.39673815835E+03  0.00000000000E+00 0. -1.
         21    1    1    2  504  505  0.52748526464E+02  0.15069617089E+03 -0.13233749835E+03  0.20737636421E+03  0.00000000000E+00 0. -1.
         21    1    1    2  505  503 -0.18556353232E+02 -0.13776671327E+03  0.18145788370E+03  0.22858470878E+03  0.00000000000E+00 0. -1.
          2    1    1    2  501    0 -0.12298672405E+03  0.11336119175E+03 -0.12257877198E+03  0.20736935508E+03  0.00000000000E+00 0. -1.
<scales pt_clust_3="124.59440" pt_clust_4="159.66134" pt_clust_5="124.59440" pt_clust_6="248.48084"></scales>
<clustering>
<clus scale="  124.594">  3  5 -1 -1</clus>
<clus scale="  159.661">  2  4  1 -1</clus>
<clus scale="  248.481">  2  6  1 -1</clus>
<clus scale="  281.039">  1  3  2 -1</clus>
</clustering>
</event>
<event>
 6    0  0.2839294E+002  0.7384702E+03  0.7546771E-02  0.9653614E-01
         21   -1    0    0  503  502  0.00000000000E+00  0.00000000000E+00  0.14959843987E+04  0.14959843987E+04  0.00000000000E+00 0. -1.
          2   -1    0    0  504    0 -0.00000000000E+00 -0.00000000000E+00 -0.19568946445E+04  0.19568946445E+04  0.00000000000E+00 0. -1.
         21    1    1    2  503  505 -0.52604801861E+03  0.39180625818E+03  0.48502923549E+03  0.81577694324E+03  0.00000000000E+00 0. -1.
         21    1    1    2  504  502  0.71776574593E+03 -0.44896457933E+03  0.62400207389E+03  0.10517297408E+04  0.00000000000E+00 0. -1.
         21    1    1    2  505  501 -0.11072500973E+03  0.69659874767E+02 -0.11574346946E+04  0.11648036737E+04  0.00000000000E+00 0. -1.
          2    1    1    2  501    0 -0.80992717582E+02 -0.12501553625E+02 -0.41250686053E+03  0.42056868539E+03  0.00000000000E+00 0. -1.
<scales pt_clust_3="738.47024" pt_clust_4="14000.00000" pt_clust_5="73.68295" pt_clust_6="220.65591"></scales>
<clustering>
<clus scale="   73.683">  5  6 -1 -1</clus>
<clus scale="  220.656">  2  5  1 -1</clus>
<clus scale="  738.470">  1  3  2 -1</clus>
<clus scale="  738.470">  1  3  2 -1</clus>
</clustering>
</event>
<event>
 6    0  0.2839294E+002  0.6846424E+02  0.7546771E-02  0.1365395E+00
         21   -1    0    0  503  502  0.00000000000E+00  0.00000000000E+00  0.19714793452E+04  0.19714793452E+04  0.00000000000E+00 0.  1.
          1   -1    0    0  504    0 -0.00000000000E+00 -0.00000000000E+00 -0.48917132450E+03  0.48917132450E+03  0.00000000000E+00 0.  1.
         21    1    1    2  503  505 -0.13462950748E+03 -0.19931437984E+01  0.18299943699E+04  0.18349409993E+04  0.00000000000E+00 0.  1.
         21    1    1    2  504  502  0.66298637008E+02  0.11098681052E+02  0.11887602701E+03  0.13656573431E+03  0.00000000000E+00 0.  1.
         21    1    1    2  505  501  0.54366165930E+02  0.57055168201E+02 -0.23134403312E+03  0.24439933281E+03  0.00000000000E+00 0.  1.
          1    1    1    2  501    0  0.13964704542E+02 -0.66160705454E+02 -0.23521834309E+03  0.24474460330E+03  0.00000000000E+00 0.  1.
<scales pt_clust_3="14000.00000" pt_clust_4="67.22120" pt_clust_5="68.46424" pt_clust_6="67.62597"></scales>
<clustering>
<clus scale="   67.221">  1  4  2 -1</clus>
<clus scale="   67.626">  2  6  1 -1</clus>
<clus scale="   68.464">  2  5  1 -1</clus>
<clus scale="   67.221">  1  3  2 -1</clus>
</clustering>
</event>
<event>
 6    0  0.2839294E+002  0.3116611E+03  0.7546771E-02  0.1079552E+00
          2   -1    0    0  504    0 -0.00000000000E+00  0.00000000000E+00  0.22004468510E+04  0.22004468510E+04  0.00000000000E+00 0.  1.
         21   -1    0    0  505  502  0.00000000000E+00 -0.00000000000E+00 -0.73758334475E+03  0.73758334475E+03  0.00000000000E+00 0.  1.
         21    1    1    2  503  501  0.61793493227E+02 -0.17610995740E+02  0.11844933381E+04  0.11862348212E+04  0.00000000000E+00 0.  1.
         21    1    1    2  504  502  0.18417655990E+03 -0.10651805704E+03  0.12045495965E+03  0.24449232912E+03  0.00000000000E+00 0.  1.
         21    1    1    2  505  503 -0.28141262732E+03  0.18022847352E+03 -0.63183694918E+03  0.71476800420E+03  0.00000000000E+00 0.  1.
          2    1    1    2  501    0  0.35442574196E+02 -0.56099420738E+02  0.78975215762E+03  0.79253504120E+03  0.00000000000E+00 0.  1.
<scales pt_clust_3="53.86851" pt_clust_4="14000.00000" pt_clust_5="311.66110" pt_clust_6="133.73440"></scales>
<clustering>
<clus scale="   53.869">  3  6 -1 -1</clus>
<clus scale="  133.734">  1  3  2 -1</clus>
<clus scale="  311.661">  2  5  1 -1</clus>
<clus scale="  311.661">  2  3  1 -1</clus>
</clustering>
</event>
<event>
 6    0  0.2839294E+002  0.2297606E+03  0.7546771E-02  0.1126808E+00
         21   -1    0    0  504  502  0.00000000000E+00  0.00000000000E+00  0.16559078039E+03  0.16559078039E+03  0.00000000000E+00 0.  1.
          1   -1    0    0  503    0 -0.00000000000E+00 -0.00000000000E+00 -0.10911387403E+04  0.10911387403E+04  0.00000000000E+00 0. -1.
         21    1    1    2  503  502  0.17656304639E+03 -0.46786926815E+02  0.66042494995E+02  0.19422959872E+03  0.00000000000E+00 0.  1.
         21    1    1    2  504  505  0.49675431786E+02  0.31428758355E+02 -0.18490384573E+02  0.61622314923E+02  0.00000000000E+00 0.  1.
         21    1    1    2  505  501 -0.86991412466E+02  0.24847048876E+02 -0.47773777854E+03  0.48622861570E+03  0.00000000000E+00 0. -1.
          1    1    1    2  501    0 -0.13924706571E+03 -0.94888804160E+01 -0.49536229182E+03  0.51464899137E+03  0.00000000000E+00 0. -1.
<scales pt_clust_3="222.21031" pt_clust_4="58.78278" pt_clust_5="47.03210" pt_clust_6="47.03210"></scales>
<clustering>
<clus scale="   47.032">  5  6 -1 -1</clus>
<clus scale="   58.783">  1  4  2 -1</clus>
<clus scale="  222.210">  1  3  2 -1</clus>
<clus scale="   58.783">  1  3  2 -1</clus>
</clustering>
</event>
<event>
 6    0  0.2839294E+002  0.1184860E+03  0.7546771E-02  0.1245616E+00
         21   -1    0    0  501  502  0.00000000000E+00  0.00000000000E+00  0.14871595997E+03  0.14871595997E+03  0.00000000000E+00 0. -1.
          2   -1    0    0  505    0 -0.00000000000E+00 -0.00000000000E+00 -0.75650056942E+03  0.75650056942E+03  0.00000000000E+00 0.  1.
         21    1    1    2  503  504 -0.10889480035E+03 -0.45934309305E+02 -0.10168465481E+03  0.15590961272E+03  0.00000000000E+00 0. -1.
         21    1    1    2  504  502  0.12077835243E+03 -0.12831089198E+02  0.88299831928E+02  0.15016293678E+03  0.00000000000E+00 0. -1.
         21    1    1    2  505  503  0.10628323372E+02  0.31153831135E+02 -0.16390834581E+03  0.16718094473E+03  0.00000000000E+00 0.  1.
          2    1    1    2  501    0 -0.22511875452E+02  0.27611567368E+02 -0.43049144075E+03  0.43196303516E+03  0.00000000000E+00 0.  1.
<scales pt_clust_3="14000.00000" pt_clust_4="118.48598" pt_clust_5="32.91690" pt_clust_6="52.46288"></scales>
<clustering>
<clus scale="   32.917">  2  5  1 -1</clus>
<clus scale="   52.463">  2  6  1 -1</clus>
<clus scale="  118.486">  1  4  2 -1</clus>
<clus scale="  118.486">  1  3  2 -1</clus>
</clustering>
</event>
<event>
 6    0  0.2839294E+002  0.7170565E+02  0.7546771E-02  0.1354387E+00
          2   -1    0    0  504    0 -0.00000000000E+00  0.00000000000E+00  0.17639875384E+04  0.17639875384E+04  0.00000000000E+00 0.  1.
         21   -1    0    0  503  502  0.00000000000E+00 -0.00000000000E+00 -0.15196709834E+03  0.15196709834E+03  0.00000000000E+00 0. -1.
         21    1    1    2  503  505 -0.37673498631E+02  0.15796389759E+01 -0.11788907020E+01  0.37725025403E+02  0.00000000000E+00 0.  1.
         21    1    1    2  504  502  0.63892222834E+02  0.67640077602E+02 -0.92980362409E+02  0.13153989520E+03  0.00000000000E+00 0. -1.
         21    1    1    2  505  501  0.44225831946E+02 -0.55969097069E+02  0.45816107893E+02  0.84779595308E+02  0.00000000000E+00 0. -1.
          2    1    1    2  501    0 -0.70444556149E+02 -0.13250619508E+02  0.16603635852E+04  0.16619101208E+04  0.00000000000E+00 0.  1.
<scales pt_clust_3="37.70660" pt_clust_4="71.70565" pt_clust_5="67.84764" pt_clust_6="14000.00000"></scales>
<clustering>
<clus scale="   37.707">  2  3  1 -1</clus>
<clus scale="   67.848">  2  5  1 -1</clus>
<clus scale="   71.706">  2  4  1 -1</clus>
<clus scale="   37.707">  2  3  1 -1</clus>
</clustering>
</event>
<event>
 6    0  0.2839294E+002  0.1025659E+03  0.7546771E-02  0.1274991E+00
          2   -1    0    0  503    0 -0.00000000000E+00  0.00000000000E+00  0.11306559108E+04  0.11306559108E+04  0.00000000000E+00 0.  1.
         21   -1    0    0  504  502  0.00000000000E+00 -0.00000000000E+00 -0.10730339533E+03  0.10730339533E+03  0.00000000000E+00 0.  1.
         21    1    1    2  503  502  0.33998451486E+02  0.57899385420E+01  0.10387391751E+02  0.36018273128E+02  0.00000000000E+00 0. -1.
         21    1    1    2  504  505 -0.12725596091E+03  0.89543911939E+01 -0.47853539163E+02  0.13625058502E+03  0.00000000000E+00 0.  1.
         21    1    1    2  505  501  0.46050187261E+02 -0.22596095263E+02  0.42753604537E+03  0.43060222173E+03  0.00000000000E+00 0. -1.
          2    1    1    2  501    0  0.47207322161E+02  0.78517655271E+01  0.63328261749E+03  0.63508822623E+03  0.00000000000E+00 0.  1.
<scales pt_clust_3="34.48794" pt_clust_4="95.25872" pt_clust_5="36.68736" pt_clust_6="36.68736"></scales>
<clustering>
<clus scale="   34.488">  2  3  1 -1</clus>
<clus scale="   36.687">  5  6 -1 -1</clus>
<clus scale="   95.259">  2  4  1 -1</clus>
<clus scale="   34.488">  2  3  1 -1</clus>
</clustering>
</event>
<event>
 6    0  0.2839294E+002  0.1041568E+03  0.7546771E-02  0.1271790E+00
          2   -1    0    0  503    0 -0.00000000000E+00  0.00000000000E+00  0.24744820935E+04  0.24744820935E+04  0.00000000000E+00 0.  1.
         21   -1    0    0  505  502  0.00000000000E+00 -0.00000000000E+00 -0.32292527428E+03  0.32292527428E+03  0.00000000000E+00 0. -1.
         21    1    1    2  503  502 -0.48926815415E+02  0.57615319885E+02 -0.22686695445E+03  0.23912752533E+03  0.00000000000E+00 0. -1.
         21    1    1    2  504  501  0.42902827393E+02 -0.36106419432E+01  0.70037699364E+03  0.70169909687E+03  0.00000000000E+00 0.  1.
         21    1    1    2  505  504 -0.46412823520E+02 -0.74967181614E+02 -0.66925823901E+02  0.11069459974E+03  0.00000000000E+00 0. -1.
          2    1    1    2  501    0  0.52436811542E+02  0.20962503672E+02  0.17449726040E+04  0.17458861459E+04  0.00000000000E+00 0.  1.
<scales pt_clust_3="75.58676" pt_clust_4="34.35564" pt_clust_5="96.43913" pt_clust_6="34.35564"></scales>
<clustering>
<clus scale="   34.356">  4  6 -1 -1</clus>
<clus scale="   75.587">  2  3  1 -1</clus>
<clus scale="   96.439">  2  5  1 -1</clus>
<clus scale="   75.587">  2  3  1 -1</clus>
</clustering>
</event>
<event>
 6    0  0.2839294E+002  0.2684172E+03  0.7546771E-02  0.1102189E+00
          2   -1    0    0  505    0 -0.00000000000E+00  0.00000000000E+00  0.34775560128E+04  0.34775560128E+04  0.00000000000E+00 0. -1.
         21   -1    0    0  504  502  0.00000000000E+00 -0.00000000000E+00 -0.10662968448E+03  0.10662968448E+03  0.00000000000E+00 0. -1.
         21    1    1    2  503  501 -0.24094393727E+03  0.13695504519E+03  0.13334625917E+04  0.13619593051E+04  0.00000000000E+00 0. -1.
         21    1    1    2  504  503 -0.11438427496E+02 -0.67765036032E+02 -0.66303038246E+02  0.95493615560E+02  0.00000000000E+00 0. -1.
         21    1    1    2  505  502  0.12947105669E+02  0.44564456486E+02  0.28657841213E+03  0.29031156474E+03  0.00000000000E+00 0.  1.
          2    1    1    2  501    0  0.23943525909E+03 -0.11375446564E+03  0.18171883628E+04  0.18364212119E+04  0.00000000000E+00 0. -1.
<scales pt_clust_3="268.41723" pt_clust_4="68.51267" pt_clust_5="46.40709" pt_clust_6="14000.00000"></scales>
<clustering>
<clus scale="   46.407">  1  5  2 -1</clus>
<clus scale="   68.513">  2  4  1 -1</clus>
<clus scale="  268.417">  2  3  1 -1</clus>
<clus scale="   68.513">  2  3  1 -1</clus>
</clustering>
</event>
<event>
 6    0  0.2839294E+002  0.1066736E+03  0.7546771E-02  0.1266857E+00
         21   -1    0    0  503  502  0.00000000000E+00  0.00000000000E+00  0.10300453952E+03  0.10300453952E+03  0.00000000000E+00 0.  1.
          2   -1    0    0  505    0 -0.00000000000E+00 -0.00000000000E+00 -0.33062715945E+03  0.33062715945E+03  0.00000000000E+00 0.  1.
         21    1    1    2  503  501  0.77823093051E+02 -0.51043667375E+02 -0.84010728073E+01  0.93447674211E+02  0.00000000000E+00 0.  1.
         21    1    1    2  504  502  0.21478633869E+02  0.29842353327E+02  0.14494396997E+02  0.39521959836E+02  0.00000000000E+00 0. -1.
         21    1    1    2  505  504  0.29184639134E+02 -0.37788118964E+02 -0.57375977601E+02  0.74643739870E+02  0.00000000000E+00 0.  1.
          2    1    1    2  501    0 -0.12848636605E+03  0.58989433012E+02 -0.17633996651E+03  0.22601832505E+03  0.00000000000E+00 0.  1.
<scales pt_clust_3="14000.00000" pt_clust_4="36.76816" pt_clust_5="46.72616" pt_clust_6="106.67360"></scales>
<clustering>
<clus scale="   36.768">  1  4  2 -1</clus>
<clus scale="   46.726">  2  5  1 -1</clus>
<clus scale="  106.674">  2  6  1 -1</clus>
<clus scale="   36.768">  1  3  2 -1</clus>
</clustering>
</event>
<event>
 6    0  0.2839294E+002  0.1666854E+03  0.7546771E-02  0.1181349E+00
         21   -1    0    0  505  502  0.00000000000E+00  0.00000000000E+00  0.23005565865E+03  0.23005565865E+03  0.00000000000E+00 0.  1.
          3   -1    0    0  502    0 -0.00000000000E+00 -0.00000000000E+00 -0.58690506545E+03  0.58690506545E+03  0.00000000000E+00 0.  1.
         21    1    1    2  503  501  0.53999919428E+01 -0.64985471343E+02 -0.20373354058E+03  0.21391499937E+03  0.00000000000E+00 0.  1.
         21    1    1    2  504  503  0.87735466717E+02  0.98602919365E+02  0.14735731891E+02  0.13280508131E+03  0.00000000000E+00 0.  1.
         21    1    1    2  505  504 -0.41696383170E+02  0.61963604890E+02  0.13182510742E+03  0.15151216336E+03  0.00000000000E+00 0.  1.
          3    1    1    2  501    0 -0.51439075490E+02 -0.95581052912E+02 -0.29967670554E+03  0.31872848006E+03  0.00000000000E+00 0.  1.
<scales pt_clust_3="37.86063" pt_clust_4="159.36758" pt_clust_5="74.68652" pt_clust_6="37.86063"></scales>
<clustering>
<clus scale="   37.861">  3  6 -1 -1</clus>
<clus scale="   74.687">  1  5  2 -1</clus>
<clus scale="  159.368">  1  4  2 -1</clus>
<clus scale="   74.687">  1  3  2 -1</clus>
</clustering>
</event>
<event>
 6    0  0.2839294E+002  0.1503075E+03  0.7546771E-02  0.1200096E+00
          1   -1    0    0  505    0 -0.00000000000E+00  0.00000000000E+00  0.13713781423E+04  0.13713781423E+04  0.00000000000E+00 0. -1.
         21   -1    0    0  503  502  0.00000000000E+00 -0.00000000000E+00 -0.16774563923E+04  0.16774563923E+04  0.00000000000E+00 0. -1.
         21    1    1    2  503  501  0.23444078506E+02  0.21999079018E+02 -0.48288583111E+03  0.48395486378E+03  0.00000000000E+00 0. -1.
         21    1    1    2  504  502 -0.62008947259E+02 -0.16686253555E+03 -0.11693694641E+04  0.11828411385E+04  0.00000000000E+00 0. -1.
         21    1    1    2  505  504  0.71147358279E+02 -0.16593228547E+02  0.93884846024E+02  0.11896069156E+03  0.00000000000E+00 0.  1.
          1    1    1    2  501    0 -0.32582489525E+02  0.16145668508E+03  0.12522921992E+04  0.12630778408E+04  0.00000000000E+00 0. -1.
<scales pt_clust_3="32.14941" pt_clust_4="150.30750" pt_clust_5="73.24451" pt_clust_6="14000.00000"></scales>
<clustering>
<clus scale="   32.149">  2  3  1 -1</clus>
<clus scale="   73.245">  1  5  2 -1</clus>
<clus scale="  150.307">  2  4  1 -1</clus>
<clus scale="   32.149">  2  3  1 -1</clus>
</clustering>
</event>
<event>
 6    0  0.2839294E+002  0.9500614E+02  0.7546771E-02  0.1291162E+00
          1   -1    0    0  505    0 -0.00000000000E+00  0.00000000000E+00  0.62879114134E+03  0.62879114134E+03  0.00000000000E+00 0. -1.
         21   -1    0    0  501  502  0.00000000000E+00 -0.00000000000E+00 -0.55864777639E+02  0.55864777639E+02  0.00000000000E+00 0. -1.
         21    1    1    2  503  502 -0.98165346315E+02  0.12662167768E+02  0.18671933607E+02  0.10072441022E+03  0.00000000000E+00 0. -1.
         21    1    1    2  504  503  0.53233704538E+02 -0.12235152759E+02  0.81468728479E+02  0.98085065030E+02  0.00000000000E+00 0. -1.
         21    1    1    2  505  504 -0.26157019686E+02 -0.18909390642E+02  0.80247569934E+02  0.86495243878E+02  0.00000000000E+00 0.  1.
          1    1    1    2  501    0  0.71088661464E+02  0.18482375633E+02  0.39253813168E+03  0.39935119985E+03  0.00000000000E+00 0. -1.
<scales pt_clust_3="95.00614" pt_clust_4="51.27886" pt_clust_5="32.27623" pt_clust_6="14000.00000"></scales>
<clustering>
<clus scale="   32.276">  1  5  2 -1</clus>
<clus scale="   51.279">  1  4  2 -1</clus>
<clus scale="   95.006">  2  3  1 -1</clus>
<clus scale="   95.006">  2  3  1 -1</clus>
</clustering>
</event>
<event>
 6    0  0.2839294E+002  0.1322005E+03  0.7546771E-02  0.1224227E+00
          2   -1    0    0  503    0 -0.00000000000E+00  0.00000000000E+00  0.32937938338E+04  0.32937938338E+04  0.00000000000E+00 0.  1.
         21   -1    0    0  504  502  0.00000000000E+00 -0.00000000000E+00 -0.97482364102E+02  0.97482364102E+02  0.00000000000E+00 0.  1.
         21    1    1    2  503  505 -0.59104648074E+02  0.71393311008E+00  0.33636646494E+03  0.34152052334E+03  0.00000000000E+00 0. -1.
         21    1    1    2  504  501  0.64845609619E+02 -0.69718205037E+02 -0.38804192506E+02  0.10281705382E+03  0.00000000000E+00 0.  1.
         21    1    1    2  505  502  0.69247235674E+02  0.39536229753E+02  0.44039398413E+02  0.91092050829E+02  0.00000000000E+00 0.  1.
          2    1    1    2  501    0 -0.74988197219E+02  0.29468042173E+02  0.28547097989E+04  0.28558465699E+04  0.00000000000E+00 0.  1.
<scales pt_clust_3="59.10896" pt_clust_4="14000.00000" pt_clust_5="78.57631" pt_clust_6="132.20047"></scales>
<clustering>
<clus scale="   59.109">  1  3  2 -1</clus>
<clus scale="   78.576">  2  5  1 -1</clus>
<clus scale="  132.200">  1  6  2 -1</clus>
<clus scale="   78.576">  2  3  1 -1</clus>
</clustering>
</event>
<event>
 6    0  0.2839294E+002  0.1422553E+03  0.7546771E-02  0.1210326E+00
         21   -1    0    0  503  502  0.00000000000E+00  0.00000000000E+00  0.31989564747E+03  0.31989564747E+03  0.00000000000E+00 0. -1.
          2   -1    0    0  505    0 -0.00000000000E+00 -0.00000000000E+00 -0.36988690721E+04  0.36988690721E+04  0.00000000000E+00 0. -1.
         21    1    1    2  503  504 -0.11142709235E+03  0.16198559234E+03  0.56740705212E+02  0.20463342020E+03  0.00000000000E+00 0. -1.
         21    1    1    2  504  501  0.39514268478E+02 -0.37637060820E+02 -0.94719915977E+03  0.94876982141E+03  0.00000000000E+00 0. -1.
         21    1    1    2  505  502  0.52442262356E+02 -0.46660332466E+02  0.18126417710E+03  0.19438127329E+03  0.00000000000E+00 0. -1.
          2    1    1    2  501    0  0.19470561520E+02 -0.77688199049E+02 -0.26697791471E+04  0.26709802046E+04  0.00000000000E+00 0. -1.
<scales pt_clust_3="130.22102" pt_clust_4="47.26732" pt_clust_5="70.19528" pt_clust_6="47.26732"></scales>
<clustering>
<clus scale="   47.267">  4  6 -1 -1</clus>
<clus scale="   70.195">  1  5  2 -1</clus>
<clus scale="  130.221">  1  3  2 -1</clus>
<clus scale="   70.195">  1  3  2 -1</clus>
</clustering>
</event>
<event>
 6    0  0.2839294E+002  0.1567784E+03  0.7546771E-02  0.1192383E+00
          2   -1    0    0  505    0 -0.00000000000E+00  0.00000000000E+00  0.14337455434E+04  0.14337455434E+04  0.00000000000E+00 0. -1.
         21   -1    0    0  503  502  0.00000000000E+00 -0.00000000000E+00 -0.26406126979E+02  0.26406126979E+02  0.00000000000E+00 0. -1.
         21    1    1    2  503  504  0.38882287936E+02 -0.33557647081E+01  0.75404192252E+02  0.84905156976E+02  0.00000000000E+00 0. -1.
         21    1    1    2  504  501  0.86617309772E+02  0.99591162077E+01  0.44902298936E+03  0.45740943073E+03  0.00000000000E+00 0. -1.
         21    1    1    2  505  502 -0.16069614257E+03  0.96644445467E+01  0.37055081090E+03  0.40401058796E+03  0.00000000000E+00 0. -1.
          2    1    1    2  501    0  0.35196544860E+02 -0.16267796046E+02  0.51236142385E+03  0.51382649466E+03  0.00000000000E+00 0. -1.
<scales pt_clust_3="38.36062" pt_clust_4="38.36062" pt_clust_5="145.91766" pt_clust_6="38.77419"></scales>
<clustering>
<clus scale="   38.361">  3  4 -1 -1</clus>
<clus scale="   38.774">  1  6  2 -1</clus>
<clus scale="  145.918">  2  5  1 -1</clus>
<clus scale="  145.918">  2  3  1 -1</clus>
</clustering>
</event>
<event>
 6    0  0.2839294E+002  0.1362506E+03  0.7546771E-02  0.1218465E+00
          2   -1    0    0  503    0 -0.00000000000E+00  0.00000000000E+00  0.71855508027E+03  0.71855508027E+03  0.00000000000E+00 0.  1.
         21   -1    0    0  504  502  0.00000000000E+00 -0.00000000000E+00 -0.48605206986E+02  0.48605206986E+02  0.00000000000E+00 0. -1.
         21    1    1    2  503  505 -0.47251501044E+01 -0.12093386525E+03  0.10864836472E+03  0.16264007490E+03  0.00000000000E+00 0. -1.
         21    1    1    2  504  501 -0.25327977006E+02  0.46341364976E+02  0.13367730697E+03  0.14373117590E+03  0.00000000000E+00 0.  1.
         21    1    1    2  505  502  0.32789936744E+02 -0.16786598111E+01  0.73554942103E+01  0.33646710768E+02  0.00000000000E+00 0. -1.
          2    1    1    2  501    0 -0.27368096331E+01  0.76271160084E+02  0.42026870738E+03  0.42714232568E+03  0.00000000000E+00 0.  1.
<scales pt_clust_3="123.87624" pt_clust_4="46.22784" pt_clust_5="32.83288" pt_clust_6="46.22784"></scales>
<clustering>
<clus scale="   32.833">  2  5  1 -1</clus>
<clus scale="   46.228">  4  6 -1 -1</clus>
<clus scale="  123.876">  2  3  1 -1</clus>
<clus scale="   32.833">  2  3  1 -1</clus>
</clustering>
</event>
<event>
 6    0  0.2839294E+002  0.2653733E+03  0.7546771E-02  0.1103957E+00
          1   -1    0    0  505    0 -0.00000000000E+00  0.00000000000E+00  0.20069877348E+04  0.20069877348E+04  0.00000000000E+00 0.  1.
         21   -1    0    0  503  502  0.00000000000E+00 -0.00000000000E+00 -0.12559192412E+03  0.12559192412E+03  0.00000000000E+00 0. -1.
         21    1    1    2  503  501 -0.36292827582E+02 -0.19545547418E+03  0.61862985596E+03  0.64978681920E+03  0.00000000000E+00 0.  1.
         21    1    1    2  504  502  0.55077692232E+02 -0.23175246938E+02 -0.82006695106E+02  0.10146793727E+03  0.00000000000E+00 0. -1.
         21    1    1    2  505  504 -0.41647630431E+02  0.26167290651E+03  0.10740881261E+04  0.11062877283E+04  0.00000000000E+00 0.  1.
          1    1    1    2  501    0  0.22862765781E+02 -0.43042185395E+02  0.27068452380E+03  0.27503717423E+03  0.00000000000E+00 0.  1.
<scales pt_clust_3="42.47198" pt_clust_4="59.75487" pt_clust_5="251.12777" pt_clust_6="42.47198"></scales>
<clustering>
<clus scale="   42.472">  3  6 -1 -1</clus>
<clus scale="   59.755">  2  4  1 -1</clus>
<clus scale="  251.128">  1  5  2 -1</clus>
<clus scale="   59.755">  2  3  1 -1</clus>
</clustering>
</event>
<event>
 6    0  0.2839294E+002  0.2227719E+03  0.7546771E-02  0.1131833E+00
         21   -1    0    0  504  502  0.00000000000E+00  0.00000000000E+00  0.21581238036E+02  0.21581238036E+02  0.00000000000E+00 0. -1.
          2   -1    0    0  505    0 -0.00000000000E+00 -0.00000000000E+00 -0.31897891277E+04  0.31897891277E+04  0.00000000000E+00 0. -1.
         21    1    1    2  503  502  0.17062964567E+03 -0.11682769367E+03 -0.79740907181E+03  0.82378663123E+03  0.00000000000E+00 0. -1.
         21    1    1    2  504  501 -0.60713877579E+02  0.30084736791E+02 -0.39032088439E+03  0.39615862872E+03  0.00000000000E+00 0. -1.
         21    1    1    2  505  503 -0.41688395660E+02 -0.40274489048E+02 -0.37087311018E+03  0.37537557280E+03  0.00000000000E+00 0.  1.
          2    1    1    2  501    0 -0.68227372431E+02  0.12701744592E+03 -0.16096048232E+04  0.16160495329E+04  0.00000000000E+00 0. -1.
<scales pt_clust_3="204.09660" pt_clust_4="63.78837" pt_clust_5="57.96513" pt_clust_6="63.78837"></scales>
<clustering>
<clus scale="   57.965">  2  5  1 -1</clus>
<clus scale="   63.788">  4  6 -1 -1</clus>
<clus scale="  204.097">  1  3  2 -1</clus>
<clus scale="  204.097">  1  3  2 -1</clus>
</clustering>
</event>
<event>
 6    0  0.2839294E+002  0.1270373E+03  0.7546771E-02  0.1231919E+00
         -1   -1    0    0    0  501 -0.00000000000E+00  0.00000000000E+00  0.11548082755E+04  0.11548082755E+04  0.00000000000E+00 0. -1.
         21   -1    0    0  504  502  0.00000000000E+00 -0.00000000000E+00 -0.28839593699E+02  0.28839593699E+02  0.00000000000E+00 0. -1.
         21    1    1    2  503  501  0.53028823077E+02 -0.12221164842E+03  0.29791171294E+03  0.32634204724E+03  0.00000000000E+00 0. -1.
         21    1    1    2  504  505 -0.33474547772E+02 -0.96786623630E+01  0.62223469346E+02  0.71316071058E+02  0.00000000000E+00 0. -1.
         21    1    1    2  505  503  0.43841416035E+02  0.24682140801E+02  0.17054630290E+03  0.17781259592E+03  0.00000000000E+00 0. -1.
         -1    1    1    2    0  502 -0.63395691341E+02  0.10720816999E+03  0.59528719659E+03  0.60817715496E+03  0.00000000000E+00 0. -1.
<scales pt_clust_3="14000.00000" pt_clust_4="34.84569" pt_clust_5="45.25506" pt_clust_6="127.03731"></scales>
<clustering>
<clus scale="   34.846">  2  4  1 -1</clus>
<clus scale="   45.255">  2  5  1 -1</clus>
<clus scale="  127.037">  1  6  2 -1</clus>
<clus scale="   34.846">  2  3  1 -1</clus>
</clustering>
</event>
<event>
 6    0  0.2839294E+002  0.1677995E+03  0.7546771E-02  0.1180162E+00
         21   -1    0    0  505  502  0.00000000000E+00  0.00000000000E+00  0.12264058730E+03  0.12264058730E+03  0.00000000000E+00 0.  1.
          1   -1    0    0  503    0 -0.00000000000E+00 -0.00000000000E+00 -0.14269422848E+04  0.14269422848E+04  0.00000000000E+00 0.  1.
         21    1    1    2  503  502 -0.13619578911E+03  0.12961003068E+03 -0.32360630818E+02  0.19077542675E+03  0.00000000000E+00 0.  1.
         21    1    1    2  504  501  0.85448421082E+02 -0.72026709750E+02 -0.99389945615E+03  0.10001626910E+04  0.00000000000E+00 0.  1.
         21    1    1    2  505  504  0.40453865139E+02  0.15013943865E+02  0.22934153769E+02  0.48866237058E+02  0.00000000000E+00 0. -1.
          1    1    1    2  501    0  0.10293502891E+02 -0.72597264800E+02 -0.30097576433E+03  0.30977851728E+03  0.00000000000E+00 0.  1.
<scales pt_clust_3="14000.00000" pt_clust_4="167.79947" pt_clust_5="43.15013" pt_clust_6="72.88867"></scales>
<clustering>
<clus scale="   43.150">  1  5  2 -1</clus>
<clus scale="   72.889">  2  6  1 -1</clus>
<clus scale="  167.799">  2  4  1 -1</clus>
<clus scale="   43.150">  1  3  2 -1</clus>
</clustering>
</event>
<event>
 6    0  0.2839294E+002  0.1745228E+03  0.7546771E-02  0.1173212E+00
         21   -1    0    0  501  502  0.00000000000E+00  0.00000000000E+00  0.15692150853E+03  0.15692150853E+03  0.00000000000E+00 0.  1.
         -1   -1    0    0    0  501 -0.00000000000E+00 -0.00000000000E+00 -0.22031379458E+03  0.22031379458E+03  0.00000000000E+00 0. -1.
         21    1    1    2  503  502  0.37613572960E+02 -0.34212799487E+02  0.41055832351E+02  0.65351953985E+02  0.00000000000E+00 0.  1.
         21    1    1    2  504  505 -0.46858928901E+02  0.71906364132E+02 -0.41235704115E+02  0.95219051215E+02  0.00000000000E+00 0. -1.
         21    1    1    2  505  503  0.95478639596E+02 -0.55834248923E+02 -0.43478433044E+01  0.11069118173E+03  0.00000000000E+00 0.  1.
         -1    1    1    2    0  504 -0.86233283655E+02  0.18140684278E+02 -0.58864570976E+02  0.10597311618E+03  0.00000000000E+00 0. -1.
<scales pt_clust_3="41.91477" pt_clust_4="67.19777" pt_clust_5="172.17349" pt_clust_6="67.19777"></scales>
<clustering>
<clus scale="   41.915">  3  5 -1 -1</clus>
<clus scale="   67.198">  4  6 -1 -1</clus>
<clus scale="  172.173">  1  3  2 -1</clus>
<clus scale="  172.173">  1  3  2 -1</clus>
</clustering>
</event>
<event>
 6    0  0.2839294E+002  0.8305119E+02  0.7546771E-02  0.1320609E+00
         21   -1    0    0  505  502  0.00000000000E+00  0.00000000000E+00  0.12993838051E+04  0.12993838051E+04  0.00000000000E+00 0. -1.
          4   -1    0    0  503    0 -0.00000000000E+00 -0.00000000000E+00 -0.25115326703E+03  0.25115326703E+03  0.00000000000E+00 0. -1.
         21    1    1    2  503  502  0.35845640389E+02 -0.28215042074E+01 -0.25875024854E+02  0.44298845719E+02  0.00000000000E+00 0.  1.
         21    1    1    2  504  501 -0.65625927510E+02  0.20461474328E+02  0.27119237432E+03  0.27976908010E+03  0.00000000000E+00 0.  1.
         21    1    1    2  505  504  0.67241976188E+02 -0.63873056382E+02  0.10083407653E+04  0.10125968347E+04  0.00000000000E+00 0. -1.
          4    1    1    2  501    0 -0.37461689066E+02  0.46233086261E+02 -0.20542757668E+03  0.21387231161E+03  0.00000000000E+00 0. -1.
<scales pt_clust_3="35.95651" pt_clust_4="14000.00000" pt_clust_5="83.05119" pt_clust_6="43.57789"></scales>
<clustering>
<clus scale="   35.957">  2  3  1 -1</clus>
<clus scale="   43.578">  2  6  1 -1</clus>
<clus scale="   83.051">  1  5  2 -1</clus>
<clus scale="   83.051">  1  3  2 -1</clus>
</clustering>
</event>
<event>
 6    0  0.2839294E+002  0.1035238E+03  0.7546771E-02  0.1273056E+00
          1   -1    0    0  504    0 -0.00000000000E+00  0.00000000000E+00  0.43202752354E+03  0.43202752354E+03  0.00000000000E+00 0.  1.
         21   -1    0    0  505  502  0.00000000000E+00 -0.00000000000E+00 -0.22020029532E+03  0.22020029532E+03  0.00000000000E+00 0. -1.
         21    1    1    2  503  501  0.88030622799E+02  0.70939478217E+02  0.43147119901E+02  0.12101022302E+03  0.00000000000E+00 0.  1.
         21    1    1    2  504  502 -0.31423399606E+02 -0.35862370376E+02  0.11711510078E+02  0.49098870864E+02  0.00000000000E+00 0.  1.
         21    1    1    2  505  503 -0.88322200959E+02  0.33347546397E+02 -0.14380975178E+03  0.17202940080E+03  0.00000000000E+00 0. -1.
          1    1    1    2  501    0  0.31714977767E+02 -0.68424654238E+02  0.30077835003E+03  0.31008932418E+03  0.00000000000E+00 0.  1.
<scales pt_clust_3="103.52383" pt_clust_4="47.68165" pt_clust_5="14000.00000" pt_clust_6="75.87043"></scales>
<clustering>
<clus scale="   47.682">  2  4  1 -1</clus>
<clus scale="   75.870">  1  6  2 -1</clus>
<clus scale="  103.524">  1  3  2 -1</clus>
<clus scale="   47.682">  2  3  1 -1</clus>
</clustering>
</event>
<event>
 6    0  0.2839294E+002  0.8592604E+02  0.7546771E-02  0.1313028E+00
         -2   -1    0    0    0  501 -0.00000000000E+00  0.00000000000E+00  0.39658706951E+02  0.39658706951E+02  0.00000000000E+00 0. -1.
         21   -1    0    0  504  502  0.00000000000E+00 -0.00000000000E+00 -0.19083497940E+04  0.19083497940E+04  0.00000000000E+00 0. -1.
         21    1    1    2  503  502 -0.79511183908E+01 -0.36576942373E+02 -0.24711436713E+03  0.24993319795E+03  0.00000000000E+00 0. -1.
         21    1    1    2  504  505 -0.69291797616E+02  0.73145913778E+02 -0.15457773716E+04  0.15490575717E+04  0.00000000000E+00 0. -1.
         21    1    1    2  505  501 -0.13437663524E+02 -0.30684058562E+02 -0.51010179036E+01  0.33883663239E+02  0.00000000000E+00 0. -1.
         -2    1    1    2    0  503  0.90680579531E+02 -0.58849128421E+01 -0.70698330427E+02  0.11513406806E+03  0.00000000000E+00 0. -1.
<scales pt_clust_3="39.26463" pt_clust_4="85.92604" pt_clust_5="33.49750" pt_clust_6="14000.00000"></scales>
<clustering>
<clus scale="   33.497">  1  5  2 -1</clus>
<clus scale="   39.265">  2  3  1 -1</clus>
<clus scale="   85.926">  2  4  1 -1</clus>
<clus scale="   39.265">  2  3  1 -1</clus>
</clustering>
</event>
<event>
 6    0  0.2839294E+002  0.1614591E+03  0.7546771E-02  0.1187059E+00
         21   -1    0    0  501  502  0.00000000000E+00  0.00000000000E+00  0.20121408536E+04  0.20121408536E+04  0.00000000000E+00 0. -1.
          2   -1    0    0  505    0 -0.00000000000E+00 -0.00000000000E+00 -0.93074726971E+02  0.93074726971E+02  0.00000000000E+00 0.  1.
         21    1    1    2  503  504  0.20829136371E+03 -0.10632544479E+03  0.15896234458E+04  0.16067336717E+04  0.00000000000E+00 0. -1.
         21    1    1    2  504  502 -0.54524231706E+02  0.46848892447E+02  0.19687559734E+03  0.20958938760E+03  0.00000000000E+00 0. -1.
         21    1    1    2  505  503 -0.18082238637E+02  0.10773297062E+03  0.34106812495E+02  0.11444053028E+03  0.00000000000E+00 0.  1.
          2    1    1    2  501    0 -0.13568489337E+03 -0.48256418269E+02  0.98460271019E+02  0.17445199100E+03  0.00000000000E+00 0.  1.
<scales pt_clust_3="14000.00000" pt_clust_4="71.88679" pt_clust_5="111.52358" pt_clust_6="161.45909"></scales>
<clustering>
<clus scale="   71.887">  1  4  2 -1</clus>
<clus scale="  111.524">  2  5  1 -1</clus>
<clus scale="  161.459">  2  6  1 -1</clus>
<clus scale="   71.887">  1  3  2 -1</clus>
</clustering>
</event>
<event>
 6    0  0.2839294E+002  0.2096216E+03  0.7546771E-02  0.1141866E+00
         21   -1    0    0  505  502  0.00000000000E+00  0.00000000000E+00  0.17042380511E+04  0.17042380511E+04  0.00000000000E+00 0.  1.
          2   -1    0    0  503    0 -0.00000000000E+00 -0.00000000000E+00 -0.16056294806E+04  0.16056294806E+04  0.00000000000E+00 0.  1.
         21    1    1    2  503  504 -0.39302663584E+02 -0.37232614752E+02 -0.13388076662E+03  0.14441269555E+03  0.00000000000E+00 0. -1.
         21    1    1    2  504  502 -0.69051948686E+02  0.15693277756E+03  0.12014228048E+04  0.12135950001E+04  0.00000000000E+00 0.  1.
         21    1    1    2  505  501  0.22873387750E+03 -0.17230402503E+02  0.46009991544E+03  0.51410894339E+03  0.00000000000E+00 0.  1.
          2    1    1    2  501    0 -0.12037926523E+03 -0.10246976031E+03 -0.14290333832E+04  0.14377508927E+04  0.00000000000E+00 0.  1.
<scales pt_clust_3="54.13841" pt_clust_4="171.37721" pt_clust_5="14000.00000" pt_clust_6="209.62163"></scales>
<clustering>
<clus scale="   54.138">  2  3  1 -1</clus>
<clus scale="  171.377">  1  4  2 -1</clus>
<clus scale="  209.622">  2  6  1 -1</clus>
<clus scale="  171.377">  1  3  2 -1</clus>
</clustering>
</event>
<event>
 6    0  0.2839294E+002  0.8128070E+02  0.7546771E-02  0.1325456E+00
          2   -1    0    0  503    0 -0.00000000000E+00  0.00000000000E+00  0.14136220326E+04  0.14136220326E+04  0.00000000000E+00 0.  1.
         21   -1    0    0  505  502  0.00000000000E+00 -0.00000000000E+00 -0.59198539643E+02  0.59198539643E+02  0.00000000000E+00 0. -1.
         21    1    1    2  503  504  0.75380137129E+02  0.17496821431E+02  0.34943718527E+03  0.35790312975E+03  0.00000000000E+00 0. -1.
         21    1    1    2  504  502  0.54247774324E+02 -0.24549512586E+01  0.78676319346E+02  0.95597128779E+02  0.00000000000E+00 0. -1.
         21    1    1    2  505  501 -0.79700843567E+02  0.61908739815E+02  0.13391399539E+02  0.10180494149E+03  0.00000000000E+00 0. -1.
          2    1    1    2  501    0 -0.49927067887E+02 -0.76950609988E+02  0.91291858877E+03  0.91751537219E+03  0.00000000000E+00 0.  1.
<scales pt_clust_3="81.28070" pt_clust_4="54.30329" pt_clust_5="68.00396" pt_clust_6="14000.00000"></scales>
<clustering>
<clus scale="   54.303">  2  4  1 -1</clus>
<clus scale="   68.004">  2  5  1 -1</clus>
<clus scale="   81.281">  2  3  1 -1</clus>
<clus scale="   54.303">  2  3  1 -1</clus>
</clustering>
</event>
<event>
 6    0  0.2839294E+002  0.1568167E+03  0.7546771E-02  0.1192338E+00
          2   -1    0    0  504    0 -0.00000000000E+00  0.00000000000E+00  0.13382778789E+04  0.13382778789E+04  0.00000000000E+00 0.  1.
         21   -1    0    0  503  502  0.00000000000E+00 -0.00000000000E+00 -0.17263856084E+03  0.17263856084E+03  0.00000000000E+00 0. -1.
         21    1    1    2  503  501  0.59808973745E+02  0.19521321895E+03  0.32994410023E+02  0.20681862896E+03  0.00000000000E+00 0. -1.
         21    1    1    2  504  505 -0.50283519745E+01  0.56605587684E+02  0.27015422195E+03  0.27606662333E+03  0.00000000000E+00 0. -1.
         21    1    1    2  505  502  0.22117721836E+02 -0.74222458519E+02 -0.52000920526E+02  0.93285919106E+02  0.00000000000E+00 0. -1.
          2    1    1    2  501    0 -0.76898343607E+02 -0.17759634811E+03  0.91449160664E+03  0.93474526836E+03  0.00000000000E+00 0.  1.
<scales pt_clust_3="156.81666" pt_clust_4="56.82849" pt_clust_5="76.36901" pt_clust_6="14000.00000"></scales>
<clustering>
<clus scale="   56.828">  1  4  2 -1</clus>
<clus scale="   76.369">  2  5  1 -1</clus>
<clus scale="  156.817">  2  3  1 -1</clus>
<clus scale="   76.369">  2  3  1 -1</clus>
</clustering>
</event>
<event>
 6    0  0.2839294E+002  0.1496398E+03  0.7546771E-02  0.1200916E+00
          2   -1    0    0  505    0 -0.00000000000E+00  0.00000000000E+00  0.15924274927E+03  0.15924274927E+03  0.00000000000E+00 0. -1.
         21   -1    0    0  503  502  0.00000000000E+00 -0.00000000000E+00 -0.13866406937E+04  0.13866406937E+04  0.00000000000E+00 0.  1.
         21    1    1    2  503  501 -0.14445019971E+03  0.56724345414E+02 -0.10142945589E+04  0.10260979309E+04  0.00000000000E+00 0.  1.
         21    1    1    2  504  502  0.14212652333E+03  0.14781802284E+02 -0.22464338641E+03  0.26623880515E+03  0.00000000000E+00 0.  1.
         21    1    1    2  505  504 -0.98857094798E+02  0.17367645113E+02  0.51850552445E+02  0.11297274042E+03  0.00000000000E+00 0.  1.
          2    1    1    2  501    0  0.10118077117E+03 -0.88873792811E+02 -0.40310551609E+02  0.14057396656E+03  0.00000000000E+00 0. -1.
<scales pt_clust_3="14000.00000" pt_clust_4="149.63976" pt_clust_5="100.37111" pt_clust_6="85.77827"></scales>
<clustering>
<clus scale="  100.371">  1  5  2 -1</clus>
<clus scale="   85.778">  1  6  2 -1</clus>
<clus scale="  149.640">  1  4  2 -1</clus>
<clus scale="  149.640">  2  3  1 -1</clus>
</clustering>
</event>
<event>
 6    0  0.2839294E+002  0.1185035E+03  0.7546771E-02  0.1245586E+00
          2   -1    0    0  503    0 -0.00000000000E+00  0.00000000000E+00  0.14039236469E+04  0.14039236469E+04  0.00000000000E+00 0. -1.
         21   -1    0    0  505  502  0.00000000000E+00 -0.00000000000E+00 -0.16996627332E+02  0.16996627332E+02  0.00000000000E+00 0. -1.
         21    1    1    2  503  504 -0.57569177262E+02 -0.85422374449E+02  0.73585518773E+03  0.74303031535E+03  0.00000000000E+00 0. -1.
         21    1    1    2  504  502 -0.45568802827E+02  0.69942822102E+01  0.10196159169E+03  0.11189996405E+03  0.00000000000E+00 0. -1.
         21    1    1    2  505  501  0.48163054909E+02  0.11199762202E+02  0.16901656043E+03  0.17610142597E+03  0.00000000000E+00 0.  1.
          2    1    1    2  501    0  0.54974925180E+02  0.67228330037E+02  0.38009367977E+03  0.38988856890E+03  0.00000000000E+00 0. -1.
<scales pt_clust_3="109.58498" pt_clust_4="46.10245" pt_clust_5="34.03319" pt_clust_6="34.03319"></scales>
<clustering>
<clus scale="   34.033">  5  6 -1 -1</clus>
<clus scale="   46.102">  2  4  1 -1</clus>
<clus scale="  109.585">  1  3  2 -1</clus>
<clus scale="   46.102">  2  3  1 -1</clus>
</clustering>
</event>
<event>
 6    0  0.2839294E+002  0.9628008E+02  0.7546771E-02  0.1288319E+00
         21   -1    0    0  505  502  0.00000000000E+00  0.00000000000E+00  0.28037566539E+02  0.28037566539E+02  0.00000000000E+00 0.  1.
          4   -1    0    0  504    0 -0.00000000000E+00 -0.00000000000E+00 -0.94994985092E+03  0.94994985092E+03  0.00000000000E+00 0. -1.
         21    1    1    2  503  502  0.13188207990E+03 -0.90788966553E+01 -0.26832026820E+03  0.29911716048E+03  0.00000000000E+00 0.  1.
         21    1    1    2  504  503 -0.65866610972E+02 -0.39743916101E+02 -0.17332293573E+03  0.18962813440E+03  0.00000000000E+00 0. -1.
         21    1    1    2  505  501 -0.23641462304E+02  0.23392941206E+02 -0.91738734355E+02  0.97581472726E+02  0.00000000000E+00 0.  1.
          4    1    1    2  501    0 -0.42374006628E+02  0.25429871550E+02 -0.38853034610E+03  0.39166064986E+03  0.00000000000E+00 0. -1.
<scales pt_clust_3="96.28008" pt_clust_4="14000.00000" pt_clust_5="33.25881" pt_clust_6="51.43469"></scales>
<clustering>
<clus scale="   33.259">  1  5  2 -1</clus>
<clus scale="   51.435">  2  6  1 -1</clus>
<clus scale="   96.280">  1  3  2 -1</clus>
<clus scale="   33.259">  1  3  2 -1</clus>
</clustering>
</event>
<event>
 6    0  0.2839294E+002  0.1014662E+03  0.7546771E-02  0.1277243E+00
         21   -1    0    0  503  502  0.00000000000E+00  0.00000000000E+00  0.25085790079E+04  0.25085790079E+04  0.00000000000E+00 0.  1.
          3   -1    0    0  504    0 -0.00000000000E+00 -0.00000000000E+00 -0.15513620997E+03  0.15513620997E+03  0.00000000000E+00 0.  1.
         21    1    1    2  503  501 -0.32579951153E+02  0.79458489944E+01  0.76332633283E+03  0.76406261532E+03  0.00000000000E+00 0.  1.
         21    1    1    2  504  505 -0.31002022305E+02  0.29145377388E+02  0.15156423951E+02  0.45169631359E+02  0.00000000000E+00 0.  1.
         21    1    1    2  505  502 -0.41502977806E+01 -0.10290244146E+03  0.16970267132E+04  0.17001487591E+04  0.00000000000E+00 0.  1.
          3    1    1    2  501    0  0.67732271239E+02  0.65811215073E+02 -0.12206667210E+03  0.15433421213E+03  0.00000000000E+00 0.  1.
<scales pt_clust_3="33.53490" pt_clust_4="43.05626" pt_clust_5="14000.00000" pt_clust_6="101.46617"></scales>
<clustering>
<clus scale="   33.535">  1  3  2 -1</clus>
<clus scale="   43.056">  2  4  1 -1</clus>
<clus scale="  101.466">  2  6  1 -1</clus>
<clus scale="   33.535">  1  3  2 -1</clus>
</clustering>
</event>
<event>
 6    0  0.2839294E+002  0.1540104E+03  0.7546771E-02  0.1195630E+00
          2   -1    0    0  503    0 -0.00000000000E+00  0.00000000000E+00  0.20164928664E+04  0.20164928664E+04  0.00000000000E+00 0. -1.
         21   -1    0    0  504  502  0.00000000000E+00 -0.00000000000E+00 -0.26336595588E+03  0.26336595588E+03  0.00000000000E+00 0.  1.
         21    1    1    2  503  505 -0.76725255692E+02  0.16750512711E+03  0.11060184061E+04  0.11212588672E+04  0.00000000000E+00 0. -1.
         21    1    1    2  504  501  0.65681693447E+01  0.31409289773E+02 -0.23873854634E+03  0.24088540396E+03  0.00000000000E+00 0.  1.
         21    1    1    2  505  502  0.87764396646E+02 -0.12714414455E+03  0.45339618172E+03  0.47899511522E+03  0.00000000000E+00 0. -1.
          2    1    1    2  501    0 -0.17607310298E+02 -0.71770272336E+02  0.43245086900E+03  0.43871943594E+03  0.00000000000E+00 0. -1.
<scales pt_clust_3="154.01036" pt_clust_4="32.08869" pt_clust_5="14000.00000" pt_clust_6="69.63121"></scales>
<clustering>
<clus scale="   32.089">  2  4  1 -1</clus>
<clus scale="   69.631">  1  6  2 -1</clus>
<clus scale="  154.010">  1  3  2 -1</clus>
<clus scale="   32.089">  2  3  1 -1</clus>
</clustering>
</event>
<event>
 6    0  0.2839294E+002  0.1237559E+03  0.7546771E-02  0.1237027E+00
         21   -1    0    0  505  502  0.00000000000E+00  0.00000000000E+00  0.17154007691E+03  0.17154007691E+03  0.00000000000E+00 0.  1.
          2   -1    0    0  504    0 -0.00000000000E+00 -0.00000000000E+00 -0.12629433973E+04  0.12629433973E+04  0.00000000000E+00 0.  1.
         21    1    1    2  503  501 -0.98274188979E+02  0.14438409182E+02  0.66171631364E+02  0.11935228811E+03  0.00000000000E+00 0.  1.
         21    1    1    2  504  502  0.62143246500E+02  0.17750182167E+02 -0.19168060226E+03  0.20228273613E+03  0.00000000000E+00 0. -1.
         21    1    1    2  505  503 -0.23417210363E+02  0.26148658734E+02  0.67508440229E+02  0.76088813875E+02  0.00000000000E+00 0. -1.
          2    1    1    2  501    0  0.59548152842E+02 -0.58337250082E+02 -0.10334027897E+04  0.10367596360E+04  0.00000000000E+00 0.  1.
<scales pt_clust_3="14000.00000" pt_clust_4="63.83561" pt_clust_5="35.10154" pt_clust_6="123.75588"></scales>
<clustering>
<clus scale="   35.102">  1  5  2 -1</clus>
<clus scale="   63.836">  2  4  1 -1</clus>
<clus scale="  123.756">  2  6  1 -1</clus>
<clus scale="   35.102">  1  3  2 -1</clus>
</clustering>
</event>
<event>
 6    0  0.2839294E+002  0.1253032E+03  0.7546771E-02  0.1234596E+00
         21   -1    0    0  504  502  0.00000000000E+00  0.00000000000E+00  0.19592208240E+03  0.19592208240E+03  0.00000000000E+00 0. -1.
          1   -1    0    0  503    0 -0.00000000000E+00 -0.00000000000E+00 -0.46369504475E+03  0.46369504475E+03  0.00000000000E+00 0.  1.
         21    1    1    2  503  505 -0.10541904172E+03  0.18356130962E+02 -0.12909349389E+03  0.16767603307E+03  0.00000000000E+00 0. -1.
         21    1    1    2  504  501  0.99929661318E+01  0.58761072051E+02 -0.47487116691E+01  0.59793588479E+02  0.00000000000E+00 0. -1.
         21    1    1    2  505  502 -0.32867433988E+02 -0.50979289953E+01  0.12771416810E+03  0.13197411045E+03  0.00000000000E+00 0. -1.
          1    1    1    2  501    0  0.12829350958E+03 -0.72019274018E+02 -0.26164492489E+03  0.30017339514E+03  0.00000000000E+00 0.  1.
<scales pt_clust_3="125.30320" pt_clust_4="56.75823" pt_clust_5="33.26044" pt_clust_6="14000.00000"></scales>
<clustering>
<clus scale="   33.260">  1  5  2 -1</clus>
<clus scale="   56.758">  1  4  2 -1</clus>
<clus scale="  125.303">  1  3  2 -1</clus>
<clus scale="   33.260">  1  3  2 -1</clus>
</clustering>
</event>
<event>
 6    0  0.2839294E+002  0.1254632E+03  0.7546771E-02  0.1234347E+00
         -1   -1    0    0    0  501 -0.00000000000E+00  0.00000000000E+00  0.28276691284E+03  0.28276691284E+03  0.00000000000E+00 0. -1.
         21   -1    0    0  504  502  0.00000000000E+00 -0.00000000000E+00 -0.90882422190E+03  0.90882422190E+03  0.00000000000E+00 0. -1.
         21    1    1    2  503  502  0.32794428846E+02 -0.48535762982E+02 -0.72039516539E+03  0.72277270920E+03  0.00000000000E+00 0. -1.
         21    1    1    2  504  501  0.38876737057E+02 -0.61624452266E+02 -0.37527181155E+02  0.81958911210E+02  0.00000000000E+00 0. -1.
         21    1    1    2  505  503  0.67921811803E+02  0.53280748253E+02 -0.86051465603E+02  0.12188956225E+03  0.00000000000E+00 0. -1.
         -1    1    1    2    0  505 -0.13959297771E+03  0.56879466995E+02  0.21791650309E+03  0.26496995209E+03  0.00000000000E+00 0. -1.
<scales pt_clust_3="58.57640" pt_clust_4="14000.00000" pt_clust_5="90.06641" pt_clust_6="125.46319"></scales>
<clustering>
<clus scale="   58.576">  2  3  1 -1</clus>
<clus scale="   90.066">  2  5  1 -1</clus>
<clus scale="  125.463">  1  6  2 -1</clus>
<clus scale="   58.576">  2  3  1 -1</clus>
</clustering>
</event>
<event>
 6    0  0.2839294E+002  0.9805741E+02  0.7546771E-02  0.1284435E+00
          2   -1    0    0  503    0 -0.00000000000E+00  0.00000000000E+00  0.32342703215E+03  0.32342703215E+03  0.00000000000E+00 0.  1.
         21   -1    0    0  505  502  0.00000000000E+00 -0.00000000000E+00 -0.20108202265E+03  0.20108202265E+03  0.00000000000E+00 0.  1.
         21    1    1    2  503  504  0.35432209175E+02  0.26215902142E+02  0.88736666632E+02  0.99080325883E+02  0.00000000000E+00 0.  1.
         21    1    1    2  504  502 -0.11803496292E+03  0.27253802215E+01  0.94298463351E+02  0.15110221825E+03  0.00000000000E+00 0.  1.
         21    1    1    2  505  501  0.15417870478E+02  0.38326437287E+02 -0.14283058796E+03  0.14868491309E+03  0.00000000000E+00 0.  1.
          2    1    1    2  501    0  0.67184883264E+02 -0.67267719650E+02  0.82140467476E+02  0.12564159758E+03  0.00000000000E+00 0.  1.
<scales pt_clust_3="47.40907" pt_clust_4="14000.00000" pt_clust_5="41.31134" pt_clust_6="98.05741"></scales>
<clustering>
<clus scale="   41.311">  2  5  1 -1</clus>
<clus scale="   47.409">  1  3  2 -1</clus>
<clus scale="   98.057">  2  6  1 -1</clus>
<clus scale="   41.311">  2  3  1 -1</clus>
</clustering>
</event>
<event>
 6    0  0.2839294E+002  0.1307533E+03  0.7546771E-02  0.1226342E+00
          1   -1    0    0  505    0 -0.00000000000E+00  0.00000000000E+00  0.21474073600E+03  0.21474073600E+03  0.00000000000E+00 0.  1.
         21   -1    0    0  504  502  0.00000000000E+00 -0.00000000000E+00 -0.10249348477E+03  0.10249348477E+03  0.00000000000E+00 0.  1.
         21    1    1    2  503  502  0.37580870061E+01  0.38637732240E+02  0.80466839089E+01  0.39645260657E+02  0.00000000000E+00 0.  1.
         21    1    1    2  504  501 -0.43503244016E+02 -0.19019303584E+02  0.86142799616E+00  0.47486926695E+02  0.00000000000E+00 0.  1.
         21    1    1    2  505  503  0.11251389476E+03  0.28575202253E+02  0.42115449645E+02  0.12348939143E+03  0.00000000000E+00 0.  1.
          1    1    1    2  501    0 -0.72768737751E+02 -0.48193630909E+02  0.61223689672E+02  0.10661264199E+03  0.00000000000E+00 0.  1.
<scales pt_clust_3="38.82007" pt_clust_4="31.76923" pt_clust_5="123.45469" pt_clust_6="31.76923"></scales>
<clustering>
<clus scale="   31.769">  4  6 -1 -1</clus>
<clus scale="   38.820">  2  3  1 -1</clus>
<clus scale="  123.455">  1  5  2 -1</clus>
<clus scale="   38.820">  2  3  1 -1</clus>
</clustering>
</event>
<event>
 6    0  0.2839294E+002  0.1175119E+03  0.7546771E-02  0.1247259E+00
          2   -1    0    0  505    0 -0.00000000000E+00  0.00000000000E+00  0.18630239496E+04  0.18630239496E+04  0.00000000000E+00 0. -1.
         21   -1    0    0  504  502  0.00000000000E+00 -0.00000000000E+00 -0.23315884115E+03  0.23315884115E+03  0.00000000000E+00 0. -1.
         21    1    1    2  503  502 -0.41612638418E+02  0.71509753228E+02 -0.71152386111E+02  0.10912340964E+03  0.00000000000E+00 0. -1.
         21    1    1    2  504  501 -0.71795266858E+02 -0.27707750251E+02 -0.12739041117E+03  0.14883076505E+03  0.00000000000E+00 0. -1.
         21    1    1    2  505  503  0.42468661279E+02  0.14786626386E+02  0.13439219971E+03  0.14171624767E+03  0.00000000000E+00 0. -1.
          2    1    1    2  501    0  0.70939243998E+02 -0.58588629363E+02  0.16940157060E+04  0.16965123684E+04  0.00000000000E+00 0. -1.
<scales pt_clust_3="14000.00000" pt_clust_4="76.67703" pt_clust_5="44.96923" pt_clust_6="117.51195"></scales>
<clustering>
<clus scale="   44.969">  1  5  2 -1</clus>
<clus scale="   76.677">  2  4  1 -1</clus>
<clus scale="  117.512">  1  6  2 -1</clus>
<clus scale="   76.677">  2  3  1 -1</clus>
</clustering>
</event>
<event>
 6    0  0.2839294E+002  0.9154057E+02  0.7546771E-02  0.1299163E+00
         21   -1    0    0  505  502  0.00000000000E+00  0.00000000000E+00  0.15283890766E+04  0.15283890766E+04  0.00000000000E+00 0.  1.
         -3   -1    0    0    0  501 -0.00000000000E+00 -0.00000000000E+00 -0.25508311388E+02  0.25508311388E+02  0.00000000000E+00 0. -1.
         21    1    1    2  503  502  0.12317547708E+03 -0.12618675970E+02  0.96948596477E+03  0.97736096966E+03  0.00000000000E+00 0.  1.
         21    1    1    2  504  501 -0.28973350799E+02 -0.22983854474E+02  0.78088777275E+02  0.86403528627E+02  0.00000000000E+00 0. -1.
         21    1    1    2  505  504 -0.34312776615E+02 -0.63349468864E+01  0.39162214988E+03  0.39317350682E+03  0.00000000000E+00 0. -1.
         -3    1    1    2    0  503 -0.59889349665E+02  0.41937477330E+02  0.63683873253E+02  0.96959382839E+02  0.00000000000E+00 0. -1.
<scales pt_clust_3="91.54057" pt_clust_4="39.23178" pt_clust_5="34.89267" pt_clust_6="14000.00000"></scales>
<clustering>
<clus scale="   34.893">  1  5  2 -1</clus>
<clus scale="   39.232">  2  4  1 -1</clus>
<clus scale="   91.541">  1  3  2 -1</clus>
<clus scale="   34.893">  1  3  2 -1</clus>
</clustering>
</event>
<event>
 6    0  0.2839294E+002  0.1556697E+03  0.7546771E-02  0.1193674E+00
          2   -1    0    0  503    0 -0.00000000000E+00  0.00000000000E+00  0.66395959110E+03  0.66395959110E+03  0.00000000000E+00 0. -1.
         21   -1    0    0  505  502  0.00000000000E+00 -0.00000000000E+00 -0.17073157935E+03  0.17073157935E+03  0.00000000000E+00 0. -1.
         21    1    1    2  503  502 -0.58623542487E+02 -0.14264111843E+02 -0.18715382821E+02  0.63170010088E+02  0.00000000000E+00 0. -1.
         21    1    1    2  504  501  0.79452857540E+02 -0.26599522581E+02  0.22016177277E+03  0.23556633325E+03  0.00000000000E+00 0.  1.
         21    1    1    2  505  504 -0.72957882916E+02  0.75745723900E+02 -0.96444325113E+02  0.14269469232E+03  0.00000000000E+00 0. -1.
          2    1    1    2  501    0  0.52128567864E+02 -0.34882089477E+02  0.38822594692E+03  0.39326013479E+03  0.00000000000E+00 0. -1.
<scales pt_clust_3="60.33394" pt_clust_4="56.02858" pt_clust_5="141.56127" pt_clust_6="56.02858"></scales>
<clustering>
<clus scale="   56.029">  4  6 -1 -1</clus>
<clus scale="   60.334">  2  3  1 -1</clus>
<clus scale="  141.561">  2  5  1 -1</clus>
<clus scale="   60.334">  2  3  1 -1</clus>
</clustering>
</event>
<event>
 6    0  0.2839294E+002  0.1945734E+03  0.7546771E-02  0.1154400E+00
          2   -1    0    0  504    0 -0.00000000000E+00  0.00000000000E+00  0.34961551334E+04  0.34961551334E+04  0.00000000000E+00 0. -1.
         21   -1    0    0  501  502  0.00000000000E+00 -0.00000000000E+00 -0.52341053222E+02  0.52341053222E+02  0.00000000000E+00 0.  1.
         21    1    1    2  503  502  0.26065206524E+02 -0.13197001106E+03  0.75400482243E+02  0.15420995925E+03  0.00000000000E+00 0.  1.
         21    1    1    2  504  505 -0.30535722273E+02  0.24573895407E+01  0.21317967259E+03  0.21536954730E+03  0.00000000000E+00 0. -1.
         21    1    1    2  505  503  0.27660518612E+02 -0.47265572137E+02  0.71648836455E+02  0.90181452442E+02  0.00000000000E+00 0.  1.
          2    1    1    2  501    0 -0.23190002863E+02  0.17677819365E+03  0.30835850889E+04  0.30887352276E+04  0.00000000000E+00 0. -1.
<scales pt_clust_3="35.37689" pt_clust_4="30.63444" pt_clust_5="35.37689" pt_clust_6="186.45905"></scales>
<clustering>
<clus scale="   30.634">  1  4  2 -1</clus>
<clus scale="   35.377">  3  5 -1 -1</clus>
<clus scale="  186.459">  1  6  2 -1</clus>
<clus scale="  194.573">  2  3  1 -1</clus>
</clustering>
</event>
<event>
 6    0  0.2839294E+002  0.3705999E+03  0.7546771E-02  0.1054464E+00
         -1   -1    0    0    0  501 -0.00000000000E+00  0.00000000000E+00  0.48901165291E+03  0.48901165291E+03  0.00000000000E+00 0.  1.
         21   -1    0    0  505  502  0.00000000000E+00 -0.00000000000E+00 -0.11357926162E+04  0.11357926162E+04  0.00000000000E+00 0.  1.
         21    1    1    2  503  504  0.61330400645E+02  0.29963122302E+03  0.22554409015E+03  0.38001371613E+03  0.00000000000E+00 0.  1.
         21    1    1    2  504  502 -0.48100958233E+02  0.89916444202E+00 -0.68124862475E+03  0.68294523894E+03  0.00000000000E+00 0.  1.
         21    1    1    2  505  501 -0.31864699958E+02 -0.35793384519E+03 -0.27917958942E+03  0.45505300766E+03  0.00000000000E+00 0.  1.
         -1    1    1    2    0  503  0.18635257545E+02  0.57403457731E+02  0.88103160698E+02  0.10679230641E+03  0.00000000000E+00 0.  1.
<scales pt_clust_3="30.57459" pt_clust_4="48.10936" pt_clust_5="364.15250" pt_clust_6="30.57459"></scales>
<clustering>
<clus scale="   30.575">  3  6 -1 -1</clus>
<clus scale="   48.109">  2  4  1 -1</clus>
<clus scale="  364.153">  2  5  1 -1</clus>
<clus scale="   48.109">  2  3  1 -1</clus>
</clustering>
</event>
<event>
 6    0  0.2839294E+002  0.1217580E+03  0.7546771E-02  0.1240225E+00
         -1   -1    0    0    0  501 -0.00000000000E+00  0.00000000000E+00  0.58002416048E+03  0.58002416048E+03  0.00000000000E+00 0.  1.
         21   -1    0    0  505  502  0.00000000000E+00 -0.00000000000E+00 -0.40923176774E+02  0.40923176774E+02  0.00000000000E+00 0.  1.
         21    1    1    2  503  502 -0.63083672950E+02  0.39062355767E+02  0.18039171469E+03  0.19505534640E+03  0.00000000000E+00 0.  1.
         21    1    1    2  504  501  0.76908546348E+02 -0.64611557675E+02  0.12153907083E+03  0.15767473997E+03  0.00000000000E+00 0.  1.
         21    1    1    2  505  504  0.42592746556E+02  0.16217103957E+02  0.33208721225E+02  0.56391095799E+02  0.00000000000E+00 0.  1.
         -1    1    1    2    0  503 -0.56417619954E+02  0.93320979512E+01  0.20396147696E+03  0.21182615509E+03  0.00000000000E+00 0.  1.
<scales pt_clust_3="30.44394" pt_clust_4="116.71510" pt_clust_5="45.57561" pt_clust_6="30.44394"></scales>
<clustering>
<clus scale="   30.444">  3  6 -1 -1</clus>
<clus scale="   45.576">  2  5  1 -1</clus>
<clus scale="  116.715">  2  4  1 -1</clus>
<clus scale="   45.576">  2  3  1 -1</clus>
</clustering>
</event>
<event>
 6    0  0.2839294E+002  0.1686274E+03  0.7546771E-02  0.1179287E+00
         21   -1    0    0  503  502  0.00000000000E+00  0.00000000000E+00  0.61783997513E+03  0.61783997513E+03  0.00000000000E+00 0.  1.
          2   -1    0    0  505    0 -0.00000000000E+00 -0.00000000000E+00 -0.15850819464E+04  0.15850819464E+04  0.00000000000E+00 0. -1.
         21    1    1    2  503  501 -0.10346662466E+03  0.96541015459E+02 -0.15458171308E+02  0.14235331097E+03  0.00000000000E+00 0.  1.
         21    1    1    2  504  502  0.15947261111E+03  0.64266983773E+02  0.53209276558E+03  0.55918196509E+03  0.00000000000E+00 0.  1.
         21    1    1    2  505  504 -0.69629729536E+01 -0.16930899338E+03 -0.93276606072E+03  0.94803298585E+03  0.00000000000E+00 0. -1.
          2    1    1    2  501    0 -0.49043013495E+02  0.85009941483E+01 -0.55111050481E+03  0.55335365960E+03  0.00000000000E+00 0. -1.
<scales pt_clust_3="144.70895" pt_clust_4="14000.00000" pt_clust_5="168.62740" pt_clust_6="49.77433"></scales>
<clustering>
<clus scale="   49.774">  2  6  1 -1</clus>
<clus scale="  144.709">  1  3  2 -1</clus>
<clus scale="  168.627">  2  5  1 -1</clus>
<clus scale="  144.709">  1  3  2 -1</clus>
</clustering>
</event>
<event>
 6    0  0.2839294E+002  0.1251033E+03  0.7546771E-02  0.1234908E+00
         21   -1    0    0  505  502  0.00000000000E+00  0.00000000000E+00  0.25110777708E+03  0.25110777708E+03  0.00000000000E+00 0.  1.
         -2   -1    0    0    0  501 -0.00000000000E+00 -0.00000000000E+00 -0.75148945931E+03  0.75148945931E+03  0.00000000000E+00 0.  1.
         21    1    1    2  503  504 -0.57164233058E+02  0.15265836815E+03  0.10880097085E+03  0.19598463758E+03  0.00000000000E+00 0.  1.
         21    1    1    2  504  501  0.13093667923E+03 -0.94553931331E+02 -0.18859795070E+03  0.24830232965E+03  0.00000000000E+00 0. -1.
         21    1    1    2  505  503  0.21643461252E+02 -0.45426694668E+02  0.54147257469E+02  0.73918532824E+02  0.00000000000E+00 0.  1.
         -2    1    1    2    0  502 -0.95415907427E+02 -0.12677742152E+02 -0.47473195985E+03  0.48439173634E+03  0.00000000000E+00 0.  1.
<scales pt_clust_3="125.10329" pt_clust_4="14000.00000" pt_clust_5="50.31922" pt_clust_6="95.86298"></scales>
<clustering>
<clus scale="   50.319">  1  5  2 -1</clus>
<clus scale="   95.863">  2  6  1 -1</clus>
<clus scale="  125.103">  1  3  2 -1</clus>
<clus scale="   50.319">  1  3  2 -1</clus>
</clustering>
</event>
<event>
 6    0  0.2839294E+002  0.8171452E+02  0.7546771E-02  0.1324255E+00
          2   -1    0    0  505    0 -0.00000000000E+00  0.00000000000E+00  0.86357848995E+03  0.86357848995E+03  0.00000000000E+00 0.  1.
         21   -1    0    0  504  502  0.00000000000E+00 -0.00000000000E+00 -0.16576773662E+03  0.16576773662E+03  0.00000000000E+00 0. -1.
         21    1    1    2  503  502  0.19500460612E+02 -0.13508253705E+03 -0.11463765517E+03  0.17823959090E+03  0.00000000000E+00 0. -1.
         21    1    1    2  504  501 -0.19058081180E+02  0.53207505023E+02  0.39690716158E+02  0.69062305190E+02  0.00000000000E+00 0. -1.
         21    1    1    2  505  503 -0.30562854605E+02  0.18483114800E+02  0.11170230428E+03  0.11727369013E+03  0.00000000000E+00 0. -1.
          2    1    1    2  501    0  0.30120475172E+02  0.63391917224E+02  0.66105538806E+03  0.66477064036E+03  0.00000000000E+00 0.  1.
<scales pt_clust_3="81.71452" pt_clust_4="58.55177" pt_clust_5="35.71713" pt_clust_6="14000.00000"></scales>
<clustering>
<clus scale="   35.717">  1  5  2 -1</clus>
<clus scale="   58.552">  2  4  1 -1</clus>
<clus scale="   81.715">  2  3  1 -1</clus>
<clus scale="   58.552">  2  3  1 -1</clus>
</clustering>
</event>
<event>
 6    0  0.2839294E+002  0.1633497E+03  0.7546771E-02  0.1184966E+00
         21   -1    0    0  503  502  0.00000000000E+00  0.00000000000E+00  0.81218627265E+02  0.81218627265E+02  0.00000000000E+00 0.  1.
          2   -1    0    0  505    0 -0.00000000000E+00 -0.00000000000E+00 -0.14323730348E+04  0.14323730348E+04  0.00000000000E+00 0.  1.
         21    1    1    2  503  504  0.21128478003E+03 -0.35990348685E+02 -0.13720953692E+03  0.25448579625E+03  0.00000000000E+00 0.  1.
         21    1    1    2  504  501 -0.85851251143E+02 -0.21663443689E+02 -0.69014024051E+03  0.69579687675E+03  0.00000000000E+00 0.  1.
         21    1    1    2  505  502 -0.64266288559E+02  0.25094786785E+02 -0.51873300135E+02  0.86317689009E+02  0.00000000000E+00 0.  1.
          2    1    1    2  501    0 -0.61167240324E+02  0.32559005590E+02 -0.47193133001E+03  0.47699130011E+03  0.00000000000E+00 0.  1.
<scales pt_clust_3="152.95257" pt_clust_4="50.73133" pt_clust_5="68.99206" pt_clust_6="50.73133"></scales>
<clustering>
<clus scale="   50.731">  4  6 -1 -1</clus>
<clus scale="   68.992">  1  5  2 -1</clus>
<clus scale="  152.953">  1  3  2 -1</clus>
<clus scale="   68.992">  1  3  2 -1</clus>
</clustering>
</event>
<event>
 6    0  0.3568386E+002  0.2734729E+03  0.7546771E-02  0.1099308E+00
          2   -1    0    0  505    0 -0.00000000000E+00  0.00000000000E+00  0.27136034448E+04  0.27136034448E+04  0.00000000000E+00 0. -1.
         21   -1    0    0  503  502  0.00000000000E+00 -0.00000000000E+00 -0.28455711637E+04  0.28455711637E+04  0.00000000000E+00 0. -1.
         21    1    1    2  503  504  0.87892919913E+02  0.67534132549E+02 -0.26450156083E+04  0.26473370758E+04  0.00000000000E+00 0. -1.
         21    1    1    2  504  501 -0.10640989310E+03 -0.12827613347E+03  0.14549323711E+04  0.14644473484E+04  0.00000000000E+00 0. -1.
         21    1    1    2  505  502  0.12308658639E+03  0.89646688668E+02 -0.16207552499E+03  0.22238550389E+03  0.00000000000E+00 0. -1.
          2    1    1    2  501    0 -0.10456961320E+03 -0.28904687742E+02  0.12201910433E+04  0.12250046804E+04  0.00000000000E+00 0. -1.
<scales pt_clust_3="110.84234" pt_clust_4="70.56153" pt_clust_5="259.11130" pt_clust_6="70.56153"></scales>
<clustering>
<clus scale="   70.562">  4  6 -1 -1</clus>
<clus scale="  110.842">  2  3  1 -1</clus>
<clus scale="  259.111">  2  5  1 -1</clus>
<clus scale="  110.842">  2  3  1 -1</clus>
</clustering>
</event>
<event>
 6    0  0.2839294E+002  0.7219689E+02  0.7546771E-02  0.1352778E+00
         21   -1    0    0  505  502  0.00000000000E+00  0.00000000000E+00  0.14940066017E+03  0.14940066017E+03  0.00000000000E+00 0.  1.
         -1   -1    0    0    0  501 -0.00000000000E+00 -0.00000000000E+00 -0.81435318282E+03  0.81435318282E+03  0.00000000000E+00 0.  1.
         21    1    1    2  503  504 -0.69806123704E+01  0.77569476403E+02 -0.30597597208E+03  0.31573255788E+03  0.00000000000E+00 0.  1.
         21    1    1    2  504  502 -0.52057518858E+02  0.16892689708E+02  0.32981119430E+02  0.63899158633E+02  0.00000000000E+00 0.  1.
         21    1    1    2  505  501  0.10436012134E+03 -0.32945216161E+02  0.60643670359E+02  0.12511625374E+03  0.00000000000E+00 0.  1.
         -1    1    1    2    0  503 -0.45321990113E+02 -0.61516949950E+02 -0.45260134036E+03  0.45900587275E+03  0.00000000000E+00 0.  1.
<scales pt_clust_3="14000.00000" pt_clust_4="54.72977" pt_clust_5="59.09044" pt_clust_6="72.19689"></scales>
<clustering>
<clus scale="   54.730">  1  4  2 -1</clus>
<clus scale="   59.090">  1  5  2 -1</clus>
<clus scale="   72.197">  2  6  1 -1</clus>
<clus scale="   54.730">  1  3  2 -1</clus>
</clustering>
</event>
<event>
 6    0  0.2839294E+002  0.6965837E+02  0.7546771E-02  0.1361259E+00
         21   -1    0    0  504  502  0.00000000000E+00  0.00000000000E+00  0.10328142072E+03  0.10328142072E+03  0.00000000000E+00 0. -1.
          2   -1    0    0  503    0 -0.00000000000E+00 -0.00000000000E+00 -0.35150597961E+04  0.35150597961E+04  0.00000000000E+00 0. -1.
         21    1    1    2  503  505  0.12906088708E+02  0.59405689094E+02 -0.14709417444E+04  0.14721974115E+04  0.00000000000E+00 0.  1.
         21    1    1    2  504  501 -0.60322443514E+02  0.66506251084E+01 -0.62516719385E+02  0.87128458087E+02  0.00000000000E+00 0. -1.
         21    1    1    2  505  502  0.11953070153E+03 -0.88061856108E+00  0.49042453294E+02  0.12920343000E+03  0.00000000000E+00 0. -1.
          2    1    1    2  501    0 -0.72114346726E+02 -0.65175695641E+02 -0.19273623648E+04  0.19298119172E+04  0.00000000000E+00 0. -1.
<scales pt_clust_3="69.65837" pt_clust_4="60.68796" pt_clust_5="60.69874" pt_clust_6="14000.00000"></scales>
<clustering>
<clus scale="   60.688">  1  4  2 -1</clus>
<clus scale="   60.699">  1  5  2 -1</clus>
<clus scale="   69.658">  2  3  1 -1</clus>
<clus scale="   60.688">  1  3  2 -1</clus>
</clustering>
</event>
<event>
 6    0  0.2839294E+002  0.6385084E+02  0.7546771E-02  0.1382347E+00
         21   -1    0    0  501  502  0.00000000000E+00  0.00000000000E+00  0.26705743973E+03  0.26705743973E+03  0.00000000000E+00 0. -1.
          2   -1    0    0  503    0 -0.00000000000E+00 -0.00000000000E+00 -0.52944269576E+03  0.52944269576E+03  0.00000000000E+00 0. -1.
         21    1    1    2  503  504 -0.29821522509E+02 -0.63736622403E+01 -0.83640548504E+02  0.89026333909E+02  0.00000000000E+00 0.  1.
         21    1    1    2  504  505 -0.96658495313E+02  0.11444841443E+02  0.13726916575E+03  0.16827558639E+03  0.00000000000E+00 0. -1.
         21    1    1    2  505  502  0.46828520084E+02  0.25509483398E+02  0.10064183078E+03  0.11389654139E+03  0.00000000000E+00 0. -1.
          2    1    1    2  501    0  0.79651497738E+02 -0.30580662601E+02 -0.41665570406E+03  0.42530167380E+03  0.00000000000E+00 0. -1.
<scales pt_clust_3="30.49503" pt_clust_4="14000.00000" pt_clust_5="52.88871" pt_clust_6="63.85084"></scales>
<clustering>
<clus scale="   30.495">  2  3  1 -1</clus>
<clus scale="   52.889">  1  5  2 -1</clus>
<clus scale="   63.851">  2  6  1 -1</clus>
<clus scale="   52.889">  1  3  2 -1</clus>
</clustering>
</event>
<event>
 6    0  0.2839294E+002  0.8971873E+02  0.7546771E-02  0.1303534E+00
         21   -1    0    0  501  502  0.00000000000E+00  0.00000000000E+00  0.21091372511E+02  0.21091372511E+02  0.00000000000E+00 0.  1.
          2   -1    0    0  504    0 -0.00000000000E+00 -0.00000000000E+00 -0.35993756810E+04  0.35993756810E+04  0.00000000000E+00 0.  1.
         21    1    1    2  503  502  0.37763874985E+02 -0.62194770057E+02 -0.12807097939E+03  0.14729723500E+03  0.00000000000E+00 0.  1.
         21    1    1    2  504  505  0.76629526677E+01 -0.39800012213E+02 -0.59792807754E+03  0.59930021503E+03  0.00000000000E+00 0.  1.
         21    1    1    2  505  503 -0.11361210677E+03  0.10610888941E+03 -0.57746405097E+03  0.59802302413E+03  0.00000000000E+00 0.  1.
          2    1    1    2  501    0  0.68185279119E+02 -0.41141071445E+01 -0.22748212005E+04  0.22758465793E+04  0.00000000000E+00 0.  1.
<scales pt_clust_3="74.50817" pt_clust_4="40.53100" pt_clust_5="14000.00000" pt_clust_6="89.71873"></scales>
<clustering>
<clus scale="   40.531">  2  4  1 -1</clus>
<clus scale="   74.508">  1  3  2 -1</clus>
<clus scale="   89.719">  2  6  1 -1</clus>
<clus scale="   74.508">  1  3  2 -1</clus>
</clustering>
</event>
<event>
 6    0  0.2839294E+002  0.1491280E+03  0.7546771E-02  0.1201549E+00
          2   -1    0    0  502    0 -0.00000000000E+00  0.00000000000E+00  0.20948275138E+04  0.20948275138E+04  0.00000000000E+00 0.  1.
         21   -1    0    0  504  502  0.00000000000E+00 -0.00000000000E+00 -0.11562065829E+03  0.11562065829E+03  0.00000000000E+00 0.  1.
         21    1    1    2  503  505  0.31034538960E+02  0.19278694447E+03  0.62813268818E+03  0.65778463232E+03  0.00000000000E+00 0.  1.
         21    1    1    2  504  503  0.11750144488E+02 -0.72547616485E+02 -0.83629873662E+02  0.11133363518E+03  0.00000000000E+00 0.  1.
         21    1    1    2  505  501 -0.29203863190E+02 -0.77645236710E+02  0.63771101369E+03  0.64308396450E+03  0.00000000000E+00 0.  1.
          2    1    1    2  501    0 -0.13580820258E+02 -0.42594091277E+02  0.79699302731E+03  0.79824594009E+03  0.00000000000E+00 0.  1.
<scales pt_clust_3="139.53841" pt_clust_4="73.49301" pt_clust_5="38.62433" pt_clust_6="38.62433"></scales>
<clustering>
<clus scale="   38.624">  5  6 -1 -1</clus>
<clus scale="   73.493">  2  4  1 -1</clus>
<clus scale="  139.538">  2  3  1 -1</clus>
<clus scale="   73.493">  2  3  1 -1</clus>
</clustering>
</event>
<event>
 6    0  0.2839294E+002  0.2064346E+03  0.7546771E-02  0.1144421E+00
         21   -1    0    0  503  502  0.00000000000E+00  0.00000000000E+00  0.87735942612E+02  0.87735942612E+02  0.00000000000E+00 0. -1.
          2   -1    0    0  505    0 -0.00000000000E+00 -0.00000000000E+00 -0.14243136457E+04  0.14243136457E+04  0.00000000000E+00 0.  1.
         21    1    1    2  503  501  0.65798383462E+02 -0.32052784918E+02 -0.37315778741E+03  0.38026772489E+03  0.00000000000E+00 0.  1.
         21    1    1    2  504  502  0.44448846348E+02 -0.18841976514E+02 -0.14886321921E+02  0.50520516634E+02  0.00000000000E+00 0.  1.
         21    1    1    2  505  504 -0.23709485001E+03  0.49449218031E+02 -0.17854899624E+03  0.30089688786E+03  0.00000000000E+00 0. -1.
          2    1    1    2  501    0  0.12684762020E+03  0.14455434018E+01 -0.76998459752E+03  0.78036445893E+03  0.00000000000E+00 0.  1.
<scales pt_clust_3="35.97591" pt_clust_4="48.27753" pt_clust_5="200.92775" pt_clust_6="35.97591"></scales>
<clustering>
<clus scale="   35.976">  3  6 -1 -1</clus>
<clus scale="   48.278">  1  4  2 -1</clus>
<clus scale="  200.928">  1  5  2 -1</clus>
<clus scale="   48.278">  1  3  2 -1</clus>
</clustering>
</event>
<event>
 6    0  0.2839294E+002  0.8594557E+02  0.7546771E-02  0.1312978E+00
         21   -1    0    0  505  502  0.00000000000E+00  0.00000000000E+00  0.24378324752E+02  0.24378324752E+02  0.00000000000E+00 0.  1.
          2   -1    0    0  503    0 -0.00000000000E+00 -0.00000000000E+00 -0.12105718271E+04  0.12105718271E+04  0.00000000000E+00 0.  1.
         21    1    1    2  503  502 -0.57241887314E+02 -0.20705929304E+02 -0.25212124628E+03  0.25936555669E+03  0.00000000000E+00 0.  1.
         21    1    1    2  504  501 -0.12201562521E+02  0.83137325942E+02 -0.24158312533E+03  0.25577939623E+03  0.00000000000E+00 0.  1.
         21    1    1    2  505  504  0.88435439178E+02  0.17700006726E+02 -0.18654907321E+03  0.20720683835E+03  0.00000000000E+00 0.  1.
          2    1    1    2  501    0 -0.18991989343E+02 -0.80131403363E+02 -0.50594005754E+03  0.51259836060E+03  0.00000000000E+00 0.  1.
<scales pt_clust_3="60.87174" pt_clust_4="85.94557" pt_clust_5="77.80064" pt_clust_6="14000.00000"></scales>
<clustering>
<clus scale="   60.872">  2  3  1 -1</clus>
<clus scale="   77.801">  1  5  2 -1</clus>
<clus scale="   85.946">  1  4  2 -1</clus>
<clus scale="   77.801">  1  3  2 -1</clus>
</clustering>
</event>
<event>
 6    0  0.2839294E+002  0.1828134E+03  0.7546771E-02  0.1165108E+00
         -1   -1    0    0    0  501 -0.00000000000E+00  0.00000000000E+00  0.52329820129E+03  0.52329820129E+03  0.00000000000E+00 0.  1.
         21   -1    0    0  504  502  0.00000000000E+00 -0.00000000000E+00 -0.12721364170E+04  0.12721364170E+04  0.00000000000E+00 0. -1.
         21    1    1    2  503  505 -0.40025030969E+02 -0.10307060133E+02  0.57537281804E+02  0.70843329890E+02  0.00000000000E+00 0. -1.
         21    1    1    2  504  501 -0.24025163835E+02 -0.25855233359E+02 -0.19160177801E+03  0.19482541653E+03  0.00000000000E+00 0. -1.
         21    1    1    2  505  502  0.18468495856E+03  0.87343365318E+02 -0.10528612584E+04  0.10724990568E+04  0.00000000000E+00 0. -1.
         -1    1    1    2    0  503 -0.12063476375E+03 -0.51181071827E+02  0.43808753895E+03  0.45726681502E+03  0.00000000000E+00 0.  1.
<scales pt_clust_3="33.99446" pt_clust_4="35.29450" pt_clust_5="172.50138" pt_clust_6="33.99446"></scales>
<clustering>
<clus scale="   33.994">  3  6 -1 -1</clus>
<clus scale="   35.294">  2  4  1 -1</clus>
<clus scale="  172.501">  2  5  1 -1</clus>
<clus scale="   35.294">  2  3  1 -1</clus>
</clustering>
</event>
<event>
 6    0  0.2839294E+002  0.9937749E+02  0.7546771E-02  0.1281610E+00
         21   -1    0    0  505  502  0.00000000000E+00  0.00000000000E+00  0.23928143446E+02  0.23928143446E+02  0.00000000000E+00 0. -1.
          2   -1    0    0  503    0 -0.00000000000E+00 -0.00000000000E+00 -0.13275164592E+04  0.13275164592E+04  0.00000000000E+00 0. -1.
         21    1    1    2  503  502  0.23925840626E+02 -0.55431912421E+02 -0.68473688367E+03  0.68739344093E+03  0.00000000000E+00 0. -1.
         21    1    1    2  504  501 -0.10972722260E+03  0.31360302374E+02 -0.25742791984E+03  0.28158953436E+03  0.00000000000E+00 0. -1.
         21    1    1    2  505  504  0.36748095971E+01  0.30833343975E+02 -0.39971346876E+02  0.50615293117E+02  0.00000000000E+00 0.  1.
          2    1    1    2  501    0  0.82126572380E+02 -0.67617339271E+01 -0.32145216532E+03  0.33184633421E+03  0.00000000000E+00 0. -1.
<scales pt_clust_3="58.46863" pt_clust_4="99.37749" pt_clust_5="31.05156" pt_clust_6="14000.00000"></scales>
<clustering>
<clus scale="   31.052">  1  5  2 -1</clus>
<clus scale="   58.469">  2  3  1 -1</clus>
<clus scale="   99.377">  1  4  2 -1</clus>
<clus scale="   31.052">  1  3  2 -1</clus>
</clustering>
</event>
<event>
 6    0  0.2839294E+002  0.2365190E+03  0.7546771E-02  0.1122134E+00
         21   -1    0    0  505  502  0.00000000000E+00  0.00000000000E+00  0.21964218880E+03  0.21964218880E+03  0.00000000000E+00 0. -1.
         -3   -1    0    0    0  501 -0.00000000000E+00 -0.00000000000E+00 -0.10861630969E+04  0.10861630969E+04  0.00000000000E+00 0. -1.
         21    1    1    2  503  502 -0.13649877715E+03 -0.89284900516E+02 -0.61903651664E+03  0.64016397787E+03  0.00000000000E+00 0. -1.
         21    1    1    2  504  501  0.18098326721E+03  0.12370358692E+03 -0.81971452585E+01  0.21937345696E+03  0.00000000000E+00 0. -1.
         21    1    1    2  505  504 -0.92445504453E+01  0.30963196838E+02  0.96810496530E+02  0.10206102836E+03  0.00000000000E+00 0. -1.
         -3    1    1    2    0  503 -0.35239939612E+02 -0.65381883243E+02 -0.33609774271E+03  0.34420682250E+03  0.00000000000E+00 0. -1.
<scales pt_clust_3="38.58972" pt_clust_4="229.46202" pt_clust_5="32.31379" pt_clust_6="38.58972"></scales>
<clustering>
<clus scale="   32.314">  1  5  2 -1</clus>
<clus scale="   38.590">  3  6 -1 -1</clus>
<clus scale="  229.462">  1  4  2 -1</clus>
<clus scale="   32.314">  1  3  2 -1</clus>
</clustering>
</event>
<event>
 6    0  0.2839294E+002  0.8256840E+02  0.7546771E-02  0.1321917E+00
          1   -1    0    0  505    0 -0.00000000000E+00  0.00000000000E+00  0.15600076752E+03  0.15600076752E+03  0.00000000000E+00 0.  1.
         21   -1    0    0  501  502  0.00000000000E+00 -0.00000000000E+00 -0.40019437326E+03  0.40019437326E+03  0.00000000000E+00 0.  1.
         21    1    1    2  503  504  0.31643210716E+01  0.94419592384E+02 -0.13502223547E+03  0.16479100833E+03  0.00000000000E+00 0.  1.
         21    1    1    2  504  502  0.41368218544E+02 -0.20037437821E+02 -0.21102380586E+03  0.21597193118E+03  0.00000000000E+00 0.  1.
         21    1    1    2  505  503  0.15185541120E+02 -0.41925635522E+02 -0.89156287349E+01  0.45473596831E+02  0.00000000000E+00 0.  1.
          1    1    1    2  501    0 -0.59718080736E+02 -0.32456519042E+02  0.11076806432E+03  0.12995860444E+03  0.00000000000E+00 0.  1.
<scales pt_clust_3="82.56840" pt_clust_4="46.54270" pt_clust_5="44.59103" pt_clust_6="14000.00000"></scales>
<clustering>
<clus scale="   44.591">  1  5  2 -1</clus>
<clus scale="   46.543">  2  4  1 -1</clus>
<clus scale="   82.568">  2  3  1 -1</clus>
<clus scale="   46.543">  2  3  1 -1</clus>
</clustering>
</event>
<event>
 6    0  0.2839294E+002  0.1403877E+03  0.7546771E-02  0.1212808E+00
          3   -1    0    0  504    0 -0.00000000000E+00  0.00000000000E+00  0.38458987910E+02  0.38458987910E+02  0.00000000000E+00 0. -1.
         21   -1    0    0  505  502  0.00000000000E+00 -0.00000000000E+00 -0.73351659536E+03  0.73351659536E+03  0.00000000000E+00 0. -1.
         21    1    1    2  503  502 -0.63217514263E+02  0.11226261892E+03 -0.33599636475E+03  0.35985122876E+03  0.00000000000E+00 0. -1.
         21    1    1    2  504  503  0.27022825999E+02  0.34194003118E+02 -0.48272225607E+02  0.65035918839E+02  0.00000000000E+00 0. -1.
         21    1    1    2  505  501  0.19300377866E+02 -0.65523451953E+02 -0.17809390297E+03  0.19074397924E+03  0.00000000000E+00 0. -1.
          3    1    1    2  501    0  0.16894310399E+02 -0.80933170084E+02 -0.13269511412E+03  0.15634445642E+03  0.00000000000E+00 0. -1.
<scales pt_clust_3="136.33680" pt_clust_4="43.58283" pt_clust_5="30.43234" pt_clust_6="30.43234"></scales>
<clustering>
<clus scale="   30.432">  5  6 -1 -1</clus>
<clus scale="   43.583">  1  4  2 -1</clus>
<clus scale="  136.337">  2  3  1 -1</clus>
<clus scale="  136.337">  2  3  1 -1</clus>
</clustering>
</event>
<event>
 6    0  0.2839294E+002  0.8764389E+02  0.7546771E-02  0.1308660E+00
          2   -1    0    0  505    0 -0.00000000000E+00  0.00000000000E+00  0.15000263813E+04  0.15000263813E+04  0.00000000000E+00 0. -1.
         21   -1    0    0  503  502  0.00000000000E+00 -0.00000000000E+00 -0.34859902063E+02  0.34859902063E+02  0.00000000000E+00 0.  1.
         21    1    1    2  503  501  0.10754741745E+02 -0.65959427492E+02  0.31415953649E+03  0.32118923536E+03  0.00000000000E+00 0. -1.
         21    1    1    2  504  502  0.32132198948E+02  0.91605538970E+02  0.87511756466E+02  0.13069950459E+03  0.00000000000E+00 0.  1.
         21    1    1    2  505  504 -0.86530951338E+02  0.75406574743E+01  0.20356771324E+03  0.22132392760E+03  0.00000000000E+00 0.  1.
          2    1    1    2  501    0  0.43644010645E+02 -0.33186768953E+02  0.85992747304E+03  0.86167361582E+03  0.00000000000E+00 0. -1.
<scales pt_clust_3="87.64389" pt_clust_4="14000.00000" pt_clust_5="72.11038" pt_clust_6="54.82847"></scales>
<clustering>
<clus scale="   54.828">  1  6  2 -1</clus>
<clus scale="   72.110">  1  5  2 -1</clus>
<clus scale="   87.644">  1  3  2 -1</clus>
<clus scale="   87.644">  2  3  1 -1</clus>
</clustering>
</event>
<event>
 6    0  0.2839294E+002  0.1150159E+03  0.7546771E-02  0.1251553E+00
         21   -1    0    0  503  502  0.00000000000E+00  0.00000000000E+00  0.28878064615E+04  0.28878064615E+04  0.00000000000E+00 0.  1.
         -1   -1    0    0    0  501 -0.00000000000E+00 -0.00000000000E+00 -0.17202203310E+03  0.17202203310E+03  0.00000000000E+00 0.  1.
         21    1    1    2  503  501 -0.25192100929E+01 -0.35735776780E+02  0.17166951044E+02  0.39725261104E+02  0.00000000000E+00 0. -1.
         21    1    1    2  504  505 -0.88916263652E+02  0.35717216009E+02  0.11711391703E+03  0.15131916938E+03  0.00000000000E+00 0.  1.
         21    1    1    2  505  502  0.23023583535E+02  0.79849910631E+02  0.27051821977E+04  0.27064583530E+04  0.00000000000E+00 0.  1.
         -1    1    1    2    0  504  0.68411890210E+02 -0.79831349860E+02 -0.12367863740E+03  0.16232571112E+03  0.00000000000E+00 0.  1.
<scales pt_clust_3="35.82446" pt_clust_4="115.01586" pt_clust_5="82.96384" pt_clust_6="14000.00000"></scales>
<clustering>
<clus scale="   35.824">  2  3  1 -1</clus>
<clus scale="   82.964">  1  5  2 -1</clus>
<clus scale="  115.016">  1  4  2 -1</clus>
<clus scale="   82.964">  1  3  2 -1</clus>
</clustering>
</event>
<event>
 6    0  0.2839294E+002  0.1208861E+03  0.7546771E-02  0.1241642E+00
          2   -1    0    0  503    0 -0.00000000000E+00  0.00000000000E+00  0.21383840964E+04  0.21383840964E+04  0.00000000000E+00 0. -1.
         21   -1    0    0  504  502  0.00000000000E+00 -0.00000000000E+00 -0.11241817950E+03  0.11241817950E+03  0.00000000000E+00 0.  1.
         21    1    1    2  503  502  0.13700134770E+03  0.67589093159E+02  0.14834090578E+03  0.21293820492E+03  0.00000000000E+00 0.  1.
         21    1    1    2  504  505 -0.52023777337E+02 -0.46775571005E+01 -0.69600155073E+02  0.87020311049E+02  0.00000000000E+00 0.  1.
         21    1    1    2  505  501 -0.45936148052E+02 -0.14331834245E+02  0.50918678187E+03  0.51145548193E+03  0.00000000000E+00 0. -1.
          2    1    1    2  501    0 -0.39041422310E+02 -0.48579701814E+02  0.14380383843E+04  0.14393882780E+04  0.00000000000E+00 0. -1.
<scales pt_clust_3="108.10627" pt_clust_4="52.23364" pt_clust_5="47.53455" pt_clust_6="47.53455"></scales>
<clustering>
<clus scale="   47.535">  5  6 -1 -1</clus>
<clus scale="   52.234">  2  4  1 -1</clus>
<clus scale="  108.106">  2  3  1 -1</clus>
<clus scale="   52.234">  2  3  1 -1</clus>
</clustering>
</event>
<event>
 6    0  0.2839294E+002  0.1130020E+03  0.7546771E-02  0.1255110E+00
         21   -1    0    0  503  502  0.00000000000E+00  0.00000000000E+00  0.23987012376E+03  0.23987012376E+03  0.00000000000E+00 0.  1.
         -1   -1    0    0    0  501 -0.00000000000E+00 -0.00000000000E+00 -0.36043819547E+03  0.36043819547E+03  0.00000000000E+00 0.  1.
         21    1    1    2  503  504 -0.34357213621E+02  0.12612802152E+02  0.15149467485E+02  0.39610696421E+02  0.00000000000E+00 0. -1.
         21    1    1    2  504  501  0.20380993760E+02 -0.60865916523E+02 -0.28351313207E+02  0.70170090932E+02  0.00000000000E+00 0.  1.
         21    1    1    2  505  502 -0.48025491567E+02  0.77609699471E+02  0.17638661561E+03  0.19859997850E+03  0.00000000000E+00 0.  1.
         -1    1    1    2    0  505  0.62001711428E+02 -0.29356585100E+02 -0.28375284159E+03  0.29192755338E+03  0.00000000000E+00 0.  1.
<scales pt_clust_3="36.59919" pt_clust_4="62.00099" pt_clust_5="113.00198" pt_clust_6="14000.00000"></scales>
<clustering>
<clus scale="   36.599">  1  3  2 -1</clus>
<clus scale="   62.001">  2  4  1 -1</clus>
<clus scale="  113.002">  1  5  2 -1</clus>
<clus scale="   36.599">  1  3  2 -1</clus>
</clustering>
</event>
<event>
 6    0  0.2839294E+002  0.6439999E+02  0.7546771E-02  0.1380243E+00
          2   -1    0    0  505    0 -0.00000000000E+00  0.00000000000E+00  0.11734101973E+04  0.11734101973E+04  0.00000000000E+00 0.  1.
         21   -1    0    0  504  502  0.00000000000E+00 -0.00000000000E+00 -0.69369741093E+02  0.69369741093E+02  0.00000000000E+00 0. -1.
         21    1    1    2  503  501  0.40801127870E+02 -0.19291655143E+02  0.96275293011E+02  0.10632888619E+03  0.00000000000E+00 0. -1.
         21    1    1    2  504  503 -0.20920788737E+02 -0.33728432584E+02 -0.12308474904E+02  0.41554604082E+02  0.00000000000E+00 0. -1.
         21    1    1    2  505  502 -0.82350009932E+02  0.64838676507E+02  0.39104666727E+02  0.11186935714E+03  0.00000000000E+00 0. -1.
          2    1    1    2  501    0  0.62469670800E+02 -0.11818588779E+02  0.98096897142E+03  0.98302709103E+03  0.00000000000E+00 0.  1.
<scales pt_clust_3="44.84341" pt_clust_4="39.68988" pt_clust_5="64.39999" pt_clust_6="14000.00000"></scales>
<clustering>
<clus scale="   39.690">  2  4  1 -1</clus>
<clus scale="   44.843">  2  3  1 -1</clus>
<clus scale="   64.400">  2  5  1 -1</clus>
<clus scale="   39.690">  2  3  1 -1</clus>
</clustering>
</event>
<event>
 6    0  0.2839294E+002  0.1423850E+03  0.7546771E-02  0.1210155E+00
          1   -1    0    0  504    0 -0.00000000000E+00  0.00000000000E+00  0.96009754014E+03  0.96009754014E+03  0.00000000000E+00 0.  1.
         21   -1    0    0  503  502  0.00000000000E+00 -0.00000000000E+00 -0.19726515685E+03  0.19726515685E+03  0.00000000000E+00 0.  1.
         21    1    1    2  503  501 -0.13250209851E+03 -0.93039152748E+02  0.12421444545E+03  0.20406449596E+03  0.00000000000E+00 0.  1.
         21    1    1    2  504  505  0.28412969674E+02 -0.18556535839E+02  0.46647694357E+02  0.57685780370E+02  0.00000000000E+00 0.  1.
         21    1    1    2  505  502  0.53550508122E+02 -0.22219843558E+02 -0.13908997483E+03  0.15068974573E+03  0.00000000000E+00 0.  1.
          1    1    1    2  501    0  0.50538620710E+02  0.13381553214E+03  0.73106021832E+03  0.74492267494E+03  0.00000000000E+00 0.  1.
<scales pt_clust_3="14000.00000" pt_clust_4="33.93585" pt_clust_5="58.19048" pt_clust_6="142.38502"></scales>
<clustering>
<clus scale="   33.936">  1  4  2 -1</clus>
<clus scale="   58.190">  2  5  1 -1</clus>
<clus scale="  142.385">  1  6  2 -1</clus>
<clus scale="   58.190">  2  3  1 -1</clus>
</clustering>
</event>
<event>
 6    0  0.2839294E+002  0.3758258E+03  0.7546771E-02  0.1052487E+00
          1   -1    0    0  504    0 -0.00000000000E+00  0.00000000000E+00  0.18504536982E+04  0.18504536982E+04  0.00000000000E+00 0.  1.
         21   -1    0    0  505  502  0.00000000000E+00 -0.00000000000E+00 -0.89929773974E+02  0.89929773974E+02  0.00000000000E+00 0.  1.
         21    1    1    2  503  502  0.39027842888E+02 -0.35200597573E+02  0.54677389167E+02  0.75841093585E+02  0.00000000000E+00 0.  1.
         21    1    1    2  504  503  0.30817482806E+03  0.17376481162E+03  0.97074494834E+03  0.10332045727E+04  0.00000000000E+00 0.  1.
         21    1    1    2  505  501 -0.21306554509E+03 -0.13847922592E+03  0.47790047834E+03  0.54125990957E+03  0.00000000000E+00 0.  1.
          1    1    1    2  501    0 -0.13413712586E+03 -0.84988123481E-01  0.25720110843E+03  0.29007789632E+03  0.00000000000E+00 0.  1.
<scales pt_clust_3="52.55716" pt_clust_4="360.89688" pt_clust_5="74.60173" pt_clust_6="74.60173"></scales>
<clustering>
<clus scale="   52.557">  2  3  1 -1</clus>
<clus scale="   74.602">  5  6 -1 -1</clus>
<clus scale="  360.897">  1  4  2 -1</clus>
<clus scale="   52.557">  2  3  1 -1</clus>
</clustering>
</event>
<event>
 6    0  0.2839294E+002  0.2187487E+03  0.7546771E-02  0.1134819E+00
         21   -1    0    0  505  502  0.00000000000E+00  0.00000000000E+00  0.51165426028E+03  0.51165426028E+03  0.00000000000E+00 0.  1.
          1   -1    0    0  504    0 -0.00000000000E+00 -0.00000000000E+00 -0.56928065997E+03  0.56928065997E+03  0.00000000000E+00 0.  1.
         21    1    1    2  503  501  0.92083803621E+02 -0.10372690846E+02 -0.12733561642E+03  0.15748453516E+03  0.00000000000E+00 0.  1.
         21    1    1    2  504  502 -0.22796610691E+03  0.24324426762E+02  0.42675453594E+03  0.48443746509E+03  0.00000000000E+00 0.  1.
         21    1    1    2  505  503  0.30321249185E+02 -0.21372935320E+02  0.23576223079E+02  0.43954735934E+02  0.00000000000E+00 0.  1.
          1    1    1    2  501    0  0.10556105410E+03  0.74211994050E+01 -0.38062154229E+03  0.39505818407E+03  0.00000000000E+00 0.  1.
<scales pt_clust_3="85.08833" pt_clust_4="199.09845" pt_clust_5="37.09691" pt_clust_6="85.08833"></scales>
<clustering>
<clus scale="   37.097">  1  5  2 -1</clus>
<clus scale="   85.088">  3  6 -1 -1</clus>
<clus scale="  199.098">  1  4  2 -1</clus>
<clus scale="   37.097">  1  3  2 -1</clus>
</clustering>
</event>
<event>
 6    0  0.2839294E+002  0.7790450E+02  0.7546771E-02  0.1335106E+00
         21   -1    0    0  503  502  0.00000000000E+00  0.00000000000E+00  0.44385668997E+03  0.44385668997E+03  0.00000000000E+00 0.  1.
          1   -1    0    0  504    0 -0.00000000000E+00 -0.00000000000E+00 -0.11423717328E+04  0.11423717328E+04  0.00000000000E+00 0. -1.
         21    1    1    2  503  505 -0.65533393081E+02  0.34243925974E+02  0.32772352865E+03  0.33596128245E+03  0.00000000000E+00 0.  1.
         21    1    1    2  504  502 -0.17219909496E+02 -0.32313774859E+02  0.98310362392E+02  0.10490773414E+03  0.00000000000E+00 0.  1.
         21    1    1    2  505  501  0.43910132233E+02  0.72669561744E+02 -0.20382780305E+03  0.22080475133E+03  0.00000000000E+00 0.  1.
          1    1    1    2  501    0  0.38843170344E+02 -0.74599712859E+02 -0.92072113084E+03  0.92455465486E+03  0.00000000000E+00 0. -1.
<scales pt_clust_3="82.28134" pt_clust_4="36.61564" pt_clust_5="77.90450" pt_clust_6="14000.00000"></scales>
<clustering>
<clus scale="   36.616">  1  4  2 -1</clus>
<clus scale="   82.281">  1  3  2 -1</clus>
<clus scale="   77.905">  1  5  2 -1</clus>
<clus scale="   36.616">  1  3  2 -1</clus>
</clustering>
</event>
<event>
 6    0  0.2839294E+002  0.1865398E+03  0.7546771E-02  0.1161620E+00
          2   -1    0    0  502    0 -0.00000000000E+00  0.00000000000E+00  0.33391317551E+03  0.33391317551E+03  0.00000000000E+00 0. -1.
         21   -1    0    0  503  502  0.00000000000E+00 -0.00000000000E+00 -0.19375758668E+03  0.19375758668E+03  0.00000000000E+00 0. -1.
         21    1    1    2  503  504 -0.68370495248E+02  0.22104551352E+01 -0.66135492985E+02  0.95148905221E+02  0.00000000000E+00 0.  1.
         21    1    1    2  504  505 -0.10939106748E+03 -0.10137150886E+03  0.16584921343E+02  0.15005881537E+03  0.00000000000E+00 0. -1.
         21    1    1    2  505  501  0.55563790513E+02  0.56344632275E+02  0.61208289214E+02  0.10004252631E+03  0.00000000000E+00 0. -1.
          2    1    1    2  501    0  0.12219777222E+03  0.42816421452E+02  0.12849787125E+03  0.18242051529E+03  0.00000000000E+00 0. -1.
<scales pt_clust_3="68.40622" pt_clust_4="180.08954" pt_clust_5="38.01693" pt_clust_6="38.01693"></scales>
<clustering>
<clus scale="   38.017">  5  6 -1 -1</clus>
<clus scale="   68.406">  2  3  1 -1</clus>
<clus scale="  180.090">  2  4  1 -1</clus>
<clus scale="   68.406">  2  3  1 -1</clus>
</clustering>
</event>
<event>
 6    0  0.2839294E+002  0.2382699E+03  0.7546771E-02  0.1120951E+00
          2   -1    0    0  503    0 -0.00000000000E+00  0.00000000000E+00  0.10290136998E+04  0.10290136998E+04  0.00000000000E+00 0.  1.
         21   -1    0    0  501  502  0.00000000000E+00 -0.00000000000E+00 -0.52676777374E+03  0.52676777374E+03  0.00000000000E+00 0. -1.
         21    1    1    2  503  504  0.37389978146E+02 -0.25066733729E+02  0.18347313913E+03  0.18891464842E+03  0.00000000000E+00 0.  1.
         21    1    1    2  504  505  0.13326338143E+03 -0.10844758247E+03  0.27535350154E+02  0.17400632886E+03  0.00000000000E+00 0.  1.
         21    1    1    2  505  502 -0.19648350952E+03  0.17608001970E+03 -0.41125223037E+03  0.48860857527E+03  0.00000000000E+00 0. -1.
          2    1    1    2  501    0  0.25830149934E+02 -0.42565703495E+02  0.70248966714E+03  0.70425192097E+03  0.00000000000E+00 0.  1.
<scales pt_clust_3="45.01502" pt_clust_4="14000.00000" pt_clust_5="238.26986" pt_clust_6="85.34165"></scales>
<clustering>
<clus scale="   45.015">  1  3  2 -1</clus>
<clus scale="   85.342">  1  6  2 -1</clus>
<clus scale="  238.270">  2  5  1 -1</clus>
<clus scale="  238.270">  2  3  1 -1</clus>
</clustering>
</event>
<event>
 6    0  0.2839294E+002  0.1728620E+03  0.7546771E-02  0.1174896E+00
         21   -1    0    0  505  502  0.00000000000E+00  0.00000000000E+00  0.36749985885E+03  0.36749985885E+03  0.00000000000E+00 0.  1.
         -2   -1    0    0    0  501 -0.00000000000E+00 -0.00000000000E+00 -0.51554045194E+03  0.51554045194E+03  0.00000000000E+00 0.  1.
         21    1    1    2  503  502 -0.90501441635E+02 -0.12260916757E+03  0.15818404128E+03  0.21964906061E+03  0.00000000000E+00 0.  1.
         21    1    1    2  504  503  0.40723272873E+02  0.77043761481E+02 -0.18677095418E+03  0.20610074105E+03  0.00000000000E+00 0.  1.
         21    1    1    2  505  501  0.27272737292E+02 -0.35063167698E+02  0.15974834213E+03  0.16580941090E+03  0.00000000000E+00 0.  1.
         -2    1    1    2    0  504  0.22505431469E+02  0.80628573786E+02 -0.27920202233E+03  0.29148109824E+03  0.00000000000E+00 0.  1.
<scales pt_clust_3="168.17505" pt_clust_4="39.18488" pt_clust_5="44.42103" pt_clust_6="39.18488"></scales>
<clustering>
<clus scale="   39.185">  4  6 -1 -1</clus>
<clus scale="   44.421">  1  5  2 -1</clus>
<clus scale="  168.175">  1  3  2 -1</clus>
<clus scale="   44.421">  1  3  2 -1</clus>
</clustering>
</event>
<event>
 6    0  0.2839294E+002  0.1061701E+03  0.7546771E-02  0.1267831E+00
         21   -1    0    0  504  502  0.00000000000E+00  0.00000000000E+00  0.65020672438E+03  0.65020672438E+03  0.00000000000E+00 0. -1.
          2   -1    0    0  505    0 -0.00000000000E+00 -0.00000000000E+00 -0.15710810639E+03  0.15710810639E+03  0.00000000000E+00 0. -1.
         21    1    1    2  503  502  0.10162772476E+03 -0.41253733387E+02  0.53422493112E+03  0.54536807936E+03  0.00000000000E+00 0. -1.
         21    1    1    2  504  501 -0.79824481559E+02  0.47831817562E+01 -0.14244267027E+02  0.81226386273E+02  0.00000000000E+00 0.  1.
         21    1    1    2  505  503  0.18952539472E+02  0.87752729379E+02  0.29285579060E+02  0.94431908837E+02  0.00000000000E+00 0. -1.
          2    1    1    2  501    0 -0.40755782670E+02 -0.51282177748E+02 -0.56167625151E+02  0.86288456300E+02  0.00000000000E+00 0. -1.
<scales pt_clust_3="106.17011" pt_clust_4="14000.00000" pt_clust_5="68.39141" pt_clust_6="65.50493"></scales>
<clustering>
<clus scale="   65.505">  2  6  1 -1</clus>
<clus scale="   68.391">  2  5  1 -1</clus>
<clus scale="  106.170">  1  3  2 -1</clus>
<clus scale="  106.170">  1  3  2 -1</clus>
</clustering>
</event>
<event>
 6    0  0.2839294E+002  0.1045960E+03  0.7546771E-02  0.1270918E+00
         21   -1    0    0  504  502  0.00000000000E+00  0.00000000000E+00  0.93678074238E+03  0.93678074238E+03  0.00000000000E+00 0.  1.
          4   -1    0    0  503    0 -0.00000000000E+00 -0.00000000000E+00 -0.18295125506E+03  0.18295125506E+03  0.00000000000E+00 0. -1.
         21    1    1    2  503  502  0.12164790251E+03  0.71721384518E+02  0.56290593445E+03  0.58034925711E+03  0.00000000000E+00 0.  1.
         21    1    1    2  504  505 -0.40278831143E+02 -0.18996316753E+02  0.34823701231E+03  0.35107301382E+03  0.00000000000E+00 0.  1.
         21    1    1    2  505  501 -0.44176808987E+02 -0.11382123559E+02 -0.51695096419E+02  0.68945820633E+02  0.00000000000E+00 0. -1.
          4    1    1    2  501    0 -0.37192262385E+02 -0.41342944206E+02 -0.10561836303E+03  0.11936390588E+03  0.00000000000E+00 0. -1.
<scales pt_clust_3="98.12311" pt_clust_4="44.53363" pt_clust_5="32.80900" pt_clust_6="32.80900"></scales>
<clustering>
<clus scale="   32.809">  5  6 -1 -1</clus>
<clus scale="   44.534">  1  4  2 -1</clus>
<clus scale="   98.123">  1  3  2 -1</clus>
<clus scale="   44.534">  1  3  2 -1</clus>
</clustering>
</event>
<event>
 6    0  0.2839294E+002  0.8266008E+02  0.7546771E-02  0.1321668E+00
          2   -1    0    0  503    0 -0.00000000000E+00  0.00000000000E+00  0.99372575527E+03  0.99372575527E+03  0.00000000000E+00 0.  1.
         21   -1    0    0  505  502  0.00000000000E+00 -0.00000000000E+00 -0.12226511968E+03  0.12226511968E+03  0.00000000000E+00 0.  1.
         21    1    1    2  503  504 -0.74289799195E+02  0.30212108133E+02  0.16271929911E+03  0.18140925017E+03  0.00000000000E+00 0.  1.
         21    1    1    2  504  502 -0.35183225401E+02 -0.79180184120E+02 -0.85571980080E+02  0.12177817818E+03  0.00000000000E+00 0.  1.
         21    1    1    2  505  501  0.64847123378E+02  0.24761724645E+02  0.13746879683E+03  0.15399987831E+03  0.00000000000E+00 0.  1.
          2    1    1    2  501    0  0.44625901218E+02  0.24206351342E+02  0.65684451972E+03  0.65880356829E+03  0.00000000000E+00 0.  1.
<scales pt_clust_3="66.78952" pt_clust_4="14000.00000" pt_clust_5="82.66008" pt_clust_6="50.76828"></scales>
<clustering>
<clus scale="   50.768">  1  6  2 -1</clus>
<clus scale="   66.790">  1  3  2 -1</clus>
<clus scale="   82.660">  1  5  2 -1</clus>
<clus scale="   82.660">  2  3  1 -1</clus>
</clustering>
</event>
<event>
 6    0  0.2839294E+002  0.1038726E+03  0.7546771E-02  0.1272357E+00
          2   -1    0    0  505    0 -0.00000000000E+00  0.00000000000E+00  0.10982754827E+04  0.10982754827E+04  0.00000000000E+00 0. -1.
         21   -1    0    0  503  502  0.00000000000E+00 -0.00000000000E+00 -0.10401462808E+03  0.10401462808E+03  0.00000000000E+00 0. -1.
         21    1    1    2  503  501  0.35263263246E+02 -0.15815911991E+02 -0.67544763976E+02  0.77819894291E+02  0.00000000000E+00 0. -1.
         21    1    1    2  504  502  0.51159412161E+02  0.40626720599E+02  0.43119490233E+02  0.78275834824E+02  0.00000000000E+00 0. -1.
         21    1    1    2  505  504 -0.12251604375E+03  0.64658999952E+02  0.51228889102E+03  0.53068905690E+03  0.00000000000E+00 0. -1.
          2    1    1    2  501    0  0.36093368340E+02 -0.89469808561E+02  0.50639723732E+03  0.51550532475E+03  0.00000000000E+00 0. -1.
<scales pt_clust_3="38.64765" pt_clust_4="77.72512" pt_clust_5="14000.00000" pt_clust_6="103.87256"></scales>
<clustering>
<clus scale="   38.648">  2  3  1 -1</clus>
<clus scale="   77.725">  2  4  1 -1</clus>
<clus scale="  103.873">  1  6  2 -1</clus>
<clus scale="   38.648">  2  3  1 -1</clus>
</clustering>
</event>
<event>
 6    0  0.2839294E+002  0.1737673E+03  0.7546771E-02  0.1173975E+00
          1   -1    0    0  505    0 -0.00000000000E+00  0.00000000000E+00  0.92447524020E+03  0.92447524020E+03  0.00000000000E+00 0. -1.
         21   -1    0    0  503  502  0.00000000000E+00 -0.00000000000E+00 -0.10302170963E+04  0.10302170963E+04  0.00000000000E+00 0. -1.
         21    1    1    2  503  504  0.10841102745E+03  0.41795522844E+02 -0.18295781119E+03  0.21673342446E+03  0.00000000000E+00 0. -1.
         21    1    1    2  504  501 -0.46495755360E+02 -0.89733435231E+02  0.50046191084E+03  0.51056446103E+03  0.00000000000E+00 0. -1.
         21    1    1    2  505  502 -0.37172465212E+01  0.96258978749E+02 -0.81891411757E+03  0.82456045313E+03  0.00000000000E+00 0. -1.
          1    1    1    2  501    0 -0.58198025566E+02 -0.48321066363E+02  0.39566816178E+03  0.40283399792E+03  0.00000000000E+00 0. -1.
<scales pt_clust_3="170.19770" pt_clust_4="30.31461" pt_clust_5="96.33073" pt_clust_6="30.31461"></scales>
<clustering>
<clus scale="   30.315">  4  6 -1 -1</clus>
<clus scale="   96.331">  2  5  1 -1</clus>
<clus scale="  170.198">  2  3  1 -1</clus>
<clus scale="   96.331">  2  3  1 -1</clus>
</clustering>
</event>
<event>
 6    0  0.2839294E+002  0.8588298E+02  0.7546771E-02  0.1313139E+00
          2   -1    0    0  504    0 -0.00000000000E+00  0.00000000000E+00  0.12988450367E+04  0.12988450367E+04  0.00000000000E+00 0.  1.
         21   -1    0    0  501  502  0.00000000000E+00 -0.00000000000E+00 -0.10503701712E+03  0.10503701712E+03  0.00000000000E+00 0.  1.
         21    1    1    2  503  502 -0.35381140570E+01 -0.30035374756E+02 -0.57752522714E+02  0.65191992358E+02  0.00000000000E+00 0.  1.
         21    1    1    2  504  505  0.18321159110E+02  0.82795289378E+02  0.11096790640E+04  0.11129143497E+04  0.00000000000E+00 0.  1.
         21    1    1    2  505  503 -0.25464907771E+02 -0.10595365205E+03  0.51891366972E+02  0.12069528523E+03  0.00000000000E+00 0.  1.
          2    1    1    2  501    0  0.10681862718E+02  0.53193737428E+02  0.89990111354E+02  0.10508042650E+03  0.00000000000E+00 0.  1.
<scales pt_clust_3="30.24305" pt_clust_4="85.88298" pt_clust_5="14000.00000" pt_clust_6="49.03670"></scales>
<clustering>
<clus scale="   30.243">  2  3  1 -1</clus>
<clus scale="   49.037">  2  6  1 -1</clus>
<clus scale="   85.883">  1  4  2 -1</clus>
<clus scale="   30.243">  2  3  1 -1</clus>
</clustering>
</event>
<event>
 6    0  0.2839294E+002  0.1208025E+03  0.7546771E-02  0.1241779E+00
         21   -1    0    0  505  502  0.00000000000E+00  0.00000000000E+00  0.61744883762E+03  0.61744883762E+03  0.00000000000E+00 0. -1.
         -2   -1    0    0    0  501 -0.00000000000E+00 -0.00000000000E+00 -0.18619598163E+03  0.18619598163E+03  0.00000000000E+00 0.  1.
         21    1    1    2  503  502 -0.46902623597E+02 -0.33488141608E+01  0.24809355212E+03  0.25251035872E+03  0.00000000000E+00 0. -1.
         21    1    1    2  504  503 -0.55413732682E+02  0.77050022588E+02  0.32969036953E+03  0.34307889400E+03  0.00000000000E+00 0. -1.
         21    1    1    2  505  501  0.57860785018E+01 -0.36737132947E+02 -0.13450071083E+02  0.39547440546E+02  0.00000000000E+00 0.  1.
         -2    1    1    2    0  504  0.96530277778E+02 -0.36964075479E+02 -0.13308099458E+03  0.16850812598E+03  0.00000000000E+00 0.  1.
<scales pt_clust_3="46.98119" pt_clust_4="120.80253" pt_clust_5="37.18999" pt_clust_6="14000.00000"></scales>
<clustering>
<clus scale="   37.190">  2  5  1 -1</clus>
<clus scale="   46.981">  1  3  2 -1</clus>
<clus scale="  120.803">  1  4  2 -1</clus>
<clus scale="   46.981">  1  3  2 -1</clus>
</clustering>
</event>
<event>
 6    0  0.2839294E+002  0.2026728E+03  0.7546771E-02  0.1147503E+00
         21   -1    0    0  503  502  0.00000000000E+00  0.00000000000E+00  0.35364144680E+03  0.35364144680E+03  0.00000000000E+00 0. -1.
         -4   -1    0    0    0  501 -0.00000000000E+00 -0.00000000000E+00 -0.11617453105E+04  0.11617453105E+04  0.00000000000E+00 0. -1.
         21    1    1    2  503  501 -0.38448039874E+02 -0.27238133460E+02 -0.45804150205E+02  0.65712920043E+02  0.00000000000E+00 0. -1.
         21    1    1    2  504  505  0.91417483982E+01 -0.23476219531E+03 -0.11982148595E+03  0.26373101525E+03  0.00000000000E+00 0. -1.
         21    1    1    2  505  502 -0.65291426684E+02  0.18704254646E+03  0.23091324522E+03  0.30425123073E+03  0.00000000000E+00 0. -1.
         -4    1    1    2    0  504  0.94597718160E+02  0.74957782308E+02 -0.87339147282E+03  0.88169159132E+03  0.00000000000E+00 0. -1.
<scales pt_clust_3="47.11866" pt_clust_4="202.67278" pt_clust_5="14000.00000" pt_clust_6="83.38741"></scales>
<clustering>
<clus scale="   47.119">  2  3  1 -1</clus>
<clus scale="   83.387">  2  6  1 -1</clus>
<clus scale="  202.673">  2  4  1 -1</clus>
<clus scale="  202.673">  1  3  2 -1</clus>
</clustering>
</event>
<event>
 6    0  0.2839294E+002  0.1111426E+03  0.7546771E-02  0.1258468E+00
         21   -1    0    0  503  502  0.00000000000E+00  0.00000000000E+00  0.15241676259E+04  0.15241676259E+04  0.00000000000E+00 0.  1.
          2   -1    0    0  504    0 -0.00000000000E+00 -0.00000000000E+00 -0.13827585114E+03  0.13827585114E+03  0.00000000000E+00 0.  1.
         21    1    1    2  503  505  0.11927859441E+03 -0.49242198384E+01  0.13149863057E+04  0.13203941135E+04  0.00000000000E+00 0.  1.
         21    1    1    2  504  502 -0.26303123736E+02 -0.35294204892E+02  0.18067115860E+03  0.18595591620E+03  0.00000000000E+00 0.  1.
         21    1    1    2  505  501 -0.47842375396E+02  0.80169988531E+00 -0.67607127865E+02  0.82826682563E+02  0.00000000000E+00 0.  1.
          2    1    1    2  501    0 -0.45133095276E+02  0.39416724845E+02 -0.42158561673E+02  0.73266764696E+02  0.00000000000E+00 0.  1.
<scales pt_clust_3="101.47901" pt_clust_4="44.01744" pt_clust_5="40.50576" pt_clust_6="40.50576"></scales>
<clustering>
<clus scale="   40.506">  5  6 -1 -1</clus>
<clus scale="   44.017">  1  4  2 -1</clus>
<clus scale="  101.479">  1  3  2 -1</clus>
<clus scale="   44.017">  1  3  2 -1</clus>
</clustering>
</event>
<event>
 6    0  0.2839294E+002  0.8609540E+02  0.7546771E-02  0.1312593E+00
         21   -1    0    0  504  502  0.00000000000E+00  0.00000000000E+00  0.14117482471E+04  0.14117482471E+04  0.00000000000E+00 0.  1.
          1   -1    0    0  503    0 -0.00000000000E+00 -0.00000000000E+00 -0.73246608024E+02  0.73246608024E+02  0.00000000000E+00 0.  1.
         21    1    1    2  503  505  0.30061145764E+02  0.44741002493E+02  0.26079155927E+02  0.59879480313E+02  0.00000000000E+00 0.  1.
         21    1    1    2  504  501 -0.11718035836E+03  0.44142063191E+02  0.12114872371E+04  0.12179413301E+04  0.00000000000E+00 0.  1.
         21    1    1    2  505  502  0.30043984975E+02 -0.39041922000E+02  0.11941622154E+03  0.12917873925E+03  0.00000000000E+00 0.  1.
          1    1    1    2  501    0  0.57075227624E+02 -0.49841143683E+02 -0.18480975457E+02  0.77995305409E+02  0.00000000000E+00 0.  1.
<scales pt_clust_3="53.40233" pt_clust_4="86.09540" pt_clust_5="49.26371" pt_clust_6="14000.00000"></scales>
<clustering>
<clus scale="   49.264">  1  5  2 -1</clus>
<clus scale="   53.402">  2  3  1 -1</clus>
<clus scale="   86.095">  1  4  2 -1</clus>
<clus scale="   49.264">  1  3  2 -1</clus>
</clustering>
</event>
<event>
 6    0  0.2839294E+002  0.2001136E+03  0.7546771E-02  0.1149643E+00
         21   -1    0    0  504  502  0.00000000000E+00  0.00000000000E+00  0.24675491983E+03  0.24675491983E+03  0.00000000000E+00 0.  1.
          1   -1    0    0  505    0 -0.00000000000E+00 -0.00000000000E+00 -0.30304749564E+04  0.30304749564E+04  0.00000000000E+00 0.  1.
         21    1    1    2  503  502  0.21571872022E+02  0.46944585776E+02  0.17912736656E+03  0.18642894960E+03  0.00000000000E+00 0.  1.
         21    1    1    2  504  501 -0.83800494788E+02 -0.76243554406E+01 -0.75848494700E+03  0.76313830237E+03  0.00000000000E+00 0.  1.
         21    1    1    2  505  503  0.15515470216E+03 -0.31958464902E+01 -0.39009277017E+02  0.16001537030E+03  0.00000000000E+00 0.  1.
          1    1    1    2  501    0 -0.92926079395E+02 -0.36124383845E+02 -0.21653531791E+04  0.21676472539E+04  0.00000000000E+00 0.  1.
<scales pt_clust_3="51.66372" pt_clust_4="79.53927" pt_clust_5="180.32495" pt_clust_6="79.53927"></scales>
<clustering>
<clus scale="   51.664">  1  3  2 -1</clus>
<clus scale="   79.539">  4  6 -1 -1</clus>
<clus scale="  180.325">  1  5  2 -1</clus>
<clus scale="   51.664">  1  3  2 -1</clus>
</clustering>
</event>
<event>
 6    0  0.2839294E+002  0.8590951E+02  0.7546771E-02  0.1313071E+00
          1   -1    0    0  504    0 -0.00000000000E+00  0.00000000000E+00  0.10059870356E+04  0.10059870356E+04  0.00000000000E+00 0. -1.
         21   -1    0    0  505  502  0.00000000000E+00 -0.00000000000E+00 -0.54721968131E+02  0.54721968131E+02  0.00000000000E+00 0. -1.
         21    1    1    2  503  502 -0.29437460005E+02  0.53150138114E+02  0.21183525242E+02  0.64344719867E+02  0.00000000000E+00 0. -1.
         21    1    1    2  504  503  0.17822532953E+02  0.31974151961E+02  0.13784402382E+03  0.14262175141E+03  0.00000000000E+00 0. -1.
         21    1    1    2  505  501  0.13938126041E+02 -0.13844976975E+03  0.13345955057E+03  0.19280576168E+03  0.00000000000E+00 0. -1.
          1    1    1    2  501    0 -0.23231989879E+01  0.53325479673E+02  0.65877796782E+03  0.66093677074E+03  0.00000000000E+00 0. -1.
<scales pt_clust_3="61.73190" pt_clust_4="36.60586" pt_clust_5="85.90951" pt_clust_6="14000.00000"></scales>
<clustering>
<clus scale="   36.606">  1  4  2 -1</clus>
<clus scale="   61.732">  2  3  1 -1</clus>
<clus scale="   85.910">  2  5  1 -1</clus>
<clus scale="   61.732">  2  3  1 -1</clus>
</clustering>
</event>
<event>
 6    0  0.2839294E+002  0.1426005E+03  0.7546771E-02  0.1209872E+00
         21   -1    0    0  504  502  0.00000000000E+00  0.00000000000E+00  0.27367515154E+03  0.27367515154E+03  0.00000000000E+00 0.  1.
         -1   -1    0    0    0  501 -0.00000000000E+00 -0.00000000000E+00 -0.18378639027E+03  0.18378639027E+03  0.00000000000E+00 0.  1.
         21    1    1    2  503  502  0.96957773949E+02  0.93406212268E+02  0.57529921627E+02  0.14640772624E+03  0.00000000000E+00 0. -1.
         21    1    1    2  504  505 -0.17479965311E+02  0.57209426505E+02  0.89420445961E+02  0.10758477506E+03  0.00000000000E+00 0.  1.
         21    1    1    2  505  501  0.17007634678E+02 -0.53754131337E+02 -0.30290266723E+01  0.56461856822E+02  0.00000000000E+00 0.  1.
         -1    1    1    2    0  503 -0.96485443317E+02 -0.96861507436E+02 -0.54032579640E+02  0.14700718369E+03  0.00000000000E+00 0.  1.
<scales pt_clust_3="142.60050" pt_clust_4="56.49630" pt_clust_5="56.38055" pt_clust_6="14000.00000"></scales>
<clustering>
<clus scale="   56.381">  2  5  1 -1</clus>
<clus scale="   56.496">  1  4  2 -1</clus>
<clus scale="  142.601">  1  3  2 -1</clus>
<clus scale="   56.496">  1  3  2 -1</clus>
</clustering>
</event>
<event>
 6    0  0.2839294E+002  0.1193441E+03  0.7546771E-02  0.1244183E+00
          2   -1    0    0  505    0 -0.00000000000E+00  0.00000000000E+00  0.80620824886E+03  0.80620824886E+03  0.00000000000E+00 0. -1.
         21   -1    0    0  504  502  0.00000000000E+00 -0.00000000000E+00 -0.23756732567E+04  0.23756732567E+04  0.00000000000E+00 0. -1.
         21    1    1    2  503  502  0.13011979073E+03  0.48513493100E+02  0.67729715174E+02  0.15450577099E+03  0.00000000000E+00 0.  1.
         21    1    1    2  504  501 -0.29894601262E+02  0.10491116398E+02 -0.23157134746E+04  0.23159301905E+04  0.00000000000E+00 0. -1.
         21    1    1    2  505  503 -0.28219111897E+02  0.11136564557E+02  0.53406559622E+01  0.30803635378E+02  0.00000000000E+00 0.  1.
          2    1    1    2  501    0 -0.72006077571E+02 -0.70141174056E+02  0.67317809561E+03  0.68064190872E+03  0.00000000000E+00 0. -1.
<scales pt_clust_3="119.34412" pt_clust_4="31.68619" pt_clust_5="30.33713" pt_clust_6="14000.00000"></scales>
<clustering>
<clus scale="   30.337">  1  5  2 -1</clus>
<clus scale="   31.686">  2  4  1 -1</clus>
<clus scale="  119.344">  2  3  1 -1</clus>
<clus scale="   31.686">  2  3  1 -1</clus>
</clustering>
</event>
<event>
 6    0  0.2839294E+002  0.1650548E+03  0.7546771E-02  0.1183105E+00
         21   -1    0    0  501  502  0.00000000000E+00  0.00000000000E+00  0.18564315295E+03  0.18564315295E+03  0.00000000000E+00 0. -1.
          2   -1    0    0  504    0 -0.00000000000E+00 -0.00000000000E+00 -0.12486466268E+04  0.12486466268E+04  0.00000000000E+00 0. -1.
         21    1    1    2  503  505 -0.68212538203E+02 -0.45092302331E+02  0.55244643993E+02  0.98682504972E+02  0.00000000000E+00 0. -1.
         21    1    1    2  504  503  0.57505859019E+02  0.15128206664E+03 -0.80243041960E+03  0.81858888693E+03  0.00000000000E+00 0. -1.
         21    1    1    2  505  502 -0.49476383972E+02 -0.66641734025E+02  0.79657072191E+02  0.11504035133E+03  0.00000000000E+00 0. -1.
          2    1    1    2  501    0  0.60183063156E+02 -0.39548030286E+02 -0.39547477048E+03  0.40197803656E+03  0.00000000000E+00 0. -1.
<scales pt_clust_3="33.56859" pt_clust_4="161.55268" pt_clust_5="33.56859" pt_clust_6="72.01422"></scales>
<clustering>
<clus scale="   33.569">  3  5 -1 -1</clus>
<clus scale="   72.014">  2  6  1 -1</clus>
<clus scale="  161.553">  2  4  1 -1</clus>
<clus scale="  165.055">  1  3  2 -1</clus>
</clustering>
</event>
<event>
 6    0  0.2839294E+002  0.9798393E+02  0.7546771E-02  0.1284593E+00
         21   -1    0    0  504  502  0.00000000000E+00  0.00000000000E+00  0.22000490939E+03  0.22000490939E+03  0.00000000000E+00 0. -1.
          1   -1    0    0  502    0 -0.00000000000E+00 -0.00000000000E+00 -0.66226782649E+03  0.66226782649E+03  0.00000000000E+00 0. -1.
         21    1    1    2  503  505 -0.10660972476E+03  0.90637280995E+02  0.46425827555E+02  0.14743170481E+03  0.00000000000E+00 0. -1.
         21    1    1    2  504  503  0.42430614208E+02 -0.75717067466E+02  0.10457947081E+03  0.13590547098E+03  0.00000000000E+00 0. -1.
         21    1    1    2  505  501  0.33870659644E+02 -0.54445357272E+01 -0.12591040336E+03  0.13050016946E+03  0.00000000000E+00 0. -1.
          1    1    1    2  501    0  0.30308450905E+02 -0.94756778016E+01 -0.46735781211E+03  0.46843539064E+03  0.00000000000E+00 0. -1.
<scales pt_clust_3="14000.00000" pt_clust_4="97.98393" pt_clust_5="55.11676" pt_clust_6="31.75517"></scales>
<clustering>
<clus scale="   31.755">  2  6  1 -1</clus>
<clus scale="   55.117">  2  5  1 -1</clus>
<clus scale="   97.984">  1  4  2 -1</clus>
<clus scale="   97.984">  1  3  2 -1</clus>
</clustering>
</event>
<event>
 6    0  0.2839294E+002  0.1177340E+03  0.7546771E-02  0.1246883E+00
          2   -1    0    0  503    0 -0.00000000000E+00  0.00000000000E+00  0.12764297241E+04  0.12764297241E+04  0.00000000000E+00 0.  1.
         21   -1    0    0  505  502  0.00000000000E+00 -0.00000000000E+00 -0.20762028380E+02  0.20762028380E+02  0.00000000000E+00 0.  1.
         21    1    1    2  503  502 -0.10277326326E+03  0.47103381259E+02  0.26821639255E+03  0.29106890146E+03  0.00000000000E+00 0.  1.
         21    1    1    2  504  501  0.70976532732E+02 -0.14147403584E+02  0.55486370967E+03  0.55956371714E+03  0.00000000000E+00 0.  1.
         21    1    1    2  505  504 -0.31568028384E+01 -0.61708489977E+02  0.19028438862E+03  0.20006511863E+03  0.00000000000E+00 0.  1.
          2    1    1    2  501    0  0.34953533370E+02  0.28752512302E+02  0.24230320490E+03  0.24649401526E+03  0.00000000000E+00 0.  1.
<scales pt_clust_3="105.08004" pt_clust_4="41.99082" pt_clust_5="61.78918" pt_clust_6="41.99082"></scales>
<clustering>
<clus scale="   41.991">  4  6 -1 -1</clus>
<clus scale="   61.789">  2  5  1 -1</clus>
<clus scale="  105.080">  2  3  1 -1</clus>
<clus scale="   61.789">  2  3  1 -1</clus>
</clustering>
</event>
<event>
 6    0  0.2839294E+002  0.7674490E+02  0.7546771E-02  0.1338551E+00
         21   -1    0    0  503  502  0.00000000000E+00  0.00000000000E+00  0.14413480859E+03  0.14413480859E+03  0.00000000000E+00 0.  1.
          1   -1    0    0  504    0 -0.00000000000E+00 -0.00000000000E+00 -0.82049092513E+03  0.82049092513E+03  0.00000000000E+00 0. -1.
         21    1    1    2  503  501 -0.35147075022E+02  0.96698105932E+00 -0.24853508695E+02  0.43057506075E+02  0.00000000000E+00 0.  1.
         21    1    1    2  504  505  0.44094388213E+02  0.53774234189E+02 -0.36800467293E+03  0.37451758654E+03  0.00000000000E+00 0. -1.
         21    1    1    2  505  502 -0.81777547357E+01  0.51162771898E+02  0.11956377222E+03  0.13030733106E+03  0.00000000000E+00 0.  1.
          1    1    1    2  501    0 -0.76955845508E+00 -0.10590398715E+03 -0.40306170713E+03  0.41674331005E+03  0.00000000000E+00 0. -1.
<scales pt_clust_3="35.16037" pt_clust_4="14000.00000" pt_clust_5="66.07720" pt_clust_6="76.74490"></scales>
<clustering>
<clus scale="   35.160">  1  3  2 -1</clus>
<clus scale="   66.077">  1  5  2 -1</clus>
<clus scale="   76.745">  1  6  2 -1</clus>
<clus scale="   35.160">  1  3  2 -1</clus>
</clustering>
</event>
<event>
 6    0  0.2839294E+002  0.2198416E+03  0.7546771E-02  0.1134001E+00
         21   -1    0    0  503  502  0.00000000000E+00  0.00000000000E+00  0.30941944130E+03  0.30941944130E+03  0.00000000000E+00 0. -1.
          2   -1    0    0  504    0 -0.00000000000E+00 -0.00000000000E+00 -0.13980842909E+04  0.13980842909E+04  0.00000000000E+00 0. -1.
         21    1    1    2  503  501 -0.47862966226E+02  0.13772046947E+03 -0.40464081325E+03  0.43010693902E+03  0.00000000000E+00 0.  1.
         21    1    1    2  504  505 -0.55659829580E+02  0.11936432620E+02 -0.54766670857E+02  0.78992931895E+02  0.00000000000E+00 0.  1.
         21    1    1    2  505  502  0.74331272498E+02 -0.21552705733E+03  0.23717454372E+03  0.32898148079E+03  0.00000000000E+00 0. -1.
          2    1    1    2  501    0  0.29191523308E+02  0.65870155236E+02 -0.86643190924E+03  0.86942238051E+03  0.00000000000E+00 0. -1.
<scales pt_clust_3="219.84156" pt_clust_4="56.92535" pt_clust_5="14000.00000" pt_clust_6="73.99377"></scales>
<clustering>
<clus scale="   56.925">  2  4  1 -1</clus>
<clus scale="   73.994">  2  6  1 -1</clus>
<clus scale="  219.842">  2  3  1 -1</clus>
<clus scale="  219.842">  1  3  2 -1</clus>
</clustering>
</event>
<event>
 6    0  0.4852018E+002  0.8151121E+02  0.7546771E-02  0.1324817E+00
         21   -1    0    0  503  502  0.00000000000E+00  0.00000000000E+00  0.43633832923E+03  0.43633832923E+03  0.00000000000E+00 0. -1.
          1   -1    0    0  505    0 -0.00000000000E+00 -0.00000000000E+00 -0.23079204220E+04  0.23079204220E+04  0.00000000000E+00 0.  1.
         21    1    1    2  503  501 -0.68330328730E+02  0.51531007602E+00  0.42010343555E+03  0.42562447760E+03  0.00000000000E+00 0. -1.
         21    1    1    2  504  502 -0.49768696568E+01  0.34197637309E+02 -0.21520713539E+02  0.40711039538E+02  0.00000000000E+00 0. -1.
         21    1    1    2  505  504 -0.35833082297E+02  0.58523415438E+01 -0.14175273551E+03  0.14632873168E+03  0.00000000000E+00 0. -1.
          1    1    1    2  501    0  0.10914028068E+03 -0.40565288928E+02 -0.21284120792E+04  0.21315945024E+04  0.00000000000E+00 0.  1.
<scales pt_clust_3="81.51121" pt_clust_4="34.55789" pt_clust_5="36.36416" pt_clust_6="14000.00000"></scales>
<clustering>
<clus scale="   34.558">  1  4  2 -1</clus>
<clus scale="   36.364">  2  5  1 -1</clus>
<clus scale="   81.511">  1  3  2 -1</clus>
<clus scale="   34.558">  1  3  2 -1</clus>
</clustering>
</event>
<event>
 6    0  0.2839294E+002  0.1570939E+03  0.7546771E-02  0.1192017E+00
          2   -1    0    0  503    0 -0.00000000000E+00  0.00000000000E+00  0.35586385903E+03  0.35586385903E+03  0.00000000000E+00 0. -1.
         21   -1    0    0  505  502  0.00000000000E+00 -0.00000000000E+00 -0.71291706645E+02  0.71291706645E+02  0.00000000000E+00 0. -1.
         21    1    1    2  503  504  0.33840083980E+02 -0.33201268448E+02  0.68336173317E+01  0.47897534761E+02  0.00000000000E+00 0. -1.
         21    1    1    2  504  502  0.87183239171E+02 -0.48008427896E+02  0.87324264662E+02  0.13240564014E+03  0.00000000000E+00 0. -1.
         21    1    1    2  505  501 -0.43905682594E+02  0.15234658115E+02  0.24960728824E+02  0.52752646904E+02  0.00000000000E+00 0. -1.
          2    1    1    2  501    0 -0.77117640557E+02  0.65975038229E+02  0.16545354157E+03  0.19409974387E+03  0.00000000000E+00 0. -1.
<scales pt_clust_3="33.82414" pt_clust_4="153.76452" pt_clust_5="39.67128" pt_clust_6="39.67128"></scales>
<clustering>
<clus scale="   33.824">  3  4 -1 -1</clus>
<clus scale="   39.671">  5  6 -1 -1</clus>
<clus scale="  153.765">  2  3  1 -1</clus>
<clus scale="  153.765">  2  3  1 -1</clus>
</clustering>
</event>
<event>
 6    0  0.2839294E+002  0.1278706E+03  0.7546771E-02  0.1230650E+00
         21   -1    0    0  505  502  0.00000000000E+00  0.00000000000E+00  0.29655303344E+02  0.29655303344E+02  0.00000000000E+00 0.  1.
          2   -1    0    0  502    0 -0.00000000000E+00 -0.00000000000E+00 -0.51072538374E+04  0.51072538374E+04  0.00000000000E+00 0.  1.
         21    1    1    2  503  501 -0.36110467705E+02 -0.12071570227E+03 -0.33256044007E+04  0.33279905163E+04  0.00000000000E+00 0.  1.
         21    1    1    2  504  503 -0.23272284264E+02  0.10752903824E+03 -0.12450107160E+03  0.16614635147E+03  0.00000000000E+00 0.  1.
         21    1    1    2  505  504  0.25162147386E+02  0.22338437696E+02 -0.30582843678E+02  0.45469218018E+02  0.00000000000E+00 0.  1.
          2    1    1    2  501    0  0.34220604583E+02 -0.91517736643E+01 -0.15969102181E+04  0.15973030549E+04  0.00000000000E+00 0.  1.
<scales pt_clust_3="127.87057" pt_clust_4="14000.00000" pt_clust_5="33.64728" pt_clust_6="35.58801"></scales>
<clustering>
<clus scale="   33.647">  1  5  2 -1</clus>
<clus scale="   35.588">  2  6  1 -1</clus>
<clus scale="  127.871">  2  3  1 -1</clus>
<clus scale="   33.647">  1  3  2 -1</clus>
</clustering>
</event>
<event>
 6    0  0.2839294E+002  0.4315943E+03  0.7546771E-02  0.1033358E+00
          2   -1    0    0  503    0 -0.00000000000E+00  0.00000000000E+00  0.35346584776E+04  0.35346584776E+04  0.00000000000E+00 0.  1.
         21   -1    0    0  505  502  0.00000000000E+00 -0.00000000000E+00 -0.82103114056E+03  0.82103114056E+03  0.00000000000E+00 0. -1.
         21    1    1    2  503  502  0.39796842165E+02 -0.35616251129E+02 -0.11876271927E+03  0.13021862186E+03  0.00000000000E+00 0.  1.
         21    1    1    2  504  501  0.23174155943E+03  0.58899829738E+02  0.19002236019E+04  0.19152083640E+04  0.00000000000E+00 0. -1.
         21    1    1    2  505  504 -0.33883759751E+03 -0.20343660951E+03 -0.62597462881E+03  0.74029832330E+03  0.00000000000E+00 0. -1.
          2    1    1    2  501    0  0.67299195916E+02  0.18015303090E+03  0.15581410832E+04  0.15699643090E+04  0.00000000000E+00 0.  1.
<scales pt_clust_3="53.40698" pt_clust_4="178.20310" pt_clust_5="383.01834" pt_clust_6="178.20310"></scales>
<clustering>
<clus scale="   53.407">  2  3  1 -1</clus>
<clus scale="  178.203">  4  6 -1 -1</clus>
<clus scale="  383.018">  2  5  1 -1</clus>
<clus scale="   53.407">  2  3  1 -1</clus>
</clustering>
</event>
<event>
 6    0  0.2839294E+002  0.1031144E+03  0.7546771E-02  0.1273880E+00
         21   -1    0    0  505  502  0.00000000000E+00  0.00000000000E+00  0.14979228314E+03  0.14979228314E+03  0.00000000000E+00 0. -1.
         -2   -1    0    0    0  501 -0.00000000000E+00 -0.00000000000E+00 -0.41498237849E+03  0.41498237849E+03  0.00000000000E+00 0. -1.
         21    1    1    2  503  504  0.33214053797E+02  0.35592765718E+02 -0.12626273250E+03  0.13532293212E+03  0.00000000000E+00 0. -1.
         21    1    1    2  504  502 -0.10854992098E+03 -0.47044860220E+00  0.34893251315E+02  0.11402125089E+03  0.00000000000E+00 0. -1.
         21    1    1    2  505  501  0.28141558956E+02 -0.57100584654E+02  0.52924535412E+02  0.82785448944E+02  0.00000000000E+00 0. -1.
         -2    1    1    2    0  503  0.47194308225E+02  0.21978267539E+02 -0.22674514958E+03  0.23264502967E+03  0.00000000000E+00 0. -1.
<scales pt_clust_3="30.67009" pt_clust_4="98.11546" pt_clust_5="63.65865" pt_clust_6="30.67009"></scales>
<clustering>
<clus scale="   30.670">  3  6 -1 -1</clus>
<clus scale="   63.659">  1  5  2 -1</clus>
<clus scale="   98.115">  1  4  2 -1</clus>
<clus scale="   63.659">  1  3  2 -1</clus>
</clustering>
</event>
<event>
 6    0  0.2839294E+002  0.8853353E+02  0.7546771E-02  0.1306442E+00
         -4   -1    0    0    0  501 -0.00000000000E+00  0.00000000000E+00  0.76425197844E+01  0.76425197844E+01  0.00000000000E+00 0.  1.
         21   -1    0    0  505  502  0.00000000000E+00 -0.00000000000E+00 -0.29411867788E+04  0.29411867788E+04  0.00000000000E+00 0.  1.
         21    1    1    2  503  501 -0.91530085026E+02  0.35720655685E+02 -0.12389406709E+04  0.12428305226E+04  0.00000000000E+00 0.  1.
         21    1    1    2  504  503 -0.20848006811E+02 -0.35585375514E+02 -0.95640206063E+03  0.95729089618E+03  0.00000000000E+00 0.  1.
         21    1    1    2  505  504  0.27845000712E+02  0.14600714335E+02 -0.33526345107E+03  0.33673447485E+03  0.00000000000E+00 0. -1.
         -4    1    1    2    0  502  0.84533091125E+02 -0.14735994505E+02 -0.40293807634E+03  0.41197340496E+03  0.00000000000E+00 0.  1.
<scales pt_clust_3="88.53353" pt_clust_4="32.03466" pt_clust_5="31.44082" pt_clust_6="14000.00000"></scales>
<clustering>
<clus scale="   31.441">  2  5  1 -1</clus>
<clus scale="   32.035">  2  4  1 -1</clus>
<clus scale="   88.534">  2  3  1 -1</clus>
<clus scale="   31.441">  2  3  1 -1</clus>
</clustering>
</event>
<event>
 6    0  0.2839294E+002  0.1067541E+03  0.7546771E-02  0.1266702E+00
         21   -1    0    0  503  502  0.00000000000E+00  0.00000000000E+00  0.67161111024E+03  0.67161111024E+03  0.00000000000E+00 0. -1.
          2   -1    0    0  502    0 -0.00000000000E+00 -0.00000000000E+00 -0.80665017996E+03  0.80665017996E+03  0.00000000000E+00 0.  1.
         21    1    1    2  503  505  0.10636586486E+02  0.32159637464E+02  0.55691979550E+03  0.55794895633E+03  0.00000000000E+00 0. -1.
         21    1    1    2  504  501  0.12572841530E+03 -0.28154870365E+02  0.86485464819E+00  0.12884517497E+03  0.00000000000E+00 0. -1.
         21    1    1    2  505  504 -0.38224136754E+02  0.38128562888E+02  0.29341148424E+02  0.61447334599E+02  0.00000000000E+00 0. -1.
          2    1    1    2  501    0 -0.98140865030E+02 -0.42133329988E+02 -0.72216486829E+03  0.73001982431E+03  0.00000000000E+00 0.  1.
<scales pt_clust_3="33.87299" pt_clust_4="106.75405" pt_clust_5="61.22066" pt_clust_6="14000.00000"></scales>
<clustering>
<clus scale="   33.873">  1  3  2 -1</clus>
<clus scale="   61.221">  1  5  2 -1</clus>
<clus scale="  106.754">  1  4  2 -1</clus>
<clus scale="   33.873">  1  3  2 -1</clus>
</clustering>
</event>
<event>
 6    0  0.2839294E+002  0.2521154E+03  0.7546771E-02  0.1111975E+00
          2   -1    0    0  503    0 -0.00000000000E+00  0.00000000000E+00  0.89861210315E+03  0.89861210315E+03  0.00000000000E+00 0. -1.
         21   -1    0    0  501  502  0.00000000000E+00 -0.00000000000E+00 -0.95436615404E+03  0.95436615404E+03  0.00000000000E+00 0. -1.
         21    1    1    2  503  505 -0.61298833131E+02 -0.38380352044E+02  0.58792608469E+02  0.93204984721E+02  0.00000000000E+00 0. -1.
         21    1    1    2  504  502  0.26131934473E+03  0.81458118668E+01 -0.70072513927E+03  0.74791033887E+03  0.00000000000E+00 0. -1.
         21    1    1    2  505  504 -0.22112327491E+03  0.10535857589E+03 -0.13958153884E+03  0.28192009187E+03  0.00000000000E+00 0. -1.
          2    1    1    2  501    0  0.21102763304E+02 -0.75124035711E+02  0.72576001875E+03  0.72994284172E+03  0.00000000000E+00 0. -1.
<scales pt_clust_3="72.32288" pt_clust_4="14000.00000" pt_clust_5="252.11540" pt_clust_6="114.00454"></scales>
<clustering>
<clus scale="   72.323">  1  3  2 -1</clus>
<clus scale="  114.005">  1  6  2 -1</clus>
<clus scale="  252.115">  1  5  2 -1</clus>
<clus scale="  252.115">  2  3  1 -1</clus>
</clustering>
</event>
<event>
 6    0  0.2839294E+002  0.2015135E+03  0.7546771E-02  0.1148468E+00
          2   -1    0    0  503    0 -0.00000000000E+00  0.00000000000E+00  0.11606419148E+04  0.11606419148E+04  0.00000000000E+00 0. -1.
         21   -1    0    0  505  502  0.00000000000E+00 -0.00000000000E+00 -0.12583925313E+03  0.12583925313E+03  0.00000000000E+00 0.  1.
         21    1    1    2  503  504  0.38382192598E+02 -0.12094805488E+02  0.22675530383E+03  0.23029859930E+03  0.00000000000E+00 0.  1.
         21    1    1    2  504  502  0.37588961299E+02  0.97415491485E+02  0.17124947018E+03  0.20057190489E+03  0.00000000000E+00 0. -1.
         21    1    1    2  505  501 -0.13455515887E+03 -0.17271406657E+03  0.90725276228E+01  0.21912907230E+03  0.00000000000E+00 0.  1.
          2    1    1    2  501    0  0.58584004970E+02  0.87393380569E+02  0.62772536005E+03  0.63648159146E+03  0.00000000000E+00 0. -1.
<scales pt_clust_3="40.24273" pt_clust_4="105.22666" pt_clust_5="14000.00000" pt_clust_6="201.51352"></scales>
<clustering>
<clus scale="   40.243">  1  3  2 -1</clus>
<clus scale="  105.227">  1  4  2 -1</clus>
<clus scale="  201.514">  1  6  2 -1</clus>
<clus scale="  201.514">  2  3  1 -1</clus>
</clustering>
</event>
<event>
 6    0  0.2839294E+002  0.1234552E+03  0.7546771E-02  0.1237503E+00
          1   -1    0    0  504    0 -0.00000000000E+00  0.00000000000E+00  0.11716325462E+04  0.11716325462E+04  0.00000000000E+00 0. -1.
         21   -1    0    0  505  502  0.00000000000E+00 -0.00000000000E+00 -0.48309287061E+03  0.48309287061E+03  0.00000000000E+00 0.  1.
         21    1    1    2  503  502  0.26353245780E+02  0.12902366510E+03 -0.33648702662E+03  0.36133795649E+03  0.00000000000E+00 0.  1.
         21    1    1    2  504  503  0.30702136302E+02 -0.80331355332E+02  0.26230425269E+03  0.27604215041E+03  0.00000000000E+00 0.  1.
         21    1    1    2  505  501 -0.10627143939E+03 -0.72903418426E+02 -0.93593730702E+02  0.15927433464E+03  0.00000000000E+00 0.  1.
          1    1    1    2  501    0  0.49216057309E+02  0.24211108658E+02  0.85631618020E+03  0.85807097524E+03  0.00000000000E+00 0. -1.
<scales pt_clust_3="123.45525" pt_clust_4="94.11430" pt_clust_5="14000.00000" pt_clust_6="54.84887"></scales>
<clustering>
<clus scale="   54.849">  1  6  2 -1</clus>
<clus scale="   94.114">  1  4  2 -1</clus>
<clus scale="  123.455">  2  3  1 -1</clus>
<clus scale="  123.455">  2  3  1 -1</clus>
</clustering>
</event>
<event>
 6    0  0.2839294E+002  0.1582079E+03  0.7546771E-02  0.1190735E+00
         21   -1    0    0  503  502  0.00000000000E+00  0.00000000000E+00  0.20228628391E+02  0.20228628391E+02  0.00000000000E+00 0. -1.
          2   -1    0    0  505    0 -0.00000000000E+00 -0.00000000000E+00 -0.31266652784E+04  0.31266652784E+04  0.00000000000E+00 0. -1.
         21    1    1    2  503  504  0.95118531539E+02 -0.16982033071E+02 -0.36139634000E+03  0.37408988099E+03  0.00000000000E+00 0. -1.
         21    1    1    2  504  501  0.55849286849E+02 -0.30665105639E+02 -0.50686578331E+03  0.51085459167E+03  0.00000000000E+00 0. -1.
         21    1    1    2  505  502 -0.21651037635E+03  0.59542040198E+02 -0.11487780324E+04  0.11705182464E+04  0.00000000000E+00 0. -1.
          2    1    1    2  501    0  0.65542557965E+02 -0.11894901488E+02 -0.10893964943E+04  0.10914311877E+04  0.00000000000E+00 0. -1.
<scales pt_clust_3="96.62259" pt_clust_4="50.99792" pt_clust_5="149.36733" pt_clust_6="50.99792"></scales>
<clustering>
<clus scale="   50.998">  4  6 -1 -1</clus>
<clus scale="   96.623">  1  3  2 -1</clus>
<clus scale="  149.367">  1  5  2 -1</clus>
<clus scale="   96.623">  1  3  2 -1</clus>
</clustering>
</event>
<event>
 6    0  0.2839294E+002  0.9118575E+02  0.7546771E-02  0.1300005E+00
         21   -1    0    0  503  502  0.00000000000E+00  0.00000000000E+00  0.13098767693E+03  0.13098767693E+03  0.00000000000E+00 0. -1.
          1   -1    0    0  505    0 -0.00000000000E+00 -0.00000000000E+00 -0.24611623689E+04  0.24611623689E+04  0.00000000000E+00 0.  1.
         21    1    1    2  503  504  0.81346711909E+02  0.64293756258E+01  0.48267175815E+02  0.94806880924E+02  0.00000000000E+00 0. -1.
         21    1    1    2  504  501 -0.11599566813E+03  0.45351490374E+01 -0.22696803338E+01  0.11610647721E+03  0.00000000000E+00 0. -1.
         21    1    1    2  505  502  0.11821794753E+02  0.53930014656E+02 -0.18184471786E+04  0.18192851186E+04  0.00000000000E+00 0.  1.
          1    1    1    2  501    0  0.22827161469E+02 -0.64894539319E+02 -0.55772500882E+03  0.56195156909E+03  0.00000000000E+00 0.  1.
<scales pt_clust_3="14000.00000" pt_clust_4="91.18575" pt_clust_5="55.21052" pt_clust_6="37.65188"></scales>
<clustering>
<clus scale="   55.211">  2  5  1 -1</clus>
<clus scale="   37.652">  2  6  1 -1</clus>
<clus scale="   91.186">  2  4  1 -1</clus>
<clus scale="   91.186">  1  3  2 -1</clus>
</clustering>
</event>
<event>
 6    0  0.2839294E+002  0.7453527E+02  0.7546771E-02  0.1345316E+00
         21   -1    0    0  501  502  0.00000000000E+00  0.00000000000E+00  0.10073486333E+03  0.10073486333E+03  0.00000000000E+00 0. -1.
          2   -1    0    0  504    0 -0.00000000000E+00 -0.00000000000E+00 -0.93071728996E+03  0.93071728996E+03  0.00000000000E+00 0.  1.
         21    1    1    2  503  502 -0.36272381022E+02 -0.34875342488E+01  0.57025326502E+02  0.67673749584E+02  0.00000000000E+00 0. -1.
         21    1    1    2  504  505  0.27971534368E+02 -0.70525100943E+02 -0.18461015034E+03  0.19959234506E+03  0.00000000000E+00 0. -1.
         21    1    1    2  505  503  0.69831524602E+02  0.72202244974E+02 -0.56273135318E+02  0.11513588392E+03  0.00000000000E+00 0. -1.
          2    1    1    2  501    0 -0.61530677948E+02  0.18103902185E+01 -0.64612446748E+03  0.64905017473E+03  0.00000000000E+00 0.  1.
<scales pt_clust_3="36.43966" pt_clust_4="74.53527" pt_clust_5="14000.00000" pt_clust_6="62.93537"></scales>
<clustering>
<clus scale="   36.440">  1  3  2 -1</clus>
<clus scale="   62.935">  2  6  1 -1</clus>
<clus scale="   74.535">  2  4  1 -1</clus>
<clus scale="   36.440">  1  3  2 -1</clus>
</clustering>
</event>
<event>
 6    0  0.2839294E+002  0.1136124E+03  0.7546771E-02  0.1254023E+00
          4   -1    0    0  502    0 -0.00000000000E+00  0.00000000000E+00  0.72869249093E+03  0.72869249093E+03  0.00000000000E+00 0. -1.
         21   -1    0    0  504  502  0.00000000000E+00 -0.00000000000E+00 -0.22358879295E+03  0.22358879295E+03  0.00000000000E+00 0.  1.
         21    1    1    2  503  501  0.73432471100E+02 -0.74464547183E+02  0.16757933445E+03  0.19753513595E+03  0.00000000000E+00 0.  1.
         21    1    1    2  504  505 -0.30853651932E+01  0.72711898783E+02 -0.13141806782E+03  0.15022399359E+03  0.00000000000E+00 0.  1.
         21    1    1    2  505  503  0.28906278852E+02  0.32606785902E+02 -0.55113338565E+02  0.70258490816E+02  0.00000000000E+00 0.  1.
          4    1    1    2  501    0 -0.99253384759E+02 -0.30854137503E+02  0.52405576991E+03  0.53426366353E+03  0.00000000000E+00 0. -1.
<scales pt_clust_3="104.15351" pt_clust_4="35.11838" pt_clust_5="35.11838" pt_clust_6="103.93850"></scales>
<clustering>
<clus scale="   35.118">  4  5 -1 -1</clus>
<clus scale="  103.939">  1  6  2 -1</clus>
<clus scale="  104.154">  1  3  2 -1</clus>
<clus scale="  113.612">  2  3  1 -1</clus>
</clustering>
</event>
<event>
 6    0  0.2839294E+002  0.1239700E+03  0.7546771E-02  0.1236688E+00
         21   -1    0    0  504  502  0.00000000000E+00  0.00000000000E+00  0.17074711884E+03  0.17074711884E+03  0.00000000000E+00 0.  1.
          2   -1    0    0  505    0 -0.00000000000E+00 -0.00000000000E+00 -0.21604694283E+04  0.21604694283E+04  0.00000000000E+00 0.  1.
         21    1    1    2  503  501 -0.68077728717E+02 -0.77884579452E+02  0.45952436972E+02  0.11319103908E+03  0.00000000000E+00 0.  1.
         21    1    1    2  504  503 -0.38093164167E+02  0.34582669149E+02  0.75951470237E+02  0.91736993590E+02  0.00000000000E+00 0.  1.
         21    1    1    2  505  502  0.10621441548E+02 -0.36492541773E+02 -0.60895405840E+02  0.71782804891E+02  0.00000000000E+00 0.  1.
          2    1    1    2  501    0  0.95549451336E+02  0.79794452077E+02 -0.20507308108E+04  0.20545057096E+04  0.00000000000E+00 0.  1.
<scales pt_clust_3="14000.00000" pt_clust_4="36.44196" pt_clust_5="38.00685" pt_clust_6="123.96998"></scales>
<clustering>
<clus scale="   38.007">  1  5  2 -1</clus>
<clus scale="   36.442">  1  4  2 -1</clus>
<clus scale="  123.970">  2  6  1 -1</clus>
<clus scale="   38.007">  1  3  2 -1</clus>
</clustering>
</event>
<event>
 6    0  0.2839294E+002  0.1077565E+03  0.7546771E-02  0.1264782E+00
         21   -1    0    0  505  502  0.00000000000E+00  0.00000000000E+00  0.16080233661E+03  0.16080233661E+03  0.00000000000E+00 0.  1.
          2   -1    0    0  503    0 -0.00000000000E+00 -0.00000000000E+00 -0.58182405153E+03  0.58182405153E+03  0.00000000000E+00 0.  1.
         21    1    1    2  503  504  0.33918998785E+02 -0.62265606988E+02  0.10598300466E+03  0.12751431908E+03  0.00000000000E+00 0.  1.
         21    1    1    2  504  502 -0.13343944792E+02 -0.37260353488E+02 -0.20016854908E+02  0.44351654817E+02  0.00000000000E+00 0.  1.
         21    1    1    2  505  501  0.58772323345E+02  0.23591550682E+02 -0.12922654582E+02  0.64635456650E+02  0.00000000000E+00 0. -1.
          2    1    1    2  501    0 -0.79347377338E+02  0.75934409793E+02 -0.49406521009E+03  0.50612495760E+03  0.00000000000E+00 0.  1.
<scales pt_clust_3="14000.00000" pt_clust_4="39.57771" pt_clust_5="58.98697" pt_clust_6="107.75649"></scales>
<clustering>
<clus scale="   39.578">  1  4  2 -1</clus>
<clus scale="   58.987">  1  5  2 -1</clus>
<clus scale="  107.756">  2  6  1 -1</clus>
<clus scale="   39.578">  1  3  2 -1</clus>
</clustering>
</event>
<event>
 6    0  0.2839294E+002  0.9630341E+02  0.7546771E-02  0.1288267E+00
          1   -1    0    0  503    0 -0.00000000000E+00  0.00000000000E+00  0.31540436152E+03  0.31540436152E+03  0.00000000000E+00 0.  1.
         21   -1    0    0  504  502  0.00000000000E+00 -0.00000000000E+00 -0.12852577294E+04  0.12852577294E+04  0.00000000000E+00 0. -1.
         21    1    1    2  503  502 -0.53549359072E+02 -0.82914665097E+02  0.18873533626E+03  0.21298686039E+03  0.00000000000E+00 0.  1.
         21    1    1    2  504  505 -0.19917504432E+02  0.25192380989E+02 -0.11321531956E+04  0.11326085914E+04  0.00000000000E+00 0. -1.
         21    1    1    2  505  501 -0.45044086894E+02  0.41177882836E+02 -0.98139135860E+02  0.11556763295E+03  0.00000000000E+00 0.  1.
          1    1    1    2  501    0  0.11851095040E+03  0.16544401272E+02  0.71703627250E+02  0.13949900623E+03  0.00000000000E+00 0.  1.
<scales pt_clust_3="14000.00000" pt_clust_4="32.11484" pt_clust_5="83.26302" pt_clust_6="96.30341"></scales>
<clustering>
<clus scale="   32.115">  2  4  1 -1</clus>
<clus scale="   83.263">  2  5  1 -1</clus>
<clus scale="   96.303">  2  6  1 -1</clus>
<clus scale="   32.115">  2  3  1 -1</clus>
</clustering>
</event>
<event>
 6    0  0.2839294E+002  0.1089656E+03  0.7546771E-02  0.1262498E+00
         21   -1    0    0  505  502  0.00000000000E+00  0.00000000000E+00  0.60227431104E+03  0.60227431104E+03  0.00000000000E+00 0. -1.
          2   -1    0    0  504    0 -0.00000000000E+00 -0.00000000000E+00 -0.86543692355E+03  0.86543692355E+03  0.00000000000E+00 0. -1.
         21    1    1    2  503  502 -0.52018821582E+02  0.12193353008E+02  0.54474890591E+03  0.54736277380E+03  0.00000000000E+00 0. -1.
         21    1    1    2  504  503  0.69241346400E+02 -0.57929901571E+00 -0.47497880193E+03  0.47999954367E+03  0.00000000000E+00 0. -1.
         21    1    1    2  505  501  0.11417842668E+03  0.46893466441E+02 -0.73360268433E+02  0.14358774077E+03  0.00000000000E+00 0. -1.
          2    1    1    2  501    0 -0.13140095150E+03 -0.58507520433E+02 -0.25957244805E+03  0.29676117635E+03  0.00000000000E+00 0. -1.
<scales pt_clust_3="53.42879" pt_clust_4="66.91852" pt_clust_5="14000.00000" pt_clust_6="108.96555"></scales>
<clustering>
<clus scale="   53.429">  1  3  2 -1</clus>
<clus scale="   66.919">  2  4  1 -1</clus>
<clus scale="  108.966">  2  6  1 -1</clus>
<clus scale="   53.429">  1  3  2 -1</clus>
</clustering>
</event>
<event>
 6    0  0.2839294E+002  0.7894215E+02  0.7546771E-02  0.1332081E+00
         21   -1    0    0  505  502  0.00000000000E+00  0.00000000000E+00  0.89122788136E+03  0.89122788136E+03  0.00000000000E+00 0.  1.
          4   -1    0    0  503    0 -0.00000000000E+00 -0.00000000000E+00 -0.36929106540E+02  0.36929106540E+02  0.00000000000E+00 0. -1.
         21    1    1    2  503  502 -0.26025515657E+01  0.60786868069E+02  0.48313741509E+02  0.77691918646E+02  0.00000000000E+00 0.  1.
         21    1    1    2  504  501 -0.66133525646E+02 -0.37596721495E+02  0.28453806020E+03  0.29453194119E+03  0.00000000000E+00 0.  1.
         21    1    1    2  505  504  0.83165571505E+02  0.85704002744E+01  0.51335977614E+03  0.52012327751E+03  0.00000000000E+00 0.  1.
          4    1    1    2  501    0 -0.14429494293E+02 -0.31760546848E+02  0.80871969662E+01  0.35809850550E+02  0.00000000000E+00 0. -1.
<scales pt_clust_3="42.24139" pt_clust_4="78.94215" pt_clust_5="14000.00000" pt_clust_6="34.88470"></scales>
<clustering>
<clus scale="   34.885">  2  6  1 -1</clus>
<clus scale="   42.241">  2  3  1 -1</clus>
<clus scale="   78.942">  2  4  1 -1</clus>
<clus scale="   78.942">  1  3  2 -1</clus>
</clustering>
</event>
<event>
 6    0  0.2839294E+002  0.2269363E+03  0.7546771E-02  0.1128815E+00
         21   -1    0    0  503  502  0.00000000000E+00  0.00000000000E+00  0.38758726561E+03  0.38758726561E+03  0.00000000000E+00 0.  1.
          2   -1    0    0  504    0 -0.00000000000E+00 -0.00000000000E+00 -0.94936581978E+03  0.94936581978E+03  0.00000000000E+00 0.  1.
         21    1    1    2  503  501 -0.23550974903E+03  0.11016585790E+03 -0.51944675671E+03  0.58088406003E+03  0.00000000000E+00 0.  1.
         21    1    1    2  504  505  0.33639330277E+02 -0.16180946484E+02 -0.64846910188E+02  0.74823454421E+02  0.00000000000E+00 0.  1.
         21    1    1    2  505  502  0.18323970536E+03 -0.13061474199E+03  0.31431671320E+03  0.38656434994E+03  0.00000000000E+00 0.  1.
          2    1    1    2  501    0  0.18630713400E+02  0.36629830576E+02 -0.29180160048E+03  0.29468122100E+03  0.00000000000E+00 0.  1.
<scales pt_clust_3="14000.00000" pt_clust_4="37.32864" pt_clust_5="226.93634" pt_clust_6="43.20215"></scales>
<clustering>
<clus scale="   37.329">  2  4  1 -1</clus>
<clus scale="   43.202">  2  6  1 -1</clus>
<clus scale="  226.936">  1  5  2 -1</clus>
<clus scale="  226.936">  1  3  2 -1</clus>
</clustering>
</event>
<event>
 6    0  0.2839294E+002  0.1277665E+03  0.7546771E-02  0.1230808E+00
          2   -1    0    0  503    0 -0.00000000000E+00  0.00000000000E+00  0.14777580275E+04  0.14777580275E+04  0.00000000000E+00 0.  1.
         21   -1    0    0  504  502  0.00000000000E+00 -0.00000000000E+00 -0.19301021619E+03  0.19301021619E+03  0.00000000000E+00 0.  1.
         21    1    1    2  503  505  0.27270199816E+02 -0.35996605288E+02  0.14961450612E+03  0.15628154028E+03  0.00000000000E+00 0. -1.
         21    1    1    2  504  501 -0.43424757998E+02 -0.10297396669E+02  0.37181573783E+02  0.58087997162E+02  0.00000000000E+00 0. -1.
         21    1    1    2  505  502  0.16660410858E+03  0.29740300493E+02 -0.13357807922E+03  0.21560268486E+03  0.00000000000E+00 0.  1.
          2    1    1    2  501    0 -0.15044955040E+03  0.16553701463E+02  0.12315298106E+04  0.12407960214E+04  0.00000000000E+00 0.  1.
<scales pt_clust_3="44.83718" pt_clust_4="44.62898" pt_clust_5="127.76653" pt_clust_6="14000.00000"></scales>
<clustering>
<clus scale="   44.629">  2  4  1 -1</clus>
<clus scale="   44.837">  1  3  2 -1</clus>
<clus scale="  127.767">  2  5  1 -1</clus>
<clus scale="   44.629">  2  3  1 -1</clus>
</clustering>
</event>
<event>
 6    0  0.2839294E+002  0.1116998E+03  0.7546771E-02  0.1257454E+00
         21   -1    0    0  504  502  0.00000000000E+00  0.00000000000E+00  0.66318941456E+02  0.66318941456E+02  0.00000000000E+00 0.  1.
          1   -1    0    0  505    0 -0.00000000000E+00 -0.00000000000E+00 -0.15409322669E+04  0.15409322669E+04  0.00000000000E+00 0.  1.
         21    1    1    2  503  501  0.39483111253E+02  0.99417346989E+01 -0.53099046330E+03  0.53254917733E+03  0.00000000000E+00 0.  1.
         21    1    1    2  504  503 -0.63839958953E+01 -0.10812401427E+03  0.83156285414E+01  0.10863106159E+03  0.00000000000E+00 0.  1.
         21    1    1    2  505  502 -0.51473951951E+02  0.62886692578E+02 -0.24731576708E+03  0.26032555095E+03  0.00000000000E+00 0.  1.
          1    1    1    2  501    0  0.18374836593E+02  0.35295586989E+02 -0.70462272360E+03  0.70574541847E+03  0.00000000000E+00 0.  1.
<scales pt_clust_3="34.80643" pt_clust_4="106.00590" pt_clust_5="81.26687" pt_clust_6="34.80643"></scales>
<clustering>
<clus scale="   34.806">  3  6 -1 -1</clus>
<clus scale="   81.267">  2  5  1 -1</clus>
<clus scale="  106.006">  1  4  2 -1</clus>
<clus scale="  106.006">  1  3  2 -1</clus>
</clustering>
</event>
<event>
 6    0  0.2839294E+002  0.6067805E+02  0.7546771E-02  0.1395008E+00
         21   -1    0    0  503  502  0.00000000000E+00  0.00000000000E+00  0.23417533666E+02  0.23417533666E+02  0.00000000000E+00 0. -1.
          2   -1    0    0  505    0 -0.00000000000E+00 -0.00000000000E+00 -0.20230215539E+04  0.20230215539E+04  0.00000000000E+00 0.  1.
         21    1    1    2  503  501 -0.78652060142E+02  0.54751452068E+02 -0.10901318072E+03  0.14514731013E+03  0.00000000000E+00 0. -1.
         21    1    1    2  504  502  0.33676774453E+02 -0.18938507316E+02 -0.16070443443E+03  0.16528371802E+03  0.00000000000E+00 0.  1.
         21    1    1    2  505  504 -0.17273776480E+02 -0.50801380476E+02 -0.30501164833E+03  0.30969544593E+03  0.00000000000E+00 0. -1.
          2    1    1    2  501    0  0.62249062168E+02  0.14988435724E+02 -0.14248747568E+04  0.14263126135E+04  0.00000000000E+00 0.  1.
<scales pt_clust_3="14000.00000" pt_clust_4="38.63667" pt_clust_5="54.60613" pt_clust_6="60.67805"></scales>
<clustering>
<clus scale="   38.637">  1  4  2 -1</clus>
<clus scale="   54.606">  2  5  1 -1</clus>
<clus scale="   60.678">  2  6  1 -1</clus>
<clus scale="   38.637">  1  3  2 -1</clus>
</clustering>
</event>
<event>
 6    0  0.2839294E+002  0.2589480E+03  0.7546771E-02  0.1107777E+00
         21   -1    0    0  503  502  0.00000000000E+00  0.00000000000E+00  0.89445862775E+03  0.89445862775E+03  0.00000000000E+00 0.  1.
          2   -1    0    0  505    0 -0.00000000000E+00 -0.00000000000E+00 -0.48283843667E+03  0.48283843667E+03  0.00000000000E+00 0.  1.
         21    1    1    2  503  504 -0.10382811719E+02  0.42424940298E+02  0.34770453252E+02  0.55827079073E+02  0.00000000000E+00 0.  1.
         21    1    1    2  504  501 -0.40771060761E+02  0.14187564205E+03 -0.16225321919E+03  0.21935606748E+03  0.00000000000E+00 0.  1.
         21    1    1    2  505  502  0.83748334229E+02 -0.27125018100E+03  0.78740495987E+03  0.83701673520E+03  0.00000000000E+00 0.  1.
          2    1    1    2  501    0 -0.32594461750E+02  0.86949598647E+02 -0.24830200286E+03  0.26509718268E+03  0.00000000000E+00 0.  1.
<scales pt_clust_3="43.67698" pt_clust_4="72.48138" pt_clust_5="242.19459" pt_clust_6="72.48138"></scales>
<clustering>
<clus scale="   43.677">  1  3  2 -1</clus>
<clus scale="   72.481">  4  6 -1 -1</clus>
<clus scale="  242.195">  1  5  2 -1</clus>
<clus scale="   43.677">  1  3  2 -1</clus>
</clustering>
</event>
<event>
 6    0  0.2839294E+002  0.8185933E+02  0.7546771E-02  0.1323856E+00
          1   -1    0    0  504    0 -0.00000000000E+00  0.00000000000E+00  0.28852520724E+04  0.28852520724E+04  0.00000000000E+00 0.  1.
         21   -1    0    0  501  502  0.00000000000E+00 -0.00000000000E+00 -0.81916243170E+02  0.81916243170E+02  0.00000000000E+00 0.  1.
         21    1    1    2  503  505  0.64536115641E+02  0.24537788366E+02 -0.17615839990E+02  0.71255393469E+02  0.00000000000E+00 0.  1.
         21    1    1    2  504  503 -0.52842680797E+02  0.78343805794E+02  0.97799623858E+03  0.98255114039E+03  0.00000000000E+00 0.  1.
         21    1    1    2  505  502 -0.35013131128E+02 -0.28136636257E+02 -0.19709767795E+02  0.49051652345E+02  0.00000000000E+00 0.  1.
          1    1    1    2  501    0  0.23319696284E+02 -0.74744957902E+02  0.18626651985E+04  0.18643101294E+04  0.00000000000E+00 0.  1.
<scales pt_clust_3="31.85516" pt_clust_4="14000.00000" pt_clust_5="44.91759" pt_clust_6="81.85933"></scales>
<clustering>
<clus scale="   44.918">  2  5  1 -1</clus>
<clus scale="   31.855">  2  3  1 -1</clus>
<clus scale="   81.859">  1  6  2 -1</clus>
<clus scale="   44.918">  2  3  1 -1</clus>
</clustering>
</event>
<event>
 6    0  0.2839294E+002  0.7392654E+02  0.7546771E-02  0.1347228E+00
          2   -1    0    0  504    0 -0.00000000000E+00  0.00000000000E+00  0.58089023516E+03  0.58089023516E+03  0.00000000000E+00 0. -1.
         21   -1    0    0  501  502  0.00000000000E+00 -0.00000000000E+00 -0.25490940322E+03  0.25490940322E+03  0.00000000000E+00 0. -1.
         21    1    1    2  503  502 -0.57282709523E+02 -0.50166526539E+02 -0.22517263039E+03  0.23769876455E+03  0.00000000000E+00 0. -1.
         21    1    1    2  504  505 -0.85378579618E+01 -0.53165190368E+02  0.17994352409E+03  0.18782732588E+03  0.00000000000E+00 0. -1.
         21    1    1    2  505  503  0.25975241293E+02  0.53326901337E+02  0.36797344545E+02  0.69803410604E+02  0.00000000000E+00 0.  1.
          2    1    1    2  501    0  0.39845326192E+02  0.50004815569E+02  0.33441259369E+03  0.34047013734E+03  0.00000000000E+00 0. -1.
<scales pt_clust_3="14000.00000" pt_clust_4="53.84638" pt_clust_5="73.92654" pt_clust_6="32.94237"></scales>
<clustering>
<clus scale="   53.846">  1  4  2 -1</clus>
<clus scale="   32.942">  1  6  2 -1</clus>
<clus scale="   73.927">  1  5  2 -1</clus>
<clus scale="   73.927">  2  3  1 -1</clus>
</clustering>
</event>
<event>
 6    0  0.2839294E+002  0.2088941E+03  0.7546771E-02  0.1142445E+00
         21   -1    0    0  501  502  0.00000000000E+00  0.00000000000E+00  0.11660038837E+03  0.11660038837E+03  0.00000000000E+00 0. -1.
          1   -1    0    0  505    0 -0.00000000000E+00 -0.00000000000E+00 -0.11762445229E+04  0.11762445229E+04  0.00000000000E+00 0. -1.
         21    1    1    2  503  502 -0.33643381754E+02  0.39474192746E+02  0.53614184921E+02  0.74596044490E+02  0.00000000000E+00 0. -1.
         21    1    1    2  504  503  0.69173381105E+02  0.11147472570E+03 -0.15930013347E+03  0.20636885338E+03  0.00000000000E+00 0. -1.
         21    1    1    2  505  504  0.53154878128E+02  0.34274937766E+02 -0.39325456178E+02  0.74476197079E+02  0.00000000000E+00 0. -1.
          1    1    1    2  501    0 -0.88684877479E+02 -0.18522385621E+03 -0.91463272976E+03  0.93740381627E+03  0.00000000000E+00 0. -1.
<scales pt_clust_3="51.86607" pt_clust_4="39.36702" pt_clust_5="39.36702" pt_clust_6="201.05247"></scales>
<clustering>
<clus scale="   39.367">  4  5 -1 -1</clus>
<clus scale="   51.866">  1  3  2 -1</clus>
<clus scale="  201.052">  2  6  1 -1</clus>
<clus scale="   51.866">  1  3  2 -1</clus>
</clustering>
</event>
<event>
 6    0  0.2839294E+002  0.1294415E+03  0.7546771E-02  0.1228287E+00
         21   -1    0    0  505  502  0.00000000000E+00  0.00000000000E+00  0.81286409882E+02  0.81286409882E+02  0.00000000000E+00 0. -1.
          2   -1    0    0  502    0 -0.00000000000E+00 -0.00000000000E+00 -0.32042964037E+04  0.32042964037E+04  0.00000000000E+00 0.  1.
         21    1    1    2  503  501 -0.58248984622E+02 -0.47243869760E+02 -0.14312130810E+04  0.14331768246E+04  0.00000000000E+00 0.  1.
         21    1    1    2  504  503  0.45075252095E+02  0.13567311989E+03 -0.92170896014E+03  0.93273060474E+03  0.00000000000E+00 0.  1.
         21    1    1    2  505  504  0.12337478785E+02 -0.40275219039E+02  0.68116486938E+02  0.80088466362E+02  0.00000000000E+00 0. -1.
          2    1    1    2  501    0  0.83625374178E+00 -0.48154031093E+02 -0.83820443959E+03  0.83958691782E+03  0.00000000000E+00 0.  1.
<scales pt_clust_3="43.43381" pt_clust_4="118.12257" pt_clust_5="42.12252" pt_clust_6="43.43381"></scales>
<clustering>
<clus scale="   42.123">  1  5  2 -1</clus>
<clus scale="   43.434">  3  6 -1 -1</clus>
<clus scale="  118.123">  1  4  2 -1</clus>
<clus scale="   42.123">  1  3  2 -1</clus>
</clustering>
</event>
<event>
 6    0  0.2839294E+002  0.1027445E+03  0.7546771E-02  0.1274628E+00
         -1   -1    0    0    0  501 -0.00000000000E+00  0.00000000000E+00  0.52355550555E+02  0.52355550555E+02  0.00000000000E+00 0.  1.
         21   -1    0    0  503  502  0.00000000000E+00 -0.00000000000E+00 -0.39774284380E+03  0.39774284380E+03  0.00000000000E+00 0.  1.
         21    1    1    2  503  504  0.36257563547E+02  0.10599054442E+03 -0.22272998335E+03  0.24931356142E+03  0.00000000000E+00 0.  1.
         21    1    1    2  504  505 -0.51025576884E+02 -0.20507144799E+02 -0.56776946409E+02  0.79042862598E+02  0.00000000000E+00 0.  1.
         21    1    1    2  505  501 -0.84575399540E+01 -0.32172296327E+02 -0.52370846903E+02  0.62042664662E+02  0.00000000000E+00 0.  1.
         -1    1    1    2    0  502  0.23225553291E+02 -0.53311103297E+02 -0.13509516581E+02  0.59699305680E+02  0.00000000000E+00 0.  1.
<scales pt_clust_3="94.22272" pt_clust_4="31.86462" pt_clust_5="31.86462" pt_clust_6="58.15067"></scales>
<clustering>
<clus scale="   31.865">  4  5 -1 -1</clus>
<clus scale="   58.151">  1  6  2 -1</clus>
<clus scale="   94.223">  2  3  1 -1</clus>
<clus scale="   94.223">  2  3  1 -1</clus>
</clustering>
</event>
<event>
 6    0  0.2839294E+002  0.7935718E+02  0.7546771E-02  0.1330886E+00
          2   -1    0    0  505    0 -0.00000000000E+00  0.00000000000E+00  0.20522454511E+04  0.20522454511E+04  0.00000000000E+00 0.  1.
         21   -1    0    0  504  502  0.00000000000E+00 -0.00000000000E+00 -0.75920240549E+02  0.75920240549E+02  0.00000000000E+00 0.  1.
         21    1    1    2  503  502 -0.69625429463E+01  0.31524880586E+02  0.76068450856E+01  0.33168647733E+02  0.00000000000E+00 0.  1.
         21    1    1    2  504  501  0.29959581984E+02 -0.50979881368E+02 -0.44595224519E+02  0.74062533759E+02  0.00000000000E+00 0.  1.
         21    1    1    2  505  503 -0.73778679270E+02 -0.40870581107E+02  0.66664680941E+03  0.67196106019E+03  0.00000000000E+00 0.  1.
          2    1    1    2  501    0  0.50781640232E+02  0.60325581888E+02  0.13466667806E+04  0.13489734500E+04  0.00000000000E+00 0.  1.
<scales pt_clust_3="32.28460" pt_clust_4="31.69402" pt_clust_5="79.35718" pt_clust_6="14000.00000"></scales>
<clustering>
<clus scale="   32.285">  2  3  1 -1</clus>
<clus scale="   31.694">  2  4  1 -1</clus>
<clus scale="   79.357">  2  5  1 -1</clus>
<clus scale="   32.285">  2  3  1 -1</clus>
</clustering>
</event>
<event>
 6    0  0.2839294E+002  0.1137534E+03  0.7546771E-02  0.1253773E+00
          2   -1    0    0  503    0 -0.00000000000E+00  0.00000000000E+00  0.32497939126E+04  0.32497939126E+04  0.00000000000E+00 0.  1.
         21   -1    0    0  501  502  0.00000000000E+00 -0.00000000000E+00 -0.28843765893E+02  0.28843765893E+02  0.00000000000E+00 0. -1.
         21    1    1    2  503  505  0.44275675797E+02  0.50782021469E+02  0.10509924724E+04  0.10531497169E+04  0.00000000000E+00 0.  1.
         21    1    1    2  504  502 -0.27573918170E+02  0.24179416994E+02  0.43773595189E+02  0.57105978716E+02  0.00000000000E+00 0. -1.
         21    1    1    2  505  504  0.43133916960E+02 -0.13882473276E+03  0.24298906605E+03  0.28315459989E+03  0.00000000000E+00 0. -1.
          2    1    1    2  501    0 -0.59835674588E+02  0.63863294297E+02  0.18831950131E+04  0.18852273830E+04  0.00000000000E+00 0.  1.
<scales pt_clust_3="67.40188" pt_clust_4="36.67377" pt_clust_5="14000.00000" pt_clust_6="113.75343"></scales>
<clustering>
<clus scale="   36.674">  2  4  1 -1</clus>
<clus scale="   67.402">  1  3  2 -1</clus>
<clus scale="  113.753">  1  6  2 -1</clus>
<clus scale="   36.674">  2  3  1 -1</clus>
</clustering>
</event>
<event>
 6    0  0.2839294E+002  0.5592352E+02  0.7546771E-02  0.1415781E+00
         21   -1    0    0  505  502  0.00000000000E+00  0.00000000000E+00  0.47817113426E+03  0.47817113426E+03  0.00000000000E+00 0.  1.
          1   -1    0    0  504    0 -0.00000000000E+00 -0.00000000000E+00 -0.45932359413E+03  0.45932359413E+03  0.00000000000E+00 0. -1.
         21    1    1    2  503  502  0.43831002345E+02 -0.14931182507E+02  0.93815045839E+02  0.10462007362E+03  0.00000000000E+00 0. -1.
         21    1    1    2  504  503  0.36110778044E+02 -0.38515058980E+02 -0.19976427154E+02  0.56448699729E+02  0.00000000000E+00 0. -1.
         21    1    1    2  505  501 -0.28800295119E+02 -0.39663980671E+02  0.35220575210E+03  0.35560030958E+03  0.00000000000E+00 0.  1.
          1    1    1    2  501    0 -0.51141485271E+02  0.93110222158E+02 -0.40719683066E+03  0.42082564547E+03  0.00000000000E+00 0. -1.
<scales pt_clust_3="46.30439" pt_clust_4="54.77266" pt_clust_5="55.92352" pt_clust_6="14000.00000"></scales>
<clustering>
<clus scale="   46.304">  1  3  2 -1</clus>
<clus scale="   54.773">  2  4  1 -1</clus>
<clus scale="   55.924">  1  5  2 -1</clus>
<clus scale="   46.304">  1  3  2 -1</clus>
</clustering>
</event>
<event>
 6    0  0.2839294E+002  0.1376103E+03  0.7546771E-02  0.1216581E+00
         21   -1    0    0  501  502  0.00000000000E+00  0.00000000000E+00  0.14447793244E+03  0.14447793244E+03  0.00000000000E+00 0.  1.
          2   -1    0    0  505    0 -0.00000000000E+00 -0.00000000000E+00 -0.14769797929E+04  0.14769797929E+04  0.00000000000E+00 0. -1.
         21    1    1    2  503  504  0.66710255459E+02 -0.55687849108E+02  0.51860937387E+02  0.10119758667E+03  0.00000000000E+00 0.  1.
         21    1    1    2  504  502  0.48298014872E+02  0.12944818586E+02  0.54960611163E+02  0.74302996900E+02  0.00000000000E+00 0.  1.
         21    1    1    2  505  503 -0.62362306537E+02  0.14060372726E+02 -0.10599258438E+04  0.10618519415E+04  0.00000000000E+00 0.  1.
          2    1    1    2  501    0 -0.52645963794E+02  0.28682657796E+02 -0.37939756515E+03  0.38410520018E+03  0.00000000000E+00 0. -1.
<scales pt_clust_3="49.94839" pt_clust_4="49.94839" pt_clust_5="120.83397" pt_clust_6="59.95242"></scales>
<clustering>
<clus scale="   49.948">  3  4 -1 -1</clus>
<clus scale="   59.952">  2  6  1 -1</clus>
<clus scale="  120.834">  2  5  1 -1</clus>
<clus scale="  137.610">  1  3  2 -1</clus>
</clustering>
</event>
<event>
 6    0  0.2839294E+002  0.1287104E+03  0.7546771E-02  0.1229382E+00
         21   -1    0    0  501  502  0.00000000000E+00  0.00000000000E+00  0.36374302144E+02  0.36374302144E+02  0.00000000000E+00 0. -1.
          2   -1    0    0  504    0 -0.00000000000E+00 -0.00000000000E+00 -0.38811258643E+04  0.38811258643E+04  0.00000000000E+00 0.  1.
         21    1    1    2  503  505 -0.10633356227E+03 -0.90664888609E+02 -0.17757100373E+03  0.22596108040E+03  0.00000000000E+00 0. -1.
         21    1    1    2  504  503  0.10368314952E+02  0.45636519364E+02 -0.41257786622E+03  0.41522366208E+03  0.00000000000E+00 0.  1.
         21    1    1    2  505  502 -0.90726803539E+01  0.30714659213E+02 -0.15681150176E+02  0.35659532950E+02  0.00000000000E+00 0. -1.
          2    1    1    2  501    0  0.10503792767E+03  0.14313710033E+02 -0.32389215420E+04  0.32406558910E+04  0.00000000000E+00 0.  1.
<scales pt_clust_3="14000.00000" pt_clust_4="48.20682" pt_clust_5="32.02661" pt_clust_6="128.71038"></scales>
<clustering>
<clus scale="   32.027">  1  5  2 -1</clus>
<clus scale="   48.207">  2  4  1 -1</clus>
<clus scale="  128.710">  2  6  1 -1</clus>
<clus scale="   32.027">  1  3  2 -1</clus>
</clustering>
</event>
<event>
 6    0  0.2839294E+002  0.1741316E+03  0.7546771E-02  0.1173606E+00
         21   -1    0    0  504  502  0.00000000000E+00  0.00000000000E+00  0.15202884577E+04  0.15202884577E+04  0.00000000000E+00 0.  1.
          2   -1    0    0  503    0 -0.00000000000E+00 -0.00000000000E+00 -0.34197859955E+03  0.34197859955E+03  0.00000000000E+00 0.  1.
         21    1    1    2  503  502 -0.25661211712E+02 -0.29232893972E+02  0.35075950317E+02  0.52377305841E+02  0.00000000000E+00 0.  1.
         21    1    1    2  504  505  0.83295422584E+02 -0.12964692333E+03  0.14493785885E+04  0.14575475103E+04  0.00000000000E+00 0.  1.
         21    1    1    2  505  501 -0.34377543363E+02  0.61432312565E+02 -0.91311836376E+02  0.11529785764E+03  0.00000000000E+00 0.  1.
          2    1    1    2  501    0 -0.23256667509E+02  0.97447504740E+02 -0.21483284424E+03  0.23704438345E+03  0.00000000000E+00 0.  1.
<scales pt_clust_3="38.89807" pt_clust_4="168.71819" pt_clust_5="36.11315" pt_clust_6="36.11315"></scales>
<clustering>
<clus scale="   36.113">  5  6 -1 -1</clus>
<clus scale="   38.898">  1  3  2 -1</clus>
<clus scale="  168.718">  1  4  2 -1</clus>
<clus scale="   38.898">  1  3  2 -1</clus>
</clustering>
</event>
<event>
 6    0  0.2839294E+002  0.9990727E+02  0.7546771E-02  0.1280491E+00
          2   -1    0    0  505    0 -0.00000000000E+00  0.00000000000E+00  0.12938621964E+04  0.12938621964E+04  0.00000000000E+00 0.  1.
         21   -1    0    0  504  502  0.00000000000E+00 -0.00000000000E+00 -0.87530624150E+02  0.87530624150E+02  0.00000000000E+00 0.  1.
         21    1    1    2  503  502  0.63399493194E+01  0.31884759422E+02  0.26141616373E+02  0.41715907605E+02  0.00000000000E+00 0.  1.
         21    1    1    2  504  501  0.19655096379E+02  0.57393586802E+02 -0.56520886259E+02  0.82915361683E+02  0.00000000000E+00 0.  1.
         21    1    1    2  505  503  0.87967545849E+02 -0.52748391826E+02  0.64016358803E+03  0.64832869858E+03  0.00000000000E+00 0.  1.
          2    1    1    2  501    0 -0.11396259155E+03 -0.36529954397E+02  0.59654725408E+03  0.60843285266E+03  0.00000000000E+00 0.  1.
<scales pt_clust_3="32.50897" pt_clust_4="88.91499" pt_clust_5="14000.00000" pt_clust_6="99.90727"></scales>
<clustering>
<clus scale="   32.509">  2  3  1 -1</clus>
<clus scale="   88.915">  2  4  1 -1</clus>
<clus scale="   99.907">  2  6  1 -1</clus>
<clus scale="   32.509">  2  3  1 -1</clus>
</clustering>
</event>
<event>
 6    0  0.2839294E+002  0.1451875E+03  0.7546771E-02  0.1206514E+00
         21   -1    0    0  505  502  0.00000000000E+00  0.00000000000E+00  0.74736904147E+03  0.74736904147E+03  0.00000000000E+00 0.  1.
         -1   -1    0    0    0  501 -0.00000000000E+00 -0.00000000000E+00 -0.17087852064E+03  0.17087852064E+03  0.00000000000E+00 0. -1.
         21    1    1    2  503  504  0.95493617279E+02  0.52187293105E+01 -0.22137485998E+02  0.98164832618E+02  0.00000000000E+00 0. -1.
         21    1    1    2  504  502 -0.34091966199E+02  0.37406227014E+02  0.62409865044E+03  0.62614743748E+03  0.00000000000E+00 0.  1.
         21    1    1    2  505  501 -0.10697422617E+03 -0.78317489571E+02 -0.54711633699E+01  0.13269155160E+03  0.00000000000E+00 0. -1.
         -1    1    1    2    0  503  0.45572575093E+02  0.35692533246E+02 -0.19999480238E+02  0.61243740414E+02  0.00000000000E+00 0. -1.
<scales pt_clust_3="35.32959" pt_clust_4="50.61114" pt_clust_5="137.90306" pt_clust_6="35.32959"></scales>
<clustering>
<clus scale="   35.330">  3  6 -1 -1</clus>
<clus scale="   50.611">  1  4  2 -1</clus>
<clus scale="  137.903">  1  5  2 -1</clus>
<clus scale="   50.611">  1  3  2 -1</clus>
</clustering>
</event>
<event>
 6    0  0.2839294E+002  0.1175197E+03  0.7546771E-02  0.1247246E+00
          1   -1    0    0  503    0 -0.00000000000E+00  0.00000000000E+00  0.53791871199E+03  0.53791871199E+03  0.00000000000E+00 0.  1.
         21   -1    0    0  504  502  0.00000000000E+00 -0.00000000000E+00 -0.42795151282E+03  0.42795151282E+03  0.00000000000E+00 0. -1.
         21    1    1    2  503  505 -0.28487081418E+01  0.38666024584E+02  0.46459413173E+02  0.60511599447E+02  0.00000000000E+00 0.  1.
         21    1    1    2  504  501  0.44856936295E+01 -0.36650159446E+02 -0.10587372505E+02  0.38411561948E+02  0.00000000000E+00 0. -1.
         21    1    1    2  505  502 -0.11154341360E+03 -0.14241157727E+02 -0.38170502121E+03  0.39792394614E+03  0.00000000000E+00 0. -1.
          1    1    1    2  501    0  0.10990642811E+03  0.12225292588E+02  0.45580017971E+03  0.46902311728E+03  0.00000000000E+00 0.  1.
<scales pt_clust_3="38.12856" pt_clust_4="36.92365" pt_clust_5="117.51972" pt_clust_6="14000.00000"></scales>
<clustering>
<clus scale="   36.924">  2  4  1 -1</clus>
<clus scale="   38.129">  1  3  2 -1</clus>
<clus scale="  117.520">  2  5  1 -1</clus>
<clus scale="   36.924">  2  3  1 -1</clus>
</clustering>
</event>
<event>
 6    0  0.2839294E+002  0.9900476E+02  0.7546771E-02  0.1282403E+00
          2   -1    0    0  503    0 -0.00000000000E+00  0.00000000000E+00  0.10899026151E+04  0.10899026151E+04  0.00000000000E+00 0. -1.
         21   -1    0    0  505  502  0.00000000000E+00 -0.00000000000E+00 -0.51432599167E+03  0.51432599167E+03  0.00000000000E+00 0.  1.
         21    1    1    2  503  504 -0.32328780126E+02 -0.12091677769E+03  0.75123793278E+03  0.76159336184E+03  0.00000000000E+00 0. -1.
         21    1    1    2  504  502 -0.83570104866E+02  0.39799734414E+02 -0.43251695048E+03  0.44231085646E+03  0.00000000000E+00 0.  1.
         21    1    1    2  505  501  0.57416983934E+02  0.25944699123E+02 -0.51676915753E+02  0.81488287983E+02  0.00000000000E+00 0.  1.
          2    1    1    2  501    0  0.58481901057E+02  0.55172344158E+02  0.30853255688E+03  0.31883610047E+03  0.00000000000E+00 0. -1.
<scales pt_clust_3="99.00476" pt_clust_4="70.70370" pt_clust_5="63.00665" pt_clust_6="14000.00000"></scales>
<clustering>
<clus scale="   63.007">  2  5  1 -1</clus>
<clus scale="   70.704">  2  4  1 -1</clus>
<clus scale="   99.005">  2  3  1 -1</clus>
<clus scale="   63.007">  2  3  1 -1</clus>
</clustering>
</event>
<event>
 6    0  0.2839294E+002  0.9936411E+02  0.7546771E-02  0.1281639E+00
          1   -1    0    0  503    0 -0.00000000000E+00  0.00000000000E+00  0.11169197799E+04  0.11169197799E+04  0.00000000000E+00 0. -1.
         21   -1    0    0  501  502  0.00000000000E+00 -0.00000000000E+00 -0.65379547423E+02  0.65379547423E+02  0.00000000000E+00 0. -1.
         21    1    1    2  503  504  0.51932996943E+02 -0.26974356727E+02  0.20937557924E+03  0.21740005813E+03  0.00000000000E+00 0. -1.
         21    1    1    2  504  505  0.34169792596E+02 -0.57221721493E+02  0.28730559101E+03  0.29493457370E+03  0.00000000000E+00 0. -1.
         21    1    1    2  505  502 -0.84175792839E+02  0.35048482107E+02 -0.19716089441E+02  0.93288179213E+02  0.00000000000E+00 0. -1.
          1    1    1    2  501    0 -0.19269967002E+01  0.49147596113E+02  0.57457515168E+03  0.57667651630E+03  0.00000000000E+00 0. -1.
<scales pt_clust_3="33.68059" pt_clust_4="33.68059" pt_clust_5="92.63534" pt_clust_6="49.18536"></scales>
<clustering>
<clus scale="   33.681">  3  4 -1 -1</clus>
<clus scale="   49.185">  1  6  2 -1</clus>
<clus scale="   92.635">  2  5  1 -1</clus>
<clus scale="   92.635">  2  3  1 -1</clus>
</clustering>
</event>
<event>
 6    0  0.2839294E+002  0.6897552E+02  0.7546771E-02  0.1363612E+00
          2   -1    0    0  505    0 -0.00000000000E+00  0.00000000000E+00  0.78064226948E+03  0.78064226948E+03  0.00000000000E+00 0.  1.
         21   -1    0    0  503  502  0.00000000000E+00 -0.00000000000E+00 -0.29542170839E+03  0.29542170839E+03  0.00000000000E+00 0.  1.
         21    1    1    2  503  501 -0.60847786032E+02 -0.71640193530E+02 -0.16399128952E+03  0.18901828861E+03  0.00000000000E+00 0.  1.
         21    1    1    2  504  502  0.52615607446E+01  0.61682377418E+02 -0.70532105456E+02  0.93846564164E+02  0.00000000000E+00 0.  1.
         21    1    1    2  505  504  0.91334309420E+02  0.39231361788E+02  0.32759326437E+02  0.10466245408E+03  0.00000000000E+00 0.  1.
          2    1    1    2  501    0 -0.35748084132E+02 -0.29273545676E+02  0.68698462962E+03  0.68853667101E+03  0.00000000000E+00 0.  1.
<scales pt_clust_3="14000.00000" pt_clust_4="58.01354" pt_clust_5="68.97552" pt_clust_6="46.20461"></scales>
<clustering>
<clus scale="   46.205">  1  6  2 -1</clus>
<clus scale="   58.014">  2  4  1 -1</clus>
<clus scale="   68.976">  1  5  2 -1</clus>
<clus scale="   58.014">  2  3  1 -1</clus>
</clustering>
</event>
<event>
 6    0  0.2839294E+002  0.2780762E+03  0.7546771E-02  0.1096744E+00
         21   -1    0    0  503  502  0.00000000000E+00  0.00000000000E+00  0.12854353458E+04  0.12854353458E+04  0.00000000000E+00 0.  1.
          1   -1    0    0  505    0 -0.00000000000E+00 -0.00000000000E+00 -0.30417790768E+03  0.30417790768E+03  0.00000000000E+00 0.  1.
         21    1    1    2  503  504 -0.26484055280E+02 -0.22050265524E+02  0.60649267602E+02  0.69756383611E+02  0.00000000000E+00 0.  1.
         21    1    1    2  504  501  0.10096509365E+03 -0.83981449811E+02 -0.96379556522E+02  0.16289829024E+03  0.00000000000E+00 0. -1.
         21    1    1    2  505  502 -0.14694406384E+03  0.23348123019E+03  0.11354424222E+04  0.11684757323E+04  0.00000000000E+00 0.  1.
          1    1    1    2  501    0  0.72463025465E+02 -0.12744951485E+03 -0.11845469524E+03  0.18848284729E+03  0.00000000000E+00 0.  1.
<scales pt_clust_3="34.46185" pt_clust_4="47.58938" pt_clust_5="273.48091" pt_clust_6="47.58938"></scales>
<clustering>
<clus scale="   34.462">  1  3  2 -1</clus>
<clus scale="   47.589">  4  6 -1 -1</clus>
<clus scale="  273.481">  1  5  2 -1</clus>
<clus scale="   34.462">  1  3  2 -1</clus>
</clustering>
</event>
<event>
 6    0  0.2839294E+002  0.1231545E+03  0.7546771E-02  0.1237982E+00
         21   -1    0    0  503  502  0.00000000000E+00  0.00000000000E+00  0.26679111329E+02  0.26679111329E+02  0.00000000000E+00 0.  1.
          2   -1    0    0  505    0 -0.00000000000E+00 -0.00000000000E+00 -0.10672169446E+04  0.10672169446E+04  0.00000000000E+00 0. -1.
         21    1    1    2  503  501 -0.15221276929E+02  0.38749350475E+02 -0.23129360939E+03  0.23501049589E+03  0.00000000000E+00 0. -1.
         21    1    1    2  504  502 -0.31267284800E+02  0.12024396471E+01 -0.62377747429E+01  0.31906093362E+02  0.00000000000E+00 0.  1.
         21    1    1    2  505  504  0.91912927165E+02 -0.83870244922E+02 -0.64340937027E+03  0.65533031512E+03  0.00000000000E+00 0. -1.
          2    1    1    2  501    0 -0.45424365436E+02  0.43918454800E+02 -0.15959707886E+03  0.17164915155E+03  0.00000000000E+00 0. -1.
<scales pt_clust_3="34.85839" pt_clust_4="31.29040" pt_clust_5="114.46548" pt_clust_6="34.85839"></scales>
<clustering>
<clus scale="   31.290">  1  4  2 -1</clus>
<clus scale="   34.858">  3  6 -1 -1</clus>
<clus scale="  114.465">  2  5  1 -1</clus>
<clus scale="   31.290">  1  3  2 -1</clus>
</clustering>
</event>
<event>
 6    0  0.2839294E+002  0.7630778E+02  0.7546771E-02  0.1339868E+00
         21   -1    0    0  503  502  0.00000000000E+00  0.00000000000E+00  0.96793916959E+03  0.96793916959E+03  0.00000000000E+00 0.  1.
         -1   -1    0    0    0  501 -0.00000000000E+00 -0.00000000000E+00 -0.25693352900E+03  0.25693352900E+03  0.00000000000E+00 0.  1.
         21    1    1    2  503  505 -0.36139181109E+02 -0.24287545640E+02  0.27468030107E+03  0.27811003772E+03  0.00000000000E+00 0.  1.
         21    1    1    2  504  502  0.10901345900E+03  0.14190646269E+00  0.67668165095E+03  0.68540645687E+03  0.00000000000E+00 0.  1.
         21    1    1    2  505  501 -0.21279132851E+02  0.40470721498E+02 -0.80384766841E+02  0.92479141073E+02  0.00000000000E+00 0.  1.
         -1    1    1    2    0  504 -0.51595145040E+02 -0.16325082321E+02 -0.15997154459E+03  0.16887706293E+03  0.00000000000E+00 0.  1.
<scales pt_clust_3="43.54222" pt_clust_4="14000.00000" pt_clust_5="45.68462" pt_clust_6="76.30778"></scales>
<clustering>
<clus scale="   43.542">  1  3  2 -1</clus>
<clus scale="   45.685">  2  5  1 -1</clus>
<clus scale="   76.308">  2  6  1 -1</clus>
<clus scale="   43.542">  1  3  2 -1</clus>
</clustering>
</event>
<event>
 6    0  0.2839294E+002  0.3388593E+03  0.7546771E-02  0.1067283E+00
         21   -1    0    0  504  502  0.00000000000E+00  0.00000000000E+00  0.45404853754E+03  0.45404853754E+03  0.00000000000E+00 0.  1.
          1   -1    0    0  505    0 -0.00000000000E+00 -0.00000000000E+00 -0.14097023329E+04  0.14097023329E+04  0.00000000000E+00 0.  1.
         21    1    1    2  503  501  0.15535575556E+03  0.20494336492E+03  0.33385556768E+03  0.42142227478E+03  0.00000000000E+00 0.  1.
         21    1    1    2  504  503  0.18562528603E+02  0.67385330961E+02  0.28701517130E+02  0.75558767740E+02  0.00000000000E+00 0.  1.
         21    1    1    2  505  502  0.12054550903E+02 -0.28635156729E+02 -0.34558771467E+03  0.34698148788E+03  0.00000000000E+00 0.  1.
          1    1    1    2  501    0 -0.18597283507E+03 -0.24369353916E+03 -0.97262316549E+03  0.10197883400E+04  0.00000000000E+00 0.  1.
<scales pt_clust_3="54.86124" pt_clust_4="54.86124" pt_clust_5="31.06903" pt_clust_6="322.01492"></scales>
<clustering>
<clus scale="   31.069">  2  5  1 -1</clus>
<clus scale="   54.861">  3  4 -1 -1</clus>
<clus scale="  322.015">  2  6  1 -1</clus>
<clus scale="  338.859">  1  3  2 -1</clus>
</clustering>
</event>
<event>
 6    0  0.2839294E+002  0.8912191E+02  0.7546771E-02  0.1304992E+00
         21   -1    0    0  504  502  0.00000000000E+00  0.00000000000E+00  0.10442673062E+04  0.10442673062E+04  0.00000000000E+00 0.  1.
         -2   -1    0    0    0  501 -0.00000000000E+00 -0.00000000000E+00 -0.65790111284E+03  0.65790111284E+03  0.00000000000E+00 0.  1.
         21    1    1    2  503  502  0.41266458935E+02  0.17051182850E+02  0.39257779104E+03  0.39510882740E+03  0.00000000000E+00 0.  1.
         21    1    1    2  504  505 -0.11498392349E+03  0.32508606199E+02  0.62915659417E+03  0.64040310128E+03  0.00000000000E+00 0.  1.
         21    1    1    2  505  501  0.50056757652E+02  0.10874775346E+02 -0.33292356636E+02  0.61092722446E+02  0.00000000000E+00 0.  1.
         -2    1    1    2    0  503  0.23660706901E+02 -0.60434564395E+02 -0.60207583523E+03  0.60556376790E+03  0.00000000000E+00 0.  1.
<scales pt_clust_3="44.65046" pt_clust_4="14000.00000" pt_clust_5="52.16384" pt_clust_6="89.12191"></scales>
<clustering>
<clus scale="   44.650">  1  3  2 -1</clus>
<clus scale="   52.164">  2  5  1 -1</clus>
<clus scale="   89.122">  2  6  1 -1</clus>
<clus scale="   44.650">  1  3  2 -1</clus>
</clustering>
</event>
<event>
 6    0  0.2839294E+002  0.9654590E+02  0.7546771E-02  0.1287732E+00
         21   -1    0    0  503  502  0.00000000000E+00  0.00000000000E+00  0.12933507929E+03  0.12933507929E+03  0.00000000000E+00 0.  1.
          2   -1    0    0  505    0 -0.00000000000E+00 -0.00000000000E+00 -0.47901875316E+03  0.47901875316E+03  0.00000000000E+00 0.  1.
         21    1    1    2  503  501 -0.13053692696E+03  0.45450823111E+01 -0.41523415671E+02  0.13705743731E+03  0.00000000000E+00 0.  1.
         21    1    1    2  504  502  0.35814741224E+02  0.24918867642E+02  0.66630450343E+02  0.79644601614E+02  0.00000000000E+00 0.  1.
         21    1    1    2  505  504  0.36444364621E+02 -0.10198373267E+02 -0.60038090943E+02  0.70970211314E+02  0.00000000000E+00 0.  1.
          2    1    1    2  501    0  0.58277821119E+02 -0.19265576686E+02 -0.31475261760E+03  0.32068158221E+03  0.00000000000E+00 0.  1.
<scales pt_clust_3="14000.00000" pt_clust_4="44.01228" pt_clust_5="37.84440" pt_clust_6="96.54590"></scales>
<clustering>
<clus scale="   37.844">  2  5  1 -1</clus>
<clus scale="   44.012">  1  4  2 -1</clus>
<clus scale="   96.546">  2  6  1 -1</clus>
<clus scale="   44.012">  1  3  2 -1</clus>
</clustering>
</event>
<event>
 6    0  0.2839294E+002  0.7918852E+02  0.7546771E-02  0.1331370E+00
          1   -1    0    0  505    0 -0.00000000000E+00  0.00000000000E+00  0.72275062215E+03  0.72275062215E+03  0.00000000000E+00 0.  1.
         21   -1    0    0  503  502  0.00000000000E+00 -0.00000000000E+00 -0.81172896358E+03  0.81172896358E+03  0.00000000000E+00 0. -1.
         21    1    1    2  503  504  0.19892885618E+02  0.74516541507E+02 -0.69742990509E+03  0.70168149068E+03  0.00000000000E+00 0. -1.
         21    1    1    2  504  501 -0.76649307953E+02 -0.10180362470E+03 -0.58453646435E+02  0.14019958343E+03  0.00000000000E+00 0. -1.
         21    1    1    2  505  502 -0.32750368305E+02 -0.26359583596E+02  0.43407879285E+02  0.60428952129E+02  0.00000000000E+00 0.  1.
          1    1    1    2  501    0  0.89506790639E+02  0.53646666789E+02  0.62349733081E+03  0.63216955950E+03  0.00000000000E+00 0.  1.
<scales pt_clust_3="14000.00000" pt_clust_4="79.18852" pt_clust_5="42.04063" pt_clust_6="65.60209"></scales>
<clustering>
<clus scale="   42.041">  1  5  2 -1</clus>
<clus scale="   65.602">  1  6  2 -1</clus>
<clus scale="   79.189">  1  4  2 -1</clus>
<clus scale="   79.189">  2  3  1 -1</clus>
</clustering>
</event>
<event>
 6    0  0.2839294E+002  0.7286888E+02  0.7546771E-02  0.1350600E+00
         -3   -1    0    0    0  501 -0.00000000000E+00  0.00000000000E+00  0.60804847847E+03  0.60804847847E+03  0.00000000000E+00 0. -1.
         21   -1    0    0  505  502  0.00000000000E+00 -0.00000000000E+00 -0.23217115645E+03  0.23217115645E+03  0.00000000000E+00 0. -1.
         21    1    1    2  503  501 -0.49647939622E+02 -0.56092967170E+02  0.24321689194E+03  0.25449124818E+03  0.00000000000E+00 0. -1.
         21    1    1    2  504  503  0.72918916124E+02 -0.11620659996E+02  0.16276088418E+03  0.17872692435E+03  0.00000000000E+00 0. -1.
         21    1    1    2  505  504 -0.49902396320E+02  0.53808278874E+02 -0.21111721635E+03  0.22350852126E+03  0.00000000000E+00 0. -1.
         -3    1    1    2    0  502  0.26631419818E+02  0.13905348292E+02  0.18101676225E+03  0.18349294114E+03  0.00000000000E+00 0. -1.
<scales pt_clust_3="58.84223" pt_clust_4="72.86888" pt_clust_5="14000.00000" pt_clust_6="30.04316"></scales>
<clustering>
<clus scale="   30.043">  1  6  2 -1</clus>
<clus scale="   58.842">  1  3  2 -1</clus>
<clus scale="   72.869">  1  4  2 -1</clus>
<clus scale="   72.869">  2  3  1 -1</clus>
</clustering>
</event>
<event>
 6    0  0.2839294E+002  0.1585880E+03  0.7546771E-02  0.1190300E+00
         21   -1    0    0  505  502  0.00000000000E+00  0.00000000000E+00  0.49023598074E+03  0.49023598074E+03  0.00000000000E+00 0. -1.
          2   -1    0    0  504    0 -0.00000000000E+00 -0.00000000000E+00 -0.22365656974E+04  0.22365656974E+04  0.00000000000E+00 0.  1.
         21    1    1    2  503  501 -0.36047316296E+02  0.45257629639E+02  0.18397238826E+03  0.19285616841E+03  0.00000000000E+00 0. -1.
         21    1    1    2  504  502  0.52115213811E+02 -0.29236532552E+02 -0.20195856514E+03  0.21061346676E+03  0.00000000000E+00 0. -1.
         21    1    1    2  505  503  0.43131148485E+01  0.10067698611E+03  0.28717152305E+03  0.30433853214E+03  0.00000000000E+00 0. -1.
          2    1    1    2  501    0 -0.20381012364E+02 -0.11669808320E+03 -0.20155150628E+04  0.20189935108E+04  0.00000000000E+00 0.  1.
<scales pt_clust_3="40.96022" pt_clust_4="59.75592" pt_clust_5="40.96022" pt_clust_6="149.09109"></scales>
<clustering>
<clus scale="   40.960">  3  5 -1 -1</clus>
<clus scale="   59.756">  2  4  1 -1</clus>
<clus scale="  149.091">  2  6  1 -1</clus>
<clus scale="  158.588">  1  3  2 -1</clus>
</clustering>
</event>
<event>
 6    0  0.2839294E+002  0.1471169E+03  0.7546771E-02  0.1204061E+00
         21   -1    0    0  504  502  0.00000000000E+00  0.00000000000E+00  0.47382309809E+03  0.47382309809E+03  0.00000000000E+00 0.  1.
          2   -1    0    0  503    0 -0.00000000000E+00 -0.00000000000E+00 -0.14277788598E+04  0.14277788598E+04  0.00000000000E+00 0. -1.
         21    1    1    2  503  505 -0.85618828016E+02 -0.57939815524E+01 -0.15133845714E+03  0.17397552282E+03  0.00000000000E+00 0.  1.
         21    1    1    2  504  501  0.68804481841E+01 -0.31479571651E+02  0.47543554670E+01  0.32571581087E+02  0.00000000000E+00 0.  1.
         21    1    1    2  505  502  0.81134928400E+02  0.15000176767E+03  0.42479028734E+03  0.45774468334E+03  0.00000000000E+00 0.  1.
          2    1    1    2  501    0 -0.23965485680E+01 -0.11272821446E+03 -0.12321619474E+04  0.12373101707E+04  0.00000000000E+00 0. -1.
<scales pt_clust_3="85.70046" pt_clust_4="32.22272" pt_clust_5="147.11692" pt_clust_6="14000.00000"></scales>
<clustering>
<clus scale="   32.223">  1  4  2 -1</clus>
<clus scale="   85.700">  2  3  1 -1</clus>
<clus scale="  147.117">  1  5  2 -1</clus>
<clus scale="   32.223">  1  3  2 -1</clus>
</clustering>
</event>
<event>
 6    0  0.2839294E+002  0.1161687E+03  0.7546771E-02  0.1249555E+00
          2   -1    0    0  505    0 -0.00000000000E+00  0.00000000000E+00  0.15124904791E+04  0.15124904791E+04  0.00000000000E+00 0.  1.
         21   -1    0    0  504  502  0.00000000000E+00 -0.00000000000E+00 -0.18269740738E+02  0.18269740738E+02  0.00000000000E+00 0.  1.
         21    1    1    2  503  501 -0.43847450803E+02  0.31547504082E+02  0.24289763111E+03  0.24883147541E+03  0.00000000000E+00 0.  1.
         21    1    1    2  504  503 -0.31368341439E+02  0.17634466889E+02  0.58875953398E+02  0.69002356160E+02  0.00000000000E+00 0.  1.
         21    1    1    2  505  502  0.10309504766E+03 -0.10812308297E+03  0.67171508668E+03  0.68812814765E+03  0.00000000000E+00 0.  1.
          2    1    1    2  501    0 -0.27879255421E+02  0.58941111995E+02  0.52073206723E+03  0.52479824067E+03  0.00000000000E+00 0.  1.
<scales pt_clust_3="35.34037" pt_clust_4="35.34037" pt_clust_5="107.79796" pt_clust_6="65.20205"></scales>
<clustering>
<clus scale="   35.340">  3  4 -1 -1</clus>
<clus scale="   65.202">  1  6  2 -1</clus>
<clus scale="  107.798">  1  5  2 -1</clus>
<clus scale="  116.169">  2  3  1 -1</clus>
</clustering>
</event>
<event>
 6    0  0.2839294E+002  0.8206073E+02  0.7546771E-02  0.1323303E+00
          2   -1    0    0  503    0 -0.00000000000E+00  0.00000000000E+00  0.66661282430E+03  0.66661282430E+03  0.00000000000E+00 0. -1.
         21   -1    0    0  501  502  0.00000000000E+00 -0.00000000000E+00 -0.10269705263E+03  0.10269705263E+03  0.00000000000E+00 0. -1.
         21    1    1    2  503  504  0.74422594791E+02 -0.70989901776E+01  0.88702506381E+02  0.11600540037E+03  0.00000000000E+00 0. -1.
         21    1    1    2  504  505 -0.79560985469E+02  0.49218423518E+02  0.68201037486E+02  0.11577471717E+03  0.00000000000E+00 0. -1.
         21    1    1    2  505  502  0.16694782825E+02  0.25693471633E+02 -0.58992283240E+02  0.66475256600E+02  0.00000000000E+00 0. -1.
          2    1    1    2  501    0 -0.11556392148E+02 -0.67812904973E+02  0.46600451104E+03  0.47105450278E+03  0.00000000000E+00 0. -1.
<scales pt_clust_3="14000.00000" pt_clust_4="82.06073" pt_clust_5="30.64099" pt_clust_6="67.01742"></scales>
<clustering>
<clus scale="   30.641">  2  5  1 -1</clus>
<clus scale="   67.017">  1  6  2 -1</clus>
<clus scale="   82.061">  2  4  1 -1</clus>
<clus scale="   30.641">  2  3  1 -1</clus>
</clustering>
</event>
<event>
 6    0  0.2839294E+002  0.1224110E+03  0.7546771E-02  0.1239172E+00
          2   -1    0    0  505    0 -0.00000000000E+00  0.00000000000E+00  0.32488560956E+04  0.32488560956E+04  0.00000000000E+00 0. -1.
         21   -1    0    0  504  502  0.00000000000E+00 -0.00000000000E+00 -0.39125836805E+02  0.39125836805E+02  0.00000000000E+00 0.  1.
         21    1    1    2  503  502  0.12544219725E+03 -0.23187737951E+02  0.99538994250E+02  0.16180675949E+03  0.00000000000E+00 0.  1.
         21    1    1    2  504  501 -0.18319967504E+02 -0.25962085398E+02  0.64688808657E+02  0.72071444089E+02  0.00000000000E+00 0.  1.
         21    1    1    2  505  503  0.37145439696E+02 -0.43796893851E+02  0.77372800338E+03  0.77585628490E+03  0.00000000000E+00 0.  1.
          2    1    1    2  501    0 -0.14426766944E+03  0.92946717200E+02  0.22717744525E+04  0.22782474439E+04  0.00000000000E+00 0. -1.
<scales pt_clust_3="122.41099" pt_clust_4="31.77501" pt_clust_5="57.67395" pt_clust_6="14000.00000"></scales>
<clustering>
<clus scale="   31.775">  2  4  1 -1</clus>
<clus scale="   57.674">  1  5  2 -1</clus>
<clus scale="  122.411">  2  3  1 -1</clus>
<clus scale="   31.775">  2  3  1 -1</clus>
</clustering>
</event>
<event>
 6    0  0.2839294E+002  0.2745230E+03  0.7546771E-02  0.1098719E+00
         21   -1    0    0  501  502  0.00000000000E+00  0.00000000000E+00  0.95748188536E+03  0.95748188536E+03  0.00000000000E+00 0. -1.
          2   -1    0    0  505    0 -0.00000000000E+00 -0.00000000000E+00 -0.13252924811E+04  0.13252924811E+04  0.00000000000E+00 0. -1.
         21    1    1    2  503  504  0.11260949167E+03  0.21467318974E+03  0.84204522961E+02  0.25662400062E+03  0.00000000000E+00 0. -1.
         21    1    1    2  504  502 -0.20407558016E+03 -0.20205090328E+03  0.75126295343E+03  0.80428069424E+03  0.00000000000E+00 0. -1.
         21    1    1    2  505  503 -0.76020073333E+01  0.59898938517E+02 -0.15368839721E+03  0.16512358035E+03  0.00000000000E+00 0.  1.
          2    1    1    2  501    0  0.99068095823E+02 -0.72521224980E+02 -0.10495896749E+04  0.10567460912E+04  0.00000000000E+00 0. -1.
<scales pt_clust_3="274.52297" pt_clust_4="14000.00000" pt_clust_5="60.37941" pt_clust_6="94.02173"></scales>
<clustering>
<clus scale="   60.379">  2  5  1 -1</clus>
<clus scale="   94.022">  2  6  1 -1</clus>
<clus scale="  274.523">  2  3  1 -1</clus>
<clus scale="  274.523">  1  3  2 -1</clus>
</clustering>
</event>
<event>
 6    0  0.2839294E+002  0.1594741E+03  0.7546771E-02  0.1189292E+00
         21   -1    0    0  504  502  0.00000000000E+00  0.00000000000E+00  0.31118723174E+03  0.31118723174E+03  0.00000000000E+00 0. -1.
         -1   -1    0    0    0  501 -0.00000000000E+00 -0.00000000000E+00 -0.28656718625E+03  0.28656718625E+03  0.00000000000E+00 0. -1.
         21    1    1    2  503  501 -0.43729206487E+02  0.12740242543E+03 -0.84219644830E+02  0.15886022183E+03  0.00000000000E+00 0. -1.
         21    1    1    2  504  503 -0.41418210541E+02  0.15594473050E+02  0.22366502930E+03  0.22800153746E+03  0.00000000000E+00 0.  1.
         21    1    1    2  505  502  0.15058607534E+02 -0.47910636508E+02 -0.65422122349E+01  0.50645743083E+02  0.00000000000E+00 0. -1.
         -1    1    1    2    0  505  0.70088809494E+02 -0.95086261967E+02 -0.10828312674E+03  0.16024691563E+03  0.00000000000E+00 0. -1.
<scales pt_clust_3="147.78135" pt_clust_4="44.25670" pt_clust_5="39.08221" pt_clust_6="39.08221"></scales>
<clustering>
<clus scale="   39.082">  5  6 -1 -1</clus>
<clus scale="   44.257">  1  4  2 -1</clus>
<clus scale="  147.781">  2  3  1 -1</clus>
<clus scale="   44.257">  1  3  2 -1</clus>
</clustering>
</event>
<event>
 6    0  0.2839294E+002  0.1811641E+03  0.7546771E-02  0.1166681E+00
         -4   -1    0    0    0  501 -0.00000000000E+00  0.00000000000E+00  0.29073791839E+04  0.29073791839E+04  0.00000000000E+00 0. -1.
         21   -1    0    0  501  502  0.00000000000E+00 -0.00000000000E+00 -0.26683969418E+03  0.26683969418E+03  0.00000000000E+00 0. -1.
         21    1    1    2  503  504 -0.11894456388E+03  0.92911633632E+02  0.13474922180E+04  0.13559187507E+04  0.00000000000E+00 0. -1.
         21    1    1    2  504  505  0.11598115152E+03 -0.16710731411E+03 -0.88117934076E+02  0.22167826291E+03  0.00000000000E+00 0. -1.
         21    1    1    2  505  502 -0.49829956531E+02 -0.34493325064E+01 -0.10037135722E+03  0.11211303142E+03  0.00000000000E+00 0. -1.
         -4    1    1    2    0  503  0.52793368890E+02  0.77645012989E+02  0.14815365631E+04  0.14845088331E+04  0.00000000000E+00 0. -1.
<scales pt_clust_3="14000.00000" pt_clust_4="181.16408" pt_clust_5="49.94920" pt_clust_6="93.60800"></scales>
<clustering>
<clus scale="   49.949">  2  5  1 -1</clus>
<clus scale="   93.608">  1  6  2 -1</clus>
<clus scale="  181.164">  2  4  1 -1</clus>
<clus scale="   49.949">  2  3  1 -1</clus>
</clustering>
</event>
<event>
 6    0  0.2839294E+002  0.1564165E+03  0.7546771E-02  0.1192803E+00
          2   -1    0    0  504    0 -0.00000000000E+00  0.00000000000E+00  0.19512613980E+04  0.19512613980E+04  0.00000000000E+00 0. -1.
         21   -1    0    0  503  502  0.00000000000E+00 -0.00000000000E+00 -0.55258195763E+02  0.55258195763E+02  0.00000000000E+00 0.  1.
         21    1    1    2  503  505  0.11262335616E+02 -0.11563855520E+03  0.10388735434E+03  0.15585794187E+03  0.00000000000E+00 0.  1.
         21    1    1    2  504  502  0.14051887069E+03  0.10559788491E+03  0.28205003619E+03  0.33233821512E+03  0.00000000000E+00 0.  1.
         21    1    1    2  505  501 -0.76714745761E+02 -0.16556607334E+02  0.76057648385E+03  0.76461484503E+03  0.00000000000E+00 0. -1.
          2    1    1    2  501    0 -0.75066460549E+02  0.26597277623E+02  0.74948932789E+03  0.75370859176E+03  0.00000000000E+00 0. -1.
<scales pt_clust_3="116.18569" pt_clust_4="150.32351" pt_clust_5="42.91592" pt_clust_6="42.91592"></scales>
<clustering>
<clus scale="   42.916">  5  6 -1 -1</clus>
<clus scale="  116.186">  2  3  1 -1</clus>
<clus scale="  150.324">  2  4  1 -1</clus>
<clus scale="  116.186">  2  3  1 -1</clus>
</clustering>
</event>
<event>
 6    0  0.2839294E+002  0.1045505E+03  0.7546771E-02  0.1271008E+00
          1   -1    0    0  503    0 -0.00000000000E+00  0.00000000000E+00  0.16689885819E+04  0.16689885819E+04  0.00000000000E+00 0.  1.
         21   -1    0    0  505  502  0.00000000000E+00 -0.00000000000E+00 -0.10828629510E+03  0.10828629510E+03  0.00000000000E+00 0. -1.
         21    1    1    2  503  502 -0.21012485086E+02 -0.28795112805E+02  0.25915730913E+03  0.26159738899E+03  0.00000000000E+00 0.  1.
         21    1    1    2  504  501 -0.47532704652E+02  0.11972484290E+03  0.17578781906E+02  0.13000926734E+03  0.00000000000E+00 0. -1.
         21    1    1    2  505  504  0.51947785063E+02 -0.14207605588E+02 -0.35089892819E+02  0.64278526800E+02  0.00000000000E+00 0. -1.
          1    1    1    2  501    0  0.16597404675E+02 -0.76722124511E+02  0.13190560886E+04  0.13213896939E+04  0.00000000000E+00 0.  1.
<scales pt_clust_3="35.64664" pt_clust_4="14000.00000" pt_clust_5="53.72545" pt_clust_6="104.55046"></scales>
<clustering>
<clus scale="   35.647">  1  3  2 -1</clus>
<clus scale="   53.725">  2  5  1 -1</clus>
<clus scale="  104.550">  1  6  2 -1</clus>
<clus scale="   53.725">  2  3  1 -1</clus>
</clustering>
</event>
<event>
 6    0  0.2839294E+002  0.6478178E+02  0.7546771E-02  0.1378794E+00
         21   -1    0    0  503  502  0.00000000000E+00  0.00000000000E+00  0.13651062256E+03  0.13651062256E+03  0.00000000000E+00 0. -1.
          2   -1    0    0  505    0 -0.00000000000E+00 -0.00000000000E+00 -0.38244175931E+03  0.38244175931E+03  0.00000000000E+00 0.  1.
         21    1    1    2  503  501  0.36893263572E+02 -0.25906523976E+02  0.40339410436E+01  0.45260728693E+02  0.00000000000E+00 0. -1.
         21    1    1    2  504  502 -0.95028496888E+02  0.15157801725E+02  0.70080650332E+02  0.11904399071E+03  0.00000000000E+00 0. -1.
         21    1    1    2  505  504  0.80159009196E+00 -0.56619719525E+02 -0.73981759027E+02  0.93165099981E+02  0.00000000000E+00 0. -1.
          2    1    1    2  501    0  0.57333643224E+02  0.67368441777E+02 -0.24606396910E+03  0.26148256248E+03  0.00000000000E+00 0.  1.
<scales pt_clust_3="45.08060" pt_clust_4="64.78178" pt_clust_5="58.97450" pt_clust_6="14000.00000"></scales>
<clustering>
<clus scale="   45.081">  1  3  2 -1</clus>
<clus scale="   58.975">  2  5  1 -1</clus>
<clus scale="   64.782">  1  4  2 -1</clus>
<clus scale="   45.081">  1  3  2 -1</clus>
</clustering>
</event>
<event>
 6    0  0.2839294E+002  0.7340980E+02  0.7546771E-02  0.1348867E+00
         -3   -1    0    0    0  501 -0.00000000000E+00  0.00000000000E+00  0.50713018765E+03  0.50713018765E+03  0.00000000000E+00 0. -1.
         21   -1    0    0  505  502  0.00000000000E+00 -0.00000000000E+00 -0.82589937048E+02  0.82589937048E+02  0.00000000000E+00 0.  1.
         21    1    1    2  503  502  0.99535073778E+02  0.51338515066E+02  0.12790537740E+02  0.11272298744E+03  0.00000000000E+00 0.  1.
         21    1    1    2  504  501 -0.32639538101E+02 -0.22387389911E+02  0.12876565949E+03  0.13471128289E+03  0.00000000000E+00 0. -1.
         21    1    1    2  505  504 -0.21822090958E+02 -0.50551150120E+02  0.14078708643E+00  0.55060351009E+02  0.00000000000E+00 0. -1.
         -3    1    1    2    0  503 -0.45073444719E+02  0.21600024964E+02  0.28284326629E+03  0.28722550336E+03  0.00000000000E+00 0. -1.
<scales pt_clust_3="73.40980" pt_clust_4="39.57947" pt_clust_5="57.54343" pt_clust_6="14000.00000"></scales>
<clustering>
<clus scale="   39.579">  1  4  2 -1</clus>
<clus scale="   57.543">  2  5  1 -1</clus>
<clus scale="   73.410">  2  3  1 -1</clus>
<clus scale="   57.543">  2  3  1 -1</clus>
</clustering>
</event>
<event>
 6    0  0.2839294E+002  0.2370204E+03  0.7546771E-02  0.1121794E+00
         21   -1    0    0  504  502  0.00000000000E+00  0.00000000000E+00  0.81566733745E+03  0.81566733745E+03  0.00000000000E+00 0. -1.
          1   -1    0    0  505    0 -0.00000000000E+00 -0.00000000000E+00 -0.98793390796E+03  0.98793390796E+03  0.00000000000E+00 0.  1.
         21    1    1    2  503  501 -0.74121901371E+01 -0.11772192333E+03 -0.26088324744E+03  0.28631007770E+03  0.00000000000E+00 0.  1.
         21    1    1    2  504  503 -0.79005803859E+01 -0.41330675520E+02  0.74728369441E+03  0.74846747681E+03  0.00000000000E+00 0. -1.
         21    1    1    2  505  502 -0.77912259482E+01  0.25892728429E+03 -0.30280543981E+03  0.39849112428E+03  0.00000000000E+00 0.  1.
          1    1    1    2  501    0  0.23103996471E+02 -0.99874685433E+02 -0.35586157767E+03  0.37033256662E+03  0.00000000000E+00 0.  1.
<scales pt_clust_3="52.17261" pt_clust_4="42.07902" pt_clust_5="230.14739" pt_clust_6="52.17261"></scales>
<clustering>
<clus scale="   42.079">  1  4  2 -1</clus>
<clus scale="   52.173">  3  6 -1 -1</clus>
<clus scale="  230.147">  1  5  2 -1</clus>
<clus scale="   42.079">  1  3  2 -1</clus>
</clustering>
</event>
<event>
 6    0  0.2839294E+002  0.1085458E+03  0.7546771E-02  0.1263287E+00
         21   -1    0    0  505  502  0.00000000000E+00  0.00000000000E+00  0.84815929345E+03  0.84815929345E+03  0.00000000000E+00 0. -1.
          1   -1    0    0  504    0 -0.00000000000E+00 -0.00000000000E+00 -0.78002241586E+03  0.78002241586E+03  0.00000000000E+00 0.  1.
         21    1    1    2  503  502  0.11593686953E+02 -0.11143496691E+03  0.80769917967E+03  0.81543248051E+03  0.00000000000E+00 0. -1.
         21    1    1    2  504  503 -0.36934313745E+02 -0.14344029252E+02 -0.12378925694E+03  0.12997567019E+03  0.00000000000E+00 0.  1.
         21    1    1    2  505  501  0.15888332438E+02  0.72178994075E+02 -0.10023328204E+02  0.74583600085E+02  0.00000000000E+00 0. -1.
          1    1    1    2  501    0  0.94522943543E+01  0.53600002082E+02 -0.60574971693E+03  0.60818995853E+03  0.00000000000E+00 0.  1.
<scales pt_clust_3="108.54582" pt_clust_4="39.62190" pt_clust_5="14000.00000" pt_clust_6="47.33120"></scales>
<clustering>
<clus scale="   39.622">  2  4  1 -1</clus>
<clus scale="   47.331">  2  6  1 -1</clus>
<clus scale="  108.546">  1  3  2 -1</clus>
<clus scale="  108.546">  1  3  2 -1</clus>
</clustering>
</event>
<event>
 6    0  0.2839294E+002  0.6309498E+02  0.7546771E-02  0.1385284E+00
         21   -1    0    0  505  502  0.00000000000E+00  0.00000000000E+00  0.20374003193E+03  0.20374003193E+03  0.00000000000E+00 0. -1.
          2   -1    0    0  503    0 -0.00000000000E+00 -0.00000000000E+00 -0.27947133398E+04  0.27947133398E+04  0.00000000000E+00 0. -1.
         21    1    1    2  503  504  0.30736573812E+02 -0.18602592329E+02 -0.71029517140E+03  0.71120322266E+03  0.00000000000E+00 0. -1.
         21    1    1    2  504  502 -0.10674699994E+02  0.12006831471E+03  0.15542276935E+03  0.19668906083E+03  0.00000000000E+00 0. -1.
         21    1    1    2  505  501 -0.89610450483E+01 -0.59715538230E+02 -0.67610813531E+01  0.60761484969E+02  0.00000000000E+00 0.  1.
          2    1    1    2  501    0 -0.11100828769E+02 -0.41750184148E+02 -0.20293398244E+04  0.20297996033E+04  0.00000000000E+00 0. -1.
<scales pt_clust_3="35.92761" pt_clust_4="14000.00000" pt_clust_5="60.61067" pt_clust_6="63.09498"></scales>
<clustering>
<clus scale="   35.928">  2  3  1 -1</clus>
<clus scale="   60.611">  1  5  2 -1</clus>
<clus scale="   63.095">  2  6  1 -1</clus>
<clus scale="   60.611">  1  3  2 -1</clus>
</clustering>
</event>
<event>
 6    0  0.2839294E+002  0.7346312E+02  0.7546771E-02  0.1348697E+00
          1   -1    0    0  504    0 -0.00000000000E+00  0.00000000000E+00  0.95773494745E+03  0.95773494745E+03  0.00000000000E+00 0.  1.
         21   -1    0    0  503  502  0.00000000000E+00 -0.00000000000E+00 -0.43683762141E+02  0.43683762141E+02  0.00000000000E+00 0.  1.
         21    1    1    2  503  505  0.34011937361E+02  0.35551984095E+02  0.12875926838E+02  0.50858086359E+02  0.00000000000E+00 0.  1.
         21    1    1    2  504  502 -0.10609926950E+03 -0.49621328176E+02  0.14876767510E+03  0.18934400532E+03  0.00000000000E+00 0.  1.
         21    1    1    2  505  501  0.41023220239E+02  0.36640019123E+02  0.19850037220E+03  0.20598008002E+03  0.00000000000E+00 0.  1.
          1    1    1    2  501    0  0.31064111899E+02 -0.22570675042E+02  0.55390721117E+03  0.55523653789E+03  0.00000000000E+00 0.  1.
<scales pt_clust_3="49.70050" pt_clust_4="14000.00000" pt_clust_5="73.46312" pt_clust_6="38.39810"></scales>
<clustering>
<clus scale="   38.398">  1  6  2 -1</clus>
<clus scale="   49.700">  2  3  1 -1</clus>
<clus scale="   73.463">  1  5  2 -1</clus>
<clus scale="   49.700">  2  3  1 -1</clus>
</clustering>
</event>
<event>
 6    0  0.2839294E+002  0.9871369E+02  0.7546771E-02  0.1283024E+00
         21   -1    0    0  505  502  0.00000000000E+00  0.00000000000E+00  0.19843447919E+03  0.19843447919E+03  0.00000000000E+00 0. -1.
         -2   -1    0    0    0  501 -0.00000000000E+00 -0.00000000000E+00 -0.57180108734E+03  0.57180108734E+03  0.00000000000E+00 0.  1.
         21    1    1    2  503  502 -0.16446146923E+02 -0.70470863825E+02  0.14923572622E+03  0.16585511863E+03  0.00000000000E+00 0. -1.
         21    1    1    2  504  503 -0.94146714071E+02 -0.24350921684E+02 -0.97868362323E+02  0.13796661734E+03  0.00000000000E+00 0. -1.
         21    1    1    2  505  501  0.88868030882E+02  0.65540340408E+02 -0.13505963488E+03  0.17445391399E+03  0.00000000000E+00 0.  1.
         -2    1    1    2    0  504  0.21724830113E+02  0.29281445100E+02 -0.28967433716E+03  0.29195991657E+03  0.00000000000E+00 0.  1.
<scales pt_clust_3="71.37646" pt_clust_4="98.71369" pt_clust_5="14000.00000" pt_clust_6="36.46054"></scales>
<clustering>
<clus scale="   36.461">  2  6  1 -1</clus>
<clus scale="   71.376">  1  3  2 -1</clus>
<clus scale="   98.714">  2  4  1 -1</clus>
<clus scale="   71.376">  1  3  2 -1</clus>
</clustering>
</event>
<event>
 6    0  0.2839294E+002  0.2004444E+03  0.7546771E-02  0.1149365E+00
         21   -1    0    0  505  502  0.00000000000E+00  0.00000000000E+00  0.11796650343E+03  0.11796650343E+03  0.00000000000E+00 0.  1.
          1   -1    0    0  504    0 -0.00000000000E+00 -0.00000000000E+00 -0.18256449080E+04  0.18256449080E+04  0.00000000000E+00 0.  1.
         21    1    1    2  503  502  0.34519562600E+02  0.15518744163E+02  0.22414976221E+02  0.43987075164E+02  0.00000000000E+00 0.  1.
         21    1    1    2  504  503 -0.18725968689E+03  0.76575727858E+02 -0.58449605405E+03  0.61851893231E+03  0.00000000000E+00 0.  1.
         21    1    1    2  505  501 -0.10905792867E+01  0.40401942387E+02  0.52315871782E+02  0.66109430130E+02  0.00000000000E+00 0.  1.
          1    1    1    2  501    0  0.15383070358E+03 -0.13249641441E+03 -0.11979131985E+04  0.12149959738E+04  0.00000000000E+00 0.  1.
<scales pt_clust_3="37.84748" pt_clust_4="14000.00000" pt_clust_5="56.17696" pt_clust_6="200.44443"></scales>
<clustering>
<clus scale="   37.847">  1  3  2 -1</clus>
<clus scale="   56.177">  1  5  2 -1</clus>
<clus scale="  200.444">  2  6  1 -1</clus>
<clus scale="   37.847">  1  3  2 -1</clus>
</clustering>
</event>
<event>
 6    0  0.2839294E+002  0.8072024E+02  0.7546771E-02  0.1327020E+00
          1   -1    0    0  504    0 -0.00000000000E+00  0.00000000000E+00  0.86585435809E+03  0.86585435809E+03  0.00000000000E+00 0. -1.
         21   -1    0    0  505  502  0.00000000000E+00 -0.00000000000E+00 -0.47677049485E+03  0.47677049485E+03  0.00000000000E+00 0. -1.
         21    1    1    2  503  502 -0.88084846910E+02 -0.29241296578E+02 -0.37639173991E+03  0.38766575236E+03  0.00000000000E+00 0. -1.
         21    1    1    2  504  503 -0.27364396829E+02  0.20889898803E+02  0.10030415891E+03  0.10604773633E+03  0.00000000000E+00 0. -1.
         21    1    1    2  505  501  0.32109839632E+02 -0.28800699894E+02 -0.83881201767E+02  0.94321673679E+02  0.00000000000E+00 0. -1.
          1    1    1    2  501    0  0.83339404107E+02  0.37152097669E+02  0.74905264600E+03  0.75458969057E+03  0.00000000000E+00 0. -1.
<scales pt_clust_3="14000.00000" pt_clust_4="34.42671" pt_clust_5="42.89887" pt_clust_6="80.72024"></scales>
<clustering>
<clus scale="   34.427">  1  4  2 -1</clus>
<clus scale="   42.899">  2  5  1 -1</clus>
<clus scale="   80.720">  1  6  2 -1</clus>
<clus scale="   42.899">  2  3  1 -1</clus>
</clustering>
</event>
<event>
 6    0  0.2839294E+002  0.1879048E+03  0.7546771E-02  0.1160365E+00
         21   -1    0    0  505  502  0.00000000000E+00  0.00000000000E+00  0.28777248111E+04  0.28777248111E+04  0.00000000000E+00 0. -1.
         -1   -1    0    0    0  501 -0.00000000000E+00 -0.00000000000E+00 -0.96813033802E+02  0.96813033802E+02  0.00000000000E+00 0.  1.
         21    1    1    2  503  501  0.50926838571E+02 -0.66573493161E+02  0.10486063669E+03  0.13424353245E+03  0.00000000000E+00 0. -1.
         21    1    1    2  504  502 -0.52554653727E+02 -0.12061854813E+02  0.58435728843E+03  0.58683977414E+03  0.00000000000E+00 0. -1.
         21    1    1    2  505  503 -0.98245284012E+02  0.13700544133E+03  0.21260947247E+04  0.21327684837E+04  0.00000000000E+00 0. -1.
         -1    1    1    2    0  504  0.99873099168E+02 -0.58370093358E+02 -0.34400872536E+02  0.12068605457E+03  0.00000000000E+00 0.  1.
<scales pt_clust_3="82.69252" pt_clust_4="53.92105" pt_clust_5="187.90483" pt_clust_6="14000.00000"></scales>
<clustering>
<clus scale="   53.921">  1  4  2 -1</clus>
<clus scale="   82.693">  2  3  1 -1</clus>
<clus scale="  187.905">  1  5  2 -1</clus>
<clus scale="   53.921">  1  3  2 -1</clus>
</clustering>
</event>
<event>
 6    0  0.2839294E+002  0.9885454E+02  0.7546771E-02  0.1282723E+00
         21   -1    0    0  504  502  0.00000000000E+00  0.00000000000E+00  0.77567795682E+03  0.77567795682E+03  0.00000000000E+00 0. -1.
          2   -1    0    0  503    0 -0.00000000000E+00 -0.00000000000E+00 -0.62403041479E+03  0.62403041479E+03  0.00000000000E+00 0.  1.
         21    1    1    2  503  502 -0.50422672743E+02 -0.10575127765E+02 -0.42143988396E+03  0.42457726628E+03  0.00000000000E+00 0.  1.
         21    1    1    2  504  505 -0.34555506232E+02  0.15620686678E+02  0.61575007772E+03  0.61691672620E+03  0.00000000000E+00 0. -1.
         21    1    1    2  505  501  0.13694378392E+03 -0.22565733251E+02  0.12192000653E+03  0.18473575795E+03  0.00000000000E+00 0.  1.
          2    1    1    2  501    0 -0.51965604950E+02  0.17520174338E+02 -0.16458265826E+03  0.17347862118E+03  0.00000000000E+00 0.  1.
<scales pt_clust_3="51.82154" pt_clust_4="37.92214" pt_clust_5="14000.00000" pt_clust_6="98.85454"></scales>
<clustering>
<clus scale="   37.922">  1  4  2 -1</clus>
<clus scale="   51.822">  2  3  1 -1</clus>
<clus scale="   98.855">  2  6  1 -1</clus>
<clus scale="   37.922">  1  3  2 -1</clus>
</clustering>
</event>
<event>
 6    0  0.2839294E+002  0.1203945E+03  0.7546771E-02  0.1242448E+00
          1   -1    0    0  503    0 -0.00000000000E+00  0.00000000000E+00  0.13351498881E+04  0.13351498881E+04  0.00000000000E+00 0.  1.
         21   -1    0    0  501  502  0.00000000000E+00 -0.00000000000E+00 -0.10861468022E+04  0.10861468022E+04  0.00000000000E+00 0. -1.
         21    1    1    2  503  504 -0.36369086758E+02 -0.18621352561E+02  0.41069095887E+03  0.41271846207E+03  0.00000000000E+00 0.  1.
         21    1    1    2  504  505  0.36020335442E+02  0.40864315257E+02  0.13918432274E+03  0.14946448583E+03  0.00000000000E+00 0. -1.
         21    1    1    2  505  502  0.54303476095E+02 -0.10754918487E+03 -0.10733392285E+04  0.10800799943E+04  0.00000000000E+00 0. -1.
          1    1    1    2  501    0 -0.53954724779E+02  0.85306222179E+02  0.77246703276E+03  0.77903374803E+03  0.00000000000E+00 0.  1.
<scales pt_clust_3="40.85909" pt_clust_4="48.58800" pt_clust_5="120.39453" pt_clust_6="14000.00000"></scales>
<clustering>
<clus scale="   40.859">  1  3  2 -1</clus>
<clus scale="   48.588">  1  4  2 -1</clus>
<clus scale="  120.395">  2  5  1 -1</clus>
<clus scale="  120.395">  2  3  1 -1</clus>
</clustering>
</event>
<event>
 6    0  0.2839294E+002  0.1141655E+03  0.7546771E-02  0.1253045E+00
          2   -1    0    0  505    0 -0.00000000000E+00  0.00000000000E+00  0.17066179411E+04  0.17066179411E+04  0.00000000000E+00 0. -1.
         21   -1    0    0  503  502  0.00000000000E+00 -0.00000000000E+00 -0.33751309313E+03  0.33751309313E+03  0.00000000000E+00 0.  1.
         21    1    1    2  503  501  0.67919626053E+02 -0.92469150343E+02 -0.77151123199E+02  0.13826031672E+03  0.00000000000E+00 0.  1.
         21    1    1    2  504  502  0.32326557657E+02  0.37063870255E+02 -0.22196447708E+03  0.22734767625E+03  0.00000000000E+00 0.  1.
         21    1    1    2  505  504  0.22137792882E+02  0.32625860843E+02  0.14629345601E+03  0.15151337875E+03  0.00000000000E+00 0.  1.
          2    1    1    2  501    0 -0.12238397659E+03  0.22779419245E+02  0.15219269923E+04  0.15270096625E+04  0.00000000000E+00 0. -1.
<scales pt_clust_3="14000.00000" pt_clust_4="49.24828" pt_clust_5="39.42751" pt_clust_6="114.16550"></scales>
<clustering>
<clus scale="   39.428">  1  5  2 -1</clus>
<clus scale="   49.248">  2  4  1 -1</clus>
<clus scale="  114.166">  1  6  2 -1</clus>
<clus scale="   49.248">  2  3  1 -1</clus>
</clustering>
</event>
<event>
 6    0  0.2839294E+002  0.2239852E+03  0.7546771E-02  0.1130946E+00
          1   -1    0    0  503    0 -0.00000000000E+00  0.00000000000E+00  0.41964934185E+03  0.41964934185E+03  0.00000000000E+00 0.  1.
         21   -1    0    0  505  502  0.00000000000E+00 -0.00000000000E+00 -0.72706488409E+03  0.72706488409E+03  0.00000000000E+00 0. -1.
         21    1    1    2  503  504  0.23778475702E+02  0.50310724194E+02  0.78404984600E+02  0.96145340426E+02  0.00000000000E+00 0.  1.
         21    1    1    2  504  502  0.11264705913E+03 -0.19684358054E+03 -0.18847904880E+03  0.29489168684E+03  0.00000000000E+00 0.  1.
         21    1    1    2  505  501 -0.17206688345E+03  0.14802867439E+03 -0.44814580643E+03  0.50234864849E+03  0.00000000000E+00 0. -1.
          1    1    1    2  501    0  0.35641348620E+02 -0.14958180403E+01  0.25080432838E+03  0.25332855018E+03  0.00000000000E+00 0.  1.
<scales pt_clust_3="65.16189" pt_clust_4="223.98524" pt_clust_5="14000.00000" pt_clust_6="35.67272"></scales>
<clustering>
<clus scale="   35.673">  1  6  2 -1</clus>
<clus scale="   65.162">  1  3  2 -1</clus>
<clus scale="  223.985">  1  4  2 -1</clus>
<clus scale="  223.985">  2  3  1 -1</clus>
</clustering>
</event>
<event>
 6    0  0.2839294E+002  0.1289045E+03  0.7546771E-02  0.1229090E+00
         21   -1    0    0  503  502  0.00000000000E+00  0.00000000000E+00  0.70862813452E+03  0.70862813452E+03  0.00000000000E+00 0.  1.
          1   -1    0    0  505    0 -0.00000000000E+00 -0.00000000000E+00 -0.20908237289E+04  0.20908237289E+04  0.00000000000E+00 0.  1.
         21    1    1    2  503  501 -0.60429464662E+02 -0.20395050326E+02 -0.95795777132E+03  0.96007852278E+03  0.00000000000E+00 0.  1.
         21    1    1    2  504  502  0.63244739313E+02  0.56279772156E+01  0.56088984095E+03  0.56447230655E+03  0.00000000000E+00 0.  1.
         21    1    1    2  505  504  0.37634858679E+02  0.66397135032E+02  0.13380839992E+03  0.15404431186E+03  0.00000000000E+00 0. -1.
          1    1    1    2  501    0 -0.40450133330E+02 -0.51630061922E+02 -0.11189360640E+04  0.11208567222E+04  0.00000000000E+00 0.  1.
<scales pt_clust_3="37.40932" pt_clust_4="63.49465" pt_clust_5="123.19573" pt_clust_6="37.40932"></scales>
<clustering>
<clus scale="   37.409">  3  6 -1 -1</clus>
<clus scale="   63.495">  1  4  2 -1</clus>
<clus scale="  123.196">  1  5  2 -1</clus>
<clus scale="   63.495">  1  3  2 -1</clus>
</clustering>
</event>
<event>
 6    0  0.2839294E+002  0.1803714E+03  0.7546771E-02  0.1167444E+00
         21   -1    0    0  501  502  0.00000000000E+00  0.00000000000E+00  0.12729186847E+03  0.12729186847E+03  0.00000000000E+00 0. -1.
          2   -1    0    0  504    0 -0.00000000000E+00 -0.00000000000E+00 -0.10520753001E+04  0.10520753001E+04  0.00000000000E+00 0. -1.
         21    1    1    2  503  502 -0.74067465072E+02  0.25900382097E+02  0.40477162747E+02  0.88290542410E+02  0.00000000000E+00 0. -1.
         21    1    1    2  504  505  0.19010778264E+03  0.10033021156E+03 -0.54679139031E+03  0.58752697375E+03  0.00000000000E+00 0. -1.
         21    1    1    2  505  503  0.28270812269E+02 -0.12450801549E+03 -0.25710381485E+03  0.28706071894E+03  0.00000000000E+00 0. -1.
          2    1    1    2  501    0 -0.14431112984E+03 -0.17225781676E+01 -0.16136538919E+03  0.21648893344E+03  0.00000000000E+00 0. -1.
<scales pt_clust_3="78.46540" pt_clust_4="14000.00000" pt_clust_5="118.81805" pt_clust_6="180.37145"></scales>
<clustering>
<clus scale="   78.465">  1  3  2 -1</clus>
<clus scale="  118.818">  1  5  2 -1</clus>
<clus scale="  180.371">  1  6  2 -1</clus>
<clus scale="   78.465">  1  3  2 -1</clus>
</clustering>
</event>
<event>
 6    0  0.2839294E+002  0.9292878E+02  0.7546771E-02  0.1295910E+00
         21   -1    0    0  501  502  0.00000000000E+00  0.00000000000E+00  0.14032430783E+04  0.14032430783E+04  0.00000000000E+00 0. -1.
          2   -1    0    0  504    0 -0.00000000000E+00 -0.00000000000E+00 -0.12345549313E+04  0.12345549313E+04  0.00000000000E+00 0.  1.
         21    1    1    2  503  505 -0.96520936149E+02 -0.60569729073E+02  0.41775264504E+03  0.43301530646E+03  0.00000000000E+00 0.  1.
         21    1    1    2  504  503 -0.34207998420E+02 -0.23217413732E+01 -0.21873495281E+03  0.22140586537E+03  0.00000000000E+00 0.  1.
         21    1    1    2  505  502  0.48188300343E+02  0.75400509885E+02  0.97273600124E+03  0.97684322042E+03  0.00000000000E+00 0. -1.
          2    1    1    2  501    0  0.82540634226E+02 -0.12509039439E+02 -0.10030655464E+04  0.10065336173E+04  0.00000000000E+00 0.  1.
<scales pt_clust_3="92.92878" pt_clust_4="34.28670" pt_clust_5="14000.00000" pt_clust_6="50.86269"></scales>
<clustering>
<clus scale="   34.287">  2  4  1 -1</clus>
<clus scale="   50.863">  2  6  1 -1</clus>
<clus scale="   92.929">  2  3  1 -1</clus>
<clus scale="   92.929">  1  3  2 -1</clus>
</clustering>
</event>
<event>
 6    0  0.2839294E+002  0.1152577E+03  0.7546771E-02  0.1251132E+00
          2   -1    0    0  504    0 -0.00000000000E+00  0.00000000000E+00  0.11192201498E+04  0.11192201498E+04  0.00000000000E+00 0.  1.
         21   -1    0    0  505  502  0.00000000000E+00 -0.00000000000E+00 -0.15218743251E+03  0.15218743251E+03  0.00000000000E+00 0.  1.
         21    1    1    2  503  501 -0.16153168701E+02 -0.77660025836E+02 -0.12751181494E+02  0.80340507226E+02  0.00000000000E+00 0.  1.
         21    1    1    2  504  502  0.40565546281E+02  0.54637735115E+02  0.35197356959E+03  0.35849161682E+03  0.00000000000E+00 0. -1.
         21    1    1    2  505  503 -0.66273817633E+01 -0.47017397121E+02 -0.94977058758E+02  0.10618474237E+03  0.00000000000E+00 0.  1.
          2    1    1    2  501    0 -0.17784995817E+02  0.70039687842E+02  0.72278738799E+03  0.72639071592E+03  0.00000000000E+00 0.  1.
<scales pt_clust_3="115.25771" pt_clust_4="65.43255" pt_clust_5="47.48218" pt_clust_6="14000.00000"></scales>
<clustering>
<clus scale="   47.482">  2  5  1 -1</clus>
<clus scale="   65.433">  1  4  2 -1</clus>
<clus scale="  115.258">  2  3  1 -1</clus>
<clus scale="   47.482">  2  3  1 -1</clus>
</clustering>
</event>
<event>
 6    0  0.2839294E+002  0.1127841E+03  0.7546771E-02  0.1255499E+00
         -3   -1    0    0    0  501 -0.00000000000E+00  0.00000000000E+00  0.13039449606E+04  0.13039449606E+04  0.00000000000E+00 0. -1.
         21   -1    0    0  504  502  0.00000000000E+00 -0.00000000000E+00 -0.13258516330E+03  0.13258516330E+03  0.00000000000E+00 0.  1.
         21    1    1    2  503  502  0.25335906934E+02  0.37393457287E+02  0.13475613695E+02  0.47135665822E+02  0.00000000000E+00 0.  1.
         21    1    1    2  504  505  0.41502635832E+02  0.57573938160E+02 -0.10075712017E+03  0.12324457148E+03  0.00000000000E+00 0.  1.
         21    1    1    2  505  501 -0.44006202479E+02 -0.46484987121E+01  0.36880920884E+03  0.37145442106E+03  0.00000000000E+00 0. -1.
         -3    1    1    2    0  503 -0.22832340287E+02 -0.90318896735E+02  0.88983209494E+03  0.89469546554E+03  0.00000000000E+00 0. -1.
<scales pt_clust_3="44.25597" pt_clust_4="14000.00000" pt_clust_5="44.25104" pt_clust_6="112.78411"></scales>
<clustering>
<clus scale="   44.251">  1  5  2 -1</clus>
<clus scale="   44.256">  2  3  1 -1</clus>
<clus scale="  112.784">  1  6  2 -1</clus>
<clus scale="   44.256">  2  3  1 -1</clus>
</clustering>
</event>
<event>
 6    0  0.2839294E+002  0.2890994E+03  0.7546771E-02  0.1090820E+00
         21   -1    0    0  505  502  0.00000000000E+00  0.00000000000E+00  0.54115592491E+02  0.54115592491E+02  0.00000000000E+00 0. -1.
          2   -1    0    0  504    0 -0.00000000000E+00 -0.00000000000E+00 -0.23247418526E+04  0.23247418526E+04  0.00000000000E+00 0.  1.
         21    1    1    2  503  501  0.32770712608E+02 -0.29439084817E+02 -0.15357279228E+03  0.15976602219E+03  0.00000000000E+00 0.  1.
         21    1    1    2  504  502  0.76075245049E+02 -0.69321209582E+01 -0.67435399797E+02  0.10189715578E+03  0.00000000000E+00 0. -1.
         21    1    1    2  505  503 -0.10761602271E+03  0.27188109011E+03 -0.10276742684E+04  0.10684638213E+04  0.00000000000E+00 0. -1.
          2    1    1    2  501    0 -0.12299349471E+01 -0.23550988434E+03 -0.10219437996E+04  0.10487304458E+04  0.00000000000E+00 0.  1.
<scales pt_clust_3="37.28368" pt_clust_4="76.39043" pt_clust_5="275.94706" pt_clust_6="37.28368"></scales>
<clustering>
<clus scale="   37.284">  3  6 -1 -1</clus>
<clus scale="   76.390">  1  4  2 -1</clus>
<clus scale="  275.947">  1  5  2 -1</clus>
<clus scale="   76.390">  1  3  2 -1</clus>
</clustering>
</event>
<event>
 6    0  0.2839294E+002  0.1303239E+03  0.7546771E-02  0.1226976E+00
          1   -1    0    0  504    0 -0.00000000000E+00  0.00000000000E+00  0.32965965827E+03  0.32965965827E+03  0.00000000000E+00 0. -1.
         21   -1    0    0  505  502  0.00000000000E+00 -0.00000000000E+00 -0.53296498863E+03  0.53296498863E+03  0.00000000000E+00 0.  1.
         21    1    1    2  503  502  0.57819280033E+01 -0.34113564081E+02 -0.19519351121E+03  0.19823640626E+03  0.00000000000E+00 0.  1.
         21    1    1    2  504  503  0.11405857005E+03  0.61709126517E+02 -0.30976764297E+03  0.33581745983E+03  0.00000000000E+00 0.  1.
         21    1    1    2  505  501 -0.58860638547E+02 -0.11861857420E+02  0.93696240921E+02  0.11128460808E+03  0.00000000000E+00 0. -1.
          1    1    1    2  501    0 -0.60979859511E+02 -0.15733705017E+02  0.20795958290E+03  0.21728617273E+03  0.00000000000E+00 0. -1.
<scales pt_clust_3="34.60009" pt_clust_4="123.06529" pt_clust_5="41.87412" pt_clust_6="41.87412"></scales>
<clustering>
<clus scale="   34.600">  2  3  1 -1</clus>
<clus scale="   41.874">  5  6 -1 -1</clus>
<clus scale="  123.065">  2  4  1 -1</clus>
<clus scale="   34.600">  2  3  1 -1</clus>
</clustering>
</event>
<event>
 6    0  0.2839294E+002  0.1401585E+03  0.7546771E-02  0.1213116E+00
          2   -1    0    0  503    0 -0.00000000000E+00  0.00000000000E+00  0.29488712717E+04  0.29488712717E+04  0.00000000000E+00 0. -1.
         21   -1    0    0  504  502  0.00000000000E+00 -0.00000000000E+00 -0.37363280252E+02  0.37363280252E+02  0.00000000000E+00 0. -1.
         21    1    1    2  503  502 -0.38829451498E+02 -0.15812414325E+03  0.21150063502E+03  0.26691476091E+03  0.00000000000E+00 0. -1.
         21    1    1    2  504  505  0.34963543970E+02  0.56563230043E+01  0.40143282198E+02  0.53534348809E+02  0.00000000000E+00 0.  1.
         21    1    1    2  505  501  0.39739672116E+02  0.82065002022E+02  0.10377562438E+04  0.10417542549E+04  0.00000000000E+00 0. -1.
          2    1    1    2  501    0 -0.35873764587E+02  0.70402818221E+02  0.16221078305E+04  0.16240311874E+04  0.00000000000E+00 0. -1.
<scales pt_clust_3="14000.00000" pt_clust_4="35.41812" pt_clust_5="140.15845" pt_clust_6="78.68309"></scales>
<clustering>
<clus scale="   35.418">  2  4  1 -1</clus>
<clus scale="   78.683">  1  6  2 -1</clus>
<clus scale="  140.158">  1  5  2 -1</clus>
<clus scale="   35.418">  2  3  1 -1</clus>
</clustering>
</event>
<event>
 6    0  0.2839294E+002  0.1867799E+03  0.7546771E-02  0.1161398E+00
          2   -1    0    0  505    0 -0.00000000000E+00  0.00000000000E+00  0.12469057114E+04  0.12469057114E+04  0.00000000000E+00 0. -1.
         21   -1    0    0  504  502  0.00000000000E+00 -0.00000000000E+00 -0.77890335335E+02  0.77890335335E+02  0.00000000000E+00 0. -1.
         21    1    1    2  503  501  0.67904231958E+02 -0.16994221742E+03  0.52341216409E+03  0.55448321480E+03  0.00000000000E+00 0. -1.
         21    1    1    2  504  503  0.27147196225E+02 -0.19149419878E+02  0.59222995889E+01  0.33745283774E+02  0.00000000000E+00 0.  1.
         21    1    1    2  505  502 -0.55593687103E+02  0.19767731891E+03  0.17403780211E+03  0.26917677653E+03  0.00000000000E+00 0. -1.
          2    1    1    2  501    0 -0.39457741081E+02 -0.85856816181E+01  0.46564311025E+03  0.46739077161E+03  0.00000000000E+00 0. -1.
<scales pt_clust_3="186.77989" pt_clust_4="33.22154" pt_clust_5="14000.00000" pt_clust_6="40.07573"></scales>
<clustering>
<clus scale="   33.222">  2  4  1 -1</clus>
<clus scale="   40.076">  1  6  2 -1</clus>
<clus scale="  186.780">  1  3  2 -1</clus>
<clus scale="   33.222">  2  3  1 -1</clus>
</clustering>
</event>
<event>
 6    0  0.2839294E+002  0.1089145E+03  0.7546771E-02  0.1262593E+00
          2   -1    0    0  502    0 -0.00000000000E+00  0.00000000000E+00  0.13026868151E+04  0.13026868151E+04  0.00000000000E+00 0.  1.
         21   -1    0    0  503  502  0.00000000000E+00 -0.00000000000E+00 -0.11740484984E+03  0.11740484984E+03  0.00000000000E+00 0. -1.
         21    1    1    2  503  504  0.35143335740E+02  0.26474504015E+01 -0.82218727601E+02  0.89453799298E+02  0.00000000000E+00 0. -1.
         21    1    1    2  504  505 -0.14485745769E+03  0.20341081075E+02  0.21719977298E+03  0.26186482011E+03  0.00000000000E+00 0.  1.
         21    1    1    2  505  501  0.81017369488E+02 -0.82456309457E+01  0.17654899272E+03  0.19442569639E+03  0.00000000000E+00 0. -1.
          2    1    1    2  501    0  0.28696752463E+02 -0.14742900530E+02  0.87375192719E+03  0.87434734916E+03  0.00000000000E+00 0.  1.
<scales pt_clust_3="35.47536" pt_clust_4="14000.00000" pt_clust_5="108.91446" pt_clust_6="32.26231"></scales>
<clustering>
<clus scale="   32.262">  1  6  2 -1</clus>
<clus scale="   35.475">  2  3  1 -1</clus>
<clus scale="  108.914">  1  5  2 -1</clus>
<clus scale="   35.475">  2  3  1 -1</clus>
</clustering>
</event>
<event>
 6    0  0.2839294E+002  0.7647710E+02  0.7546771E-02  0.1339357E+00
          2   -1    0    0  505    0 -0.00000000000E+00  0.00000000000E+00  0.31083070209E+04  0.31083070209E+04  0.00000000000E+00 0.  1.
         21   -1    0    0  504  502  0.00000000000E+00 -0.00000000000E+00 -0.23258575828E+02  0.23258575828E+02  0.00000000000E+00 0. -1.
         21    1    1    2  503  502  0.99175387591E+02 -0.22118536304E+02  0.23366807736E+03  0.25480533262E+03  0.00000000000E+00 0. -1.
         21    1    1    2  504  501 -0.22608941302E+02  0.27965029392E+02  0.19949419780E+02  0.41124037317E+02  0.00000000000E+00 0. -1.
         21    1    1    2  505  503 -0.30343286680E+02 -0.67701548505E+02  0.16650392466E+04  0.16666913054E+04  0.00000000000E+00 0.  1.
          2    1    1    2  501    0 -0.46223159610E+02  0.61855055416E+02  0.11663917013E+04  0.11689449214E+04  0.00000000000E+00 0.  1.
<scales pt_clust_3="14000.00000" pt_clust_4="35.96119" pt_clust_5="73.15949" pt_clust_6="76.47710"></scales>
<clustering>
<clus scale="   35.961">  2  4  1 -1</clus>
<clus scale="   73.159">  1  5  2 -1</clus>
<clus scale="   76.477">  1  6  2 -1</clus>
<clus scale="   35.961">  2  3  1 -1</clus>
</clustering>
</event>
<event>
 6    0  0.2839294E+002  0.1279270E+03  0.7546771E-02  0.1230565E+00
          2   -1    0    0  503    0 -0.00000000000E+00  0.00000000000E+00  0.79141819288E+03  0.79141819288E+03  0.00000000000E+00 0.  1.
         21   -1    0    0  504  502  0.00000000000E+00 -0.00000000000E+00 -0.28458009278E+03  0.28458009278E+03  0.00000000000E+00 0. -1.
         21    1    1    2  503  502 -0.27599347083E+02  0.52088999675E+02 -0.16600533239E+02  0.61241861095E+02  0.00000000000E+00 0.  1.
         21    1    1    2  504  505  0.74077960132E+02 -0.27412226613E+02 -0.20715353544E+03  0.22170151463E+03  0.00000000000E+00 0. -1.
         21    1    1    2  505  501  0.42268431385E+02  0.82352933074E+02  0.65032336371E+02  0.11312749733E+03  0.00000000000E+00 0. -1.
          2    1    1    2  501    0 -0.88747044433E+02 -0.10702970613E+03  0.66555983241E+03  0.67992741261E+03  0.00000000000E+00 0.  1.
<scales pt_clust_3="58.94903" pt_clust_4="53.14797" pt_clust_5="127.92696" pt_clust_6="14000.00000"></scales>
<clustering>
<clus scale="   58.949">  2  3  1 -1</clus>
<clus scale="   53.148">  2  4  1 -1</clus>
<clus scale="  127.927">  2  5  1 -1</clus>
<clus scale="   58.949">  2  3  1 -1</clus>
</clustering>
</event>
<event>
 6    0  0.2839294E+002  0.1213982E+03  0.7546771E-02  0.1240808E+00
          1   -1    0    0  503    0 -0.00000000000E+00  0.00000000000E+00  0.15826043279E+04  0.15826043279E+04  0.00000000000E+00 0. -1.
         21   -1    0    0  501  502  0.00000000000E+00 -0.00000000000E+00 -0.41029815724E+02  0.41029815724E+02  0.00000000000E+00 0. -1.
         21    1    1    2  503  505  0.41535988234E+01  0.57305986471E+02  0.33635884362E+03  0.34123086048E+03  0.00000000000E+00 0. -1.
         21    1    1    2  504  502 -0.24449355719E+02 -0.47262886554E+02  0.78019471648E+02  0.94438283533E+02  0.00000000000E+00 0. -1.
         21    1    1    2  505  504 -0.83701109590E+02 -0.32443390575E+02  0.44751452954E+02  0.10030524353E+03  0.00000000000E+00 0. -1.
          1    1    1    2  501    0  0.10399686649E+03  0.22400290658E+02  0.10824447440E+04  0.10876597561E+04  0.00000000000E+00 0. -1.
<scales pt_clust_3="53.84884" pt_clust_4="53.21232" pt_clust_5="14000.00000" pt_clust_6="121.39817"></scales>
<clustering>
<clus scale="   53.212">  2  4  1 -1</clus>
<clus scale="   53.849">  1  3  2 -1</clus>
<clus scale="  121.398">  1  6  2 -1</clus>
<clus scale="   53.212">  2  3  1 -1</clus>
</clustering>
</event>
<event>
 6    0  0.2839294E+002  0.1473451E+03  0.7546771E-02  0.1203774E+00
          1   -1    0    0  503    0 -0.00000000000E+00  0.00000000000E+00  0.14014935401E+04  0.14014935401E+04  0.00000000000E+00 0. -1.
         21   -1    0    0  504  502  0.00000000000E+00 -0.00000000000E+00 -0.27097084989E+03  0.27097084989E+03  0.00000000000E+00 0.  1.
         21    1    1    2  503  505  0.12643312893E+02  0.11342445534E+03  0.34781979883E+03  0.36606498452E+03  0.00000000000E+00 0.  1.
         21    1    1    2  504  501 -0.19978609858E+02  0.38577942167E+02 -0.11717808538E+03  0.12497242162E+03  0.00000000000E+00 0.  1.
         21    1    1    2  505  502  0.25900530921E+02  0.20834658021E+02 -0.13143017827E+03  0.13556847804E+03  0.00000000000E+00 0.  1.
          1    1    1    2  501    0 -0.18565233956E+02 -0.17283705553E+03  0.10313111551E+04  0.10458585058E+04  0.00000000000E+00 0. -1.
<scales pt_clust_3="14000.00000" pt_clust_4="56.99808" pt_clust_5="33.24034" pt_clust_6="147.34512"></scales>
<clustering>
<clus scale="   33.240">  2  5  1 -1</clus>
<clus scale="   56.998">  2  4  1 -1</clus>
<clus scale="  147.345">  1  6  2 -1</clus>
<clus scale="   33.240">  2  3  1 -1</clus>
</clustering>
</event>
<event>
 6    0  0.2839294E+002  0.7668946E+02  0.7546771E-02  0.1338718E+00
          2   -1    0    0  504    0 -0.00000000000E+00  0.00000000000E+00  0.75423227356E+03  0.75423227356E+03  0.00000000000E+00 0.  1.
         21   -1    0    0  505  502  0.00000000000E+00 -0.00000000000E+00 -0.48889374704E+02  0.48889374704E+02  0.00000000000E+00 0.  1.
         21    1    1    2  503  502 -0.13997032171E+02  0.57402522146E+02  0.11090087320E+02  0.60116191621E+02  0.00000000000E+00 0.  1.
         21    1    1    2  504  503  0.12354099993E+02  0.31289339319E+02  0.22709952863E+03  0.22957753036E+03  0.00000000000E+00 0.  1.
         21    1    1    2  505  501 -0.61627952385E+02 -0.89168235026E+02  0.12490068175E+03  0.16537581127E+03  0.00000000000E+00 0.  1.
          2    1    1    2  501    0  0.63270884564E+02  0.47637356087E+00  0.34225260115E+03  0.34805211501E+03  0.00000000000E+00 0.  1.
<scales pt_clust_3="60.95843" pt_clust_4="33.63995" pt_clust_5="76.68946" pt_clust_6="14000.00000"></scales>
<clustering>
<clus scale="   33.640">  1  4  2 -1</clus>
<clus scale="   60.958">  2  3  1 -1</clus>
<clus scale="   76.689">  2  5  1 -1</clus>
<clus scale="   60.958">  2  3  1 -1</clus>
</clustering>
</event>
<event>
 6    0  0.2839294E+002  0.8732233E+02  0.7546771E-02  0.1309469E+00
         21   -1    0    0  504  502  0.00000000000E+00  0.00000000000E+00  0.23195822915E+03  0.23195822915E+03  0.00000000000E+00 0. -1.
          1   -1    0    0  505    0 -0.00000000000E+00 -0.00000000000E+00 -0.54558975980E+03  0.54558975980E+03  0.00000000000E+00 0.  1.
         21    1    1    2  503  502 -0.12881080534E+02 -0.38582609567E+02  0.17914402253E+03  0.18370389436E+03  0.00000000000E+00 0. -1.
         21    1    1    2  504  501  0.21167458303E+02 -0.27733326864E+02 -0.67283991088E-01  0.34888439877E+02  0.00000000000E+00 0. -1.
         21    1    1    2  505  503  0.44924238903E+02  0.12743225194E+03 -0.13069947765E+03  0.18798808349E+03  0.00000000000E+00 0. -1.
          1    1    1    2  501    0 -0.53210616672E+02 -0.61116315507E+02 -0.36200879153E+03  0.37096757122E+03  0.00000000000E+00 0.  1.
<scales pt_clust_3="62.23688" pt_clust_4="34.88837" pt_clust_5="87.32233" pt_clust_6="14000.00000"></scales>
<clustering>
<clus scale="   34.888">  1  4  2 -1</clus>
<clus scale="   62.237">  1  3  2 -1</clus>
<clus scale="   87.322">  1  5  2 -1</clus>
<clus scale="   34.888">  1  3  2 -1</clus>
</clustering>
</event>
<event>
 6    0  0.2839294E+002  0.2527827E+03  0.7546771E-02  0.1111559E+00
         21   -1    0    0  504  502  0.00000000000E+00  0.00000000000E+00  0.18998170665E+04  0.18998170665E+04  0.00000000000E+00 0.  1.
         -3   -1    0    0    0  501 -0.00000000000E+00 -0.00000000000E+00 -0.11633770218E+03  0.11633770218E+03  0.00000000000E+00 0.  1.
         21    1    1    2  503  502 -0.11076260120E+03  0.26042937723E+02  0.10434351031E+04  0.10496205995E+04  0.00000000000E+00 0.  1.
         21    1    1    2  504  501  0.32682405849E+03 -0.30231558703E+01  0.63192544118E+03  0.71144421277E+03  0.00000000000E+00 0.  1.
         21    1    1    2  505  503 -0.74120231631E+02  0.19314720511E+02  0.65973157604E+02  0.10109067558E+03  0.00000000000E+00 0.  1.
         -3    1    1    2    0  505 -0.14194122567E+03 -0.42334502363E+02  0.42145662390E+02  0.15399928082E+03  0.00000000000E+00 0.  1.
<scales pt_clust_3="113.78308" pt_clust_4="240.27139" pt_clust_5="56.47979" pt_clust_6="56.47979"></scales>
<clustering>
<clus scale="   56.480">  5  6 -1 -1</clus>
<clus scale="  113.783">  1  3  2 -1</clus>
<clus scale="  240.271">  1  4  2 -1</clus>
<clus scale="  113.783">  1  3  2 -1</clus>
</clustering>
</event>
<event>
 6    0  0.2839294E+002  0.2414013E+03  0.7546771E-02  0.1118863E+00
         21   -1    0    0  505  502  0.00000000000E+00  0.00000000000E+00  0.11685568648E+04  0.11685568648E+04  0.00000000000E+00 0. -1.
          1   -1    0    0  504    0 -0.00000000000E+00 -0.00000000000E+00 -0.33256129098E+03  0.33256129098E+03  0.00000000000E+00 0.  1.
         21    1    1    2  503  501  0.27078933657E+02 -0.74225240338E+02 -0.38241120757E+02  0.87778347375E+02  0.00000000000E+00 0. -1.
         21    1    1    2  504  502  0.12305091565E+02  0.24699990197E+03  0.42854948140E+03  0.49478785844E+03  0.00000000000E+00 0. -1.
         21    1    1    2  505  503  0.21288863186E+01 -0.31800067125E+02  0.65886060347E+03  0.65963101143E+03  0.00000000000E+00 0. -1.
          1    1    1    2  501    0 -0.41512911541E+02 -0.14097459450E+03 -0.21317339026E+03  0.25892093858E+03  0.00000000000E+00 0.  1.
<scales pt_clust_3="75.39340" pt_clust_4="218.63839" pt_clust_5="31.87125" pt_clust_6="75.39340"></scales>
<clustering>
<clus scale="   31.871">  1  5  2 -1</clus>
<clus scale="   75.393">  3  6 -1 -1</clus>
<clus scale="  218.638">  1  4  2 -1</clus>
<clus scale="   31.871">  1  3  2 -1</clus>
</clustering>
</event>
<event>
 6    0  0.2839294E+002  0.1341867E+03  0.7546771E-02  0.1221372E+00
          2   -1    0    0  503    0 -0.00000000000E+00  0.00000000000E+00  0.65601490614E+02  0.65601490614E+02  0.00000000000E+00 0. -1.
         21   -1    0    0  505  502  0.00000000000E+00 -0.00000000000E+00 -0.98599011732E+03  0.98599011732E+03  0.00000000000E+00 0. -1.
         21    1    1    2  503  504  0.28641958935E+02 -0.11642890352E+02 -0.28659408336E+02  0.42157803472E+02  0.00000000000E+00 0. -1.
         21    1    1    2  504  502 -0.15016596998E+02 -0.27770717827E+02 -0.89173097350E+02  0.94596787710E+02  0.00000000000E+00 0. -1.
         21    1    1    2  505  501 -0.10441903956E+03 -0.45312865989E+02 -0.78044037644E+03  0.78869751668E+03  0.00000000000E+00 0. -1.
          2    1    1    2  501    0  0.90793677619E+02  0.84726474168E+02 -0.22115744586E+02  0.12613950007E+03  0.00000000000E+00 0. -1.
<scales pt_clust_3="30.91794" pt_clust_4="31.44679" pt_clust_5="14000.00000" pt_clust_6="134.18669"></scales>
<clustering>
<clus scale="   30.918">  1  3  2 -1</clus>
<clus scale="   31.447">  2  4  1 -1</clus>
<clus scale="  134.187">  1  6  2 -1</clus>
<clus scale="   31.447">  2  3  1 -1</clus>
</clustering>
</event>
<event>
 6    0  0.2839294E+002  0.7855370E+02  0.7546771E-02  0.1333207E+00
         21   -1    0    0  501  502  0.00000000000E+00  0.00000000000E+00  0.33289098476E+03  0.33289098476E+03  0.00000000000E+00 0.  1.
          2   -1    0    0  503    0 -0.00000000000E+00 -0.00000000000E+00 -0.10093530695E+03  0.10093530695E+03  0.00000000000E+00 0.  1.
         21    1    1    2  503  505 -0.29593021533E+02 -0.16884107397E+02 -0.44361842048E+02  0.55935615093E+02  0.00000000000E+00 0. -1.
         21    1    1    2  504  502 -0.27736583325E+02 -0.33010400518E+02  0.10456097055E+03  0.11310172925E+03  0.00000000000E+00 0.  1.
         21    1    1    2  505  504  0.11009972797E+03  0.51134998434E+02  0.17376112950E+03  0.21196619610E+03  0.00000000000E+00 0.  1.
          2    1    1    2  501    0 -0.52770123109E+02 -0.12404905185E+01 -0.20045801858E+01  0.52822751267E+02  0.00000000000E+00 0.  1.
<scales pt_clust_3="34.07081" pt_clust_4="45.81459" pt_clust_5="14000.00000" pt_clust_6="78.55370"></scales>
<clustering>
<clus scale="   34.071">  2  3  1 -1</clus>
<clus scale="   45.815">  1  4  2 -1</clus>
<clus scale="   78.554">  2  6  1 -1</clus>
<clus scale="   45.815">  1  3  2 -1</clus>
</clustering>
</event>
<event>
 6    0  0.2839294E+002  0.9569673E+02  0.7546771E-02  0.1289615E+00
         21   -1    0    0  505  502  0.00000000000E+00  0.00000000000E+00  0.29795717446E+03  0.29795717446E+03  0.00000000000E+00 0. -1.
          2   -1    0    0  503    0 -0.00000000000E+00 -0.00000000000E+00 -0.20129549676E+03  0.20129549676E+03  0.00000000000E+00 0.  1.
         21    1    1    2  503  504  0.16134685927E+02 -0.39427219793E+02 -0.20266410179E+02  0.47175853274E+02  0.00000000000E+00 0.  1.
         21    1    1    2  504  502  0.38678982098E+02  0.83273561620E+02 -0.14416027985E+02  0.92942840412E+02  0.00000000000E+00 0.  1.
         21    1    1    2  505  501 -0.10260888421E+03 -0.16550873446E+02  0.22649895526E+03  0.24920732587E+03  0.00000000000E+00 0. -1.
          2    1    1    2  501    0  0.47795216185E+02 -0.27295468381E+02 -0.95154839402E+02  0.10992665166E+03  0.00000000000E+00 0.  1.
<scales pt_clust_3="42.60087" pt_clust_4="95.69673" pt_clust_5="14000.00000" pt_clust_6="77.26441"></scales>
<clustering>
<clus scale="   42.601">  2  3  1 -1</clus>
<clus scale="   77.264">  2  6  1 -1</clus>
<clus scale="   95.697">  2  4  1 -1</clus>
<clus scale="   95.697">  1  3  2 -1</clus>
</clustering>
</event>
<event>
 6    0  0.2839294E+002  0.2685640E+03  0.7546771E-02  0.1102104E+00
         21   -1    0    0  505  502  0.00000000000E+00  0.00000000000E+00  0.67197671503E+03  0.67197671503E+03  0.00000000000E+00 0.  1.
          2   -1    0    0  504    0 -0.00000000000E+00 -0.00000000000E+00 -0.48528945191E+03  0.48528945191E+03  0.00000000000E+00 0.  1.
         21    1    1    2  503  502  0.26669626731E+03  0.11361818329E+03 -0.12646796856E+03  0.31627541423E+03  0.00000000000E+00 0.  1.
         21    1    1    2  504  503 -0.30078900460E+02  0.22506629716E+02 -0.43663741588E+02  0.57600442390E+02  0.00000000000E+00 0. -1.
         21    1    1    2  505  501 -0.65238349554E+02  0.62465145304E+02  0.48365822295E+03  0.49201952528E+03  0.00000000000E+00 0.  1.
          2    1    1    2  501    0 -0.17137901730E+03 -0.19858995831E+03 -0.12683924969E+03  0.29137078504E+03  0.00000000000E+00 0.  1.
<scales pt_clust_3="14000.00000" pt_clust_4="37.56712" pt_clust_5="90.67998" pt_clust_6="268.56397"></scales>
<clustering>
<clus scale="   37.567">  2  4  1 -1</clus>
<clus scale="   90.680">  1  5  2 -1</clus>
<clus scale="  268.564">  2  6  1 -1</clus>
<clus scale="   90.680">  1  3  2 -1</clus>
</clustering>
</event>
<event>
 6    0  0.2839294E+002  0.1286055E+03  0.7546771E-02  0.1229540E+00
          2   -1    0    0  504    0 -0.00000000000E+00  0.00000000000E+00  0.24106153779E+04  0.24106153779E+04  0.00000000000E+00 0. -1.
         21   -1    0    0  503  502  0.00000000000E+00 -0.00000000000E+00 -0.93203241351E+02  0.93203241351E+02  0.00000000000E+00 0. -1.
         21    1    1    2  503  501 -0.41312948279E+02 -0.84441215399E+01  0.48872276715E+03  0.49053848576E+03  0.00000000000E+00 0. -1.
         21    1    1    2  504  505  0.13342154943E+03  0.60875903277E+02  0.72899166938E+02  0.16377262895E+03  0.00000000000E+00 0. -1.
         21    1    1    2  505  502 -0.41739602440E+02  0.88148707992E+01 -0.36087097480E+02  0.55876425830E+02  0.00000000000E+00 0. -1.
          2    1    1    2  501    0 -0.50368998708E+02 -0.61246652537E+02  0.17918772999E+04  0.17936310787E+04  0.00000000000E+00 0. -1.
<scales pt_clust_3="40.15020" pt_clust_4="116.22312" pt_clust_5="42.66024" pt_clust_6="40.15020"></scales>
<clustering>
<clus scale="   40.150">  3  6 -1 -1</clus>
<clus scale="   42.660">  2  5  1 -1</clus>
<clus scale="  116.223">  2  4  1 -1</clus>
<clus scale="   42.660">  2  3  1 -1</clus>
</clustering>
</event>
<event>
 6    0  0.2839294E+002  0.8588513E+02  0.7546771E-02  0.1313134E+00
         21   -1    0    0  504  502  0.00000000000E+00  0.00000000000E+00  0.12578540280E+04  0.12578540280E+04  0.00000000000E+00 0.  1.
          3   -1    0    0  503    0 -0.00000000000E+00 -0.00000000000E+00 -0.11939896300E+03  0.11939896300E+03  0.00000000000E+00 0.  1.
         21    1    1    2  503  505 -0.28418897542E+02 -0.69949615057E+02  0.24703527124E+02  0.79440837335E+02  0.00000000000E+00 0.  1.
         21    1    1    2  504  501  0.24990350014E+02 -0.22757991969E+02  0.82991489944E+03  0.83060290398E+03  0.00000000000E+00 0.  1.
         21    1    1    2  505  502 -0.67468021926E+01 -0.64148969997E+02  0.30215132838E+03  0.30895960081E+03  0.00000000000E+00 0.  1.
          3    1    1    2  501    0  0.10175349721E+02  0.15685657702E+03 -0.18314689961E+02  0.15824964886E+03  0.00000000000E+00 0.  1.
<scales pt_clust_3="77.02126" pt_clust_4="33.80006" pt_clust_5="14000.00000" pt_clust_6="85.88513"></scales>
<clustering>
<clus scale="   33.800">  1  4  2 -1</clus>
<clus scale="   77.021">  2  3  1 -1</clus>
<clus scale="   85.885">  2  6  1 -1</clus>
<clus scale="   33.800">  1  3  2 -1</clus>
</clustering>
</event>
<event>
 6    0  0.2839294E+002  0.7180801E+02  0.7546771E-02  0.1354051E+00
          1   -1    0    0  505    0 -0.00000000000E+00  0.00000000000E+00  0.34023856497E+04  0.34023856497E+04  0.00000000000E+00 0. -1.
         21   -1    0    0  504  502  0.00000000000E+00 -0.00000000000E+00 -0.58110964861E+03  0.58110964861E+03  0.00000000000E+00 0.  1.
         21    1    1    2  503  502  0.20433279304E+02  0.35308121830E+02 -0.21384274570E+03  0.21769910946E+03  0.00000000000E+00 0.  1.
         21    1    1    2  504  501 -0.92006550106E+02 -0.39874636048E+02 -0.35729528494E+03  0.37109986864E+03  0.00000000000E+00 0.  1.
         21    1    1    2  505  503 -0.10178923337E+02  0.28674875018E+02  0.43928939287E+03  0.44034194625E+03  0.00000000000E+00 0. -1.
          1    1    1    2  501    0  0.81752194139E+02 -0.24108360799E+02  0.29531246388E+04  0.29543543739E+04  0.00000000000E+00 0. -1.
<scales pt_clust_3="40.80723" pt_clust_4="14000.00000" pt_clust_5="30.42793" pt_clust_6="71.80801"></scales>
<clustering>
<clus scale="   30.428">  1  5  2 -1</clus>
<clus scale="   40.807">  2  3  1 -1</clus>
<clus scale="   71.808">  1  6  2 -1</clus>
<clus scale="   40.807">  2  3  1 -1</clus>
</clustering>
</event>
<event>
 6    0  0.2839294E+002  0.1126299E+03  0.7546771E-02  0.1255776E+00
         21   -1    0    0  504  502  0.00000000000E+00  0.00000000000E+00  0.22506984385E+03  0.22506984385E+03  0.00000000000E+00 0.  1.
          2   -1    0    0  505    0 -0.00000000000E+00 -0.00000000000E+00 -0.42279048512E+03  0.42279048512E+03  0.00000000000E+00 0. -1.
         21    1    1    2  503  502  0.44353736727E+02 -0.30539607131E+02  0.87061406283E+02  0.10236996644E+03  0.00000000000E+00 0.  1.
         21    1    1    2  504  501  0.53906577973E+01  0.83688240217E+02 -0.21070371742E+03  0.22677926994E+03  0.00000000000E+00 0. -1.
         21    1    1    2  505  503 -0.97301395045E+02 -0.77511414448E+02  0.85152856163E+02  0.15075340713E+03  0.00000000000E+00 0.  1.
          2    1    1    2  501    0  0.47557000520E+02  0.24362781361E+02 -0.15923118630E+03  0.16795768546E+03  0.00000000000E+00 0. -1.
<scales pt_clust_3="54.61729" pt_clust_4="14000.00000" pt_clust_5="112.62993" pt_clust_6="53.43420"></scales>
<clustering>
<clus scale="   53.434">  2  6  1 -1</clus>
<clus scale="   54.617">  1  3  2 -1</clus>
<clus scale="  112.630">  1  5  2 -1</clus>
<clus scale="   54.617">  1  3  2 -1</clus>
</clustering>
</event>
<event>
 6    0  0.2839294E+002  0.8668508E+02  0.7546771E-02  0.1311084E+00
          2   -1    0    0  503    0 -0.00000000000E+00  0.00000000000E+00  0.15241422913E+04  0.15241422913E+04  0.00000000000E+00 0. -1.
         21   -1    0    0  501  502  0.00000000000E+00 -0.00000000000E+00 -0.24237116965E+02  0.24237116965E+02  0.00000000000E+00 0.  1.
         21    1    1    2  503  504 -0.37198545366E+01 -0.82909699648E+02  0.46715701066E+03  0.47447184133E+03  0.00000000000E+00 0.  1.
         21    1    1    2  504  505 -0.52003788272E+02  0.24367428355E+02  0.31437784901E+03  0.31958034594E+03  0.00000000000E+00 0. -1.
         21    1    1    2  505  502  0.18783334600E+02 -0.26025261850E+02  0.21299333597E+01  0.32166201659E+02  0.00000000000E+00 0.  1.
          2    1    1    2  501    0  0.36940308209E+02  0.84567533143E+02  0.71624038127E+03  0.72216101930E+03  0.00000000000E+00 0. -1.
<scales pt_clust_3="14000.00000" pt_clust_4="49.70984" pt_clust_5="32.09561" pt_clust_6="86.68508"></scales>
<clustering>
<clus scale="   32.096">  2  5  1 -1</clus>
<clus scale="   49.710">  2  4  1 -1</clus>
<clus scale="   86.685">  1  6  2 -1</clus>
<clus scale="   32.096">  2  3  1 -1</clus>
</clustering>
</event>
<event>
 6    0  0.2839294E+002  0.1011215E+03  0.7546771E-02  0.1277955E+00
         21   -1    0    0  505  502  0.00000000000E+00  0.00000000000E+00  0.14521491966E+03  0.14521491966E+03  0.00000000000E+00 0.  1.
          2   -1    0    0  504    0 -0.00000000000E+00 -0.00000000000E+00 -0.50750995172E+03  0.50750995172E+03  0.00000000000E+00 0. -1.
         21    1    1    2  503  502 -0.18429107600E+02  0.28693920313E+02  0.46086737582E+02  0.57332019420E+02  0.00000000000E+00 0.  1.
         21    1    1    2  504  503  0.92606562474E+02 -0.81794658483E+02  0.44800880307E+02  0.13142853741E+03  0.00000000000E+00 0.  1.
         21    1    1    2  505  501 -0.50542436920E+02  0.11955066867E+02 -0.22928802538E+03  0.23509670380E+03  0.00000000000E+00 0. -1.
          2    1    1    2  501    0 -0.23635017954E+02  0.41145671303E+02 -0.22389462456E+03  0.22886761074E+03  0.00000000000E+00 0. -1.
<scales pt_clust_3="34.10239" pt_clust_4="93.05461" pt_clust_5="37.91001" pt_clust_6="37.91001"></scales>
<clustering>
<clus scale="   34.102">  1  3  2 -1</clus>
<clus scale="   37.910">  5  6 -1 -1</clus>
<clus scale="   93.055">  1  4  2 -1</clus>
<clus scale="   34.102">  1  3  2 -1</clus>
</clustering>
</event>
<event>
 6    0  0.2839294E+002  0.7382856E+02  0.7546771E-02  0.1347537E+00
         21   -1    0    0  504  502  0.00000000000E+00  0.00000000000E+00  0.79295248462E+02  0.79295248462E+02  0.00000000000E+00 0.  1.
          2   -1    0    0  503    0 -0.00000000000E+00 -0.00000000000E+00 -0.33793998947E+04  0.33793998947E+04  0.00000000000E+00 0.  1.
         21    1    1    2  503  505  0.34752362321E+02 -0.32187794785E+02 -0.49858405927E+03  0.50082915748E+03  0.00000000000E+00 0.  1.
         21    1    1    2  504  501 -0.11138434260E+03 -0.21720421909E+02 -0.15299578479E+03  0.19048873633E+03  0.00000000000E+00 0.  1.
         21    1    1    2  505  502  0.55735857644E+02 -0.23635207644E+02  0.43251641826E+02  0.74403046902E+02  0.00000000000E+00 0.  1.
          2    1    1    2  501    0  0.20896122633E+02  0.77543424339E+02 -0.26917764440E+04  0.26929742024E+04  0.00000000000E+00 0.  1.
<scales pt_clust_3="47.36856" pt_clust_4="14000.00000" pt_clust_5="60.78123" pt_clust_6="73.82856"></scales>
<clustering>
<clus scale="   47.369">  2  3  1 -1</clus>
<clus scale="   60.781">  1  5  2 -1</clus>
<clus scale="   73.829">  2  6  1 -1</clus>
<clus scale="   60.781">  1  3  2 -1</clus>
</clustering>
</event>
<event>
 6    0  0.2839294E+002  0.7321385E+02  0.7546771E-02  0.1349493E+00
          1   -1    0    0  504    0 -0.00000000000E+00  0.00000000000E+00  0.22877948988E+03  0.22877948988E+03  0.00000000000E+00 0.  1.
         21   -1    0    0  503  502  0.00000000000E+00 -0.00000000000E+00 -0.40767185954E+03  0.40767185954E+03  0.00000000000E+00 0.  1.
         21    1    1    2  503  501 -0.94354035531E+02  0.73778722655E+02 -0.23513595956E+03  0.26388426140E+03  0.00000000000E+00 0.  1.
         21    1    1    2  504  505  0.17412876450E+02 -0.34278591243E+02  0.64678041266E+02  0.75242801023E+02  0.00000000000E+00 0. -1.
         21    1    1    2  505  502  0.24128750447E+02 -0.50154026538E+02 -0.14242199293E+03  0.15291058514E+03  0.00000000000E+00 0.  1.
          1    1    1    2  501    0  0.52812408634E+02  0.10653895126E+02  0.13398754157E+03  0.14441370186E+03  0.00000000000E+00 0.  1.
<scales pt_clust_3="73.21385" pt_clust_4="38.44776" pt_clust_5="56.92557" pt_clust_6="14000.00000"></scales>
<clustering>
<clus scale="   38.448">  1  4  2 -1</clus>
<clus scale="   56.926">  2  5  1 -1</clus>
<clus scale="   73.214">  2  3  1 -1</clus>
<clus scale="   56.926">  2  3  1 -1</clus>
</clustering>
</event>
<event>
 6    0  0.2839294E+002  0.1383377E+03  0.7546771E-02  0.1215583E+00
         -1   -1    0    0    0  501 -0.00000000000E+00  0.00000000000E+00  0.14754920505E+04  0.14754920505E+04  0.00000000000E+00 0. -1.
         21   -1    0    0  504  502  0.00000000000E+00 -0.00000000000E+00 -0.57398060142E+02  0.57398060142E+02  0.00000000000E+00 0.  1.
         21    1    1    2  503  502  0.25281246762E+02  0.25429989635E+02  0.26070638467E+02  0.44334005016E+02  0.00000000000E+00 0. -1.
         21    1    1    2  504  505 -0.68845048997E+02 -0.15398056038E+02  0.77712599225E+01  0.70972765071E+02  0.00000000000E+00 0.  1.
         21    1    1    2  505  501  0.14848639753E+03 -0.79360021487E+02  0.59447727234E+03  0.61785876266E+03  0.00000000000E+00 0. -1.
         -1    1    1    2    0  503 -0.10492259530E+03  0.69328087890E+02  0.78977481966E+03  0.79972457793E+03  0.00000000000E+00 0. -1.
<scales pt_clust_3="35.85841" pt_clust_4="52.30799" pt_clust_5="14000.00000" pt_clust_6="138.33773"></scales>
<clustering>
<clus scale="   35.858">  2  3  1 -1</clus>
<clus scale="   52.308">  2  4  1 -1</clus>
<clus scale="  138.338">  1  6  2 -1</clus>
<clus scale="   35.858">  2  3  1 -1</clus>
</clustering>
</event>
<event>
 6    0  0.2839294E+002  0.8331476E+02  0.7546771E-02  0.1319899E+00
         21   -1    0    0  505  502  0.00000000000E+00  0.00000000000E+00  0.18744855032E+03  0.18744855032E+03  0.00000000000E+00 0. -1.
          1   -1    0    0  503    0 -0.00000000000E+00 -0.00000000000E+00 -0.31033182304E+03  0.31033182304E+03  0.00000000000E+00 0.  1.
         21    1    1    2  503  504  0.81655007605E+02 -0.46108447104E+02 -0.10336906051E+03  0.13956608410E+03  0.00000000000E+00 0. -1.
         21    1    1    2  504  502 -0.19839344371E+02  0.82538203974E+02  0.14892744226E+03  0.17142210405E+03  0.00000000000E+00 0. -1.
         21    1    1    2  505  501 -0.28071379195E+02 -0.30632712273E+02 -0.59311052348E+02  0.72416616338E+02  0.00000000000E+00 0.  1.
          1    1    1    2  501    0 -0.33744284039E+02 -0.57970445963E+01 -0.10913060212E+03  0.11437556886E+03  0.00000000000E+00 0.  1.
<scales pt_clust_3="14000.00000" pt_clust_4="83.31476" pt_clust_5="33.60491" pt_clust_6="80.73865"></scales>
<clustering>
<clus scale="   33.605">  5  6 -1 -1</clus>
<clus scale="   80.739">  2  5  1 -1</clus>
<clus scale="   83.315">  1  4  2 -1</clus>
<clus scale="   83.315">  1  3  2 -1</clus>
</clustering>
</event>
<event>
 6    0  0.2839294E+002  0.8961157E+02  0.7546771E-02  0.1303795E+00
          2   -1    0    0  503    0 -0.00000000000E+00  0.00000000000E+00  0.77117317954E+03  0.77117317954E+03  0.00000000000E+00 0.  1.
         21   -1    0    0  504  502  0.00000000000E+00 -0.00000000000E+00 -0.28754283843E+02  0.28754283843E+02  0.00000000000E+00 0.  1.
         21    1    1    2  503  505  0.39870634854E+02  0.97234586467E+02  0.44277287336E+03  0.45507367504E+03  0.00000000000E+00 0.  1.
         21    1    1    2  504  501 -0.29251267056E+02 -0.11989687977E+02  0.10114240507E+02  0.33191672197E+02  0.00000000000E+00 0.  1.
         21    1    1    2  505  502  0.22269445581E+02 -0.78479224712E+02  0.21304972562E+03  0.22813395737E+03  0.00000000000E+00 0.  1.
          2    1    1    2  501    0 -0.32888813379E+02 -0.67656737783E+01  0.76482056211E+02  0.83528158781E+02  0.00000000000E+00 0.  1.
<scales pt_clust_3="14000.00000" pt_clust_4="31.61312" pt_clust_5="89.61157" pt_clust_6="39.95313"></scales>
<clustering>
<clus scale="   31.613">  2  4  1 -1</clus>
<clus scale="   39.953">  2  6  1 -1</clus>
<clus scale="   89.612">  2  5  1 -1</clus>
<clus scale="   31.613">  2  3  1 -1</clus>
</clustering>
</event>
<event>
 6    0  0.2839294E+002  0.1113722E+03  0.7546771E-02  0.1258050E+00
         21   -1    0    0  503  502  0.00000000000E+00  0.00000000000E+00  0.24801208321E+03  0.24801208321E+03  0.00000000000E+00 0.  1.
          1   -1    0    0  505    0 -0.00000000000E+00 -0.00000000000E+00 -0.42598797617E+03  0.42598797617E+03  0.00000000000E+00 0. -1.
         21    1    1    2  503  501  0.39810578945E+02 -0.83357342900E+01  0.43885366383E+02  0.59835541651E+02  0.00000000000E+00 0. -1.
         21    1    1    2  504  502 -0.14016824508E+03  0.65973899737E+02  0.13926253283E+03  0.20831165457E+03  0.00000000000E+00 0.  1.
         21    1    1    2  505  504  0.55938838269E+02 -0.61104254618E+02 -0.62115263333E+02  0.10354317698E+03  0.00000000000E+00 0.  1.
          1    1    1    2  501    0  0.44418827869E+02  0.34660891705E+01 -0.29900852885E+03  0.30230968619E+03  0.00000000000E+00 0. -1.
<scales pt_clust_3="40.67391" pt_clust_4="111.37217" pt_clust_5="14000.00000" pt_clust_6="44.88248"></scales>
<clustering>
<clus scale="   40.674">  1  3  2 -1</clus>
<clus scale="   44.882">  2  6  1 -1</clus>
<clus scale="  111.372">  1  4  2 -1</clus>
<clus scale="   40.674">  1  3  2 -1</clus>
</clustering>
</event>
<event>
 6    0  0.2839294E+002  0.1826261E+03  0.7546771E-02  0.1165285E+00
         21   -1    0    0  503  502  0.00000000000E+00  0.00000000000E+00  0.20590260032E+03  0.20590260032E+03  0.00000000000E+00 0.  1.
          2   -1    0    0  505    0 -0.00000000000E+00 -0.00000000000E+00 -0.11597408280E+04  0.11597408280E+04  0.00000000000E+00 0.  1.
         21    1    1    2  503  501 -0.48707033656E+02  0.13829081874E+02  0.17186909513E+02  0.53469696948E+02  0.00000000000E+00 0.  1.
         21    1    1    2  504  502  0.78925319084E+02  0.11256602942E+02  0.12024471200E+03  0.14427303236E+03  0.00000000000E+00 0.  1.
         21    1    1    2  505  504 -0.89961706080E+02  0.15114505270E+03 -0.24614030337E+03  0.30252765900E+03  0.00000000000E+00 0.  1.
          2    1    1    2  501    0  0.59743420653E+02 -0.17623073752E+03 -0.84512954583E+03  0.86537304001E+03  0.00000000000E+00 0.  1.
<scales pt_clust_3="50.63219" pt_clust_4="46.66011" pt_clust_5="182.62614" pt_clust_6="14000.00000"></scales>
<clustering>
<clus scale="   50.632">  1  3  2 -1</clus>
<clus scale="   46.660">  1  4  2 -1</clus>
<clus scale="  182.626">  1  5  2 -1</clus>
<clus scale="   50.632">  1  3  2 -1</clus>
</clustering>
</event>
<event>
 6    0  0.2839294E+002  0.6303924E+02  0.7546771E-02  0.1385503E+00
         21   -1    0    0  505  502  0.00000000000E+00  0.00000000000E+00  0.55045684780E+03  0.55045684780E+03  0.00000000000E+00 0. -1.
          2   -1    0    0  503    0 -0.00000000000E+00 -0.00000000000E+00 -0.70752078456E+02  0.70752078456E+02  0.00000000000E+00 0. -1.
         21    1    1    2  503  502  0.36252637917E+02 -0.57898135641E+02  0.42760913516E+02  0.80591212867E+02  0.00000000000E+00 0. -1.
         21    1    1    2  504  501  0.46696893308E+02  0.73820034082E+02  0.62896629418E+02  0.10763820543E+03  0.00000000000E+00 0. -1.
         21    1    1    2  505  504 -0.31049474983E+02 -0.32580679691E+02  0.37575885193E+03  0.37844456052E+03  0.00000000000E+00 0. -1.
          2    1    1    2  501    0 -0.51900056242E+02  0.16658781250E+02 -0.17116255111E+01  0.54534947442E+02  0.00000000000E+00 0. -1.
<scales pt_clust_3="63.03924" pt_clust_4="14000.00000" pt_clust_5="45.00634" pt_clust_6="57.82559"></scales>
<clustering>
<clus scale="   45.006">  1  5  2 -1</clus>
<clus scale="   57.826">  2  6  1 -1</clus>
<clus scale="   63.039">  2  3  1 -1</clus>
<clus scale="   45.006">  1  3  2 -1</clus>
</clustering>
</event>
<event>
 6    0  0.2839294E+002  0.8637860E+02  0.7546771E-02  0.1311866E+00
          2   -1    0    0  503    0 -0.00000000000E+00  0.00000000000E+00  0.16238586325E+04  0.16238586325E+04  0.00000000000E+00 0.  1.
         21   -1    0    0  505  502  0.00000000000E+00 -0.00000000000E+00 -0.19158154057E+02  0.19158154057E+02  0.00000000000E+00 0. -1.
         21    1    1    2  503  504  0.36472267950E+02 -0.55439895325E+02  0.60100053507E+03  0.60465316627E+03  0.00000000000E+00 0. -1.
         21    1    1    2  504  502  0.72091866937E+02 -0.19943777076E+02  0.15539486133E+03  0.17246029819E+03  0.00000000000E+00 0. -1.
         21    1    1    2  505  501 -0.10672312570E+03  0.43873580595E+02  0.39522305889E+03  0.41172318724E+03  0.00000000000E+00 0. -1.
          2    1    1    2  501    0 -0.18410091905E+01  0.31510091805E+02  0.45308202317E+03  0.45418013488E+03  0.00000000000E+00 0.  1.
<scales pt_clust_3="52.90753" pt_clust_4="86.37860" pt_clust_5="14000.00000" pt_clust_6="31.56383"></scales>
<clustering>
<clus scale="   31.564">  1  6  2 -1</clus>
<clus scale="   52.908">  1  3  2 -1</clus>
<clus scale="   86.379">  2  4  1 -1</clus>
<clus scale="   86.379">  2  3  1 -1</clus>
</clustering>
</event>
<event>
 6    0  0.2839294E+002  0.8524137E+02  0.7546771E-02  0.1314803E+00
         -3   -1    0    0    0  501 -0.00000000000E+00  0.00000000000E+00  0.43102024642E+03  0.43102024642E+03  0.00000000000E+00 0. -1.
         21   -1    0    0  503  502  0.00000000000E+00 -0.00000000000E+00 -0.67202196456E+03  0.67202196456E+03  0.00000000000E+00 0.  1.
         21    1    1    2  503  505  0.89795821839E+02 -0.22906088358E+01 -0.62707818105E+03  0.63347895123E+03  0.00000000000E+00 0.  1.
         21    1    1    2  504  502 -0.51540054035E+02 -0.14021306273E+01 -0.46397622633E+01  0.51767465981E+02  0.00000000000E+00 0.  1.
         21    1    1    2  505  501  0.36700950430E+02 -0.22078029516E+02  0.41287571644E+02  0.59490022038E+02  0.00000000000E+00 0.  1.
         -3    1    1    2    0  504 -0.74956718234E+02  0.25770768979E+02  0.34942865353E+03  0.35830577172E+03  0.00000000000E+00 0. -1.
<scales pt_clust_3="14000.00000" pt_clust_4="85.24137" pt_clust_5="42.82989" pt_clust_6="41.17188"></scales>
<clustering>
<clus scale="   42.830">  1  5  2 -1</clus>
<clus scale="   41.172">  1  6  2 -1</clus>
<clus scale="   85.241">  1  4  2 -1</clus>
<clus scale="   85.241">  2  3  1 -1</clus>
</clustering>
</event>
<event>
 6    0  0.2839294E+002  0.9361245E+02  0.7546771E-02  0.1294332E+00
         21   -1    0    0  505  502  0.00000000000E+00  0.00000000000E+00  0.48585500217E+03  0.48585500217E+03  0.00000000000E+00 0.  1.
         -2   -1    0    0    0  501 -0.00000000000E+00 -0.00000000000E+00 -0.33420195780E+03  0.33420195780E+03  0.00000000000E+00 0.  1.
         21    1    1    2  503  501  0.15185097425E+02 -0.26799155288E+02 -0.55097625333E+02  0.63123135420E+02  0.00000000000E+00 0.  1.
         21    1    1    2  504  502 -0.37092552999E+02 -0.11081795581E+03  0.14610089822E+03  0.18708807893E+03  0.00000000000E+00 0. -1.
         21    1    1    2  505  503 -0.45045291572E+02  0.65487462160E+02  0.30037094346E+03  0.31070949401E+03  0.00000000000E+00 0.  1.
         -2    1    1    2    0  504  0.66952747147E+02  0.72129648934E+02 -0.23972117198E+03  0.25913625161E+03  0.00000000000E+00 0.  1.
<scales pt_clust_3="30.80230" pt_clust_4="14000.00000" pt_clust_5="78.90727" pt_clust_6="93.61245"></scales>
<clustering>
<clus scale="   30.802">  2  3  1 -1</clus>
<clus scale="   78.907">  1  5  2 -1</clus>
<clus scale="   93.612">  2  6  1 -1</clus>
<clus scale="   78.907">  1  3  2 -1</clus>
</clustering>
</event>
<event>
 6    0  0.2839294E+002  0.2055705E+03  0.7546771E-02  0.1145122E+00
         21   -1    0    0  503  502  0.00000000000E+00  0.00000000000E+00  0.37124324149E+03  0.37124324149E+03  0.00000000000E+00 0.  1.
          1   -1    0    0  505    0 -0.00000000000E+00 -0.00000000000E+00 -0.18527908883E+04  0.18527908883E+04  0.00000000000E+00 0. -1.
         21    1    1    2  503  501 -0.52242693102E+02  0.24008249628E+03  0.15816387003E+03  0.29220662858E+03  0.00000000000E+00 0.  1.
         21    1    1    2  504  502 -0.39968839289E+02 -0.56634560126E+02  0.12785082273E+03  0.14543319562E+03  0.00000000000E+00 0.  1.
         21    1    1    2  505  504  0.13108067906E+02 -0.28310698583E+02 -0.43343133244E+02  0.53403598173E+02  0.00000000000E+00 0. -1.
          1    1    1    2  501    0  0.79103464485E+02 -0.15513723758E+03 -0.17242192064E+04  0.17329907075E+04  0.00000000000E+00 0. -1.
<scales pt_clust_3="14000.00000" pt_clust_4="69.39397" pt_clust_5="31.19803" pt_clust_6="205.57048"></scales>
<clustering>
<clus scale="   31.198">  2  5  1 -1</clus>
<clus scale="   69.394">  1  4  2 -1</clus>
<clus scale="  205.570">  2  6  1 -1</clus>
<clus scale="   69.394">  1  3  2 -1</clus>
</clustering>
</event>
<event>
 6    0  0.2839294E+002  0.1281313E+03  0.7546771E-02  0.1230255E+00
          2   -1    0    0  504    0 -0.00000000000E+00  0.00000000000E+00  0.16761244286E+04  0.16761244286E+04  0.00000000000E+00 0.  1.
         21   -1    0    0  505  502  0.00000000000E+00 -0.00000000000E+00 -0.48881412910E+02  0.48881412910E+02  0.00000000000E+00 0. -1.
         21    1    1    2  503  502  0.13976384986E+03 -0.72097939598E+02  0.15721080557E+03  0.22236745268E+03  0.00000000000E+00 0. -1.
         21    1    1    2  504  503 -0.11671640403E+03  0.50518978063E+01  0.64611074406E+03  0.65658764398E+03  0.00000000000E+00 0. -1.
         21    1    1    2  505  501 -0.37958935279E+02 -0.76624141690E+01  0.31343079605E+02  0.49819494152E+02  0.00000000000E+00 0. -1.
          2    1    1    2  501    0  0.14911489444E+02  0.74708455961E+02  0.79257838649E+03  0.79623125073E+03  0.00000000000E+00 0.  1.
<scales pt_clust_3="128.13134" pt_clust_4="14000.00000" pt_clust_5="38.72458" pt_clust_6="75.51150"></scales>
<clustering>
<clus scale="   38.725">  2  5  1 -1</clus>
<clus scale="   75.511">  1  6  2 -1</clus>
<clus scale="  128.131">  2  3  1 -1</clus>
<clus scale="   38.725">  2  3  1 -1</clus>
</clustering>
</event>
<event>
 6    0  0.2839294E+002  0.1149798E+03  0.7546771E-02  0.1251616E+00
         21   -1    0    0  504  502  0.00000000000E+00  0.00000000000E+00  0.93260454044E+03  0.93260454044E+03  0.00000000000E+00 0.  1.
         -1   -1    0    0    0  501 -0.00000000000E+00 -0.00000000000E+00 -0.75861576519E+02  0.75861576519E+02  0.00000000000E+00 0.  1.
         21    1    1    2  503  502  0.26045790266E+02 -0.21574627015E+02  0.74936997562E+02  0.82215578360E+02  0.00000000000E+00 0. -1.
         21    1    1    2  504  505  0.49115999219E+02 -0.80720688444E+02  0.72018722408E+03  0.72635931098E+03  0.00000000000E+00 0.  1.
         21    1    1    2  505  501 -0.77031434704E+01  0.67737557038E+02  0.95115484192E+02  0.11702422991E+03  0.00000000000E+00 0.  1.
         -1    1    1    2    0  503 -0.67458646015E+02  0.34557758421E+02 -0.33496741918E+02  0.82866997703E+02  0.00000000000E+00 0.  1.
<scales pt_clust_3="33.82082" pt_clust_4="114.97984" pt_clust_5="65.21126" pt_clust_6="14000.00000"></scales>
<clustering>
<clus scale="   33.821">  1  3  2 -1</clus>
<clus scale="   65.211">  2  5  1 -1</clus>
<clus scale="  114.980">  1  4  2 -1</clus>
<clus scale="   33.821">  1  3  2 -1</clus>
</clustering>
</event>
<event>
 6    0  0.2839294E+002  0.9656057E+02  0.7546771E-02  0.1287699E+00
         -3   -1    0    0    0  501 -0.00000000000E+00  0.00000000000E+00  0.53496895495E+03  0.53496895495E+03  0.00000000000E+00 0.  1.
         21   -1    0    0  504  502  0.00000000000E+00 -0.00000000000E+00 -0.28998873290E+03  0.28998873290E+03  0.00000000000E+00 0.  1.
         21    1    1    2  503  502  0.27556231658E+02  0.27943759595E+02 -0.10924227640E+01  0.39260578078E+02  0.00000000000E+00 0. -1.
         21    1    1    2  504  505  0.32429154445E+02  0.49887249987E+02 -0.24575943575E+03  0.25285981893E+03  0.00000000000E+00 0.  1.
         21    1    1    2  505  501 -0.22772368882E+02  0.41734342491E+02  0.34686939596E+02  0.58851677174E+02  0.00000000000E+00 0.  1.
         -3    1    1    2    0  503 -0.37213017221E+02 -0.11956535207E+03  0.45714514096E+03  0.47398561368E+03  0.00000000000E+00 0.  1.
<scales pt_clust_3="39.24538" pt_clust_4="96.56057" pt_clust_5="48.07984" pt_clust_6="14000.00000"></scales>
<clustering>
<clus scale="   39.245">  2  3  1 -1</clus>
<clus scale="   48.080">  1  5  2 -1</clus>
<clus scale="   96.561">  2  4  1 -1</clus>
<clus scale="   39.245">  2  3  1 -1</clus>
</clustering>
</event>
<event>
 6    0  0.2839294E+002  0.1952906E+03  0.7546771E-02  0.1153774E+00
          2   -1    0    0  504    0 -0.00000000000E+00  0.00000000000E+00  0.27806898523E+04  0.27806898523E+04  0.00000000000E+00 0. -1.
         21   -1    0    0  505  502  0.00000000000E+00 -0.00000000000E+00 -0.99268155684E+03  0.99268155684E+03  0.00000000000E+00 0.  1.
         21    1    1    2  503  502  0.98521168209E+01  0.37424289839E+02 -0.70016354146E+02  0.79999572022E+02  0.00000000000E+00 0. -1.
         21    1    1    2  504  503 -0.31461524579E+02 -0.19930186280E+02  0.23659335404E+03  0.23950669099E+03  0.00000000000E+00 0.  1.
         21    1    1    2  505  501  0.60717198388E+02  0.14505906605E+03 -0.90668783593E+03  0.92022363730E+03  0.00000000000E+00 0.  1.
          2    1    1    2  501    0 -0.39107790630E+02 -0.16255316961E+03  0.25281191315E+04  0.25336415089E+04  0.00000000000E+00 0. -1.
<scales pt_clust_3="38.64585" pt_clust_4="37.24298" pt_clust_5="195.29064" pt_clust_6="14000.00000"></scales>
<clustering>
<clus scale="   37.243">  1  4  2 -1</clus>
<clus scale="   38.646">  2  3  1 -1</clus>
<clus scale="  195.291">  2  5  1 -1</clus>
<clus scale="   38.646">  2  3  1 -1</clus>
</clustering>
</event>
<event>
 6    0  0.2839294E+002  0.1848839E+03  0.7546771E-02  0.1163158E+00
         21   -1    0    0  504  502  0.00000000000E+00  0.00000000000E+00  0.10692419897E+03  0.10692419897E+03  0.00000000000E+00 0.  1.
         -3   -1    0    0    0  501 -0.00000000000E+00 -0.00000000000E+00 -0.70433557038E+03  0.70433557038E+03  0.00000000000E+00 0.  1.
         21    1    1    2  503  502 -0.33959683848E+02  0.59698973781E+02 -0.15155440629E+03  0.16639100235E+03  0.00000000000E+00 0. -1.
         21    1    1    2  504  505  0.77777451918E+02 -0.16424829656E+03 -0.51648627598E+01  0.18180624510E+03  0.00000000000E+00 0.  1.
         21    1    1    2  505  501  0.20894310341E+02  0.30143700128E+02 -0.64887820729E+02  0.74536193496E+02  0.00000000000E+00 0. -1.
         -3    1    1    2    0  503 -0.64712078412E+02  0.74405622649E+02 -0.37580428163E+03  0.38852632840E+03  0.00000000000E+00 0.  1.
<scales pt_clust_3="38.07506" pt_clust_4="179.09814" pt_clust_5="36.67717" pt_clust_6="38.07506"></scales>
<clustering>
<clus scale="   36.677">  2  5  1 -1</clus>
<clus scale="   38.075">  3  6 -1 -1</clus>
<clus scale="  179.098">  1  4  2 -1</clus>
<clus scale="  179.098">  1  3  2 -1</clus>
</clustering>
</event>
<event>
 6    0  0.2839294E+002  0.1310205E+03  0.7546771E-02  0.1225949E+00
          1   -1    0    0  503    0 -0.00000000000E+00  0.00000000000E+00  0.18044918296E+04  0.18044918296E+04  0.00000000000E+00 0.  1.
         21   -1    0    0  504  502  0.00000000000E+00 -0.00000000000E+00 -0.19588419742E+03  0.19588419742E+03  0.00000000000E+00 0. -1.
         21    1    1    2  503  505  0.65133390473E+02  0.31618678670E+02  0.51811404494E+02  0.89031011625E+02  0.00000000000E+00 0. -1.
         21    1    1    2  504  501 -0.33545689449E+02  0.62895016504E+02  0.47933157606E+02  0.85899266468E+02  0.00000000000E+00 0. -1.
         21    1    1    2  505  502  0.42467388407E+02  0.27078476045E+02 -0.15115939486E+03  0.15932948753E+03  0.00000000000E+00 0. -1.
          1    1    1    2  501    0 -0.74055089431E+02 -0.12159217122E+03  0.16600224650E+04  0.16661162614E+04  0.00000000000E+00 0.  1.
<scales pt_clust_3="131.02054" pt_clust_4="76.77733" pt_clust_5="50.36589" pt_clust_6="14000.00000"></scales>
<clustering>
<clus scale="   50.366">  2  5  1 -1</clus>
<clus scale="   76.777">  2  4  1 -1</clus>
<clus scale="  131.021">  2  3  1 -1</clus>
<clus scale="   50.366">  2  3  1 -1</clus>
</clustering>
</event>
<event>
 6    0  0.2839294E+002  0.8637979E+02  0.7546771E-02  0.1311863E+00
         21   -1    0    0  505  502  0.00000000000E+00  0.00000000000E+00  0.21927999112E+03  0.21927999112E+03  0.00000000000E+00 0.  1.
          2   -1    0    0  503    0 -0.00000000000E+00 -0.00000000000E+00 -0.46817306357E+03  0.46817306357E+03  0.00000000000E+00 0. -1.
         21    1    1    2  503  504 -0.36098628962E+02 -0.30413395065E+02 -0.31855588387E+03  0.32203406149E+03  0.00000000000E+00 0. -1.
         21    1    1    2  504  502  0.11110410699E+03  0.40907939364E+02  0.13811547912E+03  0.18191610062E+03  0.00000000000E+00 0.  1.
         21    1    1    2  505  501 -0.48745404440E+02 -0.38582663051E+02  0.36249287245E+02  0.71963512754E+02  0.00000000000E+00 0.  1.
          2    1    1    2  501    0 -0.26260073587E+02  0.28088118753E+02 -0.10470195495E+03  0.11153937982E+03  0.00000000000E+00 0. -1.
<scales pt_clust_3="59.70617" pt_clust_4="14000.00000" pt_clust_5="86.37979" pt_clust_6="38.45171"></scales>
<clustering>
<clus scale="   38.452">  2  6  1 -1</clus>
<clus scale="   59.706">  2  3  1 -1</clus>
<clus scale="   86.380">  1  5  2 -1</clus>
<clus scale="   86.380">  1  3  2 -1</clus>
</clustering>
</event>
<event>
 6    0  0.2839294E+002  0.1901962E+03  0.7546771E-02  0.1158285E+00
         21   -1    0    0  505  502  0.00000000000E+00  0.00000000000E+00  0.45813023399E+03  0.45813023399E+03  0.00000000000E+00 0.  1.
          2   -1    0    0  504    0 -0.00000000000E+00 -0.00000000000E+00 -0.43001832621E+03  0.43001832621E+03  0.00000000000E+00 0.  1.
         21    1    1    2  503  501 -0.59552375271E+02 -0.56212779902E+02 -0.10857259372E+03  0.13599400770E+03  0.00000000000E+00 0. -1.
         21    1    1    2  504  502  0.16133443111E+02  0.28267446851E+02  0.17873070361E+03  0.18167003317E+03  0.00000000000E+00 0.  1.
         21    1    1    2  505  503  0.10429747353E+03  0.10965686656E+03  0.23262630488E+03  0.27752043004E+03  0.00000000000E+00 0.  1.
          2    1    1    2  501    0 -0.60878541366E+02 -0.81711533512E+02 -0.27467250700E+03  0.29296408929E+03  0.00000000000E+00 0.  1.
<scales pt_clust_3="53.57395" pt_clust_4="32.54745" pt_clust_5="180.48007" pt_clust_6="53.57395"></scales>
<clustering>
<clus scale="   32.547">  1  4  2 -1</clus>
<clus scale="   53.574">  3  6 -1 -1</clus>
<clus scale="  180.480">  1  5  2 -1</clus>
<clus scale="   32.547">  1  3  2 -1</clus>
</clustering>
</event>
<event>
 6    0  0.2839294E+002  0.1123220E+03  0.7546771E-02  0.1256329E+00
          3   -1    0    0  505    0 -0.00000000000E+00  0.00000000000E+00  0.28290598026E+03  0.28290598026E+03  0.00000000000E+00 0.  1.
         21   -1    0    0  504  502  0.00000000000E+00 -0.00000000000E+00 -0.83748483072E+03  0.83748483072E+03  0.00000000000E+00 0.  1.
         21    1    1    2  503  502 -0.85269563850E+02  0.45209917265E+02 -0.17945242514E+03  0.20375968204E+03  0.00000000000E+00 0.  1.
         21    1    1    2  504  501  0.35422483229E+01  0.39459759512E+02 -0.61118188380E+03  0.61246462365E+03  0.00000000000E+00 0.  1.
         21    1    1    2  505  503 -0.28762611313E+02 -0.61684369318E+02  0.42883587934E+02  0.80444088296E+02  0.00000000000E+00 0.  1.
          3    1    1    2  501    0  0.11048992684E+03 -0.22985307459E+02  0.19317187054E+03  0.22372241698E+03  0.00000000000E+00 0.  1.
<scales pt_clust_3="14000.00000" pt_clust_4="39.61843" pt_clust_5="64.96941" pt_clust_6="112.32201"></scales>
<clustering>
<clus scale="   39.618">  2  4  1 -1</clus>
<clus scale="   64.969">  1  5  2 -1</clus>
<clus scale="  112.322">  1  6  2 -1</clus>
<clus scale="   39.618">  2  3  1 -1</clus>
</clustering>
</event>
<event>
 6    0  0.2839294E+002  0.8502333E+02  0.7546771E-02  0.1315372E+00
         21   -1    0    0  504  502  0.00000000000E+00  0.00000000000E+00  0.38427023963E+02  0.38427023963E+02  0.00000000000E+00 0. -1.
          2   -1    0    0  505    0 -0.00000000000E+00 -0.00000000000E+00 -0.61972592143E+03  0.61972592143E+03  0.00000000000E+00 0. -1.
         21    1    1    2  503  501  0.39141039712E+02 -0.17337073794E+02 -0.47272700227E+02  0.63775413007E+02  0.00000000000E+00 0. -1.
         21    1    1    2  504  503  0.12891019921E+01 -0.31429104643E+02 -0.49939993570E+02  0.59020787527E+02  0.00000000000E+00 0. -1.
         21    1    1    2  505  502 -0.11771184193E+03  0.47233588717E+02 -0.17120341899E+03  0.21306736097E+03  0.00000000000E+00 0. -1.
          2    1    1    2  501    0  0.77281700230E+02  0.15325897202E+01 -0.31288278468E+03  0.32228938390E+03  0.00000000000E+00 0. -1.
<scales pt_clust_3="46.70325" pt_clust_4="31.45553" pt_clust_5="85.02333" pt_clust_6="14000.00000"></scales>
<clustering>
<clus scale="   31.456">  1  4  2 -1</clus>
<clus scale="   46.703">  1  3  2 -1</clus>
<clus scale="   85.023">  1  5  2 -1</clus>
<clus scale="   31.456">  1  3  2 -1</clus>
</clustering>
</event>
<event>
 6    0  0.2839294E+002  0.8420442E+02  0.7546771E-02  0.1317526E+00
          4   -1    0    0  505    0 -0.00000000000E+00  0.00000000000E+00  0.10181753576E+04  0.10181753576E+04  0.00000000000E+00 0. -1.
         21   -1    0    0  501  502  0.00000000000E+00 -0.00000000000E+00 -0.14650201655E+03  0.14650201655E+03  0.00000000000E+00 0.  1.
         21    1    1    2  503  504  0.10816303364E+03  0.43924800988E+02 -0.86930457866E+02  0.14555251456E+03  0.00000000000E+00 0.  1.
         21    1    1    2  504  502 -0.39346272115E+02 -0.51320136646E+01  0.40006600913E-01  0.39679570236E+02  0.00000000000E+00 0.  1.
         21    1    1    2  505  503  0.57288068093E+02 -0.36798033024E+02  0.46806837607E+03  0.47299473851E+03  0.00000000000E+00 0. -1.
          4    1    1    2  501    0 -0.12610482962E+03 -0.19947542994E+01  0.49049541628E+03  0.50645055088E+03  0.00000000000E+00 0. -1.
<scales pt_clust_3="14000.00000" pt_clust_4="39.67955" pt_clust_5="67.50038" pt_clust_6="84.20442"></scales>
<clustering>
<clus scale="   39.680">  2  4  1 -1</clus>
<clus scale="   67.500">  1  5  2 -1</clus>
<clus scale="   84.204">  1  6  2 -1</clus>
<clus scale="   39.680">  2  3  1 -1</clus>
</clustering>
</event>
<event>
 6    0  0.2839294E+002  0.9137120E+02  0.7546771E-02  0.1299565E+00
         21   -1    0    0  505  502  0.00000000000E+00  0.00000000000E+00  0.42623231991E+02  0.42623231991E+02  0.00000000000E+00 0. -1.
          1   -1    0    0  504    0 -0.00000000000E+00 -0.00000000000E+00 -0.58199838342E+03  0.58199838342E+03  0.00000000000E+00 0. -1.
         21    1    1    2  503  501 -0.37116010511E+02 -0.13925988688E+02 -0.28285434428E+02  0.48699047198E+02  0.00000000000E+00 0. -1.
         21    1    1    2  504  502 -0.58783568232E+02  0.67398291982E+02 -0.25566660770E+03  0.27085688462E+03  0.00000000000E+00 0. -1.
         21    1    1    2  505  503 -0.12967699298E+02 -0.37766860640E+02 -0.18818531247E+02  0.44143335918E+02  0.00000000000E+00 0. -1.
          1    1    1    2  501    0  0.10886727804E+03 -0.15705442653E+02 -0.23660457806E+03  0.26092234767E+03  0.00000000000E+00 0. -1.
<scales pt_clust_3="34.80769" pt_clust_4="91.37120" pt_clust_5="80.00578" pt_clust_6="14000.00000"></scales>
<clustering>
<clus scale="   34.808">  3  5 -1 -1</clus>
<clus scale="   80.006">  1  3  2 -1</clus>
<clus scale="   91.371">  2  4  1 -1</clus>
<clus scale="   80.006">  1  3  2 -1</clus>
</clustering>
</event>
<event>
 6    0  0.2839294E+002  0.1495348E+03  0.7546771E-02  0.1201046E+00
         21   -1    0    0  504  502  0.00000000000E+00  0.00000000000E+00  0.76373348805E+02  0.76373348805E+02  0.00000000000E+00 0. -1.
         -4   -1    0    0    0  501 -0.00000000000E+00 -0.00000000000E+00 -0.20492896232E+04  0.20492896232E+04  0.00000000000E+00 0.  1.
         21    1    1    2  503  505  0.20529258262E+02 -0.84222712348E+02 -0.11310175105E+04  0.11343348380E+04  0.00000000000E+00 0. -1.
         21    1    1    2  504  501  0.52166989156E+01  0.16615517969E+03 -0.42204515169E+02  0.17151087075E+03  0.00000000000E+00 0. -1.
         21    1    1    2  505  502  0.17655305215E+02 -0.38390446688E+02 -0.41812036303E+02  0.59445627080E+02  0.00000000000E+00 0. -1.
         -4    1    1    2    0  503 -0.43401262392E+02 -0.43542020655E+02 -0.75788221248E+03  0.76037163620E+03  0.00000000000E+00 0.  1.
<scales pt_clust_3="60.06175" pt_clust_4="131.29030" pt_clust_5="42.25561" pt_clust_6="60.06175"></scales>
<clustering>
<clus scale="   42.256">  1  5  2 -1</clus>
<clus scale="   60.062">  3  6 -1 -1</clus>
<clus scale="  131.290">  1  4  2 -1</clus>
<clus scale="   42.256">  1  3  2 -1</clus>
</clustering>
</event>
<event>
 6    0  0.2839294E+002  0.1481068E+03  0.7546771E-02  0.1202819E+00
          2   -1    0    0  505    0 -0.00000000000E+00  0.00000000000E+00  0.18457419434E+04  0.18457419434E+04  0.00000000000E+00 0.  1.
         21   -1    0    0  504  502  0.00000000000E+00 -0.00000000000E+00 -0.58776715655E+02  0.58776715655E+02  0.00000000000E+00 0. -1.
         21    1    1    2  503  502 -0.46202930563E+02 -0.36907511875E+01  0.13004037989E+03  0.13805373171E+03  0.00000000000E+00 0.  1.
         21    1    1    2  504  501  0.15147574354E+03  0.15771671670E+02  0.63538091610E+02  0.16501737968E+03  0.00000000000E+00 0. -1.
         21    1    1    2  505  503 -0.78605820203E+01 -0.35287234731E+02  0.13923350915E+03  0.14385043537E+03  0.00000000000E+00 0.  1.
          2    1    1    2  501    0 -0.97412230962E+02  0.23206314249E+02  0.14541532471E+04  0.14575971124E+04  0.00000000000E+00 0.  1.
<scales pt_clust_3="47.26563" pt_clust_4="148.10684" pt_clust_5="36.15215" pt_clust_6="14000.00000"></scales>
<clustering>
<clus scale="   36.152">  1  5  2 -1</clus>
<clus scale="   47.266">  1  3  2 -1</clus>
<clus scale="  148.107">  2  4  1 -1</clus>
<clus scale="  148.107">  2  3  1 -1</clus>
</clustering>
</event>
<event>
 6    0  0.2839294E+002  0.1091587E+03  0.7546771E-02  0.1262136E+00
         21   -1    0    0  503  502  0.00000000000E+00  0.00000000000E+00  0.28084417543E+03  0.28084417543E+03  0.00000000000E+00 0.  1.
         -1   -1    0    0    0  501 -0.00000000000E+00 -0.00000000000E+00 -0.11994444806E+04  0.11994444806E+04  0.00000000000E+00 0.  1.
         21    1    1    2  503  501 -0.35723870259E+02  0.16502827229E+02 -0.90052268481E+02  0.98274865919E+02  0.00000000000E+00 0. -1.
         21    1    1    2  504  505  0.97902488996E+02  0.10189048311E+02  0.14724613330E+03  0.17711617043E+03  0.00000000000E+00 0.  1.
         21    1    1    2  505  502 -0.27433406666E+01  0.45853469523E+02  0.10783842985E+03  0.11721430603E+03  0.00000000000E+00 0.  1.
         -1    1    1    2    0  504 -0.59435278070E+02 -0.72545345062E+02 -0.10836325998E+04  0.10876833136E+04  0.00000000000E+00 0.  1.
<scales pt_clust_3="39.35147" pt_clust_4="109.15870" pt_clust_5="46.01462" pt_clust_6="14000.00000"></scales>
<clustering>
<clus scale="   39.351">  2  3  1 -1</clus>
<clus scale="   46.015">  1  5  2 -1</clus>
<clus scale="  109.159">  1  4  2 -1</clus>
<clus scale="   46.015">  1  3  2 -1</clus>
</clustering>
</event>
<event>
 6    0  0.2839294E+002  0.1652865E+03  0.7546771E-02  0.1182854E+00
          2   -1    0    0  503    0 -0.00000000000E+00  0.00000000000E+00  0.31165880439E+04  0.31165880439E+04  0.00000000000E+00 0.  1.
         21   -1    0    0  504  502  0.00000000000E+00 -0.00000000000E+00 -0.44476404144E+02  0.44476404144E+02  0.00000000000E+00 0. -1.
         21    1    1    2  503  505 -0.33186799494E+02  0.24868076930E+02  0.47896575680E+03  0.48075771558E+03  0.00000000000E+00 0.  1.
         21    1    1    2  504  501 -0.12809291141E+03 -0.51141872279E+01  0.13222104280E+03  0.18416392976E+03  0.00000000000E+00 0. -1.
         21    1    1    2  505  502 -0.10012395245E+02  0.10194873986E+03  0.19296979484E+03  0.21847456451E+03  0.00000000000E+00 0. -1.
          2    1    1    2  501    0  0.17129210615E+03 -0.12170262957E+03  0.22679550454E+04  0.22776682382E+04  0.00000000000E+00 0.  1.
<scales pt_clust_3="41.47029" pt_clust_4="165.28651" pt_clust_5="104.65049" pt_clust_6="14000.00000"></scales>
<clustering>
<clus scale="   41.470">  1  3  2 -1</clus>
<clus scale="  104.650">  2  5  1 -1</clus>
<clus scale="  165.287">  2  4  1 -1</clus>
<clus scale="  104.650">  2  3  1 -1</clus>
</clustering>
</event>
<event>
 6    0  0.2839294E+002  0.5272977E+02  0.7546771E-02  0.1431150E+00
          1   -1    0    0  505    0 -0.00000000000E+00  0.00000000000E+00  0.40348009568E+04  0.40348009568E+04  0.00000000000E+00 0.  1.
         21   -1    0    0  503  502  0.00000000000E+00 -0.00000000000E+00 -0.49193335638E+02  0.49193335638E+02  0.00000000000E+00 0. -1.
         21    1    1    2  503  501 -0.41541178064E+02 -0.69294731570E+02  0.14137685838E+02  0.82020140570E+02  0.00000000000E+00 0. -1.
         21    1    1    2  504  502  0.18637928037E+02  0.47713305431E+02  0.34288732580E+02  0.61641293453E+02  0.00000000000E+00 0.  1.
         21    1    1    2  505  504  0.21476777773E+02 -0.46509761479E+02  0.30879994081E+04  0.30884243158E+04  0.00000000000E+00 0.  1.
          1    1    1    2  501    0  0.14264722539E+01  0.68091187618E+02  0.84918179465E+03  0.85190854264E+03  0.00000000000E+00 0.  1.
<scales pt_clust_3="33.53706" pt_clust_4="51.22433" pt_clust_5="52.72977" pt_clust_6="14000.00000"></scales>
<clustering>
<clus scale="   51.224">  2  4  1 -1</clus>
<clus scale="   33.537">  2  3  1 -1</clus>
<clus scale="   52.730">  1  5  2 -1</clus>
<clus scale="   51.224">  2  3  1 -1</clus>
</clustering>
</event>
<event>
 6    0  0.2839294E+002  0.1548430E+03  0.7546771E-02  0.1194645E+00
         21   -1    0    0  505  502  0.00000000000E+00  0.00000000000E+00  0.62481257296E+03  0.62481257296E+03  0.00000000000E+00 0. -1.
          2   -1    0    0  504    0 -0.00000000000E+00 -0.00000000000E+00 -0.13626308403E+04  0.13626308403E+04  0.00000000000E+00 0.  1.
         21    1    1    2  503  502  0.67250521671E+02 -0.14526402350E+02  0.19762674096E+03  0.20926054996E+03  0.00000000000E+00 0. -1.
         21    1    1    2  504  503  0.66338821506E+02  0.49700141501E+02  0.40451767213E+03  0.41292310466E+03  0.00000000000E+00 0. -1.
         21    1    1    2  505  501 -0.87952472805E+02 -0.43137817232E+02 -0.18471905171E+03  0.20908762950E+03  0.00000000000E+00 0. -1.
          2    1    1    2  501    0 -0.45636870373E+02  0.79640780812E+01 -0.11552436287E+04  0.11561721292E+04  0.00000000000E+00 0.  1.
<scales pt_clust_3="66.88629" pt_clust_4="66.88629" pt_clust_5="136.10675" pt_clust_6="46.32656"></scales>
<clustering>
<clus scale="   46.327">  2  6  1 -1</clus>
<clus scale="   66.886">  3  4 -1 -1</clus>
<clus scale="  136.107">  2  5  1 -1</clus>
<clus scale="  154.843">  1  3  2 -1</clus>
</clustering>
</event>
<event>
 6    0  0.2839294E+002  0.9768696E+02  0.7546771E-02  0.1285237E+00
          2   -1    0    0  505    0 -0.00000000000E+00  0.00000000000E+00  0.17502125175E+04  0.17502125175E+04  0.00000000000E+00 0. -1.
         21   -1    0    0  501  502  0.00000000000E+00 -0.00000000000E+00 -0.86223598839E+02  0.86223598839E+02  0.00000000000E+00 0.  1.
         21    1    1    2  503  502 -0.16802422412E+02  0.29606483783E+02 -0.65548221361E+02  0.73860913916E+02  0.00000000000E+00 0.  1.
         21    1    1    2  504  503  0.35463163788E+02  0.57590640221E+02  0.11789522976E+03  0.13591763324E+03  0.00000000000E+00 0.  1.
         21    1    1    2  505  504 -0.44754912430E+02  0.57318999406E+02  0.46555766204E+03  0.47120314787E+03  0.00000000000E+00 0.  1.
          2    1    1    2  501    0  0.26094171055E+02 -0.14451612341E+03  0.11460842482E+04  0.11554544213E+04  0.00000000000E+00 0. -1.
<scales pt_clust_3="34.04211" pt_clust_4="78.28986" pt_clust_5="14000.00000" pt_clust_6="97.68696"></scales>
<clustering>
<clus scale="   34.042">  2  3  1 -1</clus>
<clus scale="   78.290">  2  4  1 -1</clus>
<clus scale="   97.687">  2  6  1 -1</clus>
<clus scale="   34.042">  2  3  1 -1</clus>
</clustering>
</event>
<event>
 6    0  0.2839294E+002  0.1002071E+03  0.7546771E-02  0.1279861E+00
         -4   -1    0    0    0  501 -0.00000000000E+00  0.00000000000E+00  0.53119268015E+02  0.53119268015E+02  0.00000000000E+00 0. -1.
         21   -1    0    0  505  502  0.00000000000E+00 -0.00000000000E+00 -0.11849418804E+04  0.11849418804E+04  0.00000000000E+00 0. -1.
         21    1    1    2  503  501 -0.34262354877E+02  0.32249738473E+02 -0.27739037755E+02  0.54620589605E+02  0.00000000000E+00 0. -1.
         21    1    1    2  504  502  0.29475953375E+02  0.12293180836E+02 -0.54723743539E+03  0.54816855511E+03  0.00000000000E+00 0. -1.
         21    1    1    2  505  503  0.30720582099E+02  0.73177831907E+02 -0.49206471606E+03  0.49842395010E+03  0.00000000000E+00 0. -1.
         -4    1    1    2    0  504 -0.25934180598E+02 -0.11772075121E+03 -0.64781423232E+02  0.13684805364E+03  0.00000000000E+00 0. -1.
<scales pt_clust_3="46.24854" pt_clust_4="31.93672" pt_clust_5="14000.00000" pt_clust_6="100.20713"></scales>
<clustering>
<clus scale="   31.937">  2  4  1 -1</clus>
<clus scale="   46.249">  1  3  2 -1</clus>
<clus scale="  100.207">  1  6  2 -1</clus>
<clus scale="   31.937">  2  3  1 -1</clus>
</clustering>
</event>
<event>
 6    0  0.2839294E+002  0.2296994E+03  0.7546771E-02  0.1126852E+00
         21   -1    0    0  503  502  0.00000000000E+00  0.00000000000E+00  0.43867184014E+03  0.43867184014E+03  0.00000000000E+00 0. -1.
          4   -1    0    0  505    0 -0.00000000000E+00 -0.00000000000E+00 -0.73132298598E+03  0.73132298598E+03  0.00000000000E+00 0.  1.
         21    1    1    2  503  504 -0.44624807311E+02  0.22315511872E+03  0.21094364418E+03  0.31030114640E+03  0.00000000000E+00 0. -1.
         21    1    1    2  504  501  0.40702050885E+02 -0.31052905188E+02 -0.88156256505E+02  0.10194344230E+03  0.00000000000E+00 0.  1.
         21    1    1    2  505  502 -0.28887910410E+02 -0.25231116932E+02  0.15646425697E+03  0.16109681666E+03  0.00000000000E+00 0. -1.
          4    1    1    2  501    0  0.32810666836E+02 -0.16687109660E+03 -0.57190279048E+03  0.59665342076E+03  0.00000000000E+00 0.  1.
<scales pt_clust_3="212.08536" pt_clust_4="48.19314" pt_clust_5="38.35519" pt_clust_6="48.19314"></scales>
<clustering>
<clus scale="   38.355">  1  5  2 -1</clus>
<clus scale="   48.193">  4  6 -1 -1</clus>
<clus scale="  212.085">  1  3  2 -1</clus>
<clus scale="   38.355">  1  3  2 -1</clus>
</clustering>
</event>
<event>
 6    0  0.2839294E+002  0.9624420E+02  0.7546771E-02  0.1288398E+00
          2   -1    0    0  505    0 -0.00000000000E+00  0.00000000000E+00  0.10316615388E+04  0.10316615388E+04  0.00000000000E+00 0. -1.
         21   -1    0    0  503  502  0.00000000000E+00 -0.00000000000E+00 -0.22430896795E+03  0.22430896795E+03  0.00000000000E+00 0.  1.
         21    1    1    2  503  504  0.77607266216E+02 -0.54999706301E+02 -0.17629136238E+03  0.20031600014E+03  0.00000000000E+00 0.  1.
         21    1    1    2  504  501 -0.10403415205E+03  0.36112705379E+02  0.78649153960E+02  0.13532524414E+03  0.00000000000E+00 0. -1.
         21    1    1    2  505  502  0.56490609682E+02  0.73978346634E+02  0.36426112615E+03  0.37596562713E+03  0.00000000000E+00 0. -1.
          2    1    1    2  501    0 -0.30063723850E+02 -0.55091345711E+02  0.54073365316E+03  0.54436363538E+03  0.00000000000E+00 0. -1.
<scales pt_clust_3="96.24420" pt_clust_4="14000.00000" pt_clust_5="46.70282" pt_clust_6="62.76053"></scales>
<clustering>
<clus scale="   62.761">  1  6  2 -1</clus>
<clus scale="   46.703">  1  5  2 -1</clus>
<clus scale="   96.244">  2  3  1 -1</clus>
<clus scale="   96.244">  2  3  1 -1</clus>
</clustering>
</event>
<event>
 6    0  0.2839294E+002  0.1050958E+03  0.7546771E-02  0.1269931E+00
          2   -1    0    0  504    0 -0.00000000000E+00  0.00000000000E+00  0.39579114963E+03  0.39579114963E+03  0.00000000000E+00 0.  1.
         21   -1    0    0  503  502  0.00000000000E+00 -0.00000000000E+00 -0.22649705612E+03  0.22649705612E+03  0.00000000000E+00 0.  1.
         21    1    1    2  503  501  0.36764093683E+01  0.68073779977E+02  0.42263339418E+01  0.68303860833E+02  0.00000000000E+00 0. -1.
         21    1    1    2  504  505  0.30811731985E+02 -0.23702582787E+02  0.39393172134E+02  0.55344351740E+02  0.00000000000E+00 0. -1.
         21    1    1    2  505  502 -0.10203675266E+03 -0.12793420679E+02 -0.16727094733E+03  0.19635361043E+03  0.00000000000E+00 0.  1.
          2    1    1    2  501    0  0.67548611310E+02 -0.31577776511E+02  0.29294553477E+03  0.30228638276E+03  0.00000000000E+00 0.  1.
<scales pt_clust_3="65.96684" pt_clust_4="38.87384" pt_clust_5="105.09579" pt_clust_6="14000.00000"></scales>
<clustering>
<clus scale="   38.874">  1  4  2 -1</clus>
<clus scale="   65.967">  2  3  1 -1</clus>
<clus scale="  105.096">  2  5  1 -1</clus>
<clus scale="   65.967">  2  3  1 -1</clus>
</clustering>
</event>
<event>
 6    0  0.2839294E+002  0.8268432E+02  0.7546771E-02  0.1321602E+00
         21   -1    0    0  505  502  0.00000000000E+00  0.00000000000E+00  0.85981999094E+02  0.85981999094E+02  0.00000000000E+00 0. -1.
          2   -1    0    0  504    0 -0.00000000000E+00 -0.00000000000E+00 -0.15082505026E+04  0.15082505026E+04  0.00000000000E+00 0.  1.
         21    1    1    2  503  501  0.34725793848E+02  0.13081446198E+02 -0.11935473772E+03  0.12499023325E+03  0.00000000000E+00 0. -1.
         21    1    1    2  504  502  0.31675292204E+02 -0.10289698417E+03 -0.14286122541E+03  0.17888667701E+03  0.00000000000E+00 0. -1.
         21    1    1    2  505  503 -0.25825348136E+02  0.19702870968E+02  0.59673906520E+02  0.67942084529E+02  0.00000000000E+00 0. -1.
          2    1    1    2  501    0 -0.40575737917E+02  0.70112667004E+02 -0.12197264469E+04  0.12224135069E+04  0.00000000000E+00 0.  1.
<scales pt_clust_3="35.09453" pt_clust_4="14000.00000" pt_clust_5="32.48310" pt_clust_6="82.68432"></scales>
<clustering>
<clus scale="   32.483">  1  5  2 -1</clus>
<clus scale="   35.095">  1  3  2 -1</clus>
<clus scale="   82.684">  2  6  1 -1</clus>
<clus scale="   32.483">  1  3  2 -1</clus>
</clustering>
</event>
<event>
 6    0  0.2839294E+002  0.8499423E+02  0.7546771E-02  0.1315448E+00
         21   -1    0    0  503  502  0.00000000000E+00  0.00000000000E+00  0.10014234388E+04  0.10014234388E+04  0.00000000000E+00 0. -1.
          1   -1    0    0  504    0 -0.00000000000E+00 -0.00000000000E+00 -0.11031156576E+04  0.11031156576E+04  0.00000000000E+00 0. -1.
         21    1    1    2  503  505 -0.32030095416E+02  0.65996668472E+02  0.95509812522E+03  0.95791122556E+03  0.00000000000E+00 0. -1.
         21    1    1    2  504  502 -0.71157550282E+02  0.52757303884E+02 -0.10726128640E+03  0.13911043684E+03  0.00000000000E+00 0. -1.
         21    1    1    2  505  501  0.63725829834E+02 -0.42861696345E+02 -0.27568625147E+02  0.81597398820E+02  0.00000000000E+00 0. -1.
          1    1    1    2  501    0  0.39461815864E+02 -0.75892276010E+02 -0.92196043245E+03  0.92592003514E+03  0.00000000000E+00 0. -1.
<scales pt_clust_3="73.35862" pt_clust_4="84.99423" pt_clust_5="44.57568" pt_clust_6="14000.00000"></scales>
<clustering>
<clus scale="   73.359">  1  3  2 -1</clus>
<clus scale="   44.576">  1  5  2 -1</clus>
<clus scale="   84.994">  1  4  2 -1</clus>
<clus scale="   73.359">  1  3  2 -1</clus>
</clustering>
</event>
<event>
 6    0  0.2839294E+002  0.1556260E+03  0.7546771E-02  0.1193725E+00
         21   -1    0    0  505  502  0.00000000000E+00  0.00000000000E+00  0.10191421217E+03  0.10191421217E+03  0.00000000000E+00 0.  1.
          1   -1    0    0  504    0 -0.00000000000E+00 -0.00000000000E+00 -0.44517127903E+03  0.44517127903E+03  0.00000000000E+00 0. -1.
         21    1    1    2  503  502  0.38315553753E+02  0.53090659311E+02 -0.21161075410E+02  0.68807636771E+02  0.00000000000E+00 0.  1.
         21    1    1    2  504  503 -0.78251049277E+02  0.93114671959E+02 -0.59638744059E+01  0.12177494260E+03  0.00000000000E+00 0.  1.
         21    1    1    2  505  501  0.34107980295E+02 -0.83399890922E+02 -0.11734259467E+03  0.14794654659E+03  0.00000000000E+00 0. -1.
          1    1    1    2  501    0  0.58275152292E+01 -0.62805440348E+02 -0.19878952238E+03  0.20855636523E+03  0.00000000000E+00 0. -1.
<scales pt_clust_3="65.47289" pt_clust_4="141.54680" pt_clust_5="54.11894" pt_clust_6="54.11894"></scales>
<clustering>
<clus scale="   54.119">  5  6 -1 -1</clus>
<clus scale="   65.473">  1  3  2 -1</clus>
<clus scale="  141.547">  1  4  2 -1</clus>
<clus scale="   65.473">  1  3  2 -1</clus>
</clustering>
</event>
<event>
 6    0  0.2839294E+002  0.8003185E+02  0.7546771E-02  0.1328961E+00
         21   -1    0    0  504  502  0.00000000000E+00  0.00000000000E+00  0.21638814849E+03  0.21638814849E+03  0.00000000000E+00 0.  1.
          2   -1    0    0  505    0 -0.00000000000E+00 -0.00000000000E+00 -0.20309281383E+04  0.20309281383E+04  0.00000000000E+00 0.  1.
         21    1    1    2  503  502 -0.11204147217E+02  0.46744713610E+02 -0.53532453057E+02  0.71946679532E+02  0.00000000000E+00 0. -1.
         21    1    1    2  504  501  0.64253963915E+01 -0.79185567197E+02  0.19603282924E+03  0.21151952607E+03  0.00000000000E+00 0.  1.
         21    1    1    2  505  503 -0.75320653202E+01  0.95423598498E+02 -0.13619065366E+04  0.13652662046E+04  0.00000000000E+00 0.  1.
          2    1    1    2  501    0  0.12310816146E+02 -0.62982744911E+02 -0.59513382940E+03  0.59858387654E+03  0.00000000000E+00 0.  1.
<scales pt_clust_3="48.06871" pt_clust_4="33.52540" pt_clust_5="14000.00000" pt_clust_6="80.03185"></scales>
<clustering>
<clus scale="   48.069">  1  3  2 -1</clus>
<clus scale="   33.525">  1  4  2 -1</clus>
<clus scale="   80.032">  1  6  2 -1</clus>
<clus scale="   48.069">  1  3  2 -1</clus>
</clustering>
</event>
<event>
 6    0  0.2839294E+002  0.9593667E+02  0.7546771E-02  0.1289080E+00
         21   -1    0    0  503  502  0.00000000000E+00  0.00000000000E+00  0.62161685861E+03  0.62161685861E+03  0.00000000000E+00 0.  1.
         -1   -1    0    0    0  501 -0.00000000000E+00 -0.00000000000E+00 -0.26381041510E+03  0.26381041510E+03  0.00000000000E+00 0. -1.
         21    1    1    2  503  505 -0.35828175128E+02  0.35154589558E+02  0.51022703969E+03  0.51269009678E+03  0.00000000000E+00 0.  1.
         21    1    1    2  504  502  0.20955228107E+02  0.66487563346E+02  0.62563948816E+02  0.93669447293E+02  0.00000000000E+00 0. -1.
         21    1    1    2  505  501 -0.13289376920E+02 -0.12084600834E+03 -0.94869097903E+02  0.15420930908E+03  0.00000000000E+00 0. -1.
         -1    1    1    2    0  504  0.28162323941E+02  0.19203855431E+02 -0.12011544710E+03  0.12485842056E+03  0.00000000000E+00 0. -1.
<scales pt_clust_3="50.13753" pt_clust_4="95.93667" pt_clust_5="14000.00000" pt_clust_6="34.08672"></scales>
<clustering>
<clus scale="   34.087">  2  6  1 -1</clus>
<clus scale="   50.138">  1  3  2 -1</clus>
<clus scale="   95.937">  1  4  2 -1</clus>
<clus scale="   50.138">  1  3  2 -1</clus>
</clustering>
</event>
<event>
 6    0  0.2839294E+002  0.1609583E+03  0.7546771E-02  0.1187619E+00
         21   -1    0    0  504  502  0.00000000000E+00  0.00000000000E+00  0.13166808102E+03  0.13166808102E+03  0.00000000000E+00 0. -1.
          2   -1    0    0  505    0 -0.00000000000E+00 -0.00000000000E+00 -0.25613438755E+04  0.25613438755E+04  0.00000000000E+00 0. -1.
         21    1    1    2  503  502 -0.14484139451E+02 -0.34640355501E+02 -0.37436026601E+02  0.53020756431E+02  0.00000000000E+00 0.  1.
         21    1    1    2  504  501  0.17255543061E+03 -0.85974840281E+01  0.57456076378E+02  0.18207277138E+03  0.00000000000E+00 0. -1.
         21    1    1    2  505  503 -0.65563834556E+02  0.10813068308E+02 -0.37040471053E+03  0.37631793530E+03  0.00000000000E+00 0.  1.
          2    1    1    2  501    0 -0.92507456605E+02  0.32424771221E+02 -0.20792911337E+04  0.20816004934E+04  0.00000000000E+00 0. -1.
<scales pt_clust_3="37.54656" pt_clust_4="160.95830" pt_clust_5="66.66178" pt_clust_6="14000.00000"></scales>
<clustering>
<clus scale="   37.547">  1  3  2 -1</clus>
<clus scale="   66.662">  2  5  1 -1</clus>
<clus scale="  160.958">  1  4  2 -1</clus>
<clus scale="   37.547">  1  3  2 -1</clus>
</clustering>
</event>
<event>
 6    0  0.2839294E+002  0.1488286E+03  0.7546771E-02  0.1201920E+00
          2   -1    0    0  505    0 -0.00000000000E+00  0.00000000000E+00  0.63530626156E+03  0.63530626156E+03  0.00000000000E+00 0. -1.
         21   -1    0    0  504  502  0.00000000000E+00 -0.00000000000E+00 -0.34362505936E+03  0.34362505936E+03  0.00000000000E+00 0. -1.
         21    1    1    2  503  502 -0.38579704915E+02  0.52880574267E+02 -0.15040464812E+03  0.16403142059E+03  0.00000000000E+00 0. -1.
         21    1    1    2  504  501  0.74811969103E+02 -0.18358080614E+02 -0.13954368490E+03  0.15939350627E+03  0.00000000000E+00 0. -1.
         21    1    1    2  505  503 -0.39618491475E+02  0.12916533138E+03  0.21417153038E+03  0.25322470678E+03  0.00000000000E+00 0. -1.
          2    1    1    2  501    0  0.33862272871E+01 -0.16368782504E+03  0.36745800483E+03  0.40228168727E+03  0.00000000000E+00 0. -1.
<scales pt_clust_3="65.45799" pt_clust_4="50.03308" pt_clust_5="148.82858" pt_clust_6="14000.00000"></scales>
<clustering>
<clus scale="   65.458">  2  3  1 -1</clus>
<clus scale="   50.033">  2  4  1 -1</clus>
<clus scale="  148.829">  2  5  1 -1</clus>
<clus scale="   65.458">  2  3  1 -1</clus>
</clustering>
</event>
<event>
 6    0  0.2839294E+002  0.1041434E+03  0.7546771E-02  0.1271817E+00
         21   -1    0    0  504  502  0.00000000000E+00  0.00000000000E+00  0.43016649002E+03  0.43016649002E+03  0.00000000000E+00 0. -1.
          2   -1    0    0  505    0 -0.00000000000E+00 -0.00000000000E+00 -0.18896220027E+04  0.18896220027E+04  0.00000000000E+00 0. -1.
         21    1    1    2  503  502 -0.30601160132E+02 -0.10848356663E+03  0.24878731670E+03  0.27313045268E+03  0.00000000000E+00 0. -1.
         21    1    1    2  504  501  0.77948337389E+02  0.15060054554E+02  0.15749011402E+03  0.17636860423E+03  0.00000000000E+00 0. -1.
         21    1    1    2  505  503 -0.18257495204E+02  0.77995314215E+02 -0.16605684149E+04  0.16624993431E+04  0.00000000000E+00 0. -1.
          2    1    1    2  501    0 -0.29089682053E+02  0.15428197865E+02 -0.20516452851E+03  0.20779009276E+03  0.00000000000E+00 0. -1.
<scales pt_clust_3="14000.00000" pt_clust_4="79.24617" pt_clust_5="104.14336" pt_clust_6="32.92778"></scales>
<clustering>
<clus scale="   32.928">  2  6  1 -1</clus>
<clus scale="   79.246">  1  4  2 -1</clus>
<clus scale="  104.143">  2  5  1 -1</clus>
<clus scale="   79.246">  1  3  2 -1</clus>
</clustering>
</event>
<event>
 6    0  0.2839294E+002  0.1725962E+03  0.7546771E-02  0.1175167E+00
         -3   -1    0    0    0  501 -0.00000000000E+00  0.00000000000E+00  0.20499768889E+03  0.20499768889E+03  0.00000000000E+00 0.  1.
         21   -1    0    0  505  502  0.00000000000E+00 -0.00000000000E+00 -0.76980418898E+03  0.76980418898E+03  0.00000000000E+00 0.  1.
         21    1    1    2  503  501 -0.10397739263E+02 -0.43475400949E+02 -0.88172136806E+01  0.45562777863E+02  0.00000000000E+00 0.  1.
         21    1    1    2  504  502  0.13231625162E+03 -0.11736599433E+03 -0.28370049674E+03  0.33431772151E+03  0.00000000000E+00 0.  1.
         21    1    1    2  505  503  0.11611462284E+02  0.28061256435E+02 -0.37783207513E+03  0.37905057337E+03  0.00000000000E+00 0.  1.
         -3    1    1    2    0  504 -0.13352997464E+03  0.13278013885E+03  0.10554328546E+03  0.21587080513E+03  0.00000000000E+00 0.  1.
<scales pt_clust_3="42.61905" pt_clust_4="172.59617" pt_clust_5="30.36874" pt_clust_6="14000.00000"></scales>
<clustering>
<clus scale="   30.369">  2  5  1 -1</clus>
<clus scale="   42.619">  1  3  2 -1</clus>
<clus scale="  172.596">  2  4  1 -1</clus>
<clus scale="   30.369">  2  3  1 -1</clus>
</clustering>
</event>
<event>
 6    0  0.2839294E+002  0.1048022E+03  0.7546771E-02  0.1270510E+00
         21   -1    0    0  501  502  0.00000000000E+00  0.00000000000E+00  0.28714295420E+03  0.28714295420E+03  0.00000000000E+00 0.  1.
          2   -1    0    0  504    0 -0.00000000000E+00 -0.00000000000E+00 -0.72395425990E+03  0.72395425990E+03  0.00000000000E+00 0.  1.
         21    1    1    2  503  505 -0.12282592188E+03 -0.37332469813E+02 -0.22901508917E+03  0.26254110431E+03  0.00000000000E+00 0.  1.
         21    1    1    2  504  503  0.14957247915E+02  0.64516090814E+02 -0.29016726506E+03  0.29762910972E+03  0.00000000000E+00 0.  1.
         21    1    1    2  505  502  0.34413948111E+02 -0.78604101124E+02  0.24808778997E+03  0.26250804953E+03  0.00000000000E+00 0.  1.
          2    1    1    2  501    0  0.73454725854E+02  0.51420480123E+02 -0.16571674144E+03  0.18841895054E+03  0.00000000000E+00 0.  1.
<scales pt_clust_3="14000.00000" pt_clust_4="66.22722" pt_clust_5="84.91980" pt_clust_6="104.80221"></scales>
<clustering>
<clus scale="   66.227">  2  4  1 -1</clus>
<clus scale="   84.920">  1  5  2 -1</clus>
<clus scale="  104.802">  1  6  2 -1</clus>
<clus scale="   84.920">  1  3  2 -1</clus>
</clustering>
</event>
<event>
 6    0  0.2839294E+002  0.1164565E+03  0.7546771E-02  0.1249060E+00
          1   -1    0    0  504    0 -0.00000000000E+00  0.00000000000E+00  0.15023221167E+04  0.15023221167E+04  0.00000000000E+00 0.  1.
         21   -1    0    0  503  502  0.00000000000E+00 -0.00000000000E+00 -0.20234482928E+03  0.20234482928E+03  0.00000000000E+00 0. -1.
         21    1    1    2  503  501  0.95001650751E+02 -0.49110188152E+01  0.42162803897E+03  0.43222637008E+03  0.00000000000E+00 0.  1.
         21    1    1    2  504  505 -0.85700315642E+02  0.15872381962E+02 -0.12496909885E+03  0.15236059950E+03  0.00000000000E+00 0. -1.
         21    1    1    2  505  502 -0.30785902674E+02 -0.48725630446E+02 -0.43594189388E+02  0.72266259169E+02  0.00000000000E+00 0. -1.
          1    1    1    2  501    0  0.21484567566E+02  0.37764267300E+02  0.10469125367E+04  0.10478137172E+04  0.00000000000E+00 0.  1.
<scales pt_clust_3="116.45655" pt_clust_4="14000.00000" pt_clust_5="56.26886" pt_clust_6="43.44797"></scales>
<clustering>
<clus scale="   43.448">  1  6  2 -1</clus>
<clus scale="   56.269">  2  5  1 -1</clus>
<clus scale="  116.457">  1  3  2 -1</clus>
<clus scale="   56.269">  2  3  1 -1</clus>
</clustering>
</event>
<event>
 6    0  0.2839294E+002  0.1426130E+03  0.7546771E-02  0.1209856E+00
          2   -1    0    0  504    0 -0.00000000000E+00  0.00000000000E+00  0.71968523444E+03  0.71968523444E+03  0.00000000000E+00 0. -1.
         21   -1    0    0  505  502  0.00000000000E+00 -0.00000000000E+00 -0.59093674850E+03  0.59093674850E+03  0.00000000000E+00 0. -1.
         21    1    1    2  503  502 -0.11839126107E+03 -0.34692391548E+02 -0.28882007151E+03  0.31406541745E+03  0.00000000000E+00 0. -1.
         21    1    1    2  504  503 -0.42063226929E+02 -0.28836610001E+02  0.11052441892E+03  0.12172309688E+03  0.00000000000E+00 0. -1.
         21    1    1    2  505  501  0.16987153856E+03  0.14466128999E+03 -0.23652780624E+03  0.32515939408E+03  0.00000000000E+00 0. -1.
          2    1    1    2  501    0 -0.94170505600E+01 -0.81132288440E+02  0.54357194477E+03  0.54967407453E+03  0.00000000000E+00 0. -1.
<scales pt_clust_3="142.61305" pt_clust_4="50.99868" pt_clust_5="14000.00000" pt_clust_6="117.30153"></scales>
<clustering>
<clus scale="   50.999">  1  4  2 -1</clus>
<clus scale="  117.302">  1  6  2 -1</clus>
<clus scale="  142.613">  2  3  1 -1</clus>
<clus scale="  142.613">  2  3  1 -1</clus>
</clustering>
</event>
<event>
 6    0  0.2839294E+002  0.9623994E+02  0.7546771E-02  0.1288408E+00
          2   -1    0    0  505    0 -0.00000000000E+00  0.00000000000E+00  0.22979398546E+04  0.22979398546E+04  0.00000000000E+00 0.  1.
         21   -1    0    0  503  502  0.00000000000E+00 -0.00000000000E+00 -0.22336815012E+04  0.22336815012E+04  0.00000000000E+00 0.  1.
         21    1    1    2  503  501  0.82425823046E+02 -0.82294634618E+02  0.31076106058E+03  0.33187175229E+03  0.00000000000E+00 0.  1.
         21    1    1    2  504  502  0.13572824104E+02  0.57796092420E+02 -0.22195224568E+04  0.22203163167E+04  0.00000000000E+00 0.  1.
         21    1    1    2  505  504 -0.17080551775E+02  0.33954984538E+02  0.15201533583E+03  0.15669508145E+03  0.00000000000E+00 0. -1.
          2    1    1    2  501    0 -0.78918095375E+02 -0.94564423392E+01  0.18210044138E+04  0.18227382053E+04  0.00000000000E+00 0.  1.
<scales pt_clust_3="96.23994" pt_clust_4="59.37382" pt_clust_5="38.00903" pt_clust_6="14000.00000"></scales>
<clustering>
<clus scale="   38.009">  1  5  2 -1</clus>
<clus scale="   59.374">  2  4  1 -1</clus>
<clus scale="   96.240">  2  3  1 -1</clus>
<clus scale="   59.374">  2  3  1 -1</clus>
</clustering>
</event>
<event>
 6    0  0.2839294E+002  0.1057312E+03  0.7546771E-02  0.1268686E+00
          2   -1    0    0  503    0 -0.00000000000E+00  0.00000000000E+00  0.21254415609E+03  0.21254415609E+03  0.00000000000E+00 0.  1.
         21   -1    0    0  504  502  0.00000000000E+00 -0.00000000000E+00 -0.78625796028E+03  0.78625796028E+03  0.00000000000E+00 0.  1.
         21    1    1    2  503  505 -0.43455067789E+02  0.12852855608E+02  0.13619416050E+02  0.47318361207E+02  0.00000000000E+00 0.  1.
         21    1    1    2  504  501 -0.10548295850E+03 -0.39881130116E+02 -0.41089465026E+03  0.42608869110E+03  0.00000000000E+00 0.  1.
         21    1    1    2  505  502  0.10351279557E+03 -0.84641166123E+01 -0.33813730071E+03  0.35372782510E+03  0.00000000000E+00 0.  1.
          2    1    1    2  501    0  0.45425230713E+02  0.35492391121E+02  0.16169873073E+03  0.17166723896E+03  0.00000000000E+00 0.  1.
<scales pt_clust_3="45.31599" pt_clust_4="14000.00000" pt_clust_5="105.73123" pt_clust_6="47.59450"></scales>
<clustering>
<clus scale="   45.316">  1  3  2 -1</clus>
<clus scale="   47.594">  1  6  2 -1</clus>
<clus scale="  105.731">  1  5  2 -1</clus>
<clus scale="  105.731">  2  3  1 -1</clus>
</clustering>
</event>
<event>
 6    0  0.2839294E+002  0.1052780E+03  0.7546771E-02  0.1269573E+00
         21   -1    0    0  503  502  0.00000000000E+00  0.00000000000E+00  0.21873193734E+02  0.21873193734E+02  0.00000000000E+00 0.  1.
         -3   -1    0    0    0  501 -0.00000000000E+00 -0.00000000000E+00 -0.16631481907E+04  0.16631481907E+04  0.00000000000E+00 0. -1.
         21    1    1    2  503  501 -0.28952030678E+02 -0.12460643952E+03 -0.50252445000E+03  0.51855164419E+03  0.00000000000E+00 0.  1.
         21    1    1    2  504  505 -0.58904610711E+01  0.87419232726E+02 -0.44687951272E+03  0.45538787716E+03  0.00000000000E+00 0.  1.
         21    1    1    2  505  502  0.36666939616E+02 -0.75271381619E+01 -0.30735284992E+02  0.48433253177E+02  0.00000000000E+00 0.  1.
         -3    1    1    2    0  504 -0.18244478665E+01  0.44714344951E+02 -0.66113574927E+03  0.66264860991E+03  0.00000000000E+00 0. -1.
<scales pt_clust_3="105.27799" pt_clust_4="14000.00000" pt_clust_5="37.43157" pt_clust_6="44.27823"></scales>
<clustering>
<clus scale="   37.432">  1  5  2 -1</clus>
<clus scale="   44.278">  2  6  1 -1</clus>
<clus scale="  105.278">  2  3  1 -1</clus>
<clus scale="   37.432">  1  3  2 -1</clus>
</clustering>
</event>
<event>
 6    0  0.2839294E+002  0.1237956E+03  0.7546771E-02  0.1236964E+00
         21   -1    0    0  503  502  0.00000000000E+00  0.00000000000E+00  0.58909593058E+03  0.58909593058E+03  0.00000000000E+00 0. -1.
          2   -1    0    0  505    0 -0.00000000000E+00 -0.00000000000E+00 -0.21876701310E+03  0.21876701310E+03  0.00000000000E+00 0.  1.
         21    1    1    2  503  504  0.39696489779E+02 -0.26612831384E+02  0.32982879616E+03  0.33327329457E+03  0.00000000000E+00 0. -1.
         21    1    1    2  504  501  0.98311251799E+02  0.50077716702E+02  0.19925758839E+03  0.22776405878E+03  0.00000000000E+00 0. -1.
         21    1    1    2  505  502 -0.10474347322E+03  0.21183859772E+02 -0.37252232693E+02  0.11317102075E+03  0.00000000000E+00 0.  1.
          2    1    1    2  501    0 -0.33264268358E+02 -0.44648745089E+02 -0.12150523438E+03  0.13365456958E+03  0.00000000000E+00 0.  1.
<scales pt_clust_3="47.79178" pt_clust_4="14000.00000" pt_clust_5="123.79555" pt_clust_6="55.63321"></scales>
<clustering>
<clus scale="   47.792">  1  3  2 -1</clus>
<clus scale="   55.633">  2  6  1 -1</clus>
<clus scale="  123.796">  2  5  1 -1</clus>
<clus scale="   47.792">  1  3  2 -1</clus>
</clustering>
</event>
<event>
 6    0  0.2839294E+002  0.1402662E+03  0.7546771E-02  0.1212971E+00
         21   -1    0    0  504  502  0.00000000000E+00  0.00000000000E+00  0.47775238696E+02  0.47775238696E+02  0.00000000000E+00 0.  1.
          2   -1    0    0  503    0 -0.00000000000E+00 -0.00000000000E+00 -0.17394608206E+04  0.17394608206E+04  0.00000000000E+00 0.  1.
         21    1    1    2  503  502  0.81865907833E+02  0.83449679283E+02 -0.16522961761E+03  0.20240232798E+03  0.00000000000E+00 0.  1.
         21    1    1    2  504  505  0.31766687546E+02 -0.18472240897E+02  0.12847021744E+02  0.38928037313E+02  0.00000000000E+00 0.  1.
         21    1    1    2  505  501 -0.41467065707E+02  0.37730593246E+01 -0.36059122177E+03  0.36298730382E+03  0.00000000000E+00 0. -1.
          2    1    1    2  501    0 -0.72165529671E+02 -0.68750497710E+02 -0.11787117642E+04  0.11829183901E+04  0.00000000000E+00 0.  1.
<scales pt_clust_3="128.21198" pt_clust_4="36.74706" pt_clust_5="36.12780" pt_clust_6="36.12780"></scales>
<clustering>
<clus scale="   36.747">  1  4  2 -1</clus>
<clus scale="   36.128">  5  6 -1 -1</clus>
<clus scale="  128.212">  1  3  2 -1</clus>
<clus scale="   36.747">  1  3  2 -1</clus>
</clustering>
</event>
<event>
 6    0  0.2839294E+002  0.1266925E+03  0.7546771E-02  0.1232448E+00
          2   -1    0    0  503    0 -0.00000000000E+00  0.00000000000E+00  0.93756368357E+03  0.93756368357E+03  0.00000000000E+00 0.  1.
         21   -1    0    0  504  502  0.00000000000E+00 -0.00000000000E+00 -0.37516766119E+02  0.37516766119E+02  0.00000000000E+00 0.  1.
         21    1    1    2  503  502  0.11519924887E+02  0.33445276915E+02  0.23582642980E+02  0.42513953795E+02  0.00000000000E+00 0.  1.
         21    1    1    2  504  505  0.10954862974E+03 -0.46628432198E+02  0.13440670712E+03  0.17955577375E+03  0.00000000000E+00 0.  1.
         21    1    1    2  505  501 -0.71924794605E+02  0.33547639704E+01  0.32072824493E+03  0.32871117659E+03  0.00000000000E+00 0.  1.
          2    1    1    2  501    0 -0.49143760026E+02  0.98283913120E+01  0.42132932243E+03  0.42429954556E+03  0.00000000000E+00 0.  1.
<scales pt_clust_3="35.37365" pt_clust_4="120.44360" pt_clust_5="32.78583" pt_clust_6="32.78583"></scales>
<clustering>
<clus scale="   32.786">  5  6 -1 -1</clus>
<clus scale="   35.374">  2  3  1 -1</clus>
<clus scale="  120.444">  2  4  1 -1</clus>
<clus scale="   35.374">  2  3  1 -1</clus>
</clustering>
</event>
<event>
 6    0  0.2839294E+002  0.1304508E+03  0.7546771E-02  0.1226788E+00
          2   -1    0    0  505    0 -0.00000000000E+00  0.00000000000E+00  0.49333926828E+03  0.49333926828E+03  0.00000000000E+00 0.  1.
         21   -1    0    0  503  502  0.00000000000E+00 -0.00000000000E+00 -0.84903772188E+03  0.84903772188E+03  0.00000000000E+00 0. -1.
         21    1    1    2  503  501  0.49172589770E+02  0.11055679661E+03 -0.59251107673E+03  0.60473971666E+03  0.00000000000E+00 0. -1.
         21    1    1    2  504  502 -0.14675155124E+03 -0.18197621160E+03 -0.15588010374E+03  0.28098036608E+03  0.00000000000E+00 0. -1.
         21    1    1    2  505  504  0.98334484973E+02  0.46311012777E+01  0.55700202543E+02  0.11310893244E+03  0.00000000000E+00 0. -1.
          2    1    1    2  501    0 -0.75552350275E+00  0.66788313716E+02  0.33699252433E+03  0.34354797499E+03  0.00000000000E+00 0.  1.
<scales pt_clust_3="130.45084" pt_clust_4="14000.00000" pt_clust_5="106.33332" pt_clust_6="66.79259"></scales>
<clustering>
<clus scale="   66.793">  1  6  2 -1</clus>
<clus scale="  106.333">  1  5  2 -1</clus>
<clus scale="  130.451">  2  3  1 -1</clus>
<clus scale="  130.451">  2  3  1 -1</clus>
</clustering>
</event>
<event>
 6    0  0.2839294E+002  0.1485934E+03  0.7546771E-02  0.1202212E+00
         21   -1    0    0  505  502  0.00000000000E+00  0.00000000000E+00  0.30725026759E+03  0.30725026759E+03  0.00000000000E+00 0. -1.
          1   -1    0    0  504    0 -0.00000000000E+00 -0.00000000000E+00 -0.22002961795E+03  0.22002961795E+03  0.00000000000E+00 0. -1.
         21    1    1    2  503  502 -0.34002759960E+02  0.27419342578E+02  0.11421155663E+03  0.12227954735E+03  0.00000000000E+00 0. -1.
         21    1    1    2  504  503 -0.10246237599E+02  0.99586667451E+02  0.14595302043E+03  0.17698806144E+03  0.00000000000E+00 0. -1.
         21    1    1    2  505  501  0.49471469791E+02 -0.47239289739E+02 -0.86398936124E+02  0.11019869773E+03  0.00000000000E+00 0. -1.
          1    1    1    2  501    0 -0.52224722321E+01 -0.79766720290E+02 -0.86544991299E+02  0.11781357902E+03  0.00000000000E+00 0. -1.
<scales pt_clust_3="40.64887" pt_clust_4="147.90367" pt_clust_5="58.44270" pt_clust_6="58.44270"></scales>
<clustering>
<clus scale="   40.649">  3  4 -1 -1</clus>
<clus scale="   58.443">  5  6 -1 -1</clus>
<clus scale="  147.904">  1  3  2 -1</clus>
<clus scale="  147.904">  1  3  2 -1</clus>
</clustering>
</event>
<event>
 6    0  0.2839294E+002  0.7491203E+02  0.7546771E-02  0.1344144E+00
         -2   -1    0    0    0  501 -0.00000000000E+00  0.00000000000E+00  0.14307384233E+04  0.14307384233E+04  0.00000000000E+00 0. -1.
         21   -1    0    0  504  502  0.00000000000E+00 -0.00000000000E+00 -0.29502872476E+02  0.29502872476E+02  0.00000000000E+00 0.  1.
         21    1    1    2  503  502 -0.46878676059E+02 -0.18019930877E+02  0.45924733624E+02  0.68054458608E+02  0.00000000000E+00 0.  1.
         21    1    1    2  504  505  0.52666334900E+02  0.93599135707E+02  0.15991261631E+03  0.19263069821E+03  0.00000000000E+00 0.  1.
         21    1    1    2  505  501  0.29037384498E+02 -0.24656132690E+02  0.45077471832E+03  0.45238141126E+03  0.00000000000E+00 0. -1.
         -2    1    1    2    0  503 -0.34825043338E+02 -0.50923072140E+02  0.74462348253E+03  0.74717472767E+03  0.00000000000E+00 0. -1.
<scales pt_clust_3="49.19866" pt_clust_4="74.91203" pt_clust_5="38.09324" pt_clust_6="14000.00000"></scales>
<clustering>
<clus scale="   38.093">  1  5  2 -1</clus>
<clus scale="   49.199">  2  3  1 -1</clus>
<clus scale="   74.912">  2  4  1 -1</clus>
<clus scale="   49.199">  2  3  1 -1</clus>
</clustering>
</event>
<event>
 6    0  0.2839294E+002  0.1526036E+03  0.7546771E-02  0.1197310E+00
         21   -1    0    0  501  502  0.00000000000E+00  0.00000000000E+00  0.43388894749E+02  0.43388894749E+02  0.00000000000E+00 0.  1.
          1   -1    0    0  505    0 -0.00000000000E+00 -0.00000000000E+00 -0.96103871572E+03  0.96103871572E+03  0.00000000000E+00 0. -1.
         21    1    1    2  503  502 -0.58329309647E+02  0.66519522744E+02 -0.80219134852E+02  0.11942472469E+03  0.00000000000E+00 0.  1.
         21    1    1    2  504  503 -0.70667382736E+02  0.25439829849E+02 -0.95604820335E+02  0.12157855731E+03  0.00000000000E+00 0.  1.
         21    1    1    2  505  504  0.60533634494E+02  0.56794280732E+01 -0.23149921069E+03  0.23935008118E+03  0.00000000000E+00 0. -1.
          1    1    1    2  501    0  0.68463057889E+02 -0.97638780666E+02 -0.51032665509E+03  0.52407424730E+03  0.00000000000E+00 0. -1.
<scales pt_clust_3="41.93903" pt_clust_4="41.93903" pt_clust_5="60.79948" pt_clust_6="145.65711"></scales>
<clustering>
<clus scale="   41.939">  3  4 -1 -1</clus>
<clus scale="   60.799">  2  5  1 -1</clus>
<clus scale="  145.657">  2  6  1 -1</clus>
<clus scale="  152.604">  1  3  2 -1</clus>
</clustering>
</event>
<event>
 6    0  0.2839294E+002  0.8567868E+02  0.7546771E-02  0.1313667E+00
          2   -1    0    0  503    0 -0.00000000000E+00  0.00000000000E+00  0.19710834127E+04  0.19710834127E+04  0.00000000000E+00 0.  1.
         21   -1    0    0  504  502  0.00000000000E+00 -0.00000000000E+00 -0.21176677478E+03  0.21176677478E+03  0.00000000000E+00 0.  1.
         21    1    1    2  503  505  0.58823401240E+02  0.27285067238E+01  0.56845214739E+02  0.81847515058E+02  0.00000000000E+00 0.  1.
         21    1    1    2  504  501 -0.40596430978E+02 -0.45438913116E+02 -0.40320236143E+02  0.73064946971E+02  0.00000000000E+00 0.  1.
         21    1    1    2  505  502  0.33712862373E+02 -0.27052228763E+02 -0.13826877530E+03  0.14486764440E+03  0.00000000000E+00 0.  1.
          2    1    1    2  501    0 -0.51939832635E+02  0.69762635155E+02  0.18810604346E+04  0.18830700811E+04  0.00000000000E+00 0.  1.
<scales pt_clust_3="64.86073" pt_clust_4="85.67868" pt_clust_5="43.22476" pt_clust_6="14000.00000"></scales>
<clustering>
<clus scale="   43.225">  2  5  1 -1</clus>
<clus scale="   64.861">  2  3  1 -1</clus>
<clus scale="   85.679">  2  4  1 -1</clus>
<clus scale="   43.225">  2  3  1 -1</clus>
</clustering>
</event>
<event>
 6    0  0.2839294E+002  0.7233557E+02  0.7546771E-02  0.1352326E+00
         21   -1    0    0  505  502  0.00000000000E+00  0.00000000000E+00  0.51265517677E+03  0.51265517677E+03  0.00000000000E+00 0. -1.
          1   -1    0    0  504    0 -0.00000000000E+00 -0.00000000000E+00 -0.89606408231E+03  0.89606408231E+03  0.00000000000E+00 0.  1.
         21    1    1    2  503  502  0.54268997791E+02 -0.29005782222E+02  0.34989328689E+03  0.35526296138E+03  0.00000000000E+00 0. -1.
         21    1    1    2  504  503 -0.16818477131E+01 -0.57258091711E+02 -0.85999520525E+02  0.10333070797E+03  0.00000000000E+00 0.  1.
         21    1    1    2  505  501 -0.13202786181E+02 -0.30895596762E+02  0.14469319466E+03  0.14854282898E+03  0.00000000000E+00 0.  1.
          1    1    1    2  501    0 -0.39384363897E+02  0.11715947069E+03 -0.79199586655E+03  0.80158276075E+03  0.00000000000E+00 0.  1.
<scales pt_clust_3="72.33557" pt_clust_4="58.02380" pt_clust_5="33.59838" pt_clust_6="14000.00000"></scales>
<clustering>
<clus scale="   33.598">  1  5  2 -1</clus>
<clus scale="   58.024">  2  4  1 -1</clus>
<clus scale="   72.336">  1  3  2 -1</clus>
<clus scale="   33.598">  1  3  2 -1</clus>
</clustering>
</event>
<event>
 6    0  0.2839294E+002  0.8874670E+02  0.7546771E-02  0.1305915E+00
         21   -1    0    0  505  502  0.00000000000E+00  0.00000000000E+00  0.71384708297E+03  0.71384708297E+03  0.00000000000E+00 0.  1.
          1   -1    0    0  503    0 -0.00000000000E+00 -0.00000000000E+00 -0.18759442845E+03  0.18759442845E+03  0.00000000000E+00 0. -1.
         21    1    1    2  503  504 -0.51864799634E+02 -0.80774873639E+02 -0.80773468449E+02  0.12545473629E+03  0.00000000000E+00 0. -1.
         21    1    1    2  504  502  0.43725427515E+02 -0.12338408979E+02  0.40158550426E+03  0.40414733276E+03  0.00000000000E+00 0.  1.
         21    1    1    2  505  501  0.46534934098E+02  0.40238575042E+02  0.27181923784E+03  0.27869399182E+03  0.00000000000E+00 0.  1.
          1    1    1    2  501    0 -0.38395561980E+02  0.52874707577E+02 -0.66378619135E+02  0.93145450557E+02  0.00000000000E+00 0. -1.
<scales pt_clust_3="14000.00000" pt_clust_4="45.43291" pt_clust_5="88.74670" pt_clust_6="63.82100"></scales>
<clustering>
<clus scale="   45.433">  1  4  2 -1</clus>
<clus scale="   63.821">  2  6  1 -1</clus>
<clus scale="   88.747">  1  5  2 -1</clus>
<clus scale="   45.433">  1  3  2 -1</clus>
</clustering>
</event>
<event>
 6    0  0.2839294E+002  0.1087684E+03  0.7546771E-02  0.1262868E+00
          4   -1    0    0  505    0 -0.00000000000E+00  0.00000000000E+00  0.67574437759E+03  0.67574437759E+03  0.00000000000E+00 0. -1.
         21   -1    0    0  504  502  0.00000000000E+00 -0.00000000000E+00 -0.91108055855E+03  0.91108055855E+03  0.00000000000E+00 0. -1.
         21    1    1    2  503  501  0.54545995487E+02  0.49018594795E+02 -0.47049633676E+03  0.47617737364E+03  0.00000000000E+00 0. -1.
         21    1    1    2  504  503  0.22495135661E+02 -0.29302225214E+02 -0.41683252315E+03  0.41846625179E+03  0.00000000000E+00 0. -1.
         21    1    1    2  505  502 -0.12863759541E+03  0.54940405773E+02  0.43630554720E+03  0.45817966962E+03  0.00000000000E+00 0. -1.
          4    1    1    2  501    0  0.51596464260E+02 -0.74656775354E+02  0.21568713175E+03  0.23400164109E+03  0.00000000000E+00 0. -1.
<scales pt_clust_3="78.94452" pt_clust_4="36.94119" pt_clust_5="108.76840" pt_clust_6="14000.00000"></scales>
<clustering>
<clus scale="   36.941">  2  4  1 -1</clus>
<clus scale="   78.945">  2  3  1 -1</clus>
<clus scale="  108.768">  2  5  1 -1</clus>
<clus scale="   36.941">  2  3  1 -1</clus>
</clustering>
</event>
<event>
 6    0  0.2839294E+002  0.8106940E+02  0.7546771E-02  0.1326044E+00
         21   -1    0    0  503  502  0.00000000000E+00  0.00000000000E+00  0.28378545162E+03  0.28378545162E+03  0.00000000000E+00 0. -1.
          1   -1    0    0  505    0 -0.00000000000E+00 -0.00000000000E+00 -0.31091619342E+03  0.31091619342E+03  0.00000000000E+00 0.  1.
         21    1    1    2  503  501 -0.77374097652E+01 -0.29631066806E+02  0.89437750550E+01  0.31903898542E+02  0.00000000000E+00 0. -1.
         21    1    1    2  504  502 -0.36019769507E+02  0.46859077838E+02  0.23562303816E+03  0.24292264836E+03  0.00000000000E+00 0. -1.
         21    1    1    2  505  504  0.60264838315E+02  0.62794814475E+02 -0.14500819348E+03  0.16912248709E+03  0.00000000000E+00 0.  1.
          1    1    1    2  501    0 -0.16507659044E+02 -0.80022825507E+02 -0.12668936154E+03  0.15075261105E+03  0.00000000000E+00 0.  1.
<scales pt_clust_3="30.62462" pt_clust_4="47.44250" pt_clust_5="81.06940" pt_clust_6="14000.00000"></scales>
<clustering>
<clus scale="   30.625">  1  3  2 -1</clus>
<clus scale="   47.442">  1  4  2 -1</clus>
<clus scale="   81.069">  1  5  2 -1</clus>
<clus scale="   30.625">  1  3  2 -1</clus>
</clustering>
</event>
<event>
 6    0  0.2839294E+002  0.1468350E+03  0.7546771E-02  0.1204417E+00
          1   -1    0    0  504    0 -0.00000000000E+00  0.00000000000E+00  0.15036737531E+04  0.15036737531E+04  0.00000000000E+00 0. -1.
         21   -1    0    0  503  502  0.00000000000E+00 -0.00000000000E+00 -0.41751315287E+02  0.41751315287E+02  0.00000000000E+00 0.  1.
         21    1    1    2  503  505  0.59394658947E+02 -0.13895260690E+03  0.15468870487E+03  0.21625019744E+03  0.00000000000E+00 0.  1.
         21    1    1    2  504  502 -0.50786951485E+02  0.23701616625E+02  0.92672413991E+03  0.92841731595E+03  0.00000000000E+00 0. -1.
         21    1    1    2  505  501 -0.15986997159E+02  0.72916594894E+02  0.16638353241E+03  0.18236198548E+03  0.00000000000E+00 0.  1.
          1    1    1    2  501    0  0.73792896963E+01  0.42334395386E+02  0.21412606067E+03  0.21839556957E+03  0.00000000000E+00 0. -1.
<scales pt_clust_3="138.19671" pt_clust_4="56.04535" pt_clust_5="37.64834" pt_clust_6="37.64834"></scales>
<clustering>
<clus scale="   37.648">  5  6 -1 -1</clus>
<clus scale="   56.045">  1  4  2 -1</clus>
<clus scale="  138.197">  2  3  1 -1</clus>
<clus scale="  138.197">  2  3  1 -1</clus>
</clustering>
</event>
<event>
 6    0  0.2839294E+002  0.1933562E+03  0.7546771E-02  0.1155469E+00
          2   -1    0    0  504    0 -0.00000000000E+00  0.00000000000E+00  0.35957139823E+03  0.35957139823E+03  0.00000000000E+00 0.  1.
         21   -1    0    0  503  502  0.00000000000E+00 -0.00000000000E+00 -0.25599501126E+03  0.25599501126E+03  0.00000000000E+00 0.  1.
         21    1    1    2  503  505 -0.10198053856E+03 -0.68124476983E+02 -0.59638786531E+02  0.13637360254E+03  0.00000000000E+00 0.  1.
         21    1    1    2  504  502  0.14493536944E+03 -0.12659872894E+03 -0.35101485571E+02  0.19561598548E+03  0.00000000000E+00 0.  1.
         21    1    1    2  505  501 -0.40420916783E+02  0.10162506259E+03  0.10087437889E+03  0.14878556441E+03  0.00000000000E+00 0. -1.
          2    1    1    2  501    0 -0.25339140978E+01  0.93098143336E+02  0.97442280192E+02  0.13479125707E+03  0.00000000000E+00 0.  1.
<scales pt_clust_3="122.64165" pt_clust_4="189.90142" pt_clust_5="33.57842" pt_clust_6="33.57842"></scales>
<clustering>
<clus scale="   33.578">  5  6 -1 -1</clus>
<clus scale="  122.642">  2  3  1 -1</clus>
<clus scale="  189.901">  2  4  1 -1</clus>
<clus scale="  122.642">  2  3  1 -1</clus>
</clustering>
</event>
<event>
 6    0  0.2839294E+002  0.1624326E+03  0.7546771E-02  0.1185977E+00
         21   -1    0    0  504  502  0.00000000000E+00  0.00000000000E+00  0.12896901887E+04  0.12896901887E+04  0.00000000000E+00 0.  1.
         -2   -1    0    0    0  501 -0.00000000000E+00 -0.00000000000E+00 -0.12357187256E+03  0.12357187256E+03  0.00000000000E+00 0. -1.
         21    1    1    2  503  501  0.58921947356E+02  0.94838735893E+01  0.22066404935E+02  0.63629128277E+02  0.00000000000E+00 0. -1.
         21    1    1    2  504  505 -0.26885801268E+02  0.27617450065E+02  0.79945331803E+03  0.80038189483E+03  0.00000000000E+00 0.  1.
         21    1    1    2  505  503  0.13844455793E+02 -0.18547932697E+03  0.34724327770E+03  0.39391895562E+03  0.00000000000E+00 0. -1.
         -2    1    1    2    0  502 -0.45880601881E+02  0.14837800331E+03 -0.26446845676E+01  0.15533208250E+03  0.00000000000E+00 0. -1.
<scales pt_clust_3="57.80793" pt_clust_4="38.54309" pt_clust_5="162.43259" pt_clust_6="14000.00000"></scales>
<clustering>
<clus scale="   38.543">  1  4  2 -1</clus>
<clus scale="   57.808">  2  3  1 -1</clus>
<clus scale="  162.433">  1  5  2 -1</clus>
<clus scale="   38.543">  1  3  2 -1</clus>
</clustering>
</event>
<event>
 6    0  0.2839294E+002  0.8739251E+02  0.7546771E-02  0.1309292E+00
         -1   -1    0    0    0  501 -0.00000000000E+00  0.00000000000E+00  0.38713677287E+03  0.38713677287E+03  0.00000000000E+00 0.  1.
         21   -1    0    0  505  502  0.00000000000E+00 -0.00000000000E+00 -0.56109259938E+02  0.56109259938E+02  0.00000000000E+00 0.  1.
         21    1    1    2  503  502  0.42479372713E+01  0.34227437247E+02 -0.31978090155E+01  0.34637962037E+02  0.00000000000E+00 0.  1.
         21    1    1    2  504  503 -0.75085579268E+02 -0.83180532201E+02  0.21439597309E+03  0.24191419642E+03  0.00000000000E+00 0.  1.
         21    1    1    2  505  501  0.42501941828E+02 -0.13427869329E+02  0.30044405939E+02  0.53753037701E+02  0.00000000000E+00 0.  1.
         -1    1    1    2    0  504  0.28335700169E+02  0.62380964283E+02  0.89784942922E+02  0.11294083666E+03  0.00000000000E+00 0.  1.
<scales pt_clust_3="34.49003" pt_clust_4="14000.00000" pt_clust_5="43.92816" pt_clust_6="87.39251"></scales>
<clustering>
<clus scale="   34.490">  2  3  1 -1</clus>
<clus scale="   43.928">  2  5  1 -1</clus>
<clus scale="   87.393">  1  6  2 -1</clus>
<clus scale="   34.490">  2  3  1 -1</clus>
</clustering>
</event>
<event>
 6    0  0.2839294E+002  0.1541710E+03  0.7546771E-02  0.1195439E+00
          2   -1    0    0  505    0 -0.00000000000E+00  0.00000000000E+00  0.34742343943E+04  0.34742343943E+04  0.00000000000E+00 0. -1.
         21   -1    0    0  504  502  0.00000000000E+00 -0.00000000000E+00 -0.18800879948E+03  0.18800879948E+03  0.00000000000E+00 0. -1.
         21    1    1    2  503  502  0.14365850945E+03  0.64475102843E+02 -0.58167989728E+02  0.16786399630E+03  0.00000000000E+00 0. -1.
         21    1    1    2  504  501 -0.22152955618E+02  0.31835088629E+02 -0.65554210684E+02  0.76168109134E+02  0.00000000000E+00 0. -1.
         21    1    1    2  505  503 -0.53698321481E+02  0.34983754380E+02  0.18926112835E+04  0.18936960799E+04  0.00000000000E+00 0.  1.
          2    1    1    2  501    0 -0.67807232353E+02 -0.13129394585E+03  0.15173365118E+04  0.15245150084E+04  0.00000000000E+00 0. -1.
<scales pt_clust_3="154.17099" pt_clust_4="38.78436" pt_clust_5="64.25522" pt_clust_6="14000.00000"></scales>
<clustering>
<clus scale="   38.784">  2  4  1 -1</clus>
<clus scale="   64.255">  1  5  2 -1</clus>
<clus scale="  154.171">  2  3  1 -1</clus>
<clus scale="   38.784">  2  3  1 -1</clus>
</clustering>
</event>
<event>
 6    0  0.2839294E+002  0.7494190E+02  0.7546771E-02  0.1344051E+00
          2   -1    0    0  505    0 -0.00000000000E+00  0.00000000000E+00  0.57789340641E+02  0.57789340641E+02  0.00000000000E+00 0.  1.
         21   -1    0    0  504  502  0.00000000000E+00 -0.00000000000E+00 -0.15323820629E+04  0.15323820629E+04  0.00000000000E+00 0. -1.
         21    1    1    2  503  502  0.59240232755E+02  0.67171175079E+02 -0.64998573205E+03  0.65612713998E+03  0.00000000000E+00 0. -1.
         21    1    1    2  504  501 -0.80006197488E+02  0.83353107922E+01 -0.82413861141E+03  0.82805490147E+03  0.00000000000E+00 0. -1.
         21    1    1    2  505  503 -0.20234168756E+02 -0.31455933972E+02 -0.20390424262E+02  0.42598905724E+02  0.00000000000E+00 0.  1.
          2    1    1    2  501    0  0.41000133489E+02 -0.44050551900E+02  0.19922045430E+02  0.63390456403E+02  0.00000000000E+00 0.  1.
<scales pt_clust_3="14000.00000" pt_clust_4="74.94190" pt_clust_5="37.40184" pt_clust_6="75.68037"></scales>
<clustering>
<clus scale="   37.402">  1  5  2 -1</clus>
<clus scale="   75.680">  1  6  2 -1</clus>
<clus scale="   74.942">  2  4  1 -1</clus>
<clus scale="   74.942">  2  3  1 -1</clus>
</clustering>
</event>
<event>
 6    0  0.2839294E+002  0.1436995E+03  0.7546771E-02  0.1208436E+00
         21   -1    0    0  505  502  0.00000000000E+00  0.00000000000E+00  0.52359224265E+03  0.52359224265E+03  0.00000000000E+00 0. -1.
          2   -1    0    0  503    0 -0.00000000000E+00 -0.00000000000E+00 -0.55742601464E+03  0.55742601464E+03  0.00000000000E+00 0.  1.
         21    1    1    2  503  504  0.10073772557E+01  0.11777757526E+03 -0.10405262878E+03  0.15716081446E+03  0.00000000000E+00 0.  1.
         21    1    1    2  504  502 -0.11321393089E+03 -0.84794522551E+02  0.47791139245E+03  0.49840425784E+03  0.00000000000E+00 0. -1.
         21    1    1    2  505  501  0.54550308749E+02 -0.29761594483E+01 -0.14834475087E+03  0.15808465713E+03  0.00000000000E+00 0.  1.
          2    1    1    2  501    0  0.57656244881E+02 -0.30006893266E+02 -0.25934778478E+03  0.26736852786E+03  0.00000000000E+00 0.  1.
<scales pt_clust_3="117.78188" pt_clust_4="139.75165" pt_clust_5="30.66844" pt_clust_6="30.66844"></scales>
<clustering>
<clus scale="   30.668">  5  6 -1 -1</clus>
<clus scale="  117.782">  2  3  1 -1</clus>
<clus scale="  139.752">  1  4  2 -1</clus>
<clus scale="  139.752">  1  3  2 -1</clus>
</clustering>
</event>
<event>
 6    0  0.2839294E+002  0.1422180E+03  0.7546771E-02  0.1210375E+00
         21   -1    0    0  503  502  0.00000000000E+00  0.00000000000E+00  0.69028480933E+02  0.69028480933E+02  0.00000000000E+00 0. -1.
          1   -1    0    0  505    0 -0.00000000000E+00 -0.00000000000E+00 -0.15499686230E+04  0.15499686230E+04  0.00000000000E+00 0. -1.
         21    1    1    2  503  501  0.39218681818E+02  0.81951939816E+01 -0.37664260801E+02  0.54989660389E+02  0.00000000000E+00 0.  1.
         21    1    1    2  504  502 -0.16688257411E+03  0.54633769673E+02 -0.12219093274E+03  0.21392818041E+03  0.00000000000E+00 0. -1.
         21    1    1    2  505  504  0.56495960669E+02 -0.13253149308E+03 -0.43110025623E+03  0.45453693046E+03  0.00000000000E+00 0. -1.
          1    1    1    2  501    0  0.71167931619E+02  0.69702529426E+02 -0.88998469224E+03  0.89554233263E+03  0.00000000000E+00 0. -1.
<scales pt_clust_3="40.06577" pt_clust_4="142.21799" pt_clust_5="14000.00000" pt_clust_6="101.17448"></scales>
<clustering>
<clus scale="   40.066">  1  3  2 -1</clus>
<clus scale="  101.174">  2  6  1 -1</clus>
<clus scale="  142.218">  1  4  2 -1</clus>
<clus scale="   40.066">  1  3  2 -1</clus>
</clustering>
</event>
<event>
 6    0  0.2839294E+002  0.7405755E+02  0.7546771E-02  0.1346815E+00
         21   -1    0    0  503  502  0.00000000000E+00  0.00000000000E+00  0.43618850207E+02  0.43618850207E+02  0.00000000000E+00 0. -1.
          1   -1    0    0  505    0 -0.00000000000E+00 -0.00000000000E+00 -0.20656490742E+04  0.20656490742E+04  0.00000000000E+00 0.  1.
         21    1    1    2  503  501 -0.22958941260E+01 -0.78120573984E+02 -0.23636176307E+02  0.81650254377E+02  0.00000000000E+00 0.  1.
         21    1    1    2  504  502 -0.63215010531E+02  0.32280283999E+02 -0.10985196476E+03  0.13078841101E+03  0.00000000000E+00 0. -1.
         21    1    1    2  505  504 -0.88379476875E+01  0.82559767058E+02 -0.12761844911E+04  0.12788827467E+04  0.00000000000E+00 0.  1.
          1    1    1    2  501    0  0.74348852345E+02 -0.36719477073E+02 -0.61235759186E+03  0.61794651237E+03  0.00000000000E+00 0.  1.
<scales pt_clust_3="76.19959" pt_clust_4="70.97996" pt_clust_5="74.05755" pt_clust_6="14000.00000"></scales>
<clustering>
<clus scale="   70.980">  1  4  2 -1</clus>
<clus scale="   76.200">  1  3  2 -1</clus>
<clus scale="   74.058">  2  5  1 -1</clus>
<clus scale="   70.980">  1  3  2 -1</clus>
</clustering>
</event>
<event>
 6    0  0.2839294E+002  0.6192566E+02  0.7546771E-02  0.1389924E+00
         21   -1    0    0  504  502  0.00000000000E+00  0.00000000000E+00  0.21650692265E+03  0.21650692265E+03  0.00000000000E+00 0.  1.
          2   -1    0    0  503    0 -0.00000000000E+00 -0.00000000000E+00 -0.37040913458E+03  0.37040913458E+03  0.00000000000E+00 0.  1.
         21    1    1    2  503  505  0.13247498219E+03  0.18304157914E+02 -0.33873149799E+02  0.13795670835E+03  0.00000000000E+00 0.  1.
         21    1    1    2  504  501 -0.41226510456E+02  0.12640939364E+02 -0.13211490300E+02  0.45099467716E+02  0.00000000000E+00 0.  1.
         21    1    1    2  505  502 -0.39257679865E+02 -0.58434422316E+01  0.14251078819E+03  0.14793456660E+03  0.00000000000E+00 0.  1.
          2    1    1    2  501    0 -0.51990791865E+02 -0.25101655047E+02 -0.24932836002E+03  0.25592531456E+03  0.00000000000E+00 0.  1.
<scales pt_clust_3="61.92566" pt_clust_4="51.27550" pt_clust_5="39.69019" pt_clust_6="14000.00000"></scales>
<clustering>
<clus scale="   39.690">  1  5  2 -1</clus>
<clus scale="   51.276">  1  4  2 -1</clus>
<clus scale="   61.926">  1  3  2 -1</clus>
<clus scale="   39.690">  1  3  2 -1</clus>
</clustering>
</event>
<event>
 6    0  0.2839294E+002  0.9457616E+02  0.7546771E-02  0.1292134E+00
          2   -1    0    0  503    0 -0.00000000000E+00  0.00000000000E+00  0.19765244579E+04  0.19765244579E+04  0.00000000000E+00 0.  1.
         21   -1    0    0  504  502  0.00000000000E+00 -0.00000000000E+00 -0.42486776933E+02  0.42486776933E+02  0.00000000000E+00 0. -1.
         21    1    1    2  503  502  0.60183145922E+02 -0.87845896979E+01  0.73250651160E+02  0.95209442623E+02  0.00000000000E+00 0. -1.
         21    1    1    2  504  505 -0.44201486899E+02 -0.11032168760E+03  0.10051510118E+03  0.15565324206E+03  0.00000000000E+00 0. -1.
         21    1    1    2  505  501 -0.20231874904E+02  0.59533869545E+02  0.29343041629E+03  0.30009168531E+03  0.00000000000E+00 0. -1.
          2    1    1    2  501    0  0.42502158812E+01  0.59572407750E+02  0.14668415123E+04  0.14680568648E+04  0.00000000000E+00 0.  1.
<scales pt_clust_3="60.89581" pt_clust_4="14000.00000" pt_clust_5="94.57616" pt_clust_6="59.72383"></scales>
<clustering>
<clus scale="   59.724">  1  6  2 -1</clus>
<clus scale="   60.896">  2  3  1 -1</clus>
<clus scale="   94.576">  1  5  2 -1</clus>
<clus scale="   60.896">  2  3  1 -1</clus>
</clustering>
</event>
<event>
 6    0  0.2839294E+002  0.1100432E+03  0.7546771E-02  0.1260490E+00
         21   -1    0    0  505  502  0.00000000000E+00  0.00000000000E+00  0.97237213333E+02  0.97237213333E+02  0.00000000000E+00 0.  1.
          2   -1    0    0  503    0 -0.00000000000E+00 -0.00000000000E+00 -0.70094408496E+03  0.70094408496E+03  0.00000000000E+00 0. -1.
         21    1    1    2  503  504 -0.24836237576E+02  0.35505758088E+02 -0.79911542142E+02  0.90902981919E+02  0.00000000000E+00 0.  1.
         21    1    1    2  504  502  0.28088825335E+02 -0.61922389738E+02  0.53985118864E+02  0.86820259838E+02  0.00000000000E+00 0.  1.
         21    1    1    2  505  501  0.62167550254E+02 -0.22226153955E+02 -0.41422148421E+02  0.77939724172E+02  0.00000000000E+00 0.  1.
          2    1    1    2  501    0 -0.65420138013E+02  0.48642785604E+02 -0.53635829993E+03  0.54251833237E+03  0.00000000000E+00 0. -1.
<scales pt_clust_3="43.33010" pt_clust_4="110.04322" pt_clust_5="62.64200" pt_clust_6="14000.00000"></scales>
<clustering>
<clus scale="   43.330">  2  3  1 -1</clus>
<clus scale="   62.642">  1  5  2 -1</clus>
<clus scale="  110.043">  1  4  2 -1</clus>
<clus scale="   62.642">  1  3  2 -1</clus>
</clustering>
</event>
<event>
 6    0  0.2839294E+002  0.1329174E+03  0.7546771E-02  0.1223190E+00
          1   -1    0    0  502    0 -0.00000000000E+00  0.00000000000E+00  0.15145795725E+04  0.15145795725E+04  0.00000000000E+00 0. -1.
         21   -1    0    0  505  502  0.00000000000E+00 -0.00000000000E+00 -0.65956074293E+03  0.65956074293E+03  0.00000000000E+00 0. -1.
         21    1    1    2  503  504 -0.31065914487E+02  0.86681558270E+02 -0.93011727225E+02  0.13088149215E+03  0.00000000000E+00 0. -1.
         21    1    1    2  504  501 -0.11046111182E+02 -0.53679671648E+02  0.45901033914E+03  0.46227049999E+03  0.00000000000E+00 0.  1.
         21    1    1    2  505  503  0.13913534518E+02  0.36546517129E+02 -0.54392074636E+03  0.54532468556E+03  0.00000000000E+00 0. -1.
          1    1    1    2  501    0  0.28198491151E+02 -0.69548403751E+02  0.10329409640E+04  0.10356636377E+04  0.00000000000E+00 0. -1.
<scales pt_clust_3="123.52489" pt_clust_4="41.82408" pt_clust_5="39.10543" pt_clust_6="41.82408"></scales>
<clustering>
<clus scale="   39.105">  2  5  1 -1</clus>
<clus scale="   41.824">  4  6 -1 -1</clus>
<clus scale="  123.525">  2  3  1 -1</clus>
<clus scale="   39.105">  2  3  1 -1</clus>
</clustering>
</event>
<event>
 6    0  0.2839294E+002  0.9501857E+02  0.7546771E-02  0.1291134E+00
          2   -1    0    0  503    0 -0.00000000000E+00  0.00000000000E+00  0.12033307811E+04  0.12033307811E+04  0.00000000000E+00 0. -1.
         21   -1    0    0  504  502  0.00000000000E+00 -0.00000000000E+00 -0.12107670207E+04  0.12107670207E+04  0.00000000000E+00 0.  1.
         21    1    1    2  503  502  0.46734819627E+02  0.38617990320E+00  0.10923619380E+04  0.10933612834E+04  0.00000000000E+00 0. -1.
         21    1    1    2  504  505  0.29613117102E+02 -0.51767179535E+02 -0.10066056781E+04  0.10083708488E+04  0.00000000000E+00 0.  1.
         21    1    1    2  505  501 -0.13049185066E+03  0.60547872819E+02 -0.16697078884E+03  0.22039376651E+03  0.00000000000E+00 0. -1.
          2    1    1    2  501    0  0.54143913929E+02 -0.91668731873E+01  0.73778289319E+02  0.91971903070E+02  0.00000000000E+00 0. -1.
<scales pt_clust_3="46.73642" pt_clust_4="59.82233" pt_clust_5="14000.00000" pt_clust_6="95.01857"></scales>
<clustering>
<clus scale="   46.736">  1  3  2 -1</clus>
<clus scale="   59.822">  2  4  1 -1</clus>
<clus scale="   95.019">  1  6  2 -1</clus>
<clus scale="   59.822">  2  3  1 -1</clus>
</clustering>
</event>
<event>
 6    0  0.2839294E+002  0.9386039E+02  0.7546771E-02  0.1293764E+00
          3   -1    0    0  503    0 -0.00000000000E+00  0.00000000000E+00  0.16080225759E+03  0.16080225759E+03  0.00000000000E+00 0. -1.
         21   -1    0    0  504  502  0.00000000000E+00 -0.00000000000E+00 -0.11643250686E+04  0.11643250686E+04  0.00000000000E+00 0.  1.
         21    1    1    2  503  505  0.50140079918E+02  0.67538437215E+02  0.76787092422E+02  0.11389348392E+03  0.00000000000E+00 0. -1.
         21    1    1    2  504  501 -0.10501510895E+02  0.46679568861E+02 -0.93408422418E+02  0.10494949861E+03  0.00000000000E+00 0. -1.
         21    1    1    2  505  502 -0.70130702706E+01 -0.13927420270E+03 -0.10342230136E+04  0.10435821619E+04  0.00000000000E+00 0.  1.
          3    1    1    2  501    0 -0.32625498753E+02  0.25056196619E+02  0.47321532580E+02  0.62702181809E+02  0.00000000000E+00 0. -1.
<scales pt_clust_3="14000.00000" pt_clust_4="49.59107" pt_clust_5="93.86039" pt_clust_6="41.13680"></scales>
<clustering>
<clus scale="   41.137">  1  6  2 -1</clus>
<clus scale="   49.591">  2  4  1 -1</clus>
<clus scale="   93.860">  2  5  1 -1</clus>
<clus scale="   49.591">  2  3  1 -1</clus>
</clustering>
</event>
<event>
 6    0  0.2839294E+002  0.1368277E+03  0.7546771E-02  0.1217662E+00
          2   -1    0    0  505    0 -0.00000000000E+00  0.00000000000E+00  0.11458263991E+04  0.11458263991E+04  0.00000000000E+00 0.  1.
         21   -1    0    0  501  502  0.00000000000E+00 -0.00000000000E+00 -0.33346917153E+03  0.33346917153E+03  0.00000000000E+00 0. -1.
         21    1    1    2  503  504  0.39239947739E+02 -0.23943043269E+02 -0.29664209274E+02  0.54708391782E+02  0.00000000000E+00 0. -1.
         21    1    1    2  504  502 -0.30118313914E+02 -0.29160346774E+02 -0.27019058991E+03  0.27342346925E+03  0.00000000000E+00 0. -1.
         21    1    1    2  505  503  0.26666665927E+01 -0.10073067898E+03  0.18013308689E+03  0.20640181635E+03  0.00000000000E+00 0.  1.
          2    1    1    2  501    0 -0.11788300418E+02  0.15383406902E+03  0.93207893983E+03  0.94476189323E+03  0.00000000000E+00 0.  1.
<scales pt_clust_3="47.68492" pt_clust_4="41.92182" pt_clust_5="136.82767" pt_clust_6="14000.00000"></scales>
<clustering>
<clus scale="   41.922">  2  4  1 -1</clus>
<clus scale="   47.685">  2  3  1 -1</clus>
<clus scale="  136.828">  2  5  1 -1</clus>
<clus scale="   41.922">  2  3  1 -1</clus>
</clustering>
</event>
<event>
 6    0  0.2839294E+002  0.7549686E+02  0.7546771E-02  0.1342339E+00
          1   -1    0    0  504    0 -0.00000000000E+00  0.00000000000E+00  0.20931358751E+03  0.20931358751E+03  0.00000000000E+00 0.  1.
         21   -1    0    0  501  502  0.00000000000E+00 -0.00000000000E+00 -0.18389379768E+04  0.18389379768E+04  0.00000000000E+00 0. -1.
         21    1    1    2  503  505  0.96206115993E+02  0.47645140262E+02 -0.22490450173E+03  0.24921418708E+03  0.00000000000E+00 0.  1.
         21    1    1    2  504  503  0.23597157850E+02 -0.19242883820E+02  0.50451146798E+02  0.58927350607E+02  0.00000000000E+00 0.  1.
         21    1    1    2  505  502 -0.28031442734E+02 -0.23836448621E+02 -0.15825891035E+04  0.15830168061E+04  0.00000000000E+00 0. -1.
          1    1    1    2  501    0 -0.91771831109E+02 -0.45658078210E+01  0.12741806912E+03  0.15709322049E+03  0.00000000000E+00 0.  1.
<scales pt_clust_3="75.49686" pt_clust_4="30.44855" pt_clust_5="36.78830" pt_clust_6="14000.00000"></scales>
<clustering>
<clus scale="   30.449">  1  4  2 -1</clus>
<clus scale="   36.788">  2  5  1 -1</clus>
<clus scale="   75.497">  2  3  1 -1</clus>
<clus scale="   36.788">  2  3  1 -1</clus>
</clustering>
</event>
<event>
 6    0  0.2839294E+002  0.1070080E+03  0.7546771E-02  0.1266213E+00
         21   -1    0    0  503  502  0.00000000000E+00  0.00000000000E+00  0.13928707447E+03  0.13928707447E+03  0.00000000000E+00 0. -1.
          2   -1    0    0  502    0 -0.00000000000E+00 -0.00000000000E+00 -0.37957010591E+04  0.37957010591E+04  0.00000000000E+00 0. -1.
         21    1    1    2  503  505  0.40354267404E+01 -0.41339185047E+02  0.12060182570E+03  0.12755396211E+03  0.00000000000E+00 0. -1.
         21    1    1    2  504  501  0.12128050444E+03 -0.30106549042E+02 -0.31066598163E+03  0.33485626348E+03  0.00000000000E+00 0. -1.
         21    1    1    2  505  504 -0.52776594423E+02 -0.73418489789E+01 -0.32000615318E+03  0.32441209863E+03  0.00000000000E+00 0.  1.
          2    1    1    2  501    0 -0.72539336761E+02  0.78787583067E+02 -0.31463436756E+04  0.31481658094E+04  0.00000000000E+00 0. -1.
<scales pt_clust_3="41.53568" pt_clust_4="107.00804" pt_clust_5="53.86736" pt_clust_6="14000.00000"></scales>
<clustering>
<clus scale="   41.536">  1  3  2 -1</clus>
<clus scale="   53.867">  1  5  2 -1</clus>
<clus scale="  107.008">  1  4  2 -1</clus>
<clus scale="   41.536">  1  3  2 -1</clus>
</clustering>
</event>
<event>
 6    0  0.2839294E+002  0.1559721E+03  0.7546771E-02  0.1193321E+00
         21   -1    0    0  504  502  0.00000000000E+00  0.00000000000E+00  0.58154553618E+03  0.58154553618E+03  0.00000000000E+00 0. -1.
         -3   -1    0    0    0  501 -0.00000000000E+00 -0.00000000000E+00 -0.14594262954E+03  0.14594262954E+03  0.00000000000E+00 0. -1.
         21    1    1    2  503  501 -0.72447435178E+02 -0.32199696746E+01  0.13724834204E+01  0.72531943165E+02  0.00000000000E+00 0. -1.
         21    1    1    2  504  503 -0.41619097574E+02 -0.14538906292E+03  0.97270172911E+02  0.17980994255E+03  0.00000000000E+00 0. -1.
         21    1    1    2  505  502  0.47804539259E+02 -0.64865636726E+01  0.29821998527E+03  0.30209685383E+03  0.00000000000E+00 0. -1.
         -3    1    1    2    0  505  0.66261993493E+02  0.15509559627E+03  0.38740265041E+02  0.17304942617E+03  0.00000000000E+00 0. -1.
<scales pt_clust_3="66.29483" pt_clust_4="155.97214" pt_clust_5="48.24261" pt_clust_6="14000.00000"></scales>
<clustering>
<clus scale="   48.243">  1  5  2 -1</clus>
<clus scale="   66.295">  2  3  1 -1</clus>
<clus scale="  155.972">  1  4  2 -1</clus>
<clus scale="   48.243">  1  3  2 -1</clus>
</clustering>
</event>
<event>
 6    0  0.2839294E+002  0.8744551E+02  0.7546771E-02  0.1309158E+00
          2   -1    0    0  505    0 -0.00000000000E+00  0.00000000000E+00  0.23687447928E+04  0.23687447928E+04  0.00000000000E+00 0. -1.
         21   -1    0    0  503  502  0.00000000000E+00 -0.00000000000E+00 -0.43239385313E+02  0.43239385313E+02  0.00000000000E+00 0. -1.
         21    1    1    2  503  501 -0.51018862786E+02 -0.48385529264E+02  0.40215819689E+02  0.81002444132E+02  0.00000000000E+00 0. -1.
         21    1    1    2  504  502  0.12796509524E+03  0.34056294328E+02  0.21372216166E+03  0.25142008506E+03  0.00000000000E+00 0. -1.
         21    1    1    2  505  504  0.22530597626E+02  0.48154680812E+02  0.28560189962E+03  0.29050808282E+03  0.00000000000E+00 0. -1.
          2    1    1    2  501    0 -0.99476830084E+02 -0.33825445876E+02  0.17859655265E+04  0.17890535661E+04  0.00000000000E+00 0. -1.
<scales pt_clust_3="68.87505" pt_clust_4="87.44551" pt_clust_5="53.16485" pt_clust_6="14000.00000"></scales>
<clustering>
<clus scale="   53.165">  1  5  2 -1</clus>
<clus scale="   68.875">  2  3  1 -1</clus>
<clus scale="   87.446">  2  4  1 -1</clus>
<clus scale="   68.875">  2  3  1 -1</clus>
</clustering>
</event>
<event>
 6    0  0.2839294E+002  0.1610087E+03  0.7546771E-02  0.1187563E+00
         21   -1    0    0  501  502  0.00000000000E+00  0.00000000000E+00  0.31123950406E+02  0.31123950406E+02  0.00000000000E+00 0. -1.
          2   -1    0    0  504    0 -0.00000000000E+00 -0.00000000000E+00 -0.23423472447E+04  0.23423472447E+04  0.00000000000E+00 0.  1.
         21    1    1    2  503  502  0.12336769301E+02  0.82072412688E+02 -0.14211308115E+03  0.16457279434E+03  0.00000000000E+00 0. -1.
         21    1    1    2  504  505 -0.36570026506E+02  0.58840989931E+01 -0.26777897755E+03  0.27032863384E+03  0.00000000000E+00 0. -1.
         21    1    1    2  505  503  0.52160944019E+02  0.54363366383E+02 -0.74378561286E+02  0.10586930653E+03  0.00000000000E+00 0. -1.
          2    1    1    2  501    0 -0.27927686815E+02 -0.14231987806E+03 -0.18269526743E+04  0.18327004604E+04  0.00000000000E+00 0.  1.
<scales pt_clust_3="55.96761" pt_clust_4="37.04038" pt_clust_5="55.96761" pt_clust_6="149.76042"></scales>
<clustering>
<clus scale="   37.040">  2  4  1 -1</clus>
<clus scale="   55.968">  3  5 -1 -1</clus>
<clus scale="  149.760">  2  6  1 -1</clus>
<clus scale="  161.009">  1  3  2 -1</clus>
</clustering>
</event>
<event>
 6    0  0.2839294E+002  0.1661744E+03  0.7546771E-02  0.1181897E+00
          1   -1    0    0  504    0 -0.00000000000E+00  0.00000000000E+00  0.27285982897E+03  0.27285982897E+03  0.00000000000E+00 0. -1.
         21   -1    0    0  503  502  0.00000000000E+00 -0.00000000000E+00 -0.49074697244E+03  0.49074697244E+03  0.00000000000E+00 0. -1.
         21    1    1    2  503  501 -0.41029282040E+02 -0.75451282156E+01 -0.23553808073E+03  0.23920392642E+03  0.00000000000E+00 0. -1.
         21    1    1    2  504  505  0.25778555732E+02  0.16664631803E+02  0.14056161945E+02  0.33761214098E+02  0.00000000000E+00 0. -1.
         21    1    1    2  505  502 -0.94390554952E+02  0.11297994996E+03 -0.18773571949E+03  0.23857649996E+03  0.00000000000E+00 0. -1.
          1    1    1    2  501    0  0.10964128126E+03 -0.12209945355E+03  0.19133049480E+03  0.25206516093E+03  0.00000000000E+00 0. -1.
<scales pt_clust_3="41.50851" pt_clust_4="30.69599" pt_clust_5="166.17438" pt_clust_6="14000.00000"></scales>
<clustering>
<clus scale="   30.696">  1  4  2 -1</clus>
<clus scale="   41.509">  2  3  1 -1</clus>
<clus scale="  166.174">  2  5  1 -1</clus>
<clus scale="   41.509">  2  3  1 -1</clus>
</clustering>
</event>
<event>
 6    0  0.2839294E+002  0.6837739E+02  0.7546771E-02  0.1365699E+00
         21   -1    0    0  505  502  0.00000000000E+00  0.00000000000E+00  0.42395953913E+02  0.42395953913E+02  0.00000000000E+00 0.  1.
          1   -1    0    0  504    0 -0.00000000000E+00 -0.00000000000E+00 -0.13539872247E+04  0.13539872247E+04  0.00000000000E+00 0.  1.
         21    1    1    2  503  502  0.25165224824E+02  0.58988277988E+02 -0.35384634633E+02  0.73246009096E+02  0.00000000000E+00 0.  1.
         21    1    1    2  504  503 -0.12166176116E+02 -0.51929268327E+02 -0.29341277406E+03  0.29822092605E+03  0.00000000000E+00 0.  1.
         21    1    1    2  505  501 -0.77601706828E+02 -0.71257738175E+01 -0.56215289745E+02  0.96088294585E+02  0.00000000000E+00 0.  1.
          1    1    1    2  501    0  0.64602658120E+02  0.66764156593E-01 -0.92657857231E+03  0.92882794884E+03  0.00000000000E+00 0.  1.
<scales pt_clust_3="61.43698" pt_clust_4="53.33540" pt_clust_5="14000.00000" pt_clust_6="68.37739"></scales>
<clustering>
<clus scale="   53.335">  2  4  1 -1</clus>
<clus scale="   61.437">  1  3  2 -1</clus>
<clus scale="   68.377">  2  6  1 -1</clus>
<clus scale="   61.437">  1  3  2 -1</clus>
</clustering>
</event>
<event>
 6    0  0.2839294E+002  0.1258397E+03  0.7546771E-02  0.1233763E+00
         21   -1    0    0  503  502  0.00000000000E+00  0.00000000000E+00  0.19017567637E+03  0.19017567637E+03  0.00000000000E+00 0. -1.
          2   -1    0    0  504    0 -0.00000000000E+00 -0.00000000000E+00 -0.21074291985E+04  0.21074291985E+04  0.00000000000E+00 0.  1.
         21    1    1    2  503  505  0.42734534271E+02  0.26059202316E+02  0.15444879744E+03  0.16235687074E+03  0.00000000000E+00 0. -1.
         21    1    1    2  504  502  0.48369622418E+02  0.54017546882E+02 -0.14406909802E+02  0.73926144185E+02  0.00000000000E+00 0. -1.
         21    1    1    2  505  501 -0.42286410610E+02 -0.10947638992E+02 -0.61957009545E+03  0.62110795720E+03  0.00000000000E+00 0.  1.
          2    1    1    2  501    0 -0.48817746079E+02 -0.69129110207E+02 -0.14377253143E+04  0.14402139027E+04  0.00000000000E+00 0.  1.
<scales pt_clust_3="50.05320" pt_clust_4="118.17142" pt_clust_5="31.07708" pt_clust_6="31.07708"></scales>
<clustering>
<clus scale="   31.077">  5  6 -1 -1</clus>
<clus scale="   50.053">  1  3  2 -1</clus>
<clus scale="  118.171">  1  4  2 -1</clus>
<clus scale="   50.053">  1  3  2 -1</clus>
</clustering>
</event>
<event>
 6    0  0.2839294E+002  0.7399536E+02  0.7546771E-02  0.1347011E+00
          2   -1    0    0  503    0 -0.00000000000E+00  0.00000000000E+00  0.42179376706E+03  0.42179376706E+03  0.00000000000E+00 0.  1.
         21   -1    0    0  505  502  0.00000000000E+00 -0.00000000000E+00 -0.11171401032E+04  0.11171401032E+04  0.00000000000E+00 0.  1.
         21    1    1    2  503  504  0.23525929790E+02  0.19416275128E+02 -0.36391957048E+01  0.30719779584E+02  0.00000000000E+00 0.  1.
         21    1    1    2  504  502 -0.59043097023E+02  0.63614084953E+02 -0.18494312876E+03  0.20429586385E+03  0.00000000000E+00 0. -1.
         21    1    1    2  505  501  0.57307493358E+02  0.10602008844E+02 -0.89858660915E+03  0.90047456684E+03  0.00000000000E+00 0.  1.
          2    1    1    2  501    0 -0.21790326125E+02 -0.93632368925E+02  0.39182259752E+03  0.40344365994E+03  0.00000000000E+00 0.  1.
<scales pt_clust_3="30.50346" pt_clust_4="14000.00000" pt_clust_5="58.34161" pt_clust_6="73.99536"></scales>
<clustering>
<clus scale="   30.503">  1  3  2 -1</clus>
<clus scale="   58.342">  2  5  1 -1</clus>
<clus scale="   73.995">  1  6  2 -1</clus>
<clus scale="   58.342">  2  3  1 -1</clus>
</clustering>
</event>
<event>
 6    0  0.2839294E+002  0.1114860E+03  0.7546771E-02  0.1257842E+00
         21   -1    0    0  505  502  0.00000000000E+00  0.00000000000E+00  0.17557675262E+04  0.17557675262E+04  0.00000000000E+00 0. -1.
          4   -1    0    0  503    0 -0.00000000000E+00 -0.00000000000E+00 -0.56326275941E+02  0.56326275941E+02  0.00000000000E+00 0.  1.
         21    1    1    2  503  502 -0.44252116743E+02 -0.26287815530E+02  0.12201072221E+04  0.12211924224E+04  0.00000000000E+00 0. -1.
         21    1    1    2  504  501  0.30657544562E+02 -0.42379536817E+02  0.25625194681E+03  0.26153579185E+03  0.00000000000E+00 0. -1.
         21    1    1    2  505  504 -0.35380499635E+02 -0.35614912950E+02  0.20704565641E+03  0.21304484414E+03  0.00000000000E+00 0. -1.
          4    1    1    2  501    0  0.48975071816E+02  0.10428226530E+03  0.16036425008E+02  0.11632074382E+03  0.00000000000E+00 0.  1.
<scales pt_clust_3="14000.00000" pt_clust_4="54.30344" pt_clust_5="50.20161" pt_clust_6="111.48604"></scales>
<clustering>
<clus scale="   50.202">  1  5  2 -1</clus>
<clus scale="   54.303">  1  4  2 -1</clus>
<clus scale="  111.486">  2  6  1 -1</clus>
<clus scale="   50.202">  1  3  2 -1</clus>
</clustering>
</event>
<event>
 6    0  0.2839294E+002  0.1134106E+03  0.7546771E-02  0.1254381E+00
          1   -1    0    0  504    0 -0.00000000000E+00  0.00000000000E+00  0.31566539067E+03  0.31566539067E+03  0.00000000000E+00 0.  1.
         21   -1    0    0  503  502  0.00000000000E+00 -0.00000000000E+00 -0.86518906742E+03  0.86518906742E+03  0.00000000000E+00 0.  1.
         21    1    1    2  503  501 -0.10375879917E+03  0.77066811177E+02 -0.25056921459E+03  0.28193991042E+03  0.00000000000E+00 0.  1.
         21    1    1    2  504  505  0.45755185534E+02  0.61457566751E+02  0.12569914572E+03  0.14721020599E+03  0.00000000000E+00 0.  1.
         21    1    1    2  505  502 -0.11450100301E+02 -0.60547262861E+02 -0.56967579303E+03  0.57299876527E+03  0.00000000000E+00 0.  1.
          1    1    1    2  501    0  0.69453713939E+02 -0.77977115067E+02  0.14502218514E+03  0.17870557640E+03  0.00000000000E+00 0.  1.
<scales pt_clust_3="113.41058" pt_clust_4="74.59831" pt_clust_5="61.62042" pt_clust_6="14000.00000"></scales>
<clustering>
<clus scale="   61.620">  2  5  1 -1</clus>
<clus scale="   74.598">  1  4  2 -1</clus>
<clus scale="  113.411">  2  3  1 -1</clus>
<clus scale="   61.620">  2  3  1 -1</clus>
</clustering>
</event>
<event>
 6    0  0.2839294E+002  0.1050645E+03  0.7546771E-02  0.1269993E+00
         21   -1    0    0  503  502  0.00000000000E+00  0.00000000000E+00  0.62887486925E+02  0.62887486925E+02  0.00000000000E+00 0.  1.
          1   -1    0    0  504    0 -0.00000000000E+00 -0.00000000000E+00 -0.13945620536E+04  0.13945620536E+04  0.00000000000E+00 0. -1.
         21    1    1    2  503  501 -0.47433655709E+02  0.49553447749E+02 -0.47882075297E+03  0.48370942657E+03  0.00000000000E+00 0.  1.
         21    1    1    2  504  505  0.97988172459E+02 -0.11702489740E+02 -0.22927470390E+02  0.10131287730E+03  0.00000000000E+00 0.  1.
         21    1    1    2  505  502  0.87400509233E+01 -0.34798125612E+02  0.42597084638E+01  0.36130916850E+02  0.00000000000E+00 0. -1.
          1    1    1    2  501    0 -0.59294567673E+02 -0.30528323967E+01 -0.83418605183E+03  0.83629631986E+03  0.00000000000E+00 0. -1.
<scales pt_clust_3="105.06448" pt_clust_4="14000.00000" pt_clust_5="35.87894" pt_clust_6="59.20799"></scales>
<clustering>
<clus scale="   35.879">  1  5  2 -1</clus>
<clus scale="   59.208">  2  6  1 -1</clus>
<clus scale="  105.064">  2  3  1 -1</clus>
<clus scale="   35.879">  1  3  2 -1</clus>
</clustering>
</event>
<event>
 6    0  0.2839294E+002  0.1118009E+03  0.7546771E-02  0.1257271E+00
         21   -1    0    0  504  502  0.00000000000E+00  0.00000000000E+00  0.30082265181E+03  0.30082265181E+03  0.00000000000E+00 0. -1.
          2   -1    0    0  503    0 -0.00000000000E+00 -0.00000000000E+00 -0.83884387589E+03  0.83884387589E+03  0.00000000000E+00 0. -1.
         21    1    1    2  503  505 -0.14574895984E+02  0.67605761859E+02 -0.28541195269E+03  0.29367149908E+03  0.00000000000E+00 0. -1.
         21    1    1    2  504  501  0.11085726557E+03  0.42564543434E+01  0.23169210393E+03  0.25688262253E+03  0.00000000000E+00 0. -1.
         21    1    1    2  505  502 -0.11109769785E+03 -0.10186941050E+03 -0.58009627226E+02  0.16150910846E+03  0.00000000000E+00 0. -1.
          2    1    1    2  501    0  0.14815328268E+02  0.30007194295E+02 -0.42629174809E+03  0.42760329763E+03  0.00000000000E+00 0. -1.
<scales pt_clust_3="88.79678" pt_clust_4="111.80093" pt_clust_5="14000.00000" pt_clust_6="33.46529"></scales>
<clustering>
<clus scale="   33.465">  2  6  1 -1</clus>
<clus scale="   88.797">  2  3  1 -1</clus>
<clus scale="  111.801">  1  4  2 -1</clus>
<clus scale="  111.801">  1  3  2 -1</clus>
</clustering>
</event>
<event>
 6    0  0.2839294E+002  0.1425866E+03  0.7546771E-02  0.1209890E+00
         21   -1    0    0  503  502  0.00000000000E+00  0.00000000000E+00  0.31668744718E+02  0.31668744718E+02  0.00000000000E+00 0.  1.
          1   -1    0    0  505    0 -0.00000000000E+00 -0.00000000000E+00 -0.21426793947E+04  0.21426793947E+04  0.00000000000E+00 0. -1.
         21    1    1    2  503  504  0.30631713116E+02 -0.11934106230E+02 -0.95593706929E+02  0.10108848374E+03  0.00000000000E+00 0.  1.
         21    1    1    2  504  501 -0.56633897931E+02  0.64381940819E+02 -0.88788900676E+03  0.89201979856E+03  0.00000000000E+00 0. -1.
         21    1    1    2  505  502  0.76669683015E+02 -0.64976658127E+02 -0.70118556760E+02  0.12254312872E+03  0.00000000000E+00 0.  1.
          1    1    1    2  501    0 -0.50667498200E+02  0.12528823539E+02 -0.10574093795E+04  0.10586967284E+04  0.00000000000E+00 0. -1.
<scales pt_clust_3="32.87438" pt_clust_4="47.58056" pt_clust_5="129.03732" pt_clust_6="47.58056"></scales>
<clustering>
<clus scale="   32.874">  1  3  2 -1</clus>
<clus scale="   47.581">  4  6 -1 -1</clus>
<clus scale="  129.037">  1  5  2 -1</clus>
<clus scale="   32.874">  1  3  2 -1</clus>
</clustering>
</event>
<event>
 6    0  0.2839294E+002  0.9180055E+02  0.7546771E-02  0.1298549E+00
         -2   -1    0    0    0  501 -0.00000000000E+00  0.00000000000E+00  0.33457323993E+04  0.33457323993E+04  0.00000000000E+00 0. -1.
         21   -1    0    0  503  502  0.00000000000E+00 -0.00000000000E+00 -0.48363103300E+02  0.48363103300E+02  0.00000000000E+00 0.  1.
         21    1    1    2  503  505 -0.10780593212E+02 -0.35689917655E+02  0.27438093229E+02  0.46290823845E+02  0.00000000000E+00 0. -1.
         21    1    1    2  504  502  0.63611055636E+02  0.64040953766E+02  0.24513269177E+02  0.93533472747E+02  0.00000000000E+00 0.  1.
         21    1    1    2  505  501  0.11385904201E+02  0.37292558638E+02  0.97410071044E+02  0.10492423783E+03  0.00000000000E+00 0.  1.
         -2    1    1    2    0  504 -0.64216366625E+02 -0.65643594749E+02  0.31480078625E+04  0.31493469682E+04  0.00000000000E+00 0. -1.
<scales pt_clust_3="37.28259" pt_clust_4="91.80055" pt_clust_5="35.39452" pt_clust_6="14000.00000"></scales>
<clustering>
<clus scale="   37.283">  2  3  1 -1</clus>
<clus scale="   35.395">  2  5  1 -1</clus>
<clus scale="   91.801">  2  4  1 -1</clus>
<clus scale="   37.283">  2  3  1 -1</clus>
</clustering>
</event>
<event>
 6    0  0.2839294E+002  0.9319525E+02  0.7546771E-02  0.1295293E+00
         21   -1    0    0  504  502  0.00000000000E+00  0.00000000000E+00  0.86779338559E+02  0.86779338559E+02  0.00000000000E+00 0. -1.
          2   -1    0    0  505    0 -0.00000000000E+00 -0.00000000000E+00 -0.22067577395E+04  0.22067577395E+04  0.00000000000E+00 0.  1.
         21    1    1    2  503  502 -0.29953798829E+02 -0.26855389851E+02 -0.18821540174E+02  0.44415002002E+02  0.00000000000E+00 0. -1.
         21    1    1    2  504  501  0.49702465802E+02 -0.65096795446E+02  0.48236983014E+02  0.95051219952E+02  0.00000000000E+00 0. -1.
         21    1    1    2  505  503  0.35646162270E+02  0.15319031465E+02 -0.33973105769E+03  0.34193934136E+03  0.00000000000E+00 0. -1.
          2    1    1    2  501    0 -0.55394829243E+02  0.76633153832E+02 -0.18096627861E+04  0.18121315148E+04  0.00000000000E+00 0.  1.
<scales pt_clust_3="39.60740" pt_clust_4="93.19525" pt_clust_5="38.79847" pt_clust_6="14000.00000"></scales>
<clustering>
<clus scale="   38.798">  2  5  1 -1</clus>
<clus scale="   39.607">  1  3  2 -1</clus>
<clus scale="   93.195">  1  4  2 -1</clus>
<clus scale="   39.607">  1  3  2 -1</clus>
</clustering>
</event>
<event>
 6    0  0.2839294E+002  0.1823577E+03  0.7546771E-02  0.1165541E+00
         21   -1    0    0  504  502  0.00000000000E+00  0.00000000000E+00  0.11926362331E+04  0.11926362331E+04  0.00000000000E+00 0.  1.
          1   -1    0    0  502    0 -0.00000000000E+00 -0.00000000000E+00 -0.39681698904E+02  0.39681698904E+02  0.00000000000E+00 0.  1.
         21    1    1    2  503  501 -0.48883030759E+02  0.12171882744E+03  0.21039700128E+03  0.24793531777E+03  0.00000000000E+00 0.  1.
         21    1    1    2  504  505  0.73653420293E+02 -0.16367132955E+03  0.80670329447E+03  0.82642805842E+03  0.00000000000E+00 0.  1.
         21    1    1    2  505  503  0.15424238277E+02  0.29709851259E+02  0.88643970231E+02  0.94754080897E+02  0.00000000000E+00 0.  1.
          1    1    1    2  501    0 -0.40194627811E+02  0.12242650851E+02  0.47210268222E+02  0.63200474922E+02  0.00000000000E+00 0.  1.
<scales pt_clust_3="31.79186" pt_clust_4="171.15474" pt_clust_5="31.79186" pt_clust_6="42.01774"></scales>
<clustering>
<clus scale="   31.792">  3  5 -1 -1</clus>
<clus scale="   42.018">  2  6  1 -1</clus>
<clus scale="  171.155">  1  4  2 -1</clus>
<clus scale="  171.155">  1  3  2 -1</clus>
</clustering>
</event>
<event>
 6    0  0.2839294E+002  0.6540438E+02  0.7546771E-02  0.1376457E+00
         21   -1    0    0  504  502  0.00000000000E+00  0.00000000000E+00  0.10811612186E+02  0.10811612186E+02  0.00000000000E+00 0. -1.
          2   -1    0    0  505    0 -0.00000000000E+00 -0.00000000000E+00 -0.16397998241E+04  0.16397998241E+04  0.00000000000E+00 0.  1.
         21    1    1    2  503  502 -0.83090360436E+02 -0.41401218933E+02 -0.42249750137E+03  0.43257624483E+03  0.00000000000E+00 0. -1.
         21    1    1    2  504  501  0.29451762900E+02  0.19181801179E+02 -0.15897938431E+03  0.16281828052E+03  0.00000000000E+00 0. -1.
         21    1    1    2  505  503  0.55099748137E+02 -0.36611782201E+02 -0.45388903613E+03  0.45868470866E+03  0.00000000000E+00 0.  1.
          2    1    1    2  501    0 -0.14611506007E+01  0.58831199955E+02 -0.59362229006E+03  0.59653220223E+03  0.00000000000E+00 0.  1.
<scales pt_clust_3="65.40438" pt_clust_4="35.14752" pt_clust_5="14000.00000" pt_clust_6="62.06067"></scales>
<clustering>
<clus scale="   35.148">  1  4  2 -1</clus>
<clus scale="   62.061">  2  6  1 -1</clus>
<clus scale="   65.404">  1  3  2 -1</clus>
<clus scale="   35.148">  1  3  2 -1</clus>
</clustering>
</event>
<event>
 6    0  0.2839294E+002  0.1332963E+03  0.7546771E-02  0.1222645E+00
         21   -1    0    0  505  502  0.00000000000E+00  0.00000000000E+00  0.23554471196E+03  0.23554471196E+03  0.00000000000E+00 0.  1.
          1   -1    0    0  504    0 -0.00000000000E+00 -0.00000000000E+00 -0.61981456825E+03  0.61981456825E+03  0.00000000000E+00 0.  1.
         21    1    1    2  503  501 -0.14434683118E+02 -0.67094943909E+02  0.73726567804E+00  0.68634066874E+02  0.00000000000E+00 0. -1.
         21    1    1    2  504  502  0.98342360887E+02  0.10470374295E+03 -0.25868279351E+02  0.14595636885E+03  0.00000000000E+00 0. -1.
         21    1    1    2  505  503  0.24661318219E+02  0.37781365153E+02  0.12815584719E+03  0.13586586524E+03  0.00000000000E+00 0.  1.
          1    1    1    2  501    0 -0.10856899599E+03 -0.75390164192E+02 -0.48729468980E+03  0.50490297924E+03  0.00000000000E+00 0.  1.
<scales pt_clust_3="54.78637" pt_clust_4="133.29632" pt_clust_5="45.11776" pt_clust_6="14000.00000"></scales>
<clustering>
<clus scale="   45.118">  1  5  2 -1</clus>
<clus scale="   54.786">  1  3  2 -1</clus>
<clus scale="  133.296">  1  4  2 -1</clus>
<clus scale="   45.118">  1  3  2 -1</clus>
</clustering>
</event>
<event>
 6    0  0.3475445E+002  0.8031182E+02  0.7546771E-02  0.1328169E+00
         21   -1    0    0  503  502  0.00000000000E+00  0.00000000000E+00  0.23638631294E+03  0.23638631294E+03  0.00000000000E+00 0. -1.
          2   -1    0    0  505    0 -0.00000000000E+00 -0.00000000000E+00 -0.24202187025E+04  0.24202187025E+04  0.00000000000E+00 0.  1.
         21    1    1    2  503  501 -0.18499690788E+02 -0.23942629653E+02 -0.16161626119E+01  0.30300165933E+02  0.00000000000E+00 0.  1.
         21    1    1    2  504  502 -0.43023061843E+02 -0.28880824579E+02  0.20821810413E+03  0.21456902098E+03  0.00000000000E+00 0. -1.
         21    1    1    2  505  504 -0.47298671009E+02 -0.39035174131E+02 -0.10301231273E+03  0.11988513533E+03  0.00000000000E+00 0. -1.
          2    1    1    2  501    0  0.10882142364E+03  0.91858628364E+02 -0.22874220184E+04  0.22918506932E+04  0.00000000000E+00 0.  1.
<scales pt_clust_3="30.25703" pt_clust_4="80.31182" pt_clust_5="62.44790" pt_clust_6="14000.00000"></scales>
<clustering>
<clus scale="   30.257">  1  3  2 -1</clus>
<clus scale="   62.448">  2  5  1 -1</clus>
<clus scale="   80.312">  1  4  2 -1</clus>
<clus scale="   30.257">  1  3  2 -1</clus>
</clustering>
</event>
<event>
 6    0  0.2839294E+002  0.1498017E+03  0.7546771E-02  0.1200717E+00
          2   -1    0    0  505    0 -0.00000000000E+00  0.00000000000E+00  0.75139984320E+03  0.75139984320E+03  0.00000000000E+00 0.  1.
         21   -1    0    0  504  502  0.00000000000E+00 -0.00000000000E+00 -0.46073502009E+02  0.46073502009E+02  0.00000000000E+00 0.  1.
         21    1    1    2  503  501 -0.16699962013E+02 -0.37830344727E+02  0.16020056332E+03  0.16545163705E+03  0.00000000000E+00 0.  1.
         21    1    1    2  504  503  0.30833563316E+02 -0.34380662229E+02  0.39970102764E+02  0.61076572244E+02  0.00000000000E+00 0.  1.
         21    1    1    2  505  502 -0.30045287491E+02  0.16522864542E+03  0.27541693822E+03  0.32257977995E+03  0.00000000000E+00 0.  1.
          2    1    1    2  501    0  0.15911686187E+02 -0.93017638467E+02  0.22973873688E+03  0.24836535597E+03  0.00000000000E+00 0.  1.
<scales pt_clust_3="30.11790" pt_clust_4="46.18158" pt_clust_5="142.72535" pt_clust_6="30.11790"></scales>
<clustering>
<clus scale="   30.118">  3  6 -1 -1</clus>
<clus scale="   46.182">  2  4  1 -1</clus>
<clus scale="  142.725">  2  5  1 -1</clus>
<clus scale="   46.182">  2  3  1 -1</clus>
</clustering>
</event>
<event>
 6    0  0.2839294E+002  0.1269389E+03  0.7546771E-02  0.1232070E+00
         21   -1    0    0  503  502  0.00000000000E+00  0.00000000000E+00  0.36619135782E+04  0.36619135782E+04  0.00000000000E+00 0.  1.
         -4   -1    0    0    0  501 -0.00000000000E+00 -0.00000000000E+00 -0.32694536966E+03  0.32694536966E+03  0.00000000000E+00 0.  1.
         21    1    1    2  503  505  0.36794157823E+02  0.31756826390E+01  0.56338168214E+03  0.56459083838E+03  0.00000000000E+00 0.  1.
         21    1    1    2  504  502 -0.60897991585E+02 -0.41601215845E+02 -0.27807353376E+03  0.28768753313E+03  0.00000000000E+00 0.  1.
         21    1    1    2  505  501  0.67429528408E+02  0.70343143760E+02  0.30753895180E+04  0.30769328213E+04  0.00000000000E+00 0.  1.
         -4    1    1    2    0  504 -0.43325694646E+02 -0.31917610555E+02 -0.25729457874E+02  0.59647755051E+02  0.00000000000E+00 0.  1.
<scales pt_clust_3="36.93095" pt_clust_4="14000.00000" pt_clust_5="126.93889" pt_clust_6="53.64072"></scales>
<clustering>
<clus scale="   36.931">  1  3  2 -1</clus>
<clus scale="   53.641">  2  6  1 -1</clus>
<clus scale="  126.939">  1  5  2 -1</clus>
<clus scale="   36.931">  1  3  2 -1</clus>
</clustering>
</event>
<event>
 6    0  0.2839294E+002  0.8533129E+02  0.7546771E-02  0.1314568E+00
          2   -1    0    0  503    0 -0.00000000000E+00  0.00000000000E+00  0.16878386316E+03  0.16878386316E+03  0.00000000000E+00 0. -1.
         21   -1    0    0  504  502  0.00000000000E+00 -0.00000000000E+00 -0.46750983851E+03  0.46750983851E+03  0.00000000000E+00 0.  1.
         21    1    1    2  503  505  0.22869374714E+02  0.23947224890E+02  0.93221535975E+01  0.34400296910E+02  0.00000000000E+00 0.  1.
         21    1    1    2  504  501  0.89063186843E+02 -0.66560019017E+02 -0.30512738491E+03  0.32475407373E+03  0.00000000000E+00 0.  1.
         21    1    1    2  505  502 -0.55663916154E+02  0.33235595135E+02 -0.12587892279E+03  0.14159300670E+03  0.00000000000E+00 0.  1.
          2    1    1    2  501    0 -0.56268645403E+02  0.93771989913E+01  0.12295817875E+03  0.13554632432E+03  0.00000000000E+00 0. -1.
<scales pt_clust_3="33.11311" pt_clust_4="14000.00000" pt_clust_5="85.33129" pt_clust_6="47.26162"></scales>
<clustering>
<clus scale="   33.113">  1  3  2 -1</clus>
<clus scale="   47.262">  1  6  2 -1</clus>
<clus scale="   85.331">  2  5  1 -1</clus>
<clus scale="   85.331">  2  3  1 -1</clus>
</clustering>
</event>
<event>
 6    0  0.2839294E+002  0.1836758E+03  0.7546771E-02  0.1164292E+00
         -2   -1    0    0    0  501 -0.00000000000E+00  0.00000000000E+00  0.62919083577E+03  0.62919083577E+03  0.00000000000E+00 0. -1.
         21   -1    0    0  504  502  0.00000000000E+00 -0.00000000000E+00 -0.11359632214E+03  0.11359632214E+03  0.00000000000E+00 0. -1.
         21    1    1    2  503  502 -0.11366256248E+03  0.89988071956E+02  0.35542115560E+03  0.38385052957E+03  0.00000000000E+00 0. -1.
         21    1    1    2  504  505  0.15605176974E+03 -0.13719363277E+02  0.54155072718E+01  0.15674725990E+03  0.00000000000E+00 0. -1.
         21    1    1    2  505  501  0.17010692744E+02 -0.67561063101E+02  0.75063901856E+02  0.10241313528E+03  0.00000000000E+00 0. -1.
         -2    1    1    2    0  503 -0.59399900012E+02 -0.87076455776E+01  0.79693948898E+02  0.99776233161E+02  0.00000000000E+00 0. -1.
<scales pt_clust_3="57.60290" pt_clust_4="160.38777" pt_clust_5="69.66966" pt_clust_6="57.60290"></scales>
<clustering>
<clus scale="   57.603">  3  6 -1 -1</clus>
<clus scale="   69.670">  1  5  2 -1</clus>
<clus scale="  160.388">  2  4  1 -1</clus>
<clus scale="  160.388">  2  3  1 -1</clus>
</clustering>
</event>
<event>
 6    0  0.2839294E+002  0.7938906E+02  0.7546771E-02  0.1330794E+00
          2   -1    0    0  505    0 -0.00000000000E+00  0.00000000000E+00  0.53153204904E+04  0.53153204904E+04  0.00000000000E+00 0. -1.
         21   -1    0    0  503  502  0.00000000000E+00 -0.00000000000E+00 -0.90299022045E+01  0.90299022045E+01  0.00000000000E+00 0. -1.
         21    1    1    2  503  501  0.36269483746E+02 -0.40584262042E+01  0.95379841023E+02  0.10212375017E+03  0.00000000000E+00 0. -1.
         21    1    1    2  504  502 -0.85062172044E+02  0.17604537699E+02  0.46827201907E+03  0.47626061847E+03  0.00000000000E+00 0. -1.
         21    1    1    2  505  504  0.15642320337E+02 -0.86641518024E+02  0.17096012886E+04  0.17118668175E+04  0.00000000000E+00 0. -1.
          2    1    1    2  501    0  0.33150367961E+02  0.73095406530E+02  0.30330374395E+04  0.30340992065E+04  0.00000000000E+00 0. -1.
<scales pt_clust_3="36.49584" pt_clust_4="61.25698" pt_clust_5="14000.00000" pt_clust_6="79.38906"></scales>
<clustering>
<clus scale="   36.496">  2  3  1 -1</clus>
<clus scale="   61.257">  2  4  1 -1</clus>
<clus scale="   79.389">  1  6  2 -1</clus>
<clus scale="   36.496">  2  3  1 -1</clus>
</clustering>
</event>
<event>
 6    0  0.2839294E+002  0.8488024E+02  0.7546771E-02  0.1315746E+00
         21   -1    0    0  501  502  0.00000000000E+00  0.00000000000E+00  0.21935106905E+03  0.21935106905E+03  0.00000000000E+00 0.  1.
          2   -1    0    0  503    0 -0.00000000000E+00 -0.00000000000E+00 -0.88682308203E+03  0.88682308203E+03  0.00000000000E+00 0. -1.
         21    1    1    2  503  504  0.71775897768E+02 -0.24752476558E+02 -0.10546899283E+03  0.12995450375E+03  0.00000000000E+00 0.  1.
         21    1    1    2  504  505 -0.10071081916E+03  0.23339710430E+02 -0.28251033917E+02  0.10717057477E+03  0.00000000000E+00 0. -1.
         21    1    1    2  505  502  0.66892248192E+02 -0.49373373516E+02  0.15579620388E+03  0.17659207237E+03  0.00000000000E+00 0.  1.
          2    1    1    2  501    0 -0.37957326796E+02  0.50786139644E+02 -0.68954819010E+03  0.69245700019E+03  0.00000000000E+00 0. -1.
<scales pt_clust_3="49.29852" pt_clust_4="84.88024" pt_clust_5="14000.00000" pt_clust_6="63.40340"></scales>
<clustering>
<clus scale="   63.403">  2  6  1 -1</clus>
<clus scale="   49.299">  2  3  1 -1</clus>
<clus scale="   84.880">  2  4  1 -1</clus>
<clus scale="   84.880">  1  3  2 -1</clus>
</clustering>
</event>
<event>
 6    0  0.2839294E+002  0.1986968E+03  0.7546771E-02  0.1150843E+00
         21   -1    0    0  503  502  0.00000000000E+00  0.00000000000E+00  0.13711693402E+03  0.13711693402E+03  0.00000000000E+00 0.  1.
          1   -1    0    0  504    0 -0.00000000000E+00 -0.00000000000E+00 -0.14811804828E+04  0.14811804828E+04  0.00000000000E+00 0. -1.
         21    1    1    2  503  505  0.14843576737E+02  0.35943345300E+02 -0.15477933166E+02  0.41854775794E+02  0.00000000000E+00 0.  1.
         21    1    1    2  504  502 -0.96556496774E+02 -0.25164375754E+03 -0.59967246322E+02  0.27612281399E+03  0.00000000000E+00 0.  1.
         21    1    1    2  505  501  0.36728600821E+02  0.27187012953E+02 -0.55842802514E+02  0.72156374523E+02  0.00000000000E+00 0.  1.
          1    1    1    2  501    0  0.44984319215E+02  0.18851339928E+03 -0.12127755668E+04  0.12281634525E+04  0.00000000000E+00 0. -1.
<scales pt_clust_3="32.83334" pt_clust_4="14000.00000" pt_clust_5="88.94883" pt_clust_6="198.69679"></scales>
<clustering>
<clus scale="   32.833">  3  5 -1 -1</clus>
<clus scale="   88.949">  1  3  2 -1</clus>
<clus scale="  198.697">  2  6  1 -1</clus>
<clus scale="   88.949">  1  3  2 -1</clus>
</clustering>
</event>
<event>
 6    0  0.2839294E+002  0.1189665E+03  0.7546771E-02  0.1244812E+00
         -3   -1    0    0    0  501 -0.00000000000E+00  0.00000000000E+00  0.50649531042E+03  0.50649531042E+03  0.00000000000E+00 0. -1.
         21   -1    0    0  503  502  0.00000000000E+00 -0.00000000000E+00 -0.42082704880E+03  0.42082704880E+03  0.00000000000E+00 0.  1.
         21    1    1    2  503  501  0.47090357171E+02 -0.78991081669E+02 -0.37871679659E+03  0.38972234314E+03  0.00000000000E+00 0.  1.
         21    1    1    2  504  502 -0.40511957530E+02 -0.30788579037E+02 -0.69553787449E+01  0.51356913805E+02  0.00000000000E+00 0. -1.
         21    1    1    2  505  504  0.98044338861E+01  0.40918029135E+02  0.10481054937E+03  0.11294097260E+03  0.00000000000E+00 0. -1.
         -3    1    1    2    0  505 -0.16382833527E+02  0.68861631570E+02  0.36652988758E+03  0.37330212969E+03  0.00000000000E+00 0. -1.
<scales pt_clust_3="109.44095" pt_clust_4="50.88374" pt_clust_5="35.96263" pt_clust_6="35.96263"></scales>
<clustering>
<clus scale="   35.963">  5  6 -1 -1</clus>
<clus scale="   50.884">  2  4  1 -1</clus>
<clus scale="  109.441">  2  3  1 -1</clus>
<clus scale="   50.884">  2  3  1 -1</clus>
</clustering>
</event>
<event>
 6    0  0.2839294E+002  0.9554795E+02  0.7546771E-02  0.1289947E+00
          2   -1    0    0  504    0 -0.00000000000E+00  0.00000000000E+00  0.22385944568E+04  0.22385944568E+04  0.00000000000E+00 0.  1.
         21   -1    0    0  505  502  0.00000000000E+00 -0.00000000000E+00 -0.14268266318E+03  0.14268266318E+03  0.00000000000E+00 0. -1.
         21    1    1    2  503  502  0.23387140496E+02 -0.23491325407E+02 -0.12298863218E+03  0.12737740912E+03  0.00000000000E+00 0. -1.
         21    1    1    2  504  503  0.41372829519E+02 -0.14414794264E+02  0.38214072419E+03  0.38464403077E+03  0.00000000000E+00 0. -1.
         21    1    1    2  505  501 -0.33057060303E+02 -0.74331803699E+02  0.10148544364E+03  0.13006645051E+03  0.00000000000E+00 0. -1.
          2    1    1    2  501    0 -0.31702909711E+02  0.11223792337E+03  0.17352742580E+04  0.17391892296E+04  0.00000000000E+00 0.  1.
<scales pt_clust_3="33.14816" pt_clust_4="45.95619" pt_clust_5="95.54795" pt_clust_6="14000.00000"></scales>
<clustering>
<clus scale="   33.148">  2  3  1 -1</clus>
<clus scale="   45.956">  1  4  2 -1</clus>
<clus scale="   95.548">  2  5  1 -1</clus>
<clus scale="   33.148">  2  3  1 -1</clus>
</clustering>
</event>
<event>
 6    0  0.2839294E+002  0.9410047E+02  0.7546771E-02  0.1293215E+00
          4   -1    0    0  504    0 -0.00000000000E+00  0.00000000000E+00  0.56961515945E+02  0.56961515945E+02  0.00000000000E+00 0. -1.
         21   -1    0    0  505  502  0.00000000000E+00 -0.00000000000E+00 -0.15476722705E+04  0.15476722705E+04  0.00000000000E+00 0. -1.
         21    1    1    2  503  502 -0.24142914807E+02 -0.22420305368E+02 -0.45949442800E+03  0.46067415794E+03  0.00000000000E+00 0.  1.
         21    1    1    2  504  503 -0.31755104300E+02 -0.16960507955E+02  0.22234096001E+02  0.42313124491E+02  0.00000000000E+00 0. -1.
         21    1    1    2  505  501  0.12070340483E+03  0.30250971829E+02 -0.10210778310E+04  0.10286322814E+04  0.00000000000E+00 0. -1.
          4    1    1    2  501    0 -0.64805385723E+02  0.91298414938E+01 -0.32372591482E+02  0.73014222613E+02  0.00000000000E+00 0. -1.
<scales pt_clust_3="32.94769" pt_clust_4="36.29480" pt_clust_5="14000.00000" pt_clust_6="94.10047"></scales>
<clustering>
<clus scale="   32.948">  2  3  1 -1</clus>
<clus scale="   36.295">  1  4  2 -1</clus>
<clus scale="   94.100">  1  6  2 -1</clus>
<clus scale="   32.948">  2  3  1 -1</clus>
</clustering>
</event>
<event>
 6    0  0.2839294E+002  0.1699482E+03  0.7546771E-02  0.1177902E+00
          2   -1    0    0  503    0 -0.00000000000E+00  0.00000000000E+00  0.30138658242E+04  0.30138658242E+04  0.00000000000E+00 0.  1.
         21   -1    0    0  505  502  0.00000000000E+00 -0.00000000000E+00 -0.34781278082E+03  0.34781278082E+03  0.00000000000E+00 0.  1.
         21    1    1    2  503  504 -0.16083165420E+03  0.58882982200E+02  0.79846024363E+03  0.81662279373E+03  0.00000000000E+00 0.  1.
         21    1    1    2  504  502 -0.19410469342E+02  0.53625986448E+02  0.10352095203E+02  0.57962734732E+02  0.00000000000E+00 0. -1.
         21    1    1    2  505  501  0.18357713213E+03 -0.20777645681E+01 -0.28662617304E+03  0.34038132090E+03  0.00000000000E+00 0.  1.
          2    1    1    2  501    0 -0.33350085891E+01 -0.11043120408E+03  0.21438668776E+04  0.21467117557E+04  0.00000000000E+00 0.  1.
<scales pt_clust_3="14000.00000" pt_clust_4="57.03081" pt_clust_5="169.94822" pt_clust_6="110.24884"></scales>
<clustering>
<clus scale="   57.031">  2  4  1 -1</clus>
<clus scale="  110.249">  1  6  2 -1</clus>
<clus scale="  169.948">  2  5  1 -1</clus>
<clus scale="   57.031">  2  3  1 -1</clus>
</clustering>
</event>
<event>
 6    0  0.2839294E+002  0.1130204E+03  0.7546771E-02  0.1255077E+00
          2   -1    0    0  504    0 -0.00000000000E+00  0.00000000000E+00  0.56617185068E+03  0.56617185068E+03  0.00000000000E+00 0.  1.
         21   -1    0    0  501  502  0.00000000000E+00 -0.00000000000E+00 -0.11167702497E+03  0.11167702497E+03  0.00000000000E+00 0. -1.
         21    1    1    2  503  502 -0.19068514529E+02 -0.32611588019E+02 -0.68932351865E+01  0.38401049606E+02  0.00000000000E+00 0. -1.
         21    1    1    2  504  505  0.30853678299E+02 -0.47833490112E+02  0.11811391994E+03  0.13111403557E+03  0.00000000000E+00 0. -1.
         21    1    1    2  505  503  0.10685939187E+02 -0.68089424410E+02 -0.51437685919E+02  0.86001131071E+02  0.00000000000E+00 0. -1.
          2    1    1    2  501    0 -0.22471102958E+02  0.14853450254E+03  0.39471182688E+03  0.42233265940E+03  0.00000000000E+00 0.  1.
<scales pt_clust_3="31.95034" pt_clust_4="56.92093" pt_clust_5="31.95034" pt_clust_6="104.45649"></scales>
<clustering>
<clus scale="   31.950">  3  5 -1 -1</clus>
<clus scale="   56.921">  1  4  2 -1</clus>
<clus scale="  104.456">  1  6  2 -1</clus>
<clus scale="  113.020">  2  3  1 -1</clus>
</clustering>
</event>
<event>
 6    0  0.2839294E+002  0.1246306E+03  0.7546771E-02  0.1235648E+00
          2   -1    0    0  505    0 -0.00000000000E+00  0.00000000000E+00  0.26673834813E+04  0.26673834813E+04  0.00000000000E+00 0.  1.
         21   -1    0    0  504  502  0.00000000000E+00 -0.00000000000E+00 -0.13811679399E+03  0.13811679399E+03  0.00000000000E+00 0.  1.
         21    1    1    2  503  501  0.33747026208E+02  0.12464240086E+02  0.58478845179E+03  0.58589397710E+03  0.00000000000E+00 0.  1.
         21    1    1    2  504  503 -0.38876970681E+02  0.72917535082E+02  0.23116067294E+02  0.85806400338E+02  0.00000000000E+00 0.  1.
         21    1    1    2  505  502 -0.71548086291E+02 -0.42406229697E+02 -0.88828812601E+02  0.12168802290E+03  0.00000000000E+00 0.  1.
          2    1    1    2  501    0  0.76678030764E+02 -0.42975545470E+02  0.20101909808E+04  0.20121118749E+04  0.00000000000E+00 0.  1.
<scales pt_clust_3="32.56751" pt_clust_4="82.63405" pt_clust_5="113.75965" pt_clust_6="32.56751"></scales>
<clustering>
<clus scale="   32.568">  3  6 -1 -1</clus>
<clus scale="   82.634">  2  4  1 -1</clus>
<clus scale="  113.760">  2  5  1 -1</clus>
<clus scale="   82.634">  2  3  1 -1</clus>
</clustering>
</event>
<event>
 6    0  0.2839294E+002  0.1237154E+03  0.7546771E-02  0.1237091E+00
         21   -1    0    0  501  502  0.00000000000E+00  0.00000000000E+00  0.29238675040E+03  0.29238675040E+03  0.00000000000E+00 0. -1.
          3   -1    0    0  504    0 -0.00000000000E+00 -0.00000000000E+00 -0.37072022641E+03  0.37072022641E+03  0.00000000000E+00 0. -1.
         21    1    1    2  503  502  0.33773073718E+02 -0.54960016259E+02  0.16176627360E+03  0.17415381469E+03  0.00000000000E+00 0. -1.
         21    1    1    2  504  505 -0.42906844579E+02 -0.17501014027E+02 -0.78405993377E+02  0.91075697094E+02  0.00000000000E+00 0. -1.
         21    1    1    2  505  503 -0.13452946917E+03  0.32274518604E+01  0.40341914669E+02  0.14048510454E+03  0.00000000000E+00 0. -1.
          3    1    1    2  501    0  0.14366324003E+03  0.69233578426E+02 -0.20203567090E+03  0.25739236048E+03  0.00000000000E+00 0. -1.
<scales pt_clust_3="64.35158" pt_clust_4="46.33878" pt_clust_5="14000.00000" pt_clust_6="123.71543"></scales>
<clustering>
<clus scale="   46.339">  2  4  1 -1</clus>
<clus scale="   64.352">  1  3  2 -1</clus>
<clus scale="  123.715">  2  6  1 -1</clus>
<clus scale="   64.352">  1  3  2 -1</clus>
</clustering>
</event>
<event>
 6    0  0.2839294E+002  0.1542980E+03  0.7546771E-02  0.1195289E+00
          2   -1    0    0  505    0 -0.00000000000E+00  0.00000000000E+00  0.17149026514E+04  0.17149026514E+04  0.00000000000E+00 0.  1.
         21   -1    0    0  504  502  0.00000000000E+00 -0.00000000000E+00 -0.10196667087E+03  0.10196667087E+03  0.00000000000E+00 0. -1.
         21    1    1    2  503  501  0.63344682546E+02  0.42729412847E+02  0.63080124633E+03  0.63541212130E+03  0.00000000000E+00 0. -1.
         21    1    1    2  504  503 -0.17321967300E+03 -0.31581889099E+02  0.43121027880E+02  0.18127849812E+03  0.00000000000E+00 0. -1.
         21    1    1    2  505  502  0.48021604311E+02 -0.51908533948E+02  0.13855108164E+02  0.72059242291E+02  0.00000000000E+00 0. -1.
          2    1    1    2  501    0  0.61853386145E+02  0.40761010200E+02  0.92515859817E+03  0.92811946058E+03  0.00000000000E+00 0.  1.
<scales pt_clust_3="30.74090" pt_clust_4="151.10629" pt_clust_5="70.71471" pt_clust_6="30.74090"></scales>
<clustering>
<clus scale="   30.741">  3  6 -1 -1</clus>
<clus scale="   70.715">  2  5  1 -1</clus>
<clus scale="  151.106">  2  4  1 -1</clus>
<clus scale="   70.715">  2  3  1 -1</clus>
</clustering>
</event>
<event>
 6    0  0.2839294E+002  0.1298160E+03  0.7546771E-02  0.1227729E+00
         21   -1    0    0  505  502  0.00000000000E+00  0.00000000000E+00  0.26486463165E+03  0.26486463165E+03  0.00000000000E+00 0.  1.
          4   -1    0    0  504    0 -0.00000000000E+00 -0.00000000000E+00 -0.20703565469E+03  0.20703565469E+03  0.00000000000E+00 0.  1.
         21    1    1    2  503  501 -0.89592135062E+02 -0.11620695095E+01 -0.54324165996E+02  0.10478175453E+03  0.00000000000E+00 0.  1.
         21    1    1    2  504  502  0.14768981306E+02 -0.72405837010E+02  0.15557268613E+03  0.17223120713E+03  0.00000000000E+00 0.  1.
         21    1    1    2  505  503  0.10843868096E+03  0.51063048981E+02  0.18140854201E+02  0.12122488643E+03  0.00000000000E+00 0.  1.
          4    1    1    2  501    0 -0.33615527205E+02  0.22504857539E+02 -0.61560397376E+02  0.73662438238E+02  0.00000000000E+00 0.  1.
<scales pt_clust_3="35.41176" pt_clust_4="73.89674" pt_clust_5="118.63701" pt_clust_6="35.41176"></scales>
<clustering>
<clus scale="   35.412">  3  6 -1 -1</clus>
<clus scale="   73.897">  1  4  2 -1</clus>
<clus scale="  118.637">  1  5  2 -1</clus>
<clus scale="   73.897">  1  3  2 -1</clus>
</clustering>
</event>
<event>
 6    0  0.2839294E+002  0.8687870E+02  0.7546771E-02  0.1310591E+00
         21   -1    0    0  503  502  0.00000000000E+00  0.00000000000E+00  0.46654095107E+03  0.46654095107E+03  0.00000000000E+00 0.  1.
         -1   -1    0    0    0  501 -0.00000000000E+00 -0.00000000000E+00 -0.77811407015E+03  0.77811407015E+03  0.00000000000E+00 0. -1.
         21    1    1    2  503  501  0.11956887132E+02 -0.29065212101E+02 -0.26377793297E+03  0.26564365535E+03  0.00000000000E+00 0.  1.
         21    1    1    2  504  502  0.77704394270E+01 -0.89791708907E+02  0.33873177907E+03  0.35051697372E+03  0.00000000000E+00 0.  1.
         21    1    1    2  505  504 -0.42092703703E+02  0.73229465809E+02  0.10476949446E+03  0.13457710554E+03  0.00000000000E+00 0.  1.
         -1    1    1    2    0  505  0.22365377144E+02  0.45627455200E+02 -0.49129645963E+03  0.49391728661E+03  0.00000000000E+00 0. -1.
<scales pt_clust_3="31.42855" pt_clust_4="14000.00000" pt_clust_5="86.87870" pt_clust_6="38.20600"></scales>
<clustering>
<clus scale="   31.429">  2  3  1 -1</clus>
<clus scale="   38.206">  2  6  1 -1</clus>
<clus scale="   86.879">  2  5  1 -1</clus>
<clus scale="   86.879">  1  3  2 -1</clus>
</clustering>
</event>
<event>
 6    0  0.2839294E+002  0.8877188E+02  0.7546771E-02  0.1305853E+00
         21   -1    0    0  505  502  0.00000000000E+00  0.00000000000E+00  0.28655928547E+03  0.28655928547E+03  0.00000000000E+00 0.  1.
          1   -1    0    0  504    0 -0.00000000000E+00 -0.00000000000E+00 -0.15021112837E+04  0.15021112837E+04  0.00000000000E+00 0.  1.
         21    1    1    2  503  502 -0.29471090178E+02  0.16746810095E+02  0.15352088618E+03  0.15721852085E+03  0.00000000000E+00 0.  1.
         21    1    1    2  504  503  0.67573845125E+02  0.16906283479E+02 -0.20588435697E+03  0.21734860342E+03  0.00000000000E+00 0.  1.
         21    1    1    2  505  501  0.72332583306E+02 -0.91901225722E+02  0.94421676425E+02  0.15031064791E+03  0.00000000000E+00 0.  1.
          1    1    1    2  501    0 -0.11043533825E+03  0.58248132147E+02 -0.12576102039E+04  0.12637927970E+04  0.00000000000E+00 0.  1.
<scales pt_clust_3="33.89691" pt_clust_4="68.59266" pt_clust_5="14000.00000" pt_clust_6="88.77188"></scales>
<clustering>
<clus scale="   33.897">  1  3  2 -1</clus>
<clus scale="   68.593">  2  4  1 -1</clus>
<clus scale="   88.772">  2  6  1 -1</clus>
<clus scale="   33.897">  1  3  2 -1</clus>
</clustering>
</event>
<event>
 6    0  0.2839294E+002  0.1110206E+03  0.7546771E-02  0.1258692E+00
         21   -1    0    0  503  502  0.00000000000E+00  0.00000000000E+00  0.36994324529E+02  0.36994324529E+02  0.00000000000E+00 0. -1.
          2   -1    0    0  505    0 -0.00000000000E+00 -0.00000000000E+00 -0.35714735141E+04  0.35714735141E+04  0.00000000000E+00 0. -1.
         21    1    1    2  503  501 -0.89782586380E+02 -0.66486979963E+02 -0.62035221592E+02  0.12778810602E+03  0.00000000000E+00 0. -1.
         21    1    1    2  504  502  0.17164658136E+02  0.48508812684E+02 -0.40070188180E+03  0.40399223814E+03  0.00000000000E+00 0. -1.
         21    1    1    2  505  504  0.49030393752E+01 -0.42245697214E+02 -0.25763581494E+03  0.26112248442E+03  0.00000000000E+00 0.  1.
          2    1    1    2  501    0  0.67714888869E+02  0.60223864493E+02 -0.28141062713E+04  0.28155650101E+04  0.00000000000E+00 0. -1.
<scales pt_clust_3="111.02059" pt_clust_4="46.87197" pt_clust_5="42.52927" pt_clust_6="14000.00000"></scales>
<clustering>
<clus scale="   42.529">  2  5  1 -1</clus>
<clus scale="   46.872">  2  4  1 -1</clus>
<clus scale="  111.021">  1  3  2 -1</clus>
<clus scale="  111.021">  1  3  2 -1</clus>
</clustering>
</event>
<event>
 6    0  0.2839294E+002  0.1004847E+03  0.7546771E-02  0.1279280E+00
          2   -1    0    0  505    0 -0.00000000000E+00  0.00000000000E+00  0.30859784458E+04  0.30859784458E+04  0.00000000000E+00 0.  1.
         21   -1    0    0  504  502  0.00000000000E+00 -0.00000000000E+00 -0.38679729303E+02  0.38679729303E+02  0.00000000000E+00 0.  1.
         21    1    1    2  503  502 -0.21094774234E-01  0.87646521886E+02  0.56297868662E+02  0.10416987693E+03  0.00000000000E+00 0.  1.
         21    1    1    2  504  501  0.97064832769E+02 -0.49531393432E+02  0.23495627637E+03  0.25899689670E+03  0.00000000000E+00 0.  1.
         21    1    1    2  505  503  0.13145524927E+02 -0.34849772422E+02  0.22618995423E+03  0.22923613777E+03  0.00000000000E+00 0.  1.
          2    1    1    2  501    0 -0.11018926292E+03 -0.32653560324E+01  0.25298546172E+04  0.25322552637E+04  0.00000000000E+00 0.  1.
<scales pt_clust_3="86.66896" pt_clust_4="14000.00000" pt_clust_5="37.24663" pt_clust_6="100.48467"></scales>
<clustering>
<clus scale="   37.247">  1  5  2 -1</clus>
<clus scale="   86.669">  2  3  1 -1</clus>
<clus scale="  100.485">  1  6  2 -1</clus>
<clus scale="   86.669">  2  3  1 -1</clus>
</clustering>
</event>
<event>
 6    0  0.2839294E+002  0.1317481E+03  0.7546771E-02  0.1224885E+00
          2   -1    0    0  505    0 -0.00000000000E+00  0.00000000000E+00  0.13186506190E+04  0.13186506190E+04  0.00000000000E+00 0. -1.
         21   -1    0    0  504  502  0.00000000000E+00 -0.00000000000E+00 -0.44190423201E+03  0.44190423201E+03  0.00000000000E+00 0. -1.
         21    1    1    2  503  501 -0.70140077755E+02 -0.63183590113E+02 -0.57668478370E+02  0.11062300830E+03  0.00000000000E+00 0. -1.
         21    1    1    2  504  503 -0.90117987994E+01 -0.46490698884E+02 -0.35158162225E+03  0.35475658515E+03  0.00000000000E+00 0. -1.
         21    1    1    2  505  502 -0.75797167480E+01  0.36262752696E+02  0.21506606784E+03  0.21823348248E+03  0.00000000000E+00 0. -1.
          2    1    1    2  501    0  0.86731593302E+02  0.73411536302E+02  0.10709304198E+04  0.10769417751E+04  0.00000000000E+00 0. -1.
<scales pt_clust_3="131.74811" pt_clust_4="47.30687" pt_clust_5="37.04645" pt_clust_6="14000.00000"></scales>
<clustering>
<clus scale="   37.046">  1  5  2 -1</clus>
<clus scale="   47.307">  2  4  1 -1</clus>
<clus scale="  131.748">  2  3  1 -1</clus>
<clus scale="   47.307">  2  3  1 -1</clus>
</clustering>
</event>
<event>
 6    0  0.2839294E+002  0.6989318E+02  0.7546771E-02  0.1360457E+00
         21   -1    0    0  504  502  0.00000000000E+00  0.00000000000E+00  0.43170971857E+03  0.43170971857E+03  0.00000000000E+00 0. -1.
          1   -1    0    0  505    0 -0.00000000000E+00 -0.00000000000E+00 -0.66484219524E+03  0.66484219524E+03  0.00000000000E+00 0. -1.
         21    1    1    2  503  501  0.66038400264E+02 -0.51743193851E+02 -0.10919210357E+03  0.13770019572E+03  0.00000000000E+00 0. -1.
         21    1    1    2  504  503  0.34724920517E+01 -0.45320002587E+02 -0.82894201922E+01  0.46202546712E+02  0.00000000000E+00 0. -1.
         21    1    1    2  505  502 -0.25326763564E+02  0.10881048303E+03  0.38961655323E+03  0.40531743698E+03  0.00000000000E+00 0. -1.
          1    1    1    2  501    0 -0.44184128751E+02 -0.11747286588E+02 -0.50526750613E+03  0.50733173440E+03  0.00000000000E+00 0. -1.
<scales pt_clust_3="14000.00000" pt_clust_4="45.45284" pt_clust_5="69.89318" pt_clust_6="45.73996"></scales>
<clustering>
<clus scale="   45.453">  1  4  2 -1</clus>
<clus scale="   45.740">  2  6  1 -1</clus>
<clus scale="   69.893">  1  5  2 -1</clus>
<clus scale="   45.453">  1  3  2 -1</clus>
</clustering>
</event>
<event>
 6    0  0.3391919E+002  0.1234139E+03  0.7546771E-02  0.1237569E+00
          2   -1    0    0  505    0 -0.00000000000E+00  0.00000000000E+00  0.70678510362E+03  0.70678510362E+03  0.00000000000E+00 0.  1.
         21   -1    0    0  503  502  0.00000000000E+00 -0.00000000000E+00 -0.11019858749E+04  0.11019858749E+04  0.00000000000E+00 0.  1.
         21    1    1    2  503  501  0.14635317836E+02 -0.27965971886E+02 -0.26111753698E+02  0.40964762819E+02  0.00000000000E+00 0.  1.
         21    1    1    2  504  502  0.26006523248E+02 -0.89069760718E+02 -0.10489313488E+04  0.10530274147E+04  0.00000000000E+00 0.  1.
         21    1    1    2  505  504 -0.40405186142E+02 -0.15595682108E+02  0.32923160027E+02  0.54403481816E+02  0.00000000000E+00 0. -1.
          2    1    1    2  501    0 -0.23665494182E+00  0.13263141471E+03  0.64691917120E+03  0.66037531922E+03  0.00000000000E+00 0.  1.
<scales pt_clust_3="31.56403" pt_clust_4="123.41392" pt_clust_5="43.27569" pt_clust_6="14000.00000"></scales>
<clustering>
<clus scale="   31.564">  2  3  1 -1</clus>
<clus scale="   43.276">  1  5  2 -1</clus>
<clus scale="  123.414">  2  4  1 -1</clus>
<clus scale="   31.564">  2  3  1 -1</clus>
</clustering>
</event>
<event>
 6    0  0.2839294E+002  0.1821998E+03  0.7546771E-02  0.1165691E+00
         21   -1    0    0  503  502  0.00000000000E+00  0.00000000000E+00  0.36324094315E+03  0.36324094315E+03  0.00000000000E+00 0.  1.
         -3   -1    0    0    0  501 -0.00000000000E+00 -0.00000000000E+00 -0.24861749147E+03  0.24861749147E+03  0.00000000000E+00 0.  1.
         21    1    1    2  503  501 -0.48152207541E+02  0.11326760794E+03  0.50479523780E+01  0.12318144310E+03  0.00000000000E+00 0.  1.
         21    1    1    2  504  502 -0.92535778595E+02  0.77298409477E+02  0.19435057508E+03  0.22871392712E+03  0.00000000000E+00 0.  1.
         21    1    1    2  505  504  0.56583791629E+02 -0.10173557753E+03 -0.72212306591E+02  0.13699076770E+03  0.00000000000E+00 0.  1.
         -3    1    1    2    0  505  0.84104194508E+02 -0.88830439885E+02 -0.12562769184E+02  0.12297229669E+03  0.00000000000E+00 0.  1.
<scales pt_clust_3="170.03323" pt_clust_4="120.57327" pt_clust_5="63.86076" pt_clust_6="63.86076"></scales>
<clustering>
<clus scale="   63.861">  5  6 -1 -1</clus>
<clus scale="  120.573">  1  4  2 -1</clus>
<clus scale="  170.033">  2  3  1 -1</clus>
<clus scale="  120.573">  1  3  2 -1</clus>
</clustering>
</event>
<event>
 6    0  0.2839294E+002  0.5378909E+03  0.7546771E-02  0.1004336E+00
         21   -1    0    0  505  502  0.00000000000E+00  0.00000000000E+00  0.13942836429E+03  0.13942836429E+03  0.00000000000E+00 0. -1.
          2   -1    0    0  504    0 -0.00000000000E+00 -0.00000000000E+00 -0.33082466859E+04  0.33082466859E+04  0.00000000000E+00 0. -1.
         21    1    1    2  503  502 -0.11426160566E+02  0.50914172318E+02 -0.23437023882E+02  0.57202309189E+02  0.00000000000E+00 0. -1.
         21    1    1    2  504  503  0.15581870599E+03 -0.54891362926E+03 -0.77457064754E+03  0.96205266465E+03  0.00000000000E+00 0. -1.
         21    1    1    2  505  501 -0.95224845942E+02  0.18300305736E+03 -0.99363443951E+03  0.10148237727E+04  0.00000000000E+00 0. -1.
          2    1    1    2  501    0 -0.49167699479E+02  0.31499639958E+03 -0.13771762107E+04  0.14135963037E+04  0.00000000000E+00 0. -1.
<scales pt_clust_3="52.18055" pt_clust_4="530.75262" pt_clust_5="70.15035" pt_clust_6="70.15035"></scales>
<clustering>
<clus scale="   52.181">  1  3  2 -1</clus>
<clus scale="   70.150">  5  6 -1 -1</clus>
<clus scale="  530.753">  1  4  2 -1</clus>
<clus scale="   52.181">  1  3  2 -1</clus>
</clustering>
</event>
<event>
 6    0  0.2839294E+002  0.1659491E+03  0.7546771E-02  0.1182139E+00
          1   -1    0    0  505    0 -0.00000000000E+00  0.00000000000E+00  0.14401700647E+04  0.14401700647E+04  0.00000000000E+00 0. -1.
         21   -1    0    0  503  502  0.00000000000E+00 -0.00000000000E+00 -0.21571382263E+03  0.21571382263E+03  0.00000000000E+00 0. -1.
         21    1    1    2  503  504  0.14727423969E+03 -0.10542619207E+03 -0.15495698662E+03  0.23836117837E+03  0.00000000000E+00 0. -1.
         21    1    1    2  504  501 -0.82879533382E+02  0.17833546110E+02  0.72464448887E+03  0.72958665536E+03  0.00000000000E+00 0. -1.
         21    1    1    2  505  502 -0.37004197921E+02  0.12105809451E+02  0.12829124018E+02  0.40993264194E+02  0.00000000000E+00 0.  1.
          1    1    1    2  501    0 -0.27390508390E+02  0.75486836510E+02  0.64193961585E+03  0.64694278946E+03  0.00000000000E+00 0. -1.
<scales pt_clust_3="145.34815" pt_clust_4="77.86680" pt_clust_5="38.93406" pt_clust_6="77.86680"></scales>
<clustering>
<clus scale="   38.934">  2  5  1 -1</clus>
<clus scale="   77.867">  4  6 -1 -1</clus>
<clus scale="  145.348">  2  3  1 -1</clus>
<clus scale="   38.934">  2  3  1 -1</clus>
</clustering>
</event>
<event>
 6    0  0.2839294E+002  0.1871767E+03  0.7546771E-02  0.1161033E+00
          1   -1    0    0  504    0 -0.00000000000E+00  0.00000000000E+00  0.16137422191E+04  0.16137422191E+04  0.00000000000E+00 0.  1.
         21   -1    0    0  503  502  0.00000000000E+00 -0.00000000000E+00 -0.23735504533E+03  0.23735504533E+03  0.00000000000E+00 0.  1.
         21    1    1    2  503  501 -0.39302687448E+02 -0.98658587797E+01  0.60450445462E+01  0.40970464650E+02  0.00000000000E+00 0. -1.
         21    1    1    2  504  505  0.40428693729E+02  0.13859135449E+03  0.88723449257E+02  0.16945174317E+03  0.00000000000E+00 0.  1.
         21    1    1    2  505  502  0.13122241498E+03  0.16517732169E+02 -0.14749919241E+03  0.19811150757E+03  0.00000000000E+00 0.  1.
          1    1    1    2  501    0 -0.13234842126E+03 -0.14524322788E+03  0.14291178724E+04  0.14425635490E+04  0.00000000000E+00 0.  1.
<scales pt_clust_3="40.52205" pt_clust_4="14000.00000" pt_clust_5="100.71794" pt_clust_6="187.17671"></scales>
<clustering>
<clus scale="   40.522">  2  3  1 -1</clus>
<clus scale="  100.718">  2  5  1 -1</clus>
<clus scale="  187.177">  1  6  2 -1</clus>
<clus scale="   40.522">  2  3  1 -1</clus>
</clustering>
</event>
<event>
 6    0  0.2839294E+002  0.7424740E+02  0.7546771E-02  0.1346218E+00
          2   -1    0    0  503    0 -0.00000000000E+00  0.00000000000E+00  0.46664565718E+03  0.46664565718E+03  0.00000000000E+00 0.  1.
         21   -1    0    0  505  502  0.00000000000E+00 -0.00000000000E+00 -0.47934369801E+03  0.47934369801E+03  0.00000000000E+00 0.  1.
         21    1    1    2  503  504  0.37739973453E+02  0.34546353631E+02  0.30556861417E+02  0.59594277620E+02  0.00000000000E+00 0.  1.
         21    1    1    2  504  502 -0.58767465314E+02  0.81176411375E+02 -0.35412356482E+03  0.36803087358E+03  0.00000000000E+00 0.  1.
         21    1    1    2  505  501  0.69416662679E+01 -0.29791211063E+02 -0.96790199293E+02  0.10150884526E+03  0.00000000000E+00 0. -1.
          2    1    1    2  501    0  0.14085825594E+02 -0.85931553943E+02  0.40765886187E+03  0.41685535874E+03  0.00000000000E+00 0.  1.
<scales pt_clust_3="50.60164" pt_clust_4="74.24740" pt_clust_5="30.58926" pt_clust_6="14000.00000"></scales>
<clustering>
<clus scale="   30.589">  2  5  1 -1</clus>
<clus scale="   50.602">  1  3  2 -1</clus>
<clus scale="   74.247">  2  4  1 -1</clus>
<clus scale="   30.589">  2  3  1 -1</clus>
</clustering>
</event>
<event>
 6    0  0.2839294E+002  0.9027925E+02  0.7546771E-02  0.1302177E+00
          2   -1    0    0  503    0 -0.00000000000E+00  0.00000000000E+00  0.35454245557E+04  0.35454245557E+04  0.00000000000E+00 0. -1.
         21   -1    0    0  505  502  0.00000000000E+00 -0.00000000000E+00 -0.51778023083E+03  0.51778023083E+03  0.00000000000E+00 0.  1.
         21    1    1    2  503  504 -0.85333671462E+02 -0.22218929354E+02  0.97745921854E+03  0.98142857112E+03  0.00000000000E+00 0. -1.
         21    1    1    2  504  502 -0.28749958922E+02 -0.11227146196E+02 -0.49389945226E+03  0.49486288797E+03  0.00000000000E+00 0.  1.
         21    1    1    2  505  501  0.40287371783E+02 -0.23804219408E+02  0.60764698706E+01  0.47187251169E+02  0.00000000000E+00 0.  1.
          2    1    1    2  501    0  0.73796258601E+02  0.57250294959E+02  0.25380080887E+04  0.25397260763E+04  0.00000000000E+00 0. -1.
<scales pt_clust_3="90.27925" pt_clust_4="30.86436" pt_clust_5="36.87011" pt_clust_6="14000.00000"></scales>
<clustering>
<clus scale="   30.864">  2  4  1 -1</clus>
<clus scale="   36.870">  2  5  1 -1</clus>
<clus scale="   90.279">  2  3  1 -1</clus>
<clus scale="   30.864">  2  3  1 -1</clus>
</clustering>
</event>
<event>
 6    0  0.2839294E+002  0.1151585E+03  0.7546771E-02  0.1251305E+00
          4   -1    0    0  504    0 -0.00000000000E+00  0.00000000000E+00  0.10253233297E+04  0.10253233297E+04  0.00000000000E+00 0.  1.
         21   -1    0    0  503  502  0.00000000000E+00 -0.00000000000E+00 -0.45320158107E+03  0.45320158107E+03  0.00000000000E+00 0.  1.
         21    1    1    2  503  501  0.10199292100E+03 -0.80579875783E+02 -0.39612653318E+03  0.41690754683E+03  0.00000000000E+00 0.  1.
         21    1    1    2  504  505  0.24861882063E+02  0.32069009802E+02  0.84470510031E+02  0.93711267382E+02  0.00000000000E+00 0. -1.
         21    1    1    2  505  502 -0.31402768609E+02 -0.10342517193E+02 -0.31570636443E+02  0.45714402803E+02  0.00000000000E+00 0.  1.
          4    1    1    2  501    0 -0.95452034458E+02  0.58853383174E+02  0.91534840823E+03  0.92219169377E+03  0.00000000000E+00 0.  1.
<scales pt_clust_3="14000.00000" pt_clust_4="40.27250" pt_clust_5="33.06209" pt_clust_6="115.15849"></scales>
<clustering>
<clus scale="   33.062">  2  5  1 -1</clus>
<clus scale="   40.272">  1  4  2 -1</clus>
<clus scale="  115.158">  1  6  2 -1</clus>
<clus scale="   33.062">  2  3  1 -1</clus>
</clustering>
</event>
<event>
 6    0  0.2839294E+002  0.1983287E+03  0.7546771E-02  0.1151157E+00
         21   -1    0    0  505  502  0.00000000000E+00  0.00000000000E+00  0.50584460246E+02  0.50584460246E+02  0.00000000000E+00 0.  1.
          1   -1    0    0  504    0 -0.00000000000E+00 -0.00000000000E+00 -0.28082672263E+04  0.28082672263E+04  0.00000000000E+00 0.  1.
         21    1    1    2  503  502 -0.57888921139E+02  0.23718993422E+02 -0.21234936916E+02  0.66065425037E+02  0.00000000000E+00 0.  1.
         21    1    1    2  504  503  0.27726403981E+03  0.15640507715E+02 -0.94481109806E+03  0.98477813962E+03  0.00000000000E+00 0.  1.
         21    1    1    2  505  501 -0.42537075589E+02 -0.93852998509E+01 -0.13896892956E+03  0.14563601902E+03  0.00000000000E+00 0.  1.
          1    1    1    2  501    0 -0.17683804308E+03 -0.29974201286E+02 -0.16526678015E+04  0.16623721029E+04  0.00000000000E+00 0.  1.
<scales pt_clust_3="80.41030" pt_clust_4="14000.00000" pt_clust_5="43.56015" pt_clust_6="198.32871"></scales>
<clustering>
<clus scale="   43.560">  1  5  2 -1</clus>
<clus scale="   80.410">  1  3  2 -1</clus>
<clus scale="  198.329">  2  6  1 -1</clus>
<clus scale="   43.560">  1  3  2 -1</clus>
</clustering>
</event>
<event>
 6    0  0.2839294E+002  0.1265764E+03  0.7546771E-02  0.1232626E+00
         21   -1    0    0  503  502  0.00000000000E+00  0.00000000000E+00  0.32765746858E+03  0.32765746858E+03  0.00000000000E+00 0.  1.
         -3   -1    0    0    0  501 -0.00000000000E+00 -0.00000000000E+00 -0.42575884374E+03  0.42575884374E+03  0.00000000000E+00 0.  1.
         21    1    1    2  503  501  0.74044601742E+02  0.97090962168E+01  0.20873276238E+03  0.22168950288E+03  0.00000000000E+00 0.  1.
         21    1    1    2  504  502  0.10232211634E+02  0.77997738505E+02  0.86520745274E+02  0.11693666974E+03  0.00000000000E+00 0.  1.
         21    1    1    2  505  504 -0.25894250410E+02 -0.38690466995E+02 -0.82549793905E+02  0.94773060066E+02  0.00000000000E+00 0.  1.
         -3    1    1    2    0  505 -0.58382562965E+02 -0.49016367727E+02 -0.31080508891E+03  0.32001707963E+03  0.00000000000E+00 0.  1.
<scales pt_clust_3="74.67844" pt_clust_4="116.16303" pt_clust_5="39.29053" pt_clust_6="39.29053"></scales>
<clustering>
<clus scale="   39.291">  5  6 -1 -1</clus>
<clus scale="   74.678">  1  3  2 -1</clus>
<clus scale="  116.163">  1  4  2 -1</clus>
<clus scale="   74.678">  1  3  2 -1</clus>
</clustering>
</event>
<event>
 6    0  0.2839294E+002  0.1441874E+03  0.7546771E-02  0.1207803E+00
         21   -1    0    0  503  502  0.00000000000E+00  0.00000000000E+00  0.15530995981E+03  0.15530995981E+03  0.00000000000E+00 0. -1.
          2   -1    0    0  505    0 -0.00000000000E+00 -0.00000000000E+00 -0.30507317947E+04  0.30507317947E+04  0.00000000000E+00 0.  1.
         21    1    1    2  503  501 -0.71113177826E+02  0.79586882615E+01 -0.69410344556E+02  0.99690624989E+02  0.00000000000E+00 0. -1.
         21    1    1    2  504  502 -0.54550345255E+02  0.68926953786E+02  0.12314973600E+03  0.15130275147E+03  0.00000000000E+00 0. -1.
         21    1    1    2  505  504  0.12386691795E+02 -0.50246572073E+02 -0.41461244389E+03  0.41782966238E+03  0.00000000000E+00 0.  1.
          2    1    1    2  501    0  0.11327683129E+03 -0.26639069974E+02 -0.25345487824E+04  0.25372187157E+04  0.00000000000E+00 0.  1.
<scales pt_clust_3="70.99983" pt_clust_4="14000.00000" pt_clust_5="51.75083" pt_clust_6="144.18743"></scales>
<clustering>
<clus scale="   51.751">  2  5  1 -1</clus>
<clus scale="   71.000">  1  3  2 -1</clus>
<clus scale="  144.187">  2  6  1 -1</clus>
<clus scale="   71.000">  1  3  2 -1</clus>
</clustering>
</event>
<event>
 6    0  0.2839294E+002  0.4140649E+03  0.7546771E-02  0.1039015E+00
         21   -1    0    0  504  502  0.00000000000E+00  0.00000000000E+00  0.28814163067E+03  0.28814163067E+03  0.00000000000E+00 0.  1.
          1   -1    0    0  505    0 -0.00000000000E+00 -0.00000000000E+00 -0.14684161340E+04  0.14684161340E+04  0.00000000000E+00 0.  1.
         21    1    1    2  503  502 -0.51417884030E+02 -0.86462553275E+01  0.19887161306E+02  0.55803724913E+02  0.00000000000E+00 0.  1.
         21    1    1    2  504  501  0.12210089956E+03 -0.22082470944E+02 -0.30714399751E+03  0.33126077402E+03  0.00000000000E+00 0.  1.
         21    1    1    2  505  503 -0.22693465575E+03  0.27560285923E+03  0.69836482497E+02  0.36377659117E+03  0.00000000000E+00 0.  1.
          1    1    1    2  501    0  0.15625164022E+03 -0.24487413296E+03 -0.96285414958E+03  0.10057166745E+04  0.00000000000E+00 0.  1.
<scales pt_clust_3="52.13978" pt_clust_4="104.42113" pt_clust_5="381.55252" pt_clust_6="104.42113"></scales>
<clustering>
<clus scale="   52.140">  1  3  2 -1</clus>
<clus scale="  104.421">  4  6 -1 -1</clus>
<clus scale="  381.553">  1  5  2 -1</clus>
<clus scale="   52.140">  1  3  2 -1</clus>
</clustering>
</event>
<event>
 6    0  0.2996458E+002  0.2624896E+03  0.7546771E-02  0.1105657E+00
          2   -1    0    0  503    0 -0.00000000000E+00  0.00000000000E+00  0.12146414451E+04  0.12146414451E+04  0.00000000000E+00 0. -1.
         21   -1    0    0  504  502  0.00000000000E+00 -0.00000000000E+00 -0.16884959014E+04  0.16884959014E+04  0.00000000000E+00 0.  1.
         21    1    1    2  503  505  0.89256321008E+01 -0.30759790043E+02  0.94252535730E+01  0.33386629012E+02  0.00000000000E+00 0. -1.
         21    1    1    2  504  501 -0.27350273016E+03  0.11802138445E+02 -0.14966165417E+04  0.15214480296E+04  0.00000000000E+00 0.  1.
         21    1    1    2  505  502  0.20525347710E+03 -0.83277916065E+00 -0.10339132608E+03  0.22982482393E+03  0.00000000000E+00 0. -1.
          2    1    1    2  501    0  0.59323620957E+02  0.19790430759E+02  0.11167281580E+04  0.11184778639E+04  0.00000000000E+00 0. -1.
<scales pt_clust_3="32.02861" pt_clust_4="262.48962" pt_clust_5="14000.00000" pt_clust_6="68.28185"></scales>
<clustering>
<clus scale="   32.029">  1  3  2 -1</clus>
<clus scale="   68.282">  1  6  2 -1</clus>
<clus scale="  262.490">  2  4  1 -1</clus>
<clus scale="  262.490">  2  3  1 -1</clus>
</clustering>
</event>
<event>
 6    0  0.2839294E+002  0.1421051E+03  0.7546771E-02  0.1210524E+00
         21   -1    0    0  505  502  0.00000000000E+00  0.00000000000E+00  0.77664146054E+03  0.77664146054E+03  0.00000000000E+00 0. -1.
          1   -1    0    0  504    0 -0.00000000000E+00 -0.00000000000E+00 -0.94712058904E+03  0.94712058904E+03  0.00000000000E+00 0. -1.
         21    1    1    2  503  501  0.64320802967E+02 -0.61442807558E+02 -0.13868233148E+03  0.16475792351E+03  0.00000000000E+00 0.  1.
         21    1    1    2  504  502  0.20839545483E+02  0.38264098873E+02  0.37330771107E+02  0.57376078551E+02  0.00000000000E+00 0.  1.
         21    1    1    2  505  503 -0.14239420404E+03  0.47160395214E+02  0.70714497148E+03  0.72287912054E+03  0.00000000000E+00 0. -1.
          1    1    1    2  501    0  0.57233855592E+02 -0.23981686529E+02 -0.77627253961E+03  0.77874892697E+03  0.00000000000E+00 0. -1.
<scales pt_clust_3="14000.00000" pt_clust_4="43.57095" pt_clust_5="142.10510" pt_clust_6="62.06267"></scales>
<clustering>
<clus scale="   43.571">  1  4  2 -1</clus>
<clus scale="   62.063">  2  6  1 -1</clus>
<clus scale="  142.105">  1  5  2 -1</clus>
<clus scale="   43.571">  1  3  2 -1</clus>
</clustering>
</event>
<event>
 6    0  0.2839294E+002  0.9094816E+02  0.7546771E-02  0.1300572E+00
         21   -1    0    0  505  502  0.00000000000E+00  0.00000000000E+00  0.13205117919E+04  0.13205117919E+04  0.00000000000E+00 0.  1.
          2   -1    0    0  503    0 -0.00000000000E+00 -0.00000000000E+00 -0.44570692737E+03  0.44570692737E+03  0.00000000000E+00 0. -1.
         21    1    1    2  503  504  0.27836689892E+02 -0.56007133909E+02 -0.15289981916E+03  0.16519695836E+03  0.00000000000E+00 0.  1.
         21    1    1    2  504  502 -0.20276615414E+02 -0.35285663310E+02  0.55414873346E+03  0.55564110536E+03  0.00000000000E+00 0.  1.
         21    1    1    2  505  501 -0.49732872012E+02  0.94530140481E+02  0.75411958007E+03  0.76164666813E+03  0.00000000000E+00 0.  1.
          2    1    1    2  501    0  0.42172797534E+02 -0.32373432628E+01 -0.28056362984E+03  0.28373398744E+03  0.00000000000E+00 0. -1.
<scales pt_clust_3="90.94816" pt_clust_4="40.69667" pt_clust_5="14000.00000" pt_clust_6="42.26067"></scales>
<clustering>
<clus scale="   40.697">  1  4  2 -1</clus>
<clus scale="   42.261">  2  6  1 -1</clus>
<clus scale="   90.948">  2  3  1 -1</clus>
<clus scale="   40.697">  1  3  2 -1</clus>
</clustering>
</event>
<event>
 6    0  0.3453643E+002  0.7843269E+02  0.7546771E-02  0.1333559E+00
         21   -1    0    0  505  502  0.00000000000E+00  0.00000000000E+00  0.85361430089E+03  0.85361430089E+03  0.00000000000E+00 0.  1.
          2   -1    0    0  504    0 -0.00000000000E+00 -0.00000000000E+00 -0.25173521589E+04  0.25173521589E+04  0.00000000000E+00 0. -1.
         21    1    1    2  503  502 -0.56290114526E+02  0.33995801106E+02  0.23019610231E+02  0.69672045624E+02  0.00000000000E+00 0.  1.
         21    1    1    2  504  503 -0.26749305532E+02  0.27695992619E+02 -0.42010857166E+03  0.42186941740E+03  0.00000000000E+00 0.  1.
         21    1    1    2  505  501  0.10367967992E+03 -0.96998369631E+02  0.79993464375E+03  0.81243682462E+03  0.00000000000E+00 0.  1.
          2    1    1    2  501    0 -0.20640259860E+02  0.35306575905E+02 -0.20665835404E+04  0.20669881722E+04  0.00000000000E+00 0. -1.
<scales pt_clust_3="66.17353" pt_clust_4="38.50446" pt_clust_5="78.43269" pt_clust_6="14000.00000"></scales>
<clustering>
<clus scale="   38.504">  2  4  1 -1</clus>
<clus scale="   66.174">  1  3  2 -1</clus>
<clus scale="   78.433">  1  5  2 -1</clus>
<clus scale="   66.174">  1  3  2 -1</clus>
</clustering>
</event>
<event>
 6    0  0.2839294E+002  0.9179589E+02  0.7546771E-02  0.1298560E+00
          2   -1    0    0  502    0 -0.00000000000E+00  0.00000000000E+00  0.34163158980E+04  0.34163158980E+04  0.00000000000E+00 0. -1.
         21   -1    0    0  504  502  0.00000000000E+00 -0.00000000000E+00 -0.60986998050E+03  0.60986998050E+03  0.00000000000E+00 0. -1.
         21    1    1    2  503  505  0.19855131159E+02  0.55162959493E+02 -0.20550370889E+03  0.21370295436E+03  0.00000000000E+00 0. -1.
         21    1    1    2  504  503 -0.53115131642E+02 -0.18573495821E+02 -0.39473277411E+03  0.39872315573E+03  0.00000000000E+00 0. -1.
         21    1    1    2  505  501 -0.58368294887E+02  0.10320139581E+02  0.32514964484E+03  0.33050817640E+03  0.00000000000E+00 0. -1.
          2    1    1    2  501    0  0.91628295370E+02 -0.46909603253E+02  0.30815327557E+04  0.30832515920E+04  0.00000000000E+00 0. -1.
<scales pt_clust_3="49.08966" pt_clust_4="56.26893" pt_clust_5="14000.00000" pt_clust_6="91.79589"></scales>
<clustering>
<clus scale="   56.269">  2  4  1 -1</clus>
<clus scale="   49.090">  2  3  1 -1</clus>
<clus scale="   91.796">  1  6  2 -1</clus>
<clus scale="   56.269">  2  3  1 -1</clus>
</clustering>
</event>
<event>
 6    0  0.2839294E+002  0.1023356E+03  0.7546771E-02  0.1275460E+00
         21   -1    0    0  505  502  0.00000000000E+00  0.00000000000E+00  0.29249815476E+03  0.29249815476E+03  0.00000000000E+00 0.  1.
          1   -1    0    0  503    0 -0.00000000000E+00 -0.00000000000E+00 -0.23565282985E+03  0.23565282985E+03  0.00000000000E+00 0. -1.
         21    1    1    2  503  504 -0.11035991018E+03  0.81606970015E+02  0.12141691305E+03  0.18325139591E+03  0.00000000000E+00 0.  1.
         21    1    1    2  504  502  0.32696512890E+02  0.18059048419E+02  0.98521373415E+02  0.10536437825E+03  0.00000000000E+00 0.  1.
         21    1    1    2  505  501  0.22546878795E+01 -0.34950054713E+02  0.12984633951E+02  0.37352251080E+02  0.00000000000E+00 0. -1.
          1    1    1    2  501    0  0.75408709411E+02 -0.64715963722E+02 -0.17607759551E+03  0.20218295936E+03  0.00000000000E+00 0. -1.
<scales pt_clust_3="102.33561" pt_clust_4="33.88821" pt_clust_5="35.02271" pt_clust_6="14000.00000"></scales>
<clustering>
<clus scale="   35.023">  1  5  2 -1</clus>
<clus scale="   33.888">  1  4  2 -1</clus>
<clus scale="  102.336">  1  3  2 -1</clus>
<clus scale="   35.023">  1  3  2 -1</clus>
</clustering>
</event>
<event>
 6    0  0.2839294E+002  0.1026482E+03  0.7546771E-02  0.1274824E+00
         21   -1    0    0  503  502  0.00000000000E+00  0.00000000000E+00  0.17605704961E+04  0.17605704961E+04  0.00000000000E+00 0.  1.
          3   -1    0    0  505    0 -0.00000000000E+00 -0.00000000000E+00 -0.74398069327E+03  0.74398069327E+03  0.00000000000E+00 0. -1.
         21    1    1    2  503  501 -0.70186581243E+02  0.97347440457E+02  0.46012592044E+03  0.47551923516E+03  0.00000000000E+00 0.  1.
         21    1    1    2  504  502  0.32497055454E+02 -0.22795562681E+01  0.12672500741E+04  0.12676687285E+04  0.00000000000E+00 0.  1.
         21    1    1    2  505  504  0.75600496608E+02 -0.86413404970E+01 -0.43932678002E+02  0.87864600661E+02  0.00000000000E+00 0. -1.
          3    1    1    2  501    0 -0.37910970819E+02 -0.86426543692E+02 -0.66685351370E+03  0.67349862502E+03  0.00000000000E+00 0. -1.
<scales pt_clust_3="14000.00000" pt_clust_4="32.57691" pt_clust_5="77.54255" pt_clust_6="102.64819"></scales>
<clustering>
<clus scale="   32.577">  1  4  2 -1</clus>
<clus scale="   77.543">  2  5  1 -1</clus>
<clus scale="  102.648">  2  6  1 -1</clus>
<clus scale="   32.577">  1  3  2 -1</clus>
</clustering>
</event>
<event>
 6    0  0.2839294E+002  0.1446953E+03  0.7546771E-02  0.1207147E+00
         21   -1    0    0  505  502  0.00000000000E+00  0.00000000000E+00  0.77659546232E+02  0.77659546232E+02  0.00000000000E+00 0.  1.
          2   -1    0    0  504    0 -0.00000000000E+00 -0.00000000000E+00 -0.23841878361E+04  0.23841878361E+04  0.00000000000E+00 0.  1.
         21    1    1    2  503  502  0.89853501160E+02  0.83210223447E+02 -0.38154831199E+03  0.40072023575E+03  0.00000000000E+00 0.  1.
         21    1    1    2  504  503 -0.20637974848E+02  0.27695874485E+02 -0.43767911646E+03  0.43903985748E+03  0.00000000000E+00 0.  1.
         21    1    1    2  505  501 -0.47543907640E+02 -0.14494275483E+03 -0.19558042029E+02  0.15378992926E+03  0.00000000000E+00 0.  1.
          2    1    1    2  501    0 -0.21671618672E+02  0.34036656901E+02 -0.14677428193E+04  0.14682973598E+04  0.00000000000E+00 0.  1.
<scales pt_clust_3="14000.00000" pt_clust_4="34.53965" pt_clust_5="144.69526" pt_clust_6="66.36597"></scales>
<clustering>
<clus scale="   34.540">  2  4  1 -1</clus>
<clus scale="   66.366">  2  6  1 -1</clus>
<clus scale="  144.695">  1  5  2 -1</clus>
<clus scale="  144.695">  1  3  2 -1</clus>
</clustering>
</event>
<event>
 6    0  0.2839294E+002  0.1733016E+03  0.7546771E-02  0.1174448E+00
         21   -1    0    0  505  502  0.00000000000E+00  0.00000000000E+00  0.47208711398E+02  0.47208711398E+02  0.00000000000E+00 0.  1.
          2   -1    0    0  504    0 -0.00000000000E+00 -0.00000000000E+00 -0.18049208974E+04  0.18049208974E+04  0.00000000000E+00 0. -1.
         21    1    1    2  503  502  0.21391596838E+03  0.26179177736E+02 -0.36869040657E+03  0.42705738113E+03  0.00000000000E+00 0.  1.
         21    1    1    2  504  503 -0.66094548684E+02 -0.92023794656E+02 -0.52993262687E+03  0.54190908571E+03  0.00000000000E+00 0.  1.
         21    1    1    2  505  501 -0.28617852795E+02  0.28532357945E+02 -0.49062068415E+02  0.63562280526E+02  0.00000000000E+00 0.  1.
          2    1    1    2  501    0 -0.11920356690E+03  0.37312258975E+02 -0.81002708414E+03  0.81960086144E+03  0.00000000000E+00 0. -1.
<scales pt_clust_3="14000.00000" pt_clust_4="112.48776" pt_clust_5="40.41135" pt_clust_6="173.30161"></scales>
<clustering>
<clus scale="   40.411">  1  5  2 -1</clus>
<clus scale="  112.488">  2  4  1 -1</clus>
<clus scale="  173.302">  2  6  1 -1</clus>
<clus scale="   40.411">  1  3  2 -1</clus>
</clustering>
</event>
<event>
 6    0  0.2839294E+002  0.7641787E+02  0.7546771E-02  0.1339536E+00
          2   -1    0    0  504    0 -0.00000000000E+00  0.00000000000E+00  0.60903402482E+03  0.60903402482E+03  0.00000000000E+00 0. -1.
         21   -1    0    0  503  502  0.00000000000E+00 -0.00000000000E+00 -0.15992916415E+04  0.15992916415E+04  0.00000000000E+00 0. -1.
         21    1    1    2  503  501  0.10772759633E+02 -0.76016946083E+02 -0.14606658511E+04  0.14626822475E+04  0.00000000000E+00 0. -1.
         21    1    1    2  504  505  0.34772729417E+02  0.41008756453E+02  0.48466747795E+03  0.48764067201E+03  0.00000000000E+00 0. -1.
         21    1    1    2  505  502 -0.78425721101E+02  0.57914964621E+02 -0.11430235449E+03  0.15023237034E+03  0.00000000000E+00 0.  1.
          2    1    1    2  501    0  0.32880232051E+02 -0.22906774991E+02  0.10004311097E+03  0.10777037651E+03  0.00000000000E+00 0. -1.
<scales pt_clust_3="14000.00000" pt_clust_4="69.07181" pt_clust_5="76.41787" pt_clust_6="40.07281"></scales>
<clustering>
<clus scale="   40.073">  1  6  2 -1</clus>
<clus scale="   69.072">  1  4  2 -1</clus>
<clus scale="   76.418">  1  5  2 -1</clus>
<clus scale="   76.418">  2  3  1 -1</clus>
</clustering>
</event>
<event>
 6    0  0.2839294E+002  0.8385072E+02  0.7546771E-02  0.1318466E+00
          2   -1    0    0  504    0 -0.00000000000E+00  0.00000000000E+00  0.38222786637E+03  0.38222786637E+03  0.00000000000E+00 0.  1.
         21   -1    0    0  501  502  0.00000000000E+00 -0.00000000000E+00 -0.10466266401E+04  0.10466266401E+04  0.00000000000E+00 0.  1.
         21    1    1    2  503  505 -0.55014023706E+02  0.83039168210E+02 -0.70468450860E+02  0.12201577287E+03  0.00000000000E+00 0. -1.
         21    1    1    2  504  503  0.41969100243E+02  0.73678028336E+01  0.14668486988E+02  0.45065001990E+02  0.00000000000E+00 0. -1.
         21    1    1    2  505  502 -0.28929552539E+02 -0.57610395978E+02 -0.93189320711E+03  0.93412034888E+03  0.00000000000E+00 0.  1.
          2    1    1    2  501    0  0.41974476001E+02 -0.32796575066E+02  0.32329439721E+03  0.32765338277E+03  0.00000000000E+00 0.  1.
<scales pt_clust_3="83.85072" pt_clust_4="42.61091" pt_clust_5="64.38585" pt_clust_6="14000.00000"></scales>
<clustering>
<clus scale="   42.611">  1  4  2 -1</clus>
<clus scale="   64.386">  2  5  1 -1</clus>
<clus scale="   83.851">  2  3  1 -1</clus>
<clus scale="   64.386">  2  3  1 -1</clus>
</clustering>
</event>
<event>
 6    0  0.2839294E+002  0.1178778E+03  0.7546771E-02  0.1246640E+00
         21   -1    0    0  505  502  0.00000000000E+00  0.00000000000E+00  0.10433328730E+03  0.10433328730E+03  0.00000000000E+00 0.  1.
          2   -1    0    0  504    0 -0.00000000000E+00 -0.00000000000E+00 -0.85560042554E+03  0.85560042554E+03  0.00000000000E+00 0.  1.
         21    1    1    2  503  501  0.31105642734E+01 -0.34787851832E+02 -0.13545964114E+03  0.13988990179E+03  0.00000000000E+00 0. -1.
         21    1    1    2  504  502  0.42827323804E+02  0.67093697771E+01  0.46632880328E+02  0.63669622543E+02  0.00000000000E+00 0.  1.
         21    1    1    2  505  503 -0.84695919086E+02  0.92784471055E+02 -0.43636736588E+02  0.13299068223E+03  0.00000000000E+00 0.  1.
          2    1    1    2  501    0  0.38758031008E+02 -0.64705989001E+02 -0.61880364084E+03  0.62338350627E+03  0.00000000000E+00 0.  1.
<scales pt_clust_3="30.59302" pt_clust_4="43.34969" pt_clust_5="108.96778" pt_clust_6="30.59302"></scales>
<clustering>
<clus scale="   30.593">  3  6 -1 -1</clus>
<clus scale="   43.350">  1  4  2 -1</clus>
<clus scale="  108.968">  1  5  2 -1</clus>
<clus scale="   43.350">  1  3  2 -1</clus>
</clustering>
</event>
<event>
 6    0  0.2839294E+002  0.1266391E+03  0.7546771E-02  0.1232530E+00
         21   -1    0    0  504  502  0.00000000000E+00  0.00000000000E+00  0.41038406846E+03  0.41038406846E+03  0.00000000000E+00 0.  1.
          1   -1    0    0  505    0 -0.00000000000E+00 -0.00000000000E+00 -0.58809700505E+03  0.58809700505E+03  0.00000000000E+00 0. -1.
         21    1    1    2  503  502 -0.12646364290E+03 -0.25288676755E+02  0.34659011215E+03  0.36980707942E+03  0.00000000000E+00 0.  1.
         21    1    1    2  504  501  0.12960740448E+02 -0.38409049658E+02  0.11079551144E+02  0.42023711665E+02  0.00000000000E+00 0.  1.
         21    1    1    2  505  503  0.67774717417E+02  0.31405662430E+01 -0.27628420935E+02  0.73257116519E+02  0.00000000000E+00 0.  1.
          1    1    1    2  501    0  0.45728185030E+02  0.60557160170E+02 -0.50775417895E+03  0.51339316590E+03  0.00000000000E+00 0. -1.
<scales pt_clust_3="14000.00000" pt_clust_4="40.53685" pt_clust_5="68.55045" pt_clust_6="126.63906"></scales>
<clustering>
<clus scale="   40.537">  1  4  2 -1</clus>
<clus scale="   68.550">  2  5  1 -1</clus>
<clus scale="  126.639">  2  6  1 -1</clus>
<clus scale="   40.537">  1  3  2 -1</clus>
</clustering>
</event>
<event>
 6    0  0.2839294E+002  0.1429215E+03  0.7546771E-02  0.1209451E+00
          1   -1    0    0  505    0 -0.00000000000E+00  0.00000000000E+00  0.12443266015E+04  0.12443266015E+04  0.00000000000E+00 0. -1.
         21   -1    0    0  503  502  0.00000000000E+00 -0.00000000000E+00 -0.19821372496E+03  0.19821372496E+03  0.00000000000E+00 0.  1.
         21    1    1    2  503  501 -0.80955027030E+02  0.46131349727E+02 -0.13681021201E+03  0.16552598569E+03  0.00000000000E+00 0.  1.
         21    1    1    2  504  502 -0.66558904906E+02 -0.45520625783E+02 -0.24144396427E+01  0.80672453246E+02  0.00000000000E+00 0.  1.
         21    1    1    2  505  504  0.31365372631E+02  0.20613065177E+02  0.16606867113E+03  0.17025712493E+03  0.00000000000E+00 0. -1.
          1    1    1    2  501    0  0.11614855930E+03 -0.21223789121E+02  0.10192688570E+04  0.10260847626E+04  0.00000000000E+00 0. -1.
<scales pt_clust_3="14000.00000" pt_clust_4="79.27188" pt_clust_5="37.53245" pt_clust_6="142.92150"></scales>
<clustering>
<clus scale="   37.532">  1  5  2 -1</clus>
<clus scale="   79.272">  2  4  1 -1</clus>
<clus scale="  142.922">  1  6  2 -1</clus>
<clus scale="   79.272">  2  3  1 -1</clus>
</clustering>
</event>
<event>
 6    0  0.2839294E+002  0.6979830E+02  0.7546771E-02  0.1360780E+00
         -3   -1    0    0    0  501 -0.00000000000E+00  0.00000000000E+00  0.11078711751E+04  0.11078711751E+04  0.00000000000E+00 0.  1.
         21   -1    0    0  505  502  0.00000000000E+00 -0.00000000000E+00 -0.57187768188E+02  0.57187768188E+02  0.00000000000E+00 0.  1.
         21    1    1    2  503  502  0.64207663213E+00 -0.50198974583E+02  0.73833955289E+02  0.89284949825E+02  0.00000000000E+00 0. -1.
         21    1    1    2  504  503 -0.87116174694E+02 -0.27677361880E+02  0.74621628511E+01  0.91711221387E+02  0.00000000000E+00 0.  1.
         21    1    1    2  505  501  0.28716958890E+02  0.39752726893E+02  0.94721938349E+02  0.10666390499E+03  0.00000000000E+00 0.  1.
         -3    1    1    2    0  504  0.57757139172E+02  0.38123609570E+02  0.87466535043E+03  0.87739886709E+03  0.00000000000E+00 0.  1.
<scales pt_clust_3="44.48165" pt_clust_4="14000.00000" pt_clust_5="49.04022" pt_clust_6="69.79830"></scales>
<clustering>
<clus scale="   49.040">  2  5  1 -1</clus>
<clus scale="   44.482">  2  3  1 -1</clus>
<clus scale="   69.798">  1  6  2 -1</clus>
<clus scale="   49.040">  2  3  1 -1</clus>
</clustering>
</event>
<event>
 6    0  0.2839294E+002  0.3249464E+03  0.7546771E-02  0.1073395E+00
          2   -1    0    0  502    0 -0.00000000000E+00  0.00000000000E+00  0.44435025712E+04  0.44435025712E+04  0.00000000000E+00 0.  1.
         21   -1    0    0  505  502  0.00000000000E+00 -0.00000000000E+00 -0.40115648900E+03  0.40115648900E+03  0.00000000000E+00 0.  1.
         21    1    1    2  503  501 -0.84765841136E+02 -0.66531690615E+01  0.45374381770E+03  0.46164159754E+03  0.00000000000E+00 0. -1.
         21    1    1    2  504  503 -0.21736148787E+03 -0.15165043474E+03  0.67246511219E+03  0.72280924031E+03  0.00000000000E+00 0.  1.
         21    1    1    2  505  504  0.16076738874E+02  0.11710890772E+03 -0.35611378738E+03  0.37521991866E+03  0.00000000000E+00 0.  1.
          2    1    1    2  501    0  0.28605059013E+03  0.41194696085E+02  0.32722509397E+04  0.32849883037E+04  0.00000000000E+00 0.  1.
<scales pt_clust_3="76.48799" pt_clust_4="76.48799" pt_clust_5="118.20727" pt_clust_6="295.55689"></scales>
<clustering>
<clus scale="   76.488">  3  4 -1 -1</clus>
<clus scale="  118.207">  2  5  1 -1</clus>
<clus scale="  295.557">  1  6  2 -1</clus>
<clus scale="  118.207">  2  3  1 -1</clus>
</clustering>
</event>
<event>
 6    0  0.2839294E+002  0.9377266E+02  0.7546771E-02  0.1293965E+00
         21   -1    0    0  501  502  0.00000000000E+00  0.00000000000E+00  0.12755190792E+03  0.12755190792E+03  0.00000000000E+00 0.  1.
          2   -1    0    0  503    0 -0.00000000000E+00 -0.00000000000E+00 -0.10764369520E+04  0.10764369520E+04  0.00000000000E+00 0.  1.
         21    1    1    2  503  505 -0.79415433076E+01 -0.80495850064E+02 -0.27870062548E+03  0.29020111755E+03  0.00000000000E+00 0.  1.
         21    1    1    2  504  502  0.43037382245E+02 -0.29909528445E+02  0.10179861581E+03  0.11449783554E+03  0.00000000000E+00 0.  1.
         21    1    1    2  505  504 -0.31675473744E+01  0.11477360420E+03 -0.23710735517E+03  0.26344432325E+03  0.00000000000E+00 0.  1.
          2    1    1    2  501    0 -0.31928291563E+02 -0.43682256926E+01 -0.53487567919E+03  0.53584558353E+03  0.00000000000E+00 0.  1.
<scales pt_clust_3="93.77266" pt_clust_4="52.13209" pt_clust_5="14000.00000" pt_clust_6="32.22572"></scales>
<clustering>
<clus scale="   32.226">  2  6  1 -1</clus>
<clus scale="   52.132">  1  4  2 -1</clus>
<clus scale="   93.773">  2  3  1 -1</clus>
<clus scale="   52.132">  1  3  2 -1</clus>
</clustering>
</event>
<event>
 6    0  0.2839294E+002  0.1750294E+03  0.7546771E-02  0.1172702E+00
          2   -1    0    0  503    0 -0.00000000000E+00  0.00000000000E+00  0.10528511091E+04  0.10528511091E+04  0.00000000000E+00 0. -1.
         21   -1    0    0  504  502  0.00000000000E+00 -0.00000000000E+00 -0.74848102136E+02  0.74848102136E+02  0.00000000000E+00 0.  1.
         21    1    1    2  503  505  0.13122665332E+03  0.13439579589E+03  0.50141506914E+03  0.53544349474E+03  0.00000000000E+00 0.  1.
         21    1    1    2  504  501 -0.34056276218E+02  0.26536956416E+02  0.70145310520E+02  0.82367497192E+02  0.00000000000E+00 0. -1.
         21    1    1    2  505  502  0.42677144650E+02 -0.73521747118E+02  0.16625897614E+02  0.86621050826E+02  0.00000000000E+00 0.  1.
          2    1    1    2  501    0 -0.13984752175E+03 -0.87411005188E+02  0.38981672969E+03  0.42326716848E+03  0.00000000000E+00 0. -1.
<scales pt_clust_3="14000.00000" pt_clust_4="43.17453" pt_clust_5="65.14007" pt_clust_6="175.02938"></scales>
<clustering>
<clus scale="   43.175">  2  4  1 -1</clus>
<clus scale="   65.140">  2  5  1 -1</clus>
<clus scale="  175.029">  1  6  2 -1</clus>
<clus scale="   43.175">  2  3  1 -1</clus>
</clustering>
</event>
<event>
 6    0  0.2839294E+002  0.8341684E+02  0.7546771E-02  0.1319625E+00
          2   -1    0    0  503    0 -0.00000000000E+00  0.00000000000E+00  0.20881660412E+04  0.20881660412E+04  0.00000000000E+00 0.  1.
         21   -1    0    0  505  502  0.00000000000E+00 -0.00000000000E+00 -0.49399372379E+03  0.49399372379E+03  0.00000000000E+00 0. -1.
         21    1    1    2  503  502 -0.69035655971E+02 -0.12062196872E+03 -0.34086323242E+03  0.36810776187E+03  0.00000000000E+00 0. -1.
         21    1    1    2  504  501  0.70572422190E+02  0.10036079073E+02  0.61152966420E+03  0.61567013883E+03  0.00000000000E+00 0. -1.
         21    1    1    2  505  504 -0.12954416815E+01  0.75179714940E+02 -0.12692171206E+03  0.14752216342E+03  0.00000000000E+00 0. -1.
          2    1    1    2  501    0 -0.24132453778E+00  0.35406174712E+02  0.14504275977E+04  0.14508597008E+04  0.00000000000E+00 0.  1.
<scales pt_clust_3="14000.00000" pt_clust_4="83.41684" pt_clust_5="75.76290" pt_clust_6="35.40700"></scales>
<clustering>
<clus scale="   35.407">  1  6  2 -1</clus>
<clus scale="   75.763">  2  5  1 -1</clus>
<clus scale="   83.417">  1  4  2 -1</clus>
<clus scale="   75.763">  2  3  1 -1</clus>
</clustering>
</event>
<event>
 6    0  0.2839294E+002  0.1007424E+03  0.7546771E-02  0.1278742E+00
         -1   -1    0    0    0  501 -0.00000000000E+00  0.00000000000E+00  0.29351900575E+03  0.29351900575E+03  0.00000000000E+00 0. -1.
         21   -1    0    0  505  502  0.00000000000E+00 -0.00000000000E+00 -0.97819964049E+03  0.97819964049E+03  0.00000000000E+00 0.  1.
         21    1    1    2  503  502  0.25744647851E+02 -0.26605236627E+02 -0.51761555943E+02  0.63638700353E+02  0.00000000000E+00 0. -1.
         21    1    1    2  504  501 -0.38256812326E+02  0.21560066549E+02  0.43507160699E+01  0.44128776204E+02  0.00000000000E+00 0. -1.
         21    1    1    2  505  504 -0.38654571000E+02  0.12445967651E+03 -0.87948836118E+03  0.88909176376E+03  0.00000000000E+00 0.  1.
         -1    1    1    2    0  503  0.51166735474E+02 -0.11941450643E+03  0.24221856630E+03  0.27485940593E+03  0.00000000000E+00 0. -1.
<scales pt_clust_3="37.02196" pt_clust_4="43.14755" pt_clust_5="100.74244" pt_clust_6="14000.00000"></scales>
<clustering>
<clus scale="   37.022">  2  3  1 -1</clus>
<clus scale="   43.148">  1  4  2 -1</clus>
<clus scale="  100.742">  2  5  1 -1</clus>
<clus scale="   37.022">  2  3  1 -1</clus>
</clustering>
</event>
<event>
 6    0  0.2839294E+002  0.1830578E+03  0.7546771E-02  0.1164876E+00
         21   -1    0    0  504  502  0.00000000000E+00  0.00000000000E+00  0.66317926814E+02  0.66317926814E+02  0.00000000000E+00 0.  1.
          1   -1    0    0  505    0 -0.00000000000E+00 -0.00000000000E+00 -0.20639625057E+04  0.20639625057E+04  0.00000000000E+00 0.  1.
         21    1    1    2  503  502  0.13821741272E+03  0.98521529096E+02 -0.20464457664E+03  0.26587581241E+03  0.00000000000E+00 0.  1.
         21    1    1    2  504  501 -0.71989438875E+02  0.10495197053E+03 -0.12619744694E+03  0.17922943688E+03  0.00000000000E+00 0.  1.
         21    1    1    2  505  503  0.20505372713E+02 -0.77124762679E+02 -0.32524695881E+03  0.33489443642E+03  0.00000000000E+00 0. -1.
          1    1    1    2  501    0 -0.86733346559E+02 -0.12634873695E+03 -0.13415555965E+04  0.13502807468E+04  0.00000000000E+00 0.  1.
<scales pt_clust_3="183.05781" pt_clust_4="120.66869" pt_clust_5="79.80413" pt_clust_6="14000.00000"></scales>
<clustering>
<clus scale="   79.804">  2  5  1 -1</clus>
<clus scale="  120.669">  1  4  2 -1</clus>
<clus scale="  183.058">  1  3  2 -1</clus>
<clus scale="  120.669">  1  3  2 -1</clus>
</clustering>
</event>
<event>
 6    0  0.2839294E+002  0.9874321E+02  0.7546771E-02  0.1282961E+00
         21   -1    0    0  503  502  0.00000000000E+00  0.00000000000E+00  0.25327277117E+04  0.25327277117E+04  0.00000000000E+00 0. -1.
          1   -1    0    0  504    0 -0.00000000000E+00 -0.00000000000E+00 -0.43823475933E+03  0.43823475933E+03  0.00000000000E+00 0. -1.
         21    1    1    2  503  501 -0.12085977547E+03  0.13288159557E+02 -0.10203171525E+03  0.15872659332E+03  0.00000000000E+00 0.  1.
         21    1    1    2  504  505  0.44662875381E+02 -0.11102605454E+03 -0.45453165293E+01  0.11975899601E+03  0.00000000000E+00 0. -1.
         21    1    1    2  505  502  0.58237987144E+01  0.34343708676E+02  0.24375162893E+04  0.24377651790E+04  0.00000000000E+00 0. -1.
          1    1    1    2  501    0  0.70373101370E+02  0.63394186305E+02 -0.23644630521E+03  0.25471170271E+03  0.00000000000E+00 0. -1.
<scales pt_clust_3="14000.00000" pt_clust_4="98.74321" pt_clust_5="34.83399" pt_clust_6="97.36188"></scales>
<clustering>
<clus scale="   34.834">  1  5  2 -1</clus>
<clus scale="   97.362">  2  6  1 -1</clus>
<clus scale="   98.743">  1  4  2 -1</clus>
<clus scale="   34.834">  1  3  2 -1</clus>
</clustering>
</event>
<event>
 6    0  0.2839294E+002  0.7400802E+02  0.7546771E-02  0.1346971E+00
          2   -1    0    0  505    0 -0.00000000000E+00  0.00000000000E+00  0.22986166412E+04  0.22986166412E+04  0.00000000000E+00 0. -1.
         21   -1    0    0  503  502  0.00000000000E+00 -0.00000000000E+00 -0.88455202556E+02  0.88455202556E+02  0.00000000000E+00 0. -1.
         21    1    1    2  503  504  0.33099785712E+02  0.44407446744E+02 -0.61400581548E+02  0.82690075311E+02  0.00000000000E+00 0. -1.
         21    1    1    2  504  501 -0.90457932091E+02 -0.50714302950E+02  0.20548756135E+03  0.23017323014E+03  0.00000000000E+00 0. -1.
         21    1    1    2  505  502 -0.39133771019E+02 -0.19013776642E+02  0.14027474018E+04  0.14034219782E+04  0.00000000000E+00 0. -1.
          2    1    1    2  501    0  0.96491917398E+02  0.25320632848E+02  0.66332705704E+03  0.67078656007E+03  0.00000000000E+00 0. -1.
<scales pt_clust_3="54.92739" pt_clust_4="74.00802" pt_clust_5="43.50834" pt_clust_6="14000.00000"></scales>
<clustering>
<clus scale="   43.508">  1  5  2 -1</clus>
<clus scale="   54.927">  2  3  1 -1</clus>
<clus scale="   74.008">  2  4  1 -1</clus>
<clus scale="   54.927">  2  3  1 -1</clus>
</clustering>
</event>
<event>
 6    0  0.2839294E+002  0.1595580E+03  0.7546771E-02  0.1189197E+00
          2   -1    0    0  503    0 -0.00000000000E+00  0.00000000000E+00  0.95899010472E+03  0.95899010472E+03  0.00000000000E+00 0. -1.
         21   -1    0    0  505  502  0.00000000000E+00 -0.00000000000E+00 -0.14433960719E+03  0.14433960719E+03  0.00000000000E+00 0. -1.
         21    1    1    2  503  504  0.84261336162E+02  0.50115983724E+02 -0.29844059993E+02  0.10248049821E+03  0.00000000000E+00 0. -1.
         21    1    1    2  504  502  0.52979059545E+02  0.19048954579E+01 -0.62185393994E+02  0.81715559126E+02  0.00000000000E+00 0. -1.
         21    1    1    2  505  501 -0.75668019764E+02 -0.12558939989E+02  0.51565250958E+03  0.52132608492E+03  0.00000000000E+00 0. -1.
          2    1    1    2  501    0 -0.61572375943E+02 -0.39461939194E+02  0.39102744194E+03  0.39780756966E+03  0.00000000000E+00 0. -1.
<scales pt_clust_3="46.02645" pt_clust_4="46.02645" pt_clust_5="33.78346" pt_clust_6="150.79171"></scales>
<clustering>
<clus scale="   33.783">  5  6 -1 -1</clus>
<clus scale="   46.026">  3  4 -1 -1</clus>
<clus scale="  150.792">  1  5  2 -1</clus>
<clus scale="  159.558">  2  3  1 -1</clus>
</clustering>
</event>
<event>
 6    0  0.2839294E+002  0.2375822E+03  0.7546771E-02  0.1121414E+00
          2   -1    0    0  504    0 -0.00000000000E+00  0.00000000000E+00  0.34017711091E+03  0.34017711091E+03  0.00000000000E+00 0.  1.
         21   -1    0    0  503  502  0.00000000000E+00 -0.00000000000E+00 -0.35721841804E+03  0.35721841804E+03  0.00000000000E+00 0.  1.
         21    1    1    2  503  501 -0.56515286743E+02  0.20363826095E+03 -0.12426769823E+03  0.24516316971E+03  0.00000000000E+00 0.  1.
         21    1    1    2  504  505  0.29206390029E+02 -0.14474129286E+03 -0.58101091320E+02  0.15867826533E+03  0.00000000000E+00 0.  1.
         21    1    1    2  505  502 -0.42331235823E+02 -0.99155918298E+02 -0.20688394790E+01  0.10783371345E+03  0.00000000000E+00 0.  1.
          2    1    1    2  501    0  0.69640132537E+02  0.40258950203E+02  0.16739632190E+03  0.18572038045E+03  0.00000000000E+00 0.  1.
<scales pt_clust_3="220.66986" pt_clust_4="75.22492" pt_clust_5="75.22492" pt_clust_6="80.43961"></scales>
<clustering>
<clus scale="   75.225">  4  5 -1 -1</clus>
<clus scale="   80.440">  1  6  2 -1</clus>
<clus scale="  220.670">  2  3  1 -1</clus>
<clus scale="  220.670">  2  3  1 -1</clus>
</clustering>
</event>
<event>
 6    0  0.2839294E+002  0.7033700E+02  0.7546771E-02  0.1358951E+00
          1   -1    0    0  505    0 -0.00000000000E+00  0.00000000000E+00  0.13263702749E+04  0.13263702749E+04  0.00000000000E+00 0. -1.
         21   -1    0    0  504  502  0.00000000000E+00 -0.00000000000E+00 -0.44492757770E+02  0.44492757770E+02  0.00000000000E+00 0. -1.
         21    1    1    2  503  502  0.29377246840E+01  0.47500566136E+02  0.26217289469E+02  0.54334890049E+02  0.00000000000E+00 0. -1.
         21    1    1    2  504  501 -0.15103761015E+02 -0.74540775232E+02  0.31263387773E+02  0.82230469924E+02  0.00000000000E+00 0. -1.
         21    1    1    2  505  503 -0.41873510080E+02  0.67970263002E+02  0.45774611489E+03  0.46465562860E+03  0.00000000000E+00 0. -1.
          1    1    1    2  501    0  0.54039546411E+02 -0.40930053906E+02  0.76665072502E+03  0.76964204411E+03  0.00000000000E+00 0. -1.
<scales pt_clust_3="47.59132" pt_clust_4="36.99447" pt_clust_5="14000.00000" pt_clust_6="70.33700"></scales>
<clustering>
<clus scale="   47.591">  2  3  1 -1</clus>
<clus scale="   36.994">  2  4  1 -1</clus>
<clus scale="   70.337">  1  6  2 -1</clus>
<clus scale="   47.591">  2  3  1 -1</clus>
</clustering>
</event>
<event>
 6    0  0.2839294E+002  0.1946613E+03  0.7546771E-02  0.1154323E+00
          2   -1    0    0  502    0 -0.00000000000E+00  0.00000000000E+00  0.17768472354E+04  0.17768472354E+04  0.00000000000E+00 0. -1.
         21   -1    0    0  505  502  0.00000000000E+00 -0.00000000000E+00 -0.40997448381E+02  0.40997448381E+02  0.00000000000E+00 0. -1.
         21    1    1    2  503  501 -0.64056793926E+01 -0.88530721472E+02  0.59686065918E+03  0.60342469940E+03  0.00000000000E+00 0. -1.
         21    1    1    2  504  503  0.22760003799E+02  0.15161929068E+03  0.22024578783E+03  0.26835542501E+03  0.00000000000E+00 0. -1.
         21    1    1    2  505  504  0.21623964425E+02  0.25491146540E+02  0.14063272027E+02  0.36265272775E+02  0.00000000000E+00 0.  1.
          2    1    1    2  501    0 -0.37978288831E+02 -0.88579715748E+02  0.90468006797E+03  0.90979928657E+03  0.00000000000E+00 0. -1.
<scales pt_clust_3="41.65741" pt_clust_4="31.51365" pt_clust_5="31.51365" pt_clust_6="187.67599"></scales>
<clustering>
<clus scale="   31.514">  4  5 -1 -1</clus>
<clus scale="   41.657">  3  6 -1 -1</clus>
<clus scale="  187.676">  1  3  2 -1</clus>
<clus scale="  194.661">  2  3  1 -1</clus>
</clustering>
</event>
<event>
 6    0  0.2839294E+002  0.8931022E+02  0.7546771E-02  0.1304531E+00
         -1   -1    0    0    0  501 -0.00000000000E+00  0.00000000000E+00  0.56506685833E+02  0.56506685833E+02  0.00000000000E+00 0. -1.
         21   -1    0    0  505  502  0.00000000000E+00 -0.00000000000E+00 -0.21546817755E+04  0.21546817755E+04  0.00000000000E+00 0.  1.
         21    1    1    2  503  502  0.28205944826E+02  0.23604100100E+02 -0.22229275132E+03  0.22531488223E+03  0.00000000000E+00 0.  1.
         21    1    1    2  504  501 -0.11209461639E+02  0.40368715138E+02  0.40009314883E+01  0.42086727657E+02  0.00000000000E+00 0. -1.
         21    1    1    2  505  504 -0.10938344741E+03 -0.57760122041E+02 -0.18380027606E+04  0.18421604485E+04  0.00000000000E+00 0.  1.
         -1    1    1    2    0  503  0.92386964228E+02 -0.62126931966E+01 -0.41880509288E+02  0.10162640294E+03  0.00000000000E+00 0. -1.
<scales pt_clust_3="36.77946" pt_clust_4="42.04730" pt_clust_5="14000.00000" pt_clust_6="89.31022"></scales>
<clustering>
<clus scale="   36.779">  2  3  1 -1</clus>
<clus scale="   42.047">  1  4  2 -1</clus>
<clus scale="   89.310">  1  6  2 -1</clus>
<clus scale="   36.779">  2  3  1 -1</clus>
</clustering>
</event>
<event>
 6    0  0.2839294E+002  0.1553038E+03  0.7546771E-02  0.1194103E+00
          2   -1    0    0  503    0 -0.00000000000E+00  0.00000000000E+00  0.13362702366E+04  0.13362702366E+04  0.00000000000E+00 0.  1.
         21   -1    0    0  505  502  0.00000000000E+00 -0.00000000000E+00 -0.17603881740E+04  0.17603881740E+04  0.00000000000E+00 0.  1.
         21    1    1    2  503  504 -0.63692872339E+02 -0.13385971522E+03  0.88405458673E+03  0.89639707589E+03  0.00000000000E+00 0.  1.
         21    1    1    2  504  502 -0.82142672624E+01 -0.31554620768E+02 -0.26742572639E+03  0.26940617553E+03  0.00000000000E+00 0.  1.
         21    1    1    2  505  501 -0.33691198522E+02  0.22154356508E+02 -0.14677205513E+04  0.14682743371E+04  0.00000000000E+00 0.  1.
          2    1    1    2  501    0  0.10559833812E+03  0.14325997948E+03  0.42697375358E+03  0.46258082210E+03  0.00000000000E+00 0.  1.
<scales pt_clust_3="155.30384" pt_clust_4="32.60626" pt_clust_5="42.70962" pt_clust_6="14000.00000"></scales>
<clustering>
<clus scale="   32.606">  2  4  1 -1</clus>
<clus scale="   42.710">  2  5  1 -1</clus>
<clus scale="  155.304">  1  3  2 -1</clus>
<clus scale="   32.606">  2  3  1 -1</clus>
</clustering>
</event>
<event>
 6    0  0.2839294E+002  0.9949328E+02  0.7546771E-02  0.1281365E+00
         21   -1    0    0  504  502  0.00000000000E+00  0.00000000000E+00  0.23835506896E+03  0.23835506896E+03  0.00000000000E+00 0. -1.
         -3   -1    0    0    0  501 -0.00000000000E+00 -0.00000000000E+00 -0.15502524861E+03  0.15502524861E+03  0.00000000000E+00 0. -1.
         21    1    1    2  503  502 -0.95409218523E+02 -0.10225396541E+02  0.13229779596E+03  0.16343250757E+03  0.00000000000E+00 0. -1.
         21    1    1    2  504  505  0.10116053879E+03  0.59445017367E+02  0.29285256980E+02  0.12093300201E+03  0.00000000000E+00 0. -1.
         21    1    1    2  505  501  0.19790665172E+02 -0.31529650946E+02 -0.18281984469E+02  0.41473127117E+02  0.00000000000E+00 0. -1.
         -3    1    1    2    0  503 -0.25541985438E+02 -0.17689969880E+02 -0.59971248121E+02  0.67541680877E+02  0.00000000000E+00 0. -1.
<scales pt_clust_3="14000.00000" pt_clust_4="99.49328" pt_clust_5="39.03148" pt_clust_6="31.06973"></scales>
<clustering>
<clus scale="   31.070">  2  6  1 -1</clus>
<clus scale="   39.031">  2  5  1 -1</clus>
<clus scale="   99.493">  2  4  1 -1</clus>
<clus scale="   99.493">  1  3  2 -1</clus>
</clustering>
</event>
<event>
 6    0  0.2839294E+002  0.7221174E+02  0.7546771E-02  0.1352729E+00
         -3   -1    0    0    0  501 -0.00000000000E+00  0.00000000000E+00  0.11576229275E+04  0.11576229275E+04  0.00000000000E+00 0. -1.
         21   -1    0    0  505  502  0.00000000000E+00 -0.00000000000E+00 -0.22371734947E+03  0.22371734947E+03  0.00000000000E+00 0.  1.
         21    1    1    2  503  501  0.28946347853E+02  0.38570794689E+02  0.26151691733E+03  0.26592610874E+03  0.00000000000E+00 0. -1.
         21    1    1    2  504  502 -0.10586102901E+03 -0.10163094197E+01 -0.18672398979E+03  0.21464724250E+03  0.00000000000E+00 0.  1.
         21    1    1    2  505  503  0.34588776964E+02  0.13180619017E+02 -0.20514916230E+01  0.37071833343E+02  0.00000000000E+00 0. -1.
         -3    1    1    2    0  504  0.42325904194E+02 -0.50735104286E+02  0.86116414211E+03  0.86369509240E+03  0.00000000000E+00 0. -1.
<scales pt_clust_3="48.56295" pt_clust_4="72.21174" pt_clust_5="37.01503" pt_clust_6="14000.00000"></scales>
<clustering>
<clus scale="   37.015">  2  5  1 -1</clus>
<clus scale="   48.563">  1  3  2 -1</clus>
<clus scale="   72.212">  2  4  1 -1</clus>
<clus scale="   37.015">  2  3  1 -1</clus>
</clustering>
</event>
<event>
 6    0  0.2839294E+002  0.1806906E+03  0.7546771E-02  0.1167136E+00
         21   -1    0    0  505  502  0.00000000000E+00  0.00000000000E+00  0.29031638702E+03  0.29031638702E+03  0.00000000000E+00 0.  1.
          2   -1    0    0  503    0 -0.00000000000E+00 -0.00000000000E+00 -0.22350161308E+04  0.22350161308E+04  0.00000000000E+00 0. -1.
         21    1    1    2  503  502 -0.23913574558E+00  0.38058085442E+02 -0.10837800560E+03  0.11486630120E+03  0.00000000000E+00 0. -1.
         21    1    1    2  504  501  0.95158238868E+02 -0.96336486469E+02  0.17310969538E+03  0.21977892457E+03  0.00000000000E+00 0.  1.
         21    1    1    2  505  504 -0.28466342039E+01 -0.43802117611E+02  0.82921808711E+02  0.93822999278E+02  0.00000000000E+00 0.  1.
          2    1    1    2  501    0 -0.92072468918E+02  0.10208051864E+03 -0.20923532422E+04  0.20968642927E+04  0.00000000000E+00 0. -1.
<scales pt_clust_3="38.05884" pt_clust_4="38.75655" pt_clust_5="38.75655" pt_clust_6="167.37780"></scales>
<clustering>
<clus scale="   38.059">  2  3  1 -1</clus>
<clus scale="   38.757">  4  5 -1 -1</clus>
<clus scale="  167.378">  2  6  1 -1</clus>
<clus scale="  180.691">  1  3  2 -1</clus>
</clustering>
</event>
<event>
 6    0  0.2839294E+002  0.1187337E+03  0.7546771E-02  0.1245201E+00
         -1   -1    0    0    0  501 -0.00000000000E+00  0.00000000000E+00  0.75351681348E+03  0.75351681348E+03  0.00000000000E+00 0.  1.
         21   -1    0    0  505  502  0.00000000000E+00 -0.00000000000E+00 -0.14822101375E+04  0.14822101375E+04  0.00000000000E+00 0. -1.
         21    1    1    2  503  502  0.63183156224E+02 -0.13651959905E+03 -0.79277697804E+03  0.80692319899E+03  0.00000000000E+00 0. -1.
         21    1    1    2  504  501  0.55998230923E+02 -0.47649973182E+02  0.30246095903E+02  0.79505648404E+02  0.00000000000E+00 0. -1.
         21    1    1    2  505  504  0.47618318268E+02  0.96023608392E+02 -0.64032625884E+03  0.64923474596E+03  0.00000000000E+00 0. -1.
         -1    1    1    2    0  503 -0.16679970542E+03  0.88145963836E+02  0.67416381693E+03  0.70006335765E+03  0.00000000000E+00 0.  1.
<scales pt_clust_3="118.73373" pt_clust_4="73.52769" pt_clust_5="107.06968" pt_clust_6="14000.00000"></scales>
<clustering>
<clus scale="   73.528">  1  4  2 -1</clus>
<clus scale="  107.070">  2  5  1 -1</clus>
<clus scale="  118.734">  2  3  1 -1</clus>
<clus scale="  107.070">  2  3  1 -1</clus>
</clustering>
</event>
<event>
 6    0  0.2839294E+002  0.1519184E+03  0.7546771E-02  0.1198135E+00
          3   -1    0    0  502    0 -0.00000000000E+00  0.00000000000E+00  0.75327271559E+02  0.75327271559E+02  0.00000000000E+00 0.  1.
         21   -1    0    0  504  502  0.00000000000E+00 -0.00000000000E+00 -0.35727449803E+03  0.35727449803E+03  0.00000000000E+00 0. -1.
         21    1    1    2  503  501 -0.18069960762E+02  0.90654296967E+02 -0.31785473590E+02  0.97749891928E+02  0.00000000000E+00 0.  1.
         21    1    1    2  504  505 -0.40314605788E+02 -0.83661576151E+02 -0.15490646524E+03  0.18061157144E+03  0.00000000000E+00 0. -1.
         21    1    1    2  505  503  0.15651951875E+02 -0.48346620591E+02 -0.76587027041E+02  0.91912741396E+02  0.00000000000E+00 0. -1.
          3    1    1    2  501    0  0.42732614676E+02  0.41353899775E+02 -0.18668260601E+02  0.62327564829E+02  0.00000000000E+00 0.  1.
<scales pt_clust_3="56.96819" pt_clust_4="143.80634" pt_clust_5="38.04995" pt_clust_6="56.96819"></scales>
<clustering>
<clus scale="   38.050">  4  5 -1 -1</clus>
<clus scale="   56.968">  3  6 -1 -1</clus>
<clus scale="  143.806">  2  4  1 -1</clus>
<clus scale="  143.806">  2  3  1 -1</clus>
</clustering>
</event>
<event>
 6    0  0.2839294E+002  0.7713109E+02  0.7546771E-02  0.1337396E+00
          1   -1    0    0  504    0 -0.00000000000E+00  0.00000000000E+00  0.33123312709E+04  0.33123312709E+04  0.00000000000E+00 0. -1.
         21   -1    0    0  505  502  0.00000000000E+00 -0.00000000000E+00 -0.18162993279E+02  0.18162993279E+02  0.00000000000E+00 0.  1.
         21    1    1    2  503  502 -0.47864219951E+02 -0.65840185558E+01  0.16952640808E+03  0.17627687281E+03  0.00000000000E+00 0.  1.
         21    1    1    2  504  503  0.38040221330E+02  0.95349466259E+02  0.13163635845E+04  0.13203604302E+04  0.00000000000E+00 0.  1.
         21    1    1    2  505  501  0.31978749142E+02 -0.23707180950E+02  0.20533645374E+02  0.44791756134E+02  0.00000000000E+00 0.  1.
          1    1    1    2  501    0 -0.22154750521E+02 -0.65058266753E+02  0.17877446396E+04  0.17890652049E+04  0.00000000000E+00 0. -1.
<scales pt_clust_3="35.94997" pt_clust_4="14000.00000" pt_clust_5="39.80792" pt_clust_6="77.13109"></scales>
<clustering>
<clus scale="   39.808">  2  5  1 -1</clus>
<clus scale="   35.950">  2  3  1 -1</clus>
<clus scale="   77.131">  1  6  2 -1</clus>
<clus scale="   39.808">  2  3  1 -1</clus>
</clustering>
</event>
<event>
 6    0  0.2839294E+002  0.1343325E+03  0.7546771E-02  0.1221165E+00
          2   -1    0    0  503    0 -0.00000000000E+00  0.00000000000E+00  0.95675153870E+03  0.95675153870E+03  0.00000000000E+00 0. -1.
         21   -1    0    0  504  502  0.00000000000E+00 -0.00000000000E+00 -0.22814679420E+03  0.22814679420E+03  0.00000000000E+00 0. -1.
         21    1    1    2  503  505  0.38350381015E+02 -0.30867719706E+02  0.41195956659E+03  0.41489065108E+03  0.00000000000E+00 0. -1.
         21    1    1    2  504  501 -0.65713673256E+02  0.15549469477E+02  0.84662211267E+01  0.68056959629E+02  0.00000000000E+00 0. -1.
         21    1    1    2  505  502  0.54306228537E+02  0.12304756788E+03 -0.16673848572E+03  0.21422323179E+03  0.00000000000E+00 0. -1.
          2    1    1    2  501    0 -0.26942936296E+02 -0.10772931765E+03  0.47491744250E+03  0.48772749040E+03  0.00000000000E+00 0. -1.
<scales pt_clust_3="49.22975" pt_clust_4="64.41699" pt_clust_5="14000.00000" pt_clust_6="134.33250"></scales>
<clustering>
<clus scale="   49.230">  1  3  2 -1</clus>
<clus scale="   64.417">  2  4  1 -1</clus>
<clus scale="  134.332">  1  6  2 -1</clus>
<clus scale="   64.417">  2  3  1 -1</clus>
</clustering>
</event>
<event>
 6    0  0.2839294E+002  0.1146811E+03  0.7546771E-02  0.1252139E+00
          2   -1    0    0  505    0 -0.00000000000E+00  0.00000000000E+00  0.21846673287E+04  0.21846673287E+04  0.00000000000E+00 0. -1.
         21   -1    0    0  503  502  0.00000000000E+00 -0.00000000000E+00 -0.12156837122E+03  0.12156837122E+03  0.00000000000E+00 0. -1.
         21    1    1    2  503  504 -0.20630572130E+02  0.13783250405E+03 -0.49920062283E+02  0.14803861759E+03  0.00000000000E+00 0. -1.
         21    1    1    2  504  501 -0.10032105214E+02 -0.79354174926E+02  0.51425952820E+02  0.95091307892E+02  0.00000000000E+00 0. -1.
         21    1    1    2  505  502 -0.35613062614E-01 -0.41099074048E+02  0.84176449258E+03  0.84276722535E+03  0.00000000000E+00 0. -1.
          2    1    1    2  501    0  0.30698290406E+02 -0.17379255077E+02  0.12198285743E+04  0.12203385490E+04  0.00000000000E+00 0. -1.
<scales pt_clust_3="14000.00000" pt_clust_4="114.68111" pt_clust_5="62.31727" pt_clust_6="35.27639"></scales>
<clustering>
<clus scale="   35.276">  1  6  2 -1</clus>
<clus scale="   62.317">  1  5  2 -1</clus>
<clus scale="  114.681">  1  4  2 -1</clus>
<clus scale="  114.681">  2  3  1 -1</clus>
</clustering>
</event>
<event>
 6    0  0.2839294E+002  0.8913369E+02  0.7546771E-02  0.1304963E+00
         21   -1    0    0  501  502  0.00000000000E+00  0.00000000000E+00  0.24626795967E+02  0.24626795967E+02  0.00000000000E+00 0. -1.
          2   -1    0    0  503    0 -0.00000000000E+00 -0.00000000000E+00 -0.12131846602E+04  0.12131846602E+04  0.00000000000E+00 0. -1.
         21    1    1    2  503  504  0.38733646358E+01 -0.33520793758E+02 -0.44758961477E+03  0.44885978859E+03  0.00000000000E+00 0. -1.
         21    1    1    2  504  505  0.86961368093E+01  0.11338029405E+03 -0.40858326085E+03  0.42411200751E+03  0.00000000000E+00 0. -1.
         21    1    1    2  505  502  0.43291897327E+02 -0.22643391356E+02 -0.44599943010E+02  0.66151843986E+02  0.00000000000E+00 0. -1.
          2    1    1    2  501    0 -0.55861398773E+02 -0.57216108932E+02 -0.28778504557E+03  0.29868781604E+03  0.00000000000E+00 0. -1.
<scales pt_clust_3="33.74384" pt_clust_4="14000.00000" pt_clust_5="50.26976" pt_clust_6="89.13369"></scales>
<clustering>
<clus scale="   33.744">  2  3  1 -1</clus>
<clus scale="   50.270">  1  5  2 -1</clus>
<clus scale="   89.134">  1  6  2 -1</clus>
<clus scale="   50.270">  1  3  2 -1</clus>
</clustering>
</event>
<event>
 6    0  0.2839294E+002  0.9075205E+02  0.7546771E-02  0.1301041E+00
          2   -1    0    0  504    0 -0.00000000000E+00  0.00000000000E+00  0.17359450560E+03  0.17359450560E+03  0.00000000000E+00 0.  1.
         21   -1    0    0  505  502  0.00000000000E+00 -0.00000000000E+00 -0.98976814746E+03  0.98976814746E+03  0.00000000000E+00 0.  1.
         21    1    1    2  503  502  0.64524010383E+02  0.62716527636E+02 -0.86781719137E+03  0.87246970629E+03  0.00000000000E+00 0.  1.
         21    1    1    2  504  503  0.67798771869E+02  0.16803009596E+02  0.25209420325E+02  0.74259877939E+02  0.00000000000E+00 0. -1.
         21    1    1    2  505  501 -0.81856107757E+02 -0.59900037317E+02 -0.57614796721E+02  0.11665291102E+03  0.00000000000E+00 0. -1.
          2    1    1    2  501    0 -0.50466674495E+02 -0.19619499914E+02  0.84048925906E+02  0.99980157818E+02  0.00000000000E+00 0.  1.
<scales pt_clust_3="90.75205" pt_clust_4="37.34734" pt_clust_5="14000.00000" pt_clust_6="54.14619"></scales>
<clustering>
<clus scale="   54.146">  1  6  2 -1</clus>
<clus scale="   37.347">  1  4  2 -1</clus>
<clus scale="   90.752">  2  3  1 -1</clus>
<clus scale="   90.752">  2  3  1 -1</clus>
</clustering>
</event>
<event>
 6    0  0.2839294E+002  0.1415168E+03  0.7546771E-02  0.1211302E+00
         -3   -1    0    0    0  501 -0.00000000000E+00  0.00000000000E+00  0.54338626768E+03  0.54338626768E+03  0.00000000000E+00 0.  1.
         21   -1    0    0  505  502  0.00000000000E+00 -0.00000000000E+00 -0.62683679984E+03  0.62683679984E+03  0.00000000000E+00 0.  1.
         21    1    1    2  503  504  0.46458986568E+02 -0.35046548460E+02  0.14130399988E+03  0.15281857993E+03  0.00000000000E+00 0.  1.
         21    1    1    2  504  502  0.57014472205E+02 -0.56735607820E+02 -0.46027336346E+03  0.46724848672E+03  0.00000000000E+00 0.  1.
         21    1    1    2  505  501 -0.17738860042E+03  0.83705722677E+02 -0.90319134298E+02  0.21594191253E+03  0.00000000000E+00 0.  1.
         -3    1    1    2    0  503  0.73915141643E+02  0.80764336022E+01  0.32583796571E+03  0.33421408834E+03  0.00000000000E+00 0.  1.
<scales pt_clust_3="54.26148" pt_clust_4="80.43369" pt_clust_5="127.53478" pt_clust_6="54.26148"></scales>
<clustering>
<clus scale="   54.261">  3  6 -1 -1</clus>
<clus scale="   80.434">  2  4  1 -1</clus>
<clus scale="  127.535">  2  5  1 -1</clus>
<clus scale="   80.434">  2  3  1 -1</clus>
</clustering>
</event>
<event>
 6    0  0.2839294E+002  0.1366615E+03  0.7546771E-02  0.1217893E+00
          2   -1    0    0  504    0 -0.00000000000E+00  0.00000000000E+00  0.11151906888E+04  0.11151906888E+04  0.00000000000E+00 0.  1.
         21   -1    0    0  503  502  0.00000000000E+00 -0.00000000000E+00 -0.19905300162E+03  0.19905300162E+03  0.00000000000E+00 0. -1.
         21    1    1    2  503  505 -0.12663223758E+03 -0.27325897203E+02 -0.12814659198E+03  0.18221958536E+03  0.00000000000E+00 0. -1.
         21    1    1    2  504  502  0.85519393423E+01  0.69885751248E+02 -0.79935809910E+01  0.70859376452E+02  0.00000000000E+00 0. -1.
         21    1    1    2  505  501  0.28671286821E+02 -0.28991113154E+02  0.20079276274E+03  0.20489085118E+03  0.00000000000E+00 0.  1.
          2    1    1    2  501    0  0.89409011421E+02 -0.13568740891E+02  0.85148509743E+03  0.85627387745E+03  0.00000000000E+00 0.  1.
<scales pt_clust_3="125.09504" pt_clust_4="70.40706" pt_clust_5="36.94688" pt_clust_6="36.94688"></scales>
<clustering>
<clus scale="   36.947">  5  6 -1 -1</clus>
<clus scale="   70.407">  2  4  1 -1</clus>
<clus scale="  125.095">  2  3  1 -1</clus>
<clus scale="   70.407">  2  3  1 -1</clus>
</clustering>
</event>
<event>
 6    0  0.2839294E+002  0.8114798E+02  0.7546771E-02  0.1325825E+00
          1   -1    0    0  505    0 -0.00000000000E+00  0.00000000000E+00  0.78852674098E+03  0.78852674098E+03  0.00000000000E+00 0.  1.
         21   -1    0    0  503  502  0.00000000000E+00 -0.00000000000E+00 -0.12099090930E+03  0.12099090930E+03  0.00000000000E+00 0. -1.
         21    1    1    2  503  501 -0.94991613580E+02  0.58660886479E+02 -0.43518816043E+02  0.11982651461E+03  0.00000000000E+00 0. -1.
         21    1    1    2  504  502  0.27399507234E+02 -0.13220132518E+02 -0.28451228521E+02  0.41653058769E+02  0.00000000000E+00 0. -1.
         21    1    1    2  505  504  0.46143544622E+02  0.14274000984E+02  0.27347113229E+03  0.27770386027E+03  0.00000000000E+00 0.  1.
          1    1    1    2  501    0  0.21448561725E+02 -0.59714754946E+02  0.46603474395E+03  0.47033421662E+03  0.00000000000E+00 0.  1.
<scales pt_clust_3="14000.00000" pt_clust_4="30.42211" pt_clust_5="48.85194" pt_clust_6="81.14798"></scales>
<clustering>
<clus scale="   30.422">  2  4  1 -1</clus>
<clus scale="   48.852">  1  5  2 -1</clus>
<clus scale="   81.148">  1  6  2 -1</clus>
<clus scale="   30.422">  2  3  1 -1</clus>
</clustering>
</event>
<event>
 6    0  0.2839294E+002  0.9855886E+02  0.7546771E-02  0.1283356E+00
         21   -1    0    0  504  502  0.00000000000E+00  0.00000000000E+00  0.89242062827E+03  0.89242062827E+03  0.00000000000E+00 0.  1.
          2   -1    0    0  503    0 -0.00000000000E+00 -0.00000000000E+00 -0.26142330011E+03  0.26142330011E+03  0.00000000000E+00 0.  1.
         21    1    1    2  503  505  0.10733097722E+02 -0.65577347497E+02 -0.22176805280E+03  0.23150951845E+03  0.00000000000E+00 0.  1.
         21    1    1    2  504  501  0.24660954686E+02 -0.22716552427E+02  0.58798075019E+03  0.58893596174E+03  0.00000000000E+00 0.  1.
         21    1    1    2  505  502 -0.56206257724E+02  0.11557635610E+03  0.26967872656E+03  0.29873676214E+03  0.00000000000E+00 0.  1.
          2    1    1    2  501    0  0.20812205316E+02 -0.27282456182E+02 -0.48940957888E+01  0.34661686038E+02  0.00000000000E+00 0.  1.
<scales pt_clust_3="14000.00000" pt_clust_4="33.52916" pt_clust_5="98.55886" pt_clust_6="35.93235"></scales>
<clustering>
<clus scale="   33.529">  1  4  2 -1</clus>
<clus scale="   35.932">  2  6  1 -1</clus>
<clus scale="   98.559">  1  5  2 -1</clus>
<clus scale="   33.529">  1  3  2 -1</clus>
</clustering>
</event>
<event>
 6    0  0.2839294E+002  0.1438418E+03  0.7546771E-02  0.1208251E+00
          2   -1    0    0  504    0 -0.00000000000E+00  0.00000000000E+00  0.74150583610E+03  0.74150583610E+03  0.00000000000E+00 0. -1.
         21   -1    0    0  505  502  0.00000000000E+00 -0.00000000000E+00 -0.25476838500E+03  0.25476838500E+03  0.00000000000E+00 0.  1.
         21    1    1    2  503  502  0.29988337426E+02 -0.10269501349E+02 -0.46127710980E+01  0.32031870016E+02  0.00000000000E+00 0. -1.
         21    1    1    2  504  503  0.54514144623E+02 -0.18322891888E+02  0.19213356640E+03  0.20055629551E+03  0.00000000000E+00 0. -1.
         21    1    1    2  505  501 -0.87646345307E+02  0.14390569346E+03 -0.19411700352E+03  0.25704501845E+03  0.00000000000E+00 0.  1.
          2    1    1    2  501    0  0.31438632577E+01 -0.11531330023E+03  0.49333365932E+03  0.50664103713E+03  0.00000000000E+00 0. -1.
<scales pt_clust_3="31.69800" pt_clust_4="58.07561" pt_clust_5="143.84180" pt_clust_6="14000.00000"></scales>
<clustering>
<clus scale="   31.698">  2  3  1 -1</clus>
<clus scale="   58.076">  1  4  2 -1</clus>
<clus scale="  143.842">  2  5  1 -1</clus>
<clus scale="   31.698">  2  3  1 -1</clus>
</clustering>
</event>
<event>
 6    0  0.2839294E+002  0.8796182E+02  0.7546771E-02  0.1307864E+00
          1   -1    0    0  504    0 -0.00000000000E+00  0.00000000000E+00  0.10889796034E+04  0.10889796034E+04  0.00000000000E+00 0. -1.
         21   -1    0    0  501  502  0.00000000000E+00 -0.00000000000E+00 -0.15450149510E+04  0.15450149510E+04  0.00000000000E+00 0.  1.
         21    1    1    2  503  505  0.43759690950E+02 -0.15311922928E+01  0.16899917899E+03  0.17457943063E+03  0.00000000000E+00 0.  1.
         21    1    1    2  504  503  0.26656636435E+02 -0.25271228091E+02  0.20621261201E+02  0.42124193153E+02  0.00000000000E+00 0. -1.
         21    1    1    2  505  502 -0.44874832790E+02 -0.75675325387E+02 -0.15270547198E+04  0.15295870759E+04  0.00000000000E+00 0.  1.
          1    1    1    2  501    0 -0.25541494595E+02  0.10247774577E+03  0.88139893200E+03  0.88770385470E+03  0.00000000000E+00 0. -1.
<scales pt_clust_3="48.41873" pt_clust_4="36.73161" pt_clust_5="87.96182" pt_clust_6="14000.00000"></scales>
<clustering>
<clus scale="   36.732">  1  4  2 -1</clus>
<clus scale="   48.419">  1  3  2 -1</clus>
<clus scale="   87.962">  2  5  1 -1</clus>
<clus scale="   87.962">  2  3  1 -1</clus>
</clustering>
</event>
<event>
 6    0  0.2839294E+002  0.7423441E+02  0.7546771E-02  0.1346258E+00
         21   -1    0    0  501  502  0.00000000000E+00  0.00000000000E+00  0.15731389340E+03  0.15731389340E+03  0.00000000000E+00 0.  1.
          1   -1    0    0  504    0 -0.00000000000E+00 -0.00000000000E+00 -0.66800041097E+03  0.66800041097E+03  0.00000000000E+00 0. -1.
         21    1    1    2  503  502 -0.60088277514E+02  0.49318505218E+02  0.11796409065E+03  0.14127435271E+03  0.00000000000E+00 0.  1.
         21    1    1    2  504  505  0.34216849197E+02 -0.25824074697E+02 -0.26947006265E+03  0.27285855359E+03  0.00000000000E+00 0. -1.
         21    1    1    2  505  503  0.78256539897E+02  0.18622080136E+02 -0.49857445783E+02  0.94639488615E+02  0.00000000000E+00 0.  1.
          1    1    1    2  501    0 -0.52385111580E+02 -0.42116510657E+02 -0.30932309977E+03  0.31654190945E+03  0.00000000000E+00 0. -1.
<scales pt_clust_3="14000.00000" pt_clust_4="42.86812" pt_clust_5="74.23441" pt_clust_6="67.44718"></scales>
<clustering>
<clus scale="   42.868">  2  4  1 -1</clus>
<clus scale="   67.447">  2  6  1 -1</clus>
<clus scale="   74.234">  2  5  1 -1</clus>
<clus scale="   74.234">  1  3  2 -1</clus>
</clustering>
</event>
<event>
 6    0  0.2839294E+002  0.1087019E+03  0.7546771E-02  0.1262993E+00
          2   -1    0    0  504    0 -0.00000000000E+00  0.00000000000E+00  0.47540384372E+04  0.47540384372E+04  0.00000000000E+00 0.  1.
         21   -1    0    0  503  502  0.00000000000E+00 -0.00000000000E+00 -0.19012450223E+03  0.19012450223E+03  0.00000000000E+00 0.  1.
         21    1    1    2  503  505  0.10071814693E+03  0.12711368305E+01 -0.75774977956E+02  0.12604605584E+03  0.00000000000E+00 0. -1.
         21    1    1    2  504  502 -0.55913262139E+02 -0.56037812700E+02  0.19218472780E+03  0.20784970275E+03  0.00000000000E+00 0.  1.
         21    1    1    2  505  501 -0.12236387475E+03  0.56907933913E+02 -0.24868112941E+02  0.13722191453E+03  0.00000000000E+00 0.  1.
          2    1    1    2  501    0  0.77558989966E+02 -0.21412580431E+01  0.44723722980E+04  0.44730452663E+04  0.00000000000E+00 0.  1.
<scales pt_clust_3="108.70189" pt_clust_4="57.56535" pt_clust_5="14000.00000" pt_clust_6="77.58854"></scales>
<clustering>
<clus scale="   77.589">  1  6  2 -1</clus>
<clus scale="   57.565">  1  4  2 -1</clus>
<clus scale="  108.702">  2  3  1 -1</clus>
<clus scale="  108.702">  2  3  1 -1</clus>
</clustering>
</event>
<event>
 6    0  0.2839294E+002  0.1216023E+03  0.7546771E-02  0.1240477E+00
         21   -1    0    0  505  502  0.00000000000E+00  0.00000000000E+00  0.40149081812E+02  0.40149081812E+02  0.00000000000E+00 0. -1.
          2   -1    0    0  504    0 -0.00000000000E+00 -0.00000000000E+00 -0.16325090514E+04  0.16325090514E+04  0.00000000000E+00 0.  1.
         21    1    1    2  503  501  0.33937183023E+02 -0.24149700603E+02 -0.59737585016E+03  0.59882622419E+03  0.00000000000E+00 0.  1.
         21    1    1    2  504  502  0.18198486066E+01  0.63357145792E+02 -0.12982275585E+03  0.14446933137E+03  0.00000000000E+00 0. -1.
         21    1    1    2  505  503 -0.58400530086E+02  0.40312280803E+02 -0.11718139267E+02  0.71923686542E+02  0.00000000000E+00 0. -1.
          2    1    1    2  501    0  0.22643498457E+02 -0.79519725992E+02 -0.85344322429E+03  0.85743889107E+03  0.00000000000E+00 0.  1.
<scales pt_clust_3="30.80259" pt_clust_4="63.38328" pt_clust_5="113.59463" pt_clust_6="30.80259"></scales>
<clustering>
<clus scale="   30.803">  3  6 -1 -1</clus>
<clus scale="   63.383">  1  4  2 -1</clus>
<clus scale="  113.595">  1  5  2 -1</clus>
<clus scale="   63.383">  1  3  2 -1</clus>
</clustering>
</event>
<event>
 6    0  0.2839294E+002  0.8682122E+02  0.7546771E-02  0.1310737E+00
          2   -1    0    0  505    0 -0.00000000000E+00  0.00000000000E+00  0.31958508564E+03  0.31958508564E+03  0.00000000000E+00 0. -1.
         21   -1    0    0  503  502  0.00000000000E+00 -0.00000000000E+00 -0.19252831193E+03  0.19252831193E+03  0.00000000000E+00 0. -1.
         21    1    1    2  503  504  0.13119158980E+02 -0.39290357971E+02 -0.36483708271E+02  0.55198781971E+02  0.00000000000E+00 0. -1.
         21    1    1    2  504  501 -0.70333263022E+02 -0.32801281991E+02 -0.11923026169E+03  0.14226224830E+03  0.00000000000E+00 0. -1.
         21    1    1    2  505  502  0.51944939001E+02 -0.72075324441E+01  0.69578353197E+02  0.87128482400E+02  0.00000000000E+00 0. -1.
          2    1    1    2  501    0  0.52691650409E+01  0.79299172407E+02  0.21319239047E+03  0.22752388490E+03  0.00000000000E+00 0. -1.
<scales pt_clust_3="41.42275" pt_clust_4="86.82122" pt_clust_5="53.58900" pt_clust_6="14000.00000"></scales>
<clustering>
<clus scale="   41.423">  2  3  1 -1</clus>
<clus scale="   53.589">  1  5  2 -1</clus>
<clus scale="   86.821">  2  4  1 -1</clus>
<clus scale="   41.423">  2  3  1 -1</clus>
</clustering>
</event>
<event>
 6    0  0.2839294E+002  0.1099149E+03  0.7546771E-02  0.1260728E+00
          2   -1    0    0  505    0 -0.00000000000E+00  0.00000000000E+00  0.14160137177E+04  0.14160137177E+04  0.00000000000E+00 0. -1.
         21   -1    0    0  504  502  0.00000000000E+00 -0.00000000000E+00 -0.18473324302E+03  0.18473324302E+03  0.00000000000E+00 0. -1.
         21    1    1    2  503  501  0.13696990738E+02 -0.84450417060E+02  0.92877220398E+02  0.12627612033E+03  0.00000000000E+00 0.  1.
         21    1    1    2  504  503  0.18755466321E+02  0.11353989328E+03 -0.14562081731E+03  0.18560306387E+03  0.00000000000E+00 0. -1.
         21    1    1    2  505  502  0.36203522867E+02 -0.22496239225E+02  0.50715431682E+03  0.50894231198E+03  0.00000000000E+00 0. -1.
          2    1    1    2  501    0 -0.68655979926E+02 -0.65932369955E+01  0.77686975481E+03  0.77992546458E+03  0.00000000000E+00 0. -1.
<scales pt_clust_3="14000.00000" pt_clust_4="109.91488" pt_clust_5="42.62365" pt_clust_6="45.66076"></scales>
<clustering>
<clus scale="   42.624">  1  5  2 -1</clus>
<clus scale="   45.661">  1  6  2 -1</clus>
<clus scale="  109.915">  2  4  1 -1</clus>
<clus scale="  109.915">  2  3  1 -1</clus>
</clustering>
</event>
<event>
 6    0  0.2839294E+002  0.1044214E+03  0.7546771E-02  0.1271264E+00
         -1   -1    0    0    0  501 -0.00000000000E+00  0.00000000000E+00  0.10794620894E+04  0.10794620894E+04  0.00000000000E+00 0. -1.
         21   -1    0    0  504  502  0.00000000000E+00 -0.00000000000E+00 -0.76764749963E+02  0.76764749963E+02  0.00000000000E+00 0. -1.
         21    1    1    2  503  502 -0.39354931662E+02 -0.10270164950E+03 -0.11898398733E+02  0.11062554564E+03  0.00000000000E+00 0. -1.
         21    1    1    2  504  505  0.33736200440E+02 -0.15305695373E+01  0.28799328211E+02  0.44383275777E+02  0.00000000000E+00 0.  1.
         21    1    1    2  505  501  0.56385515671E+02 -0.28002887303E+01  0.33677736750E+03  0.34147644612E+03  0.00000000000E+00 0. -1.
         -1    1    1    2    0  503 -0.50766784449E+02  0.10703250777E+03  0.64901904249E+03  0.65974157186E+03  0.00000000000E+00 0. -1.
<scales pt_clust_3="104.42144" pt_clust_4="33.77090" pt_clust_5="57.60540" pt_clust_6="14000.00000"></scales>
<clustering>
<clus scale="   33.771">  2  4  1 -1</clus>
<clus scale="   57.605">  1  5  2 -1</clus>
<clus scale="  104.421">  2  3  1 -1</clus>
<clus scale="   33.771">  2  3  1 -1</clus>
</clustering>
</event>
<event>
 6    0  0.2839294E+002  0.1847874E+03  0.7546771E-02  0.1163249E+00
         21   -1    0    0  505  502  0.00000000000E+00  0.00000000000E+00  0.11770296645E+04  0.11770296645E+04  0.00000000000E+00 0.  1.
         -1   -1    0    0    0  501 -0.00000000000E+00 -0.00000000000E+00 -0.93702112480E+02  0.93702112480E+02  0.00000000000E+00 0.  1.
         21    1    1    2  503  502 -0.36410531259E+02  0.13903571150E+01  0.31087366798E+03  0.31300175291E+03  0.00000000000E+00 0.  1.
         21    1    1    2  504  503  0.11278623385E+03 -0.18673955522E+03  0.66008694494E+03  0.69520297102E+03  0.00000000000E+00 0.  1.
         21    1    1    2  505  501 -0.45664724714E+02  0.76548112975E+02  0.11969513171E+03  0.14923741233E+03  0.00000000000E+00 0.  1.
         -1    1    1    2    0  504 -0.30710977873E+02  0.10880108513E+03 -0.73281926210E+01  0.11328964072E+03  0.00000000000E+00 0.  1.
<scales pt_clust_3="36.43707" pt_clust_4="184.78743" pt_clust_5="92.34134" pt_clust_6="14000.00000"></scales>
<clustering>
<clus scale="   36.437">  1  3  2 -1</clus>
<clus scale="   92.341">  2  5  1 -1</clus>
<clus scale="  184.787">  1  4  2 -1</clus>
<clus scale="   36.437">  1  3  2 -1</clus>
</clustering>
</event>
<event>
 6    0  0.2839294E+002  0.1132237E+03  0.7546771E-02  0.1254714E+00
          2   -1    0    0  503    0 -0.00000000000E+00  0.00000000000E+00  0.14024465121E+04  0.14024465121E+04  0.00000000000E+00 0.  1.
         21   -1    0    0  504  502  0.00000000000E+00 -0.00000000000E+00 -0.19940789619E+03  0.19940789619E+03  0.00000000000E+00 0. -1.
         21    1    1    2  503  505 -0.88971762438E+02  0.12224510869E+01  0.40055758570E+03  0.41032164013E+03  0.00000000000E+00 0. -1.
         21    1    1    2  504  501  0.48923832717E+02  0.12274930132E+02 -0.14234922315E+03  0.15102157677E+03  0.00000000000E+00 0. -1.
         21    1    1    2  505  502 -0.98039125875E+02 -0.53356778868E+02  0.31550673937E+02  0.11599164228E+03  0.00000000000E+00 0. -1.
          2    1    1    2  501    0  0.13808705559E+03  0.39859397650E+02  0.91327957943E+03  0.92451954913E+03  0.00000000000E+00 0.  1.
<scales pt_clust_3="14000.00000" pt_clust_4="50.44022" pt_clust_5="73.20635" pt_clust_6="113.22370"></scales>
<clustering>
<clus scale="   50.440">  2  4  1 -1</clus>
<clus scale="   73.206">  2  5  1 -1</clus>
<clus scale="  113.224">  2  6  1 -1</clus>
<clus scale="   50.440">  2  3  1 -1</clus>
</clustering>
</event>
<event>
 6    0  0.2839294E+002  0.8991687E+02  0.7546771E-02  0.1303053E+00
         -2   -1    0    0    0  501 -0.00000000000E+00  0.00000000000E+00  0.69388048661E+03  0.69388048661E+03  0.00000000000E+00 0. -1.
         21   -1    0    0  503  502  0.00000000000E+00 -0.00000000000E+00 -0.58624376329E+03  0.58624376329E+03  0.00000000000E+00 0.  1.
         21    1    1    2  503  504  0.90766088241E+02 -0.55118482601E+02 -0.54424983777E+03  0.55451277335E+03  0.00000000000E+00 0.  1.
         21    1    1    2  504  501 -0.39214759609E+01 -0.38302790485E+02  0.13412943242E+03  0.13954635922E+03  0.00000000000E+00 0. -1.
         21    1    1    2  505  502 -0.11612321260E+01  0.48229255722E+02 -0.10187208791E+02  0.49307086616E+02  0.00000000000E+00 0.  1.
         -2    1    1    2    0  505 -0.85683380154E+02  0.45192017364E+02  0.52794433747E+03  0.53675803071E+03  0.00000000000E+00 0. -1.
<scales pt_clust_3="89.91687" pt_clust_4="38.50301" pt_clust_5="46.90229" pt_clust_6="14000.00000"></scales>
<clustering>
<clus scale="   38.503">  1  4  2 -1</clus>
<clus scale="   46.902">  2  5  1 -1</clus>
<clus scale="   89.917">  2  3  1 -1</clus>
<clus scale="   46.902">  2  3  1 -1</clus>
</clustering>
</event>
<event>
 6    0  0.2839294E+002  0.2142595E+03  0.7546771E-02  0.1138237E+00
         21   -1    0    0  504  502  0.00000000000E+00  0.00000000000E+00  0.10052756566E+04  0.10052756566E+04  0.00000000000E+00 0. -1.
         -2   -1    0    0    0  501 -0.00000000000E+00 -0.00000000000E+00 -0.30700163026E+03  0.30700163026E+03  0.00000000000E+00 0.  1.
         21    1    1    2  503  502 -0.24052300737E+03 -0.62621857438E+02  0.88155541749E+03  0.91592181337E+03  0.00000000000E+00 0. -1.
         21    1    1    2  504  505  0.28227293341E+02  0.22683270128E+02  0.53368051409E+02  0.64493873695E+02  0.00000000000E+00 0.  1.
         21    1    1    2  505  501  0.17835289507E+03  0.20002067824E+02 -0.14036942743E+03  0.22784515368E+03  0.00000000000E+00 0.  1.
         -2    1    1    2    0  503  0.33942818960E+02  0.19936519486E+02 -0.96280015084E+02  0.10401644617E+03  0.00000000000E+00 0.  1.
<scales pt_clust_3="214.25952" pt_clust_4="36.21203" pt_clust_5="14000.00000" pt_clust_6="39.51115"></scales>
<clustering>
<clus scale="   36.212">  1  4  2 -1</clus>
<clus scale="   39.511">  2  6  1 -1</clus>
<clus scale="  214.260">  1  3  2 -1</clus>
<clus scale="   36.212">  1  3  2 -1</clus>
</clustering>
</event>
<event>
 6    0  0.2839294E+002  0.1812261E+03  0.7546771E-02  0.1166622E+00
         21   -1    0    0  504  502  0.00000000000E+00  0.00000000000E+00  0.98421036594E+03  0.98421036594E+03  0.00000000000E+00 0. -1.
          1   -1    0    0  505    0 -0.00000000000E+00 -0.00000000000E+00 -0.95916425048E+03  0.95916425048E+03  0.00000000000E+00 0.  1.
         21    1    1    2  503  501  0.12083168129E+03 -0.43371528546E+02 -0.75558554196E+03  0.76641431087E+03  0.00000000000E+00 0.  1.
         21    1    1    2  504  503  0.32493841149E+02  0.12120420630E+03  0.13358276256E+03  0.18327755943E+03  0.00000000000E+00 0. -1.
         21    1    1    2  505  502 -0.19903694393E+03 -0.89446003399E+02  0.80228977263E+03  0.83143560896E+03  0.00000000000E+00 0. -1.
          1    1    1    2  501    0  0.45711421495E+02  0.11613325642E+02 -0.15524087777E+03  0.16224713716E+03  0.00000000000E+00 0.  1.
<scales pt_clust_3="38.63064" pt_clust_4="125.48430" pt_clust_5="169.64896" pt_clust_6="38.63064"></scales>
<clustering>
<clus scale="   38.631">  3  6 -1 -1</clus>
<clus scale="  125.484">  1  4  2 -1</clus>
<clus scale="  169.649">  1  5  2 -1</clus>
<clus scale="  125.484">  1  3  2 -1</clus>
</clustering>
</event>
<event>
 6    0  0.2839294E+002  0.1221370E+03  0.7546771E-02  0.1239613E+00
         21   -1    0    0  501  502  0.00000000000E+00  0.00000000000E+00  0.18477875516E+03  0.18477875516E+03  0.00000000000E+00 0. -1.
          2   -1    0    0  503    0 -0.00000000000E+00 -0.00000000000E+00 -0.38634584140E+04  0.38634584140E+04  0.00000000000E+00 0.  1.
         21    1    1    2  503  504 -0.53394474035E+02 -0.67706159666E+02 -0.22060499832E+04  0.22077345000E+04  0.00000000000E+00 0.  1.
         21    1    1    2  504  505  0.82096456261E+02  0.56415244025E+02  0.83714225561E+02  0.13011756012E+03  0.00000000000E+00 0. -1.
         21    1    1    2  505  502  0.30398006009E+02 -0.59100913590E+01  0.73303240360E+02  0.79575957402E+02  0.00000000000E+00 0. -1.
          2    1    1    2  501    0 -0.59099988235E+02  0.17201007000E+02 -0.16296471416E+04  0.16308091517E+04  0.00000000000E+00 0.  1.
<scales pt_clust_3="122.13699" pt_clust_4="14000.00000" pt_clust_5="30.96721" pt_clust_6="61.38690"></scales>
<clustering>
<clus scale="   30.967">  1  5  2 -1</clus>
<clus scale="   61.387">  2  6  1 -1</clus>
<clus scale="  122.137">  2  3  1 -1</clus>
<clus scale="   30.967">  1  3  2 -1</clus>
</clustering>
</event>
<event>
 6    0  0.2839294E+002  0.1525181E+03  0.7546771E-02  0.1197413E+00
         21   -1    0    0  501  502  0.00000000000E+00  0.00000000000E+00  0.12668623596E+04  0.12668623596E+04  0.00000000000E+00 0.  1.
          1   -1    0    0  505    0 -0.00000000000E+00 -0.00000000000E+00 -0.64430537534E+03  0.64430537534E+03  0.00000000000E+00 0.  1.
         21    1    1    2  503  504 -0.16864456161E+03  0.85241657493E+02  0.52361523011E+02  0.19608380205E+03  0.00000000000E+00 0.  1.
         21    1    1    2  504  502  0.40079462912E+02 -0.14860800415E+01  0.11220209084E+04  0.11227374986E+04  0.00000000000E+00 0.  1.
         21    1    1    2  505  503  0.42508207069E+01 -0.86689183659E+02 -0.17154891331E+03  0.19225533464E+03  0.00000000000E+00 0.  1.
          1    1    1    2  501    0  0.12431427800E+03  0.29336062073E+01 -0.38027653391E+03  0.40009109963E+03  0.00000000000E+00 0.  1.
<scales pt_clust_3="14000.00000" pt_clust_4="40.10700" pt_clust_5="87.08744" pt_clust_6="152.51806"></scales>
<clustering>
<clus scale="   40.107">  1  4  2 -1</clus>
<clus scale="   87.087">  2  5  1 -1</clus>
<clus scale="  152.518">  2  6  1 -1</clus>
<clus scale="   40.107">  1  3  2 -1</clus>
</clustering>
</event>
<event>
 6    0  0.2839294E+002  0.1671660E+03  0.7546771E-02  0.1180836E+00
          2   -1    0    0  505    0 -0.00000000000E+00  0.00000000000E+00  0.54178284892E+04  0.54178284892E+04  0.00000000000E+00 0. -1.
         21   -1    0    0  504  502  0.00000000000E+00 -0.00000000000E+00 -0.87516936557E+02  0.87516936557E+02  0.00000000000E+00 0.  1.
         21    1    1    2  503  502 -0.23966835858E+02 -0.43915766285E+02  0.93676127327E+02  0.10619896695E+03  0.00000000000E+00 0.  1.
         21    1    1    2  504  501  0.11729398860E+02 -0.12490874869E+03 -0.29232065673E+02  0.12881881835E+03  0.00000000000E+00 0.  1.
         21    1    1    2  505  503 -0.50627560829E+02  0.23601663276E+02  0.10409865701E+04  0.10424841618E+04  0.00000000000E+00 0. -1.
          2    1    1    2  501    0  0.62864997826E+02  0.14522285170E+03  0.42248809209E+04  0.42278434787E+04  0.00000000000E+00 0. -1.
<scales pt_clust_3="50.03003" pt_clust_4="14000.00000" pt_clust_5="55.88972" pt_clust_6="167.16597"></scales>
<clustering>
<clus scale="   50.030">  2  3  1 -1</clus>
<clus scale="   55.890">  1  5  2 -1</clus>
<clus scale="  167.166">  1  6  2 -1</clus>
<clus scale="   50.030">  2  3  1 -1</clus>
</clustering>
</event>
<event>
 6    0  0.2839294E+002  0.1029132E+03  0.7546771E-02  0.1274286E+00
         21   -1    0    0  505  502  0.00000000000E+00  0.00000000000E+00  0.11352269878E+03  0.11352269878E+03  0.00000000000E+00 0. -1.
          1   -1    0    0  504    0 -0.00000000000E+00 -0.00000000000E+00 -0.22543637202E+04  0.22543637202E+04  0.00000000000E+00 0.  1.
         21    1    1    2  503  502 -0.10445581181E+03 -0.10661204751E+02  0.70841770133E+02  0.12666188971E+03  0.00000000000E+00 0. -1.
         21    1    1    2  504  503  0.71635914426E+02 -0.29337868503E+02 -0.73094943791E+03  0.73503707086E+03  0.00000000000E+00 0.  1.
         21    1    1    2  505  501  0.85237113733E+02  0.39452384475E+02 -0.16851651253E+03  0.19292400367E+03  0.00000000000E+00 0.  1.
          1    1    1    2  501    0 -0.52417216346E+02  0.54668877955E+00 -0.13122168411E+04  0.13132634547E+04  0.00000000000E+00 0.  1.
<scales pt_clust_3="14000.00000" pt_clust_4="42.26776" pt_clust_5="102.91322" pt_clust_6="52.42007"></scales>
<clustering>
<clus scale="   52.420">  2  6  1 -1</clus>
<clus scale="   42.268">  2  4  1 -1</clus>
<clus scale="  102.913">  2  5  1 -1</clus>
<clus scale="  102.913">  1  3  2 -1</clus>
</clustering>
</event>
<event>
 6    0  0.2839294E+002  0.4821159E+03  0.7546771E-02  0.1018555E+00
          2   -1    0    0  503    0 -0.00000000000E+00  0.00000000000E+00  0.11313016761E+04  0.11313016761E+04  0.00000000000E+00 0. -1.
         21   -1    0    0  501  502  0.00000000000E+00 -0.00000000000E+00 -0.16584616897E+04  0.16584616897E+04  0.00000000000E+00 0. -1.
         21    1    1    2  503  504 -0.51274873009E+02  0.68315639600E+02  0.50431662272E+02  0.99194212409E+02  0.00000000000E+00 0.  1.
         21    1    1    2  504  505 -0.85861151212E+02 -0.60548416506E+03 -0.25406240614E+03  0.66221666971E+03  0.00000000000E+00 0. -1.
         21    1    1    2  505  502 -0.19027358795E+03  0.42822051562E+03 -0.10907293049E+04  0.11871256314E+04  0.00000000000E+00 0. -1.
          2    1    1    2  501    0  0.32740961218E+03  0.10894800984E+03  0.76720003515E+03  0.84122685224E+03  0.00000000000E+00 0. -1.
<scales pt_clust_3="85.41744" pt_clust_4="482.11586" pt_clust_5="14000.00000" pt_clust_6="330.25340"></scales>
<clustering>
<clus scale="   85.417">  1  3  2 -1</clus>
<clus scale="  330.253">  1  6  2 -1</clus>
<clus scale="  482.116">  1  4  2 -1</clus>
<clus scale="  482.116">  2  3  1 -1</clus>
</clustering>
</event>
<event>
 6    0  0.2839294E+002  0.8651929E+02  0.7546771E-02  0.1311507E+00
          1   -1    0    0  505    0 -0.00000000000E+00  0.00000000000E+00  0.14294177418E+03  0.14294177418E+03  0.00000000000E+00 0. -1.
         21   -1    0    0  501  502  0.00000000000E+00 -0.00000000000E+00 -0.28875101826E+03  0.28875101826E+03  0.00000000000E+00 0. -1.
         21    1    1    2  503  502  0.51889437400E+02  0.32558719320E+02 -0.46604969619E+02  0.76971469459E+02  0.00000000000E+00 0. -1.
         21    1    1    2  504  503  0.80215014188E+02  0.43239197591E+02  0.65278666290E+02  0.11209541017E+03  0.00000000000E+00 0. -1.
         21    1    1    2  505  504 -0.37390290249E+02  0.14864846121E+02 -0.13005542836E+02  0.42286423348E+02  0.00000000000E+00 0. -1.
          1    1    1    2  501    0 -0.94714161339E+02 -0.90662763033E+02 -0.15147739791E+03  0.20033948946E+03  0.00000000000E+00 0. -1.
<scales pt_clust_3="58.57138" pt_clust_4="14000.00000" pt_clust_5="40.23677" pt_clust_6="86.51929"></scales>
<clustering>
<clus scale="   40.237">  1  5  2 -1</clus>
<clus scale="   58.571">  2  3  1 -1</clus>
<clus scale="   86.519">  2  6  1 -1</clus>
<clus scale="   58.571">  2  3  1 -1</clus>
</clustering>
</event>
<event>
 6    0  0.2839294E+002  0.8197974E+02  0.7546771E-02  0.1323525E+00
          2   -1    0    0  504    0 -0.00000000000E+00  0.00000000000E+00  0.13116695525E+04  0.13116695525E+04  0.00000000000E+00 0.  1.
         21   -1    0    0  501  502  0.00000000000E+00 -0.00000000000E+00 -0.18490418490E+03  0.18490418490E+03  0.00000000000E+00 0.  1.
         21    1    1    2  503  505 -0.89980088869E+02  0.66532035695E+02  0.15235080640E+03  0.18903358532E+03  0.00000000000E+00 0. -1.
         21    1    1    2  504  503  0.45512494231E+01 -0.33880313459E+02  0.12687909601E+03  0.13140355595E+03  0.00000000000E+00 0.  1.
         21    1    1    2  505  502  0.14460678360E+02 -0.41925296442E+02 -0.16001508985E+03  0.16604719414E+03  0.00000000000E+00 0.  1.
          2    1    1    2  501    0  0.70968161086E+02  0.92735742056E+01  0.10075505550E+04  0.10100894020E+04  0.00000000000E+00 0.  1.
<scales pt_clust_3="14000.00000" pt_clust_4="34.18464" pt_clust_5="44.43457" pt_clust_6="81.97974"></scales>
<clustering>
<clus scale="   34.185">  1  4  2 -1</clus>
<clus scale="   44.435">  2  5  1 -1</clus>
<clus scale="   81.980">  1  6  2 -1</clus>
<clus scale="   44.435">  2  3  1 -1</clus>
</clustering>
</event>
<event>
 6    0  0.2839294E+002  0.5909038E+02  0.7546771E-02  0.1401689E+00
          1   -1    0    0  503    0 -0.00000000000E+00  0.00000000000E+00  0.10467323466E+04  0.10467323466E+04  0.00000000000E+00 0. -1.
         21   -1    0    0  504  502  0.00000000000E+00 -0.00000000000E+00 -0.17686828654E+03  0.17686828654E+03  0.00000000000E+00 0. -1.
         21    1    1    2  503  505 -0.46064139914E+02  0.18798116174E+02  0.39309309718E+03  0.39622904640E+03  0.00000000000E+00 0. -1.
         21    1    1    2  504  501 -0.52534100130E+01 -0.87778552429E+02 -0.51984224870E+02  0.10215200546E+03  0.00000000000E+00 0. -1.
         21    1    1    2  505  502 -0.19061938730E+02  0.35292411232E+02 -0.91589151024E+02  0.99987421128E+02  0.00000000000E+00 0. -1.
          1    1    1    2  501    0  0.70379488656E+02  0.33688025023E+02  0.62034433876E+03  0.62523216015E+03  0.00000000000E+00 0. -1.
<scales pt_clust_3="50.35372" pt_clust_4="14000.00000" pt_clust_5="40.11124" pt_clust_6="59.09038"></scales>
<clustering>
<clus scale="   40.111">  2  5  1 -1</clus>
<clus scale="   50.354">  1  3  2 -1</clus>
<clus scale="   59.090">  1  6  2 -1</clus>
<clus scale="   40.111">  2  3  1 -1</clus>
</clustering>
</event>
<event>
 6    0  0.2839294E+002  0.8010606E+02  0.7546771E-02  0.1328751E+00
          2   -1    0    0  504    0 -0.00000000000E+00  0.00000000000E+00  0.28110881771E+04  0.28110881771E+04  0.00000000000E+00 0.  1.
         21   -1    0    0  505  502  0.00000000000E+00 -0.00000000000E+00 -0.36624849856E+02  0.36624849856E+02  0.00000000000E+00 0.  1.
         21    1    1    2  503  502  0.41012940282E+02  0.12134542625E+02  0.27303379806E+02  0.50742319065E+02  0.00000000000E+00 0.  1.
         21    1    1    2  504  503 -0.17377464637E+02  0.94743010427E+02  0.81589678808E+02  0.12623426631E+03  0.00000000000E+00 0.  1.
         21    1    1    2  505  501 -0.20088618891E+02 -0.27241338736E+02  0.14469448333E+03  0.14860059438E+03  0.00000000000E+00 0.  1.
          2    1    1    2  501    0 -0.35468567536E+01 -0.79636214316E+02  0.25208757853E+04  0.25221358472E+04  0.00000000000E+00 0.  1.
<scales pt_clust_3="34.34767" pt_clust_4="14000.00000" pt_clust_5="33.84735" pt_clust_6="80.10606"></scales>
<clustering>
<clus scale="   33.847">  2  5  1 -1</clus>
<clus scale="   34.348">  2  3  1 -1</clus>
<clus scale="   80.106">  1  6  2 -1</clus>
<clus scale="   33.847">  2  3  1 -1</clus>
</clustering>
</event>
<event>
 6    0  0.2839294E+002  0.1763448E+03  0.7546771E-02  0.1171388E+00
          3   -1    0    0  504    0 -0.00000000000E+00  0.00000000000E+00  0.83667341271E+02  0.83667341271E+02  0.00000000000E+00 0.  1.
         21   -1    0    0  505  502  0.00000000000E+00 -0.00000000000E+00 -0.44365037669E+03  0.44365037669E+03  0.00000000000E+00 0.  1.
         21    1    1    2  503  501  0.32866107670E+02  0.54723109309E+02 -0.11011006219E+03  0.12727539244E+03  0.00000000000E+00 0.  1.
         21    1    1    2  504  502  0.30754733544E+02 -0.15782443757E+02 -0.19981377041E+02  0.39927366489E+02  0.00000000000E+00 0.  1.
         21    1    1    2  505  503 -0.47003015303E+02  0.10761364479E+03 -0.15568189826E+03  0.19500470107E+03  0.00000000000E+00 0.  1.
          3    1    1    2  501    0 -0.16617825912E+02 -0.14655431034E+03 -0.74209697928E+02  0.16511025796E+03  0.00000000000E+00 0.  1.
<scales pt_clust_3="62.26291" pt_clust_4="34.56789" pt_clust_5="62.26291" pt_clust_6="156.30565"></scales>
<clustering>
<clus scale="   34.568">  1  4  2 -1</clus>
<clus scale="   62.263">  3  5 -1 -1</clus>
<clus scale="  156.306">  1  6  2 -1</clus>
<clus scale="  176.345">  2  3  1 -1</clus>
</clustering>
</event>
<event>
 6    0  0.2839294E+002  0.1362435E+03  0.7546771E-02  0.1218475E+00
         21   -1    0    0  503  502  0.00000000000E+00  0.00000000000E+00  0.24913881230E+03  0.24913881230E+03  0.00000000000E+00 0.  1.
          1   -1    0    0  505    0 -0.00000000000E+00 -0.00000000000E+00 -0.31173814579E+04  0.31173814579E+04  0.00000000000E+00 0.  1.
         21    1    1    2  503  501  0.98506095071E+02 -0.63212208300E+01 -0.75530458597E+03  0.76172726496E+03  0.00000000000E+00 0.  1.
         21    1    1    2  504  502 -0.13149265300E+03 -0.39696361353E+02  0.22518317680E+03  0.26376804585E+03  0.00000000000E+00 0.  1.
         21    1    1    2  505  504 -0.29162570157E+02  0.29773266259E+02 -0.48390702824E+03  0.48569837848E+03  0.00000000000E+00 0.  1.
          1    1    1    2  501    0  0.62149128084E+02  0.16244315924E+02 -0.18542142082E+04  0.18553265809E+04  0.00000000000E+00 0.  1.
<scales pt_clust_3="136.24354" pt_clust_4="14000.00000" pt_clust_5="41.67617" pt_clust_6="55.82283"></scales>
<clustering>
<clus scale="   41.676">  2  5  1 -1</clus>
<clus scale="   55.823">  2  6  1 -1</clus>
<clus scale="  136.244">  2  3  1 -1</clus>
<clus scale="  136.244">  1  3  2 -1</clus>
</clustering>
</event>
<event>
 6    0  0.2839294E+002  0.1243568E+03  0.7546771E-02  0.1236078E+00
         21   -1    0    0  504  502  0.00000000000E+00  0.00000000000E+00  0.88016482661E+02  0.88016482661E+02  0.00000000000E+00 0.  1.
          1   -1    0    0  505    0 -0.00000000000E+00 -0.00000000000E+00 -0.15005779232E+04  0.15005779232E+04  0.00000000000E+00 0. -1.
         21    1    1    2  503  502  0.15631961481E+02 -0.26344169848E+02  0.50511489891E+02  0.59074394756E+02  0.00000000000E+00 0.  1.
         21    1    1    2  504  501 -0.10812383687E+02 -0.75609353556E+02 -0.15547670529E+03  0.17322438591E+03  0.00000000000E+00 0.  1.
         21    1    1    2  505  503  0.59496789895E+02  0.19322657898E+03 -0.47488727385E+03  0.51613399587E+03  0.00000000000E+00 0.  1.
          1    1    1    2  501    0 -0.64316367690E+02 -0.91273055574E+02 -0.83270895131E+03  0.84016162934E+03  0.00000000000E+00 0. -1.
<scales pt_clust_3="30.63288" pt_clust_4="82.91183" pt_clust_5="124.35684" pt_clust_6="14000.00000"></scales>
<clustering>
<clus scale="   30.633">  1  3  2 -1</clus>
<clus scale="   82.912">  1  4  2 -1</clus>
<clus scale="  124.357">  1  5  2 -1</clus>
<clus scale="   30.633">  1  3  2 -1</clus>
</clustering>
</event>
<event>
 6    0  0.2839294E+002  0.1527669E+03  0.7546771E-02  0.1197114E+00
         21   -1    0    0  503  502  0.00000000000E+00  0.00000000000E+00  0.14084139851E+04  0.14084139851E+04  0.00000000000E+00 0. -1.
          4   -1    0    0  504    0 -0.00000000000E+00 -0.00000000000E+00 -0.54320975625E+03  0.54320975625E+03  0.00000000000E+00 0.  1.
         21    1    1    2  503  501 -0.53543231385E+02 -0.40185574689E+02 -0.16153929228E+03  0.17486194838E+03  0.00000000000E+00 0.  1.
         21    1    1    2  504  505 -0.65257669766E+02  0.32609993103E+02 -0.43724299988E+02  0.85051687361E+02  0.00000000000E+00 0.  1.
         21    1    1    2  505  502  0.15397137311E+03  0.19637245227E+02  0.13755956960E+04  0.13843252233E+04  0.00000000000E+00 0. -1.
          4    1    1    2  501    0 -0.35170471956E+02 -0.12061663641E+02 -0.30512787487E+03  0.30738488228E+03  0.00000000000E+00 0.  1.
<scales pt_clust_3="152.76686" pt_clust_4="80.35933" pt_clust_5="14000.00000" pt_clust_6="37.18126"></scales>
<clustering>
<clus scale="   37.181">  2  6  1 -1</clus>
<clus scale="   80.359">  2  4  1 -1</clus>
<clus scale="  152.767">  2  3  1 -1</clus>
<clus scale="  152.767">  1  3  2 -1</clus>
</clustering>
</event>
<event>
 6    0  0.2839294E+002  0.2642525E+03  0.7546771E-02  0.1104615E+00
         -1   -1    0    0    0  501 -0.00000000000E+00  0.00000000000E+00  0.19327749036E+03  0.19327749036E+03  0.00000000000E+00 0.  1.
         21   -1    0    0  505  502  0.00000000000E+00 -0.00000000000E+00 -0.24031294913E+04  0.24031294913E+04  0.00000000000E+00 0.  1.
         21    1    1    2  503  502  0.25160197120E+03  0.15096381944E+03 -0.18206037442E+04  0.18440964238E+04  0.00000000000E+00 0.  1.
         21    1    1    2  504  501 -0.15358187089E+02 -0.27429351139E+02 -0.15226067629E+02  0.34929591323E+02  0.00000000000E+00 0.  1.
         21    1    1    2  505  504 -0.29129667821E+02 -0.84391276150E+01 -0.46321300992E+03  0.46420474899E+03  0.00000000000E+00 0. -1.
         -1    1    1    2    0  503 -0.20711411629E+03 -0.11509534069E+03  0.89190820857E+02  0.25317621756E+03  0.00000000000E+00 0.  1.
<scales pt_clust_3="264.25253" pt_clust_4="31.71676" pt_clust_5="30.32749" pt_clust_6="14000.00000"></scales>
<clustering>
<clus scale="   30.327">  2  5  1 -1</clus>
<clus scale="   31.717">  1  4  2 -1</clus>
<clus scale="  264.253">  2  3  1 -1</clus>
<clus scale="   30.327">  2  3  1 -1</clus>
</clustering>
</event>
<event>
 6    0  0.2839294E+002  0.1439352E+03  0.7546771E-02  0.1208130E+00
         21   -1    0    0  503  502  0.00000000000E+00  0.00000000000E+00  0.44299615539E+02  0.44299615539E+02  0.00000000000E+00 0.  1.
          2   -1    0    0  504    0 -0.00000000000E+00 -0.00000000000E+00 -0.17176046862E+04  0.17176046862E+04  0.00000000000E+00 0.  1.
         21    1    1    2  503  501  0.86899411391E+02  0.34759111451E+02 -0.30932773322E+03  0.32317696401E+03  0.00000000000E+00 0. -1.
         21    1    1    2  504  505  0.49181810421E+01  0.12552239084E+03 -0.25138881415E+03  0.28102739188E+03  0.00000000000E+00 0.  1.
         21    1    1    2  505  502 -0.56752568483E+01 -0.30386931863E+02  0.32003615576E+01  0.31077588106E+02  0.00000000000E+00 0.  1.
          2    1    1    2  501    0 -0.86142335585E+02 -0.12989457043E+03 -0.11157888848E+04  0.11266223577E+04  0.00000000000E+00 0.  1.
<scales pt_clust_3="89.62017" pt_clust_4="143.93521" pt_clust_5="30.91236" pt_clust_6="14000.00000"></scales>
<clustering>
<clus scale="   30.912">  1  5  2 -1</clus>
<clus scale="   89.620">  1  3  2 -1</clus>
<clus scale="  143.935">  1  4  2 -1</clus>
<clus scale="   30.912">  1  3  2 -1</clus>
</clustering>
</event>
<event>
 6    0  0.2839294E+002  0.7486691E+02  0.7546771E-02  0.1344284E+00
         21   -1    0    0  504  502  0.00000000000E+00  0.00000000000E+00  0.21642588081E+03  0.21642588081E+03  0.00000000000E+00 0.  1.
         -1   -1    0    0    0  501 -0.00000000000E+00 -0.00000000000E+00 -0.23641001120E+03  0.23641001120E+03  0.00000000000E+00 0.  1.
         21    1    1    2  503  502  0.85955556608E+02 -0.13596339185E+02  0.90382173864E+02  0.12546774687E+03  0.00000000000E+00 0.  1.
         21    1    1    2  504  505 -0.47803386373E+02 -0.48398857831E+01  0.49028493555E+00  0.48050271825E+02  0.00000000000E+00 0.  1.
         21    1    1    2  505  501 -0.52647263104E+02  0.72516977081E+02  0.54401265872E+02  0.10483293378E+03  0.00000000000E+00 0.  1.
         -1    1    1    2    0  503  0.14495092868E+02 -0.54080752113E+02 -0.16525785506E+03  0.17448493954E+03  0.00000000000E+00 0.  1.
<scales pt_clust_3="74.86691" pt_clust_4="48.04777" pt_clust_5="14000.00000" pt_clust_6="55.81632"></scales>
<clustering>
<clus scale="   48.048">  1  4  2 -1</clus>
<clus scale="   55.816">  2  6  1 -1</clus>
<clus scale="   74.867">  1  3  2 -1</clus>
<clus scale="   48.048">  1  3  2 -1</clus>
</clustering>
</event>
<event>
 6    0  0.2839294E+002  0.8018876E+02  0.7546771E-02  0.1328517E+00
          1   -1    0    0  505    0 -0.00000000000E+00  0.00000000000E+00  0.10696744509E+04  0.10696744509E+04  0.00000000000E+00 0. -1.
         21   -1    0    0  503  502  0.00000000000E+00 -0.00000000000E+00 -0.64657615758E+02  0.64657615758E+02  0.00000000000E+00 0.  1.
         21    1    1    2  503  501 -0.10103857863E+03 -0.10662672797E+02  0.14114553586E+03  0.17390960082E+03  0.00000000000E+00 0. -1.
         21    1    1    2  504  502  0.55814089689E+02 -0.61534944405E+02 -0.74362770297E+01  0.83408993561E+02  0.00000000000E+00 0.  1.
         21    1    1    2  505  504  0.13880657242E+02  0.56993392617E+02  0.38313511443E+03  0.38759958121E+03  0.00000000000E+00 0. -1.
          1    1    1    2  501    0  0.31343831698E+02  0.15204224585E+02  0.48817246192E+03  0.48941389111E+03  0.00000000000E+00 0. -1.
<scales pt_clust_3="80.18876" pt_clust_4="14000.00000" pt_clust_5="75.51215" pt_clust_6="34.83682"></scales>
<clustering>
<clus scale="   34.837">  1  6  2 -1</clus>
<clus scale="   75.512">  1  5  2 -1</clus>
<clus scale="   80.189">  1  3  2 -1</clus>
<clus scale="   80.189">  2  3  1 -1</clus>
</clustering>
</event>
<event>
 6    0  0.2839294E+002  0.1261407E+03  0.7546771E-02  0.1233297E+00
         21   -1    0    0  505  502  0.00000000000E+00  0.00000000000E+00  0.14896913885E+04  0.14896913885E+04  0.00000000000E+00 0. -1.
          4   -1    0    0  503    0 -0.00000000000E+00 -0.00000000000E+00 -0.75146352785E+03  0.75146352785E+03  0.00000000000E+00 0. -1.
         21    1    1    2  503  504  0.21215004905E+02  0.11209226442E+03 -0.27331106060E+03  0.29616496758E+03  0.00000000000E+00 0. -1.
         21    1    1    2  504  502 -0.58913462254E+02  0.53246608646E+02  0.21155216066E+03  0.22596529390E+03  0.00000000000E+00 0. -1.
         21    1    1    2  505  501  0.93205282048E+02 -0.17488056453E+03  0.12499444496E+04  0.12655558319E+04  0.00000000000E+00 0. -1.
          4    1    1    2  501    0 -0.55506824699E+02  0.95416914604E+01 -0.44995768906E+03  0.45346882297E+03  0.00000000000E+00 0. -1.
<scales pt_clust_3="126.14074" pt_clust_4="80.55743" pt_clust_5="14000.00000" pt_clust_6="56.32097"></scales>
<clustering>
<clus scale="   56.321">  2  6  1 -1</clus>
<clus scale="   80.557">  1  4  2 -1</clus>
<clus scale="  126.141">  2  3  1 -1</clus>
<clus scale="   80.557">  1  3  2 -1</clus>
</clustering>
</event>
<event>
 6    0  0.2839294E+002  0.1522567E+03  0.7546771E-02  0.1197727E+00
          2   -1    0    0  504    0 -0.00000000000E+00  0.00000000000E+00  0.14313474507E+04  0.14313474507E+04  0.00000000000E+00 0. -1.
         21   -1    0    0  503  502  0.00000000000E+00 -0.00000000000E+00 -0.82935111062E+02  0.82935111062E+02  0.00000000000E+00 0.  1.
         21    1    1    2  503  505 -0.34901811433E+02 -0.74658768421E+01 -0.22009349141E+02  0.41931935419E+02  0.00000000000E+00 0.  1.
         21    1    1    2  504  502 -0.52779569230E+02 -0.15244141125E+03  0.35501685147E+03  0.38995003734E+03  0.00000000000E+00 0.  1.
         21    1    1    2  505  501 -0.66861128584E+02  0.98873174156E+02  0.11144995445E+03  0.16330158429E+03  0.00000000000E+00 0.  1.
          2    1    1    2  501    0  0.15454250925E+03  0.61034113938E+02  0.90395488281E+03  0.91909900467E+03  0.00000000000E+00 0. -1.
<scales pt_clust_3="35.69140" pt_clust_4="152.25671" pt_clust_5="127.27584" pt_clust_6="14000.00000"></scales>
<clustering>
<clus scale="   35.691">  2  3  1 -1</clus>
<clus scale="  127.276">  2  5  1 -1</clus>
<clus scale="  152.257">  2  4  1 -1</clus>
<clus scale="   35.691">  2  3  1 -1</clus>
</clustering>
</event>
<event>
 6    0  0.2839294E+002  0.9540980E+02  0.7546771E-02  0.1290256E+00
         21   -1    0    0  503  502  0.00000000000E+00  0.00000000000E+00  0.41087584318E+03  0.41087584318E+03  0.00000000000E+00 0. -1.
         -4   -1    0    0    0  501 -0.00000000000E+00 -0.00000000000E+00 -0.36074515072E+03  0.36074515072E+03  0.00000000000E+00 0. -1.
         21    1    1    2  503  504 -0.45660839722E+02 -0.17952032879E+02  0.29251157573E+02  0.57121081818E+02  0.00000000000E+00 0.  1.
         21    1    1    2  504  501  0.15030923564E+02 -0.66163432043E+02 -0.53970585511E+02  0.86696900195E+02  0.00000000000E+00 0. -1.
         21    1    1    2  505  502  0.67739438100E+02 -0.26410311815E+02  0.33495941681E+03  0.34275931345E+03  0.00000000000E+00 0. -1.
         -4    1    1    2    0  505 -0.37109521941E+02  0.11052577674E+03 -0.26010929641E+03  0.28504369844E+03  0.00000000000E+00 0. -1.
<scales pt_clust_3="49.06310" pt_clust_4="95.40980" pt_clust_5="50.03484" pt_clust_6="14000.00000"></scales>
<clustering>
<clus scale="   49.063">  1  3  2 -1</clus>
<clus scale="   50.035">  1  5  2 -1</clus>
<clus scale="   95.410">  1  4  2 -1</clus>
<clus scale="   49.063">  1  3  2 -1</clus>
</clustering>
</event>
<event>
 6    0  0.2839294E+002  0.1061187E+03  0.7546771E-02  0.1267931E+00
         21   -1    0    0  501  502  0.00000000000E+00  0.00000000000E+00  0.11042929346E+02  0.11042929346E+02  0.00000000000E+00 0.  1.
          2   -1    0    0  503    0 -0.00000000000E+00 -0.00000000000E+00 -0.16899053828E+04  0.16899053828E+04  0.00000000000E+00 0.  1.
         21    1    1    2  503  505 -0.56217495609E+02 -0.56297468289E+02 -0.52573649781E+03  0.53172236823E+03  0.00000000000E+00 0.  1.
         21    1    1    2  504  502 -0.66842274119E+00  0.78945831054E+02 -0.46653216353E+03  0.47316503530E+03  0.00000000000E+00 0.  1.
         21    1    1    2  505  504  0.39744124172E+02  0.35802385384E+02 -0.31751809316E+03  0.32199246216E+03  0.00000000000E+00 0. -1.
          2    1    1    2  501    0  0.17141794179E+02 -0.58450748150E+02 -0.36907569899E+03  0.37406844648E+03  0.00000000000E+00 0.  1.
<scales pt_clust_3="91.73108" pt_clust_4="43.91713" pt_clust_5="43.91713" pt_clust_6="60.91249"></scales>
<clustering>
<clus scale="   43.917">  4  5 -1 -1</clus>
<clus scale="   60.912">  1  6  2 -1</clus>
<clus scale="   91.731">  2  3  1 -1</clus>
<clus scale="   60.912">  1  3  2 -1</clus>
</clustering>
</event>
<event>
 6    0  0.2839294E+002  0.1326422E+03  0.7546771E-02  0.1223587E+00
          1   -1    0    0  505    0 -0.00000000000E+00  0.00000000000E+00  0.44956836061E+03  0.44956836061E+03  0.00000000000E+00 0.  1.
         21   -1    0    0  504  502  0.00000000000E+00 -0.00000000000E+00 -0.94053611447E+03  0.94053611447E+03  0.00000000000E+00 0. -1.
         21    1    1    2  503  502 -0.47330417365E+02  0.65706666913E+02 -0.62750545705E+03  0.63270896399E+03  0.00000000000E+00 0. -1.
         21    1    1    2  504  501  0.21474352603E+02  0.67611947396E+02 -0.27544312712E+03  0.28443178361E+03  0.00000000000E+00 0. -1.
         21    1    1    2  505  503  0.31710827618E+02 -0.56134123200E+01 -0.86417356643E+01  0.33343163937E+02  0.00000000000E+00 0.  1.
          1    1    1    2  501    0 -0.58547628555E+01 -0.12770520199E+03  0.42062256599E+03  0.43962056354E+03  0.00000000000E+00 0.  1.
<scales pt_clust_3="132.64224" pt_clust_4="70.98472" pt_clust_5="32.20383" pt_clust_6="14000.00000"></scales>
<clustering>
<clus scale="   32.204">  1  5  2 -1</clus>
<clus scale="   70.985">  2  4  1 -1</clus>
<clus scale="  132.642">  2  3  1 -1</clus>
<clus scale="   70.985">  2  3  1 -1</clus>
</clustering>
</event>
<event>
 6    0  0.2839294E+002  0.1202456E+03  0.7546771E-02  0.1242692E+00
          2   -1    0    0  505    0 -0.00000000000E+00  0.00000000000E+00  0.11254672659E+04  0.11254672659E+04  0.00000000000E+00 0.  1.
         21   -1    0    0  503  502  0.00000000000E+00 -0.00000000000E+00 -0.92429952450E+02  0.92429952450E+02  0.00000000000E+00 0. -1.
         21    1    1    2  503  501  0.13753897818E+02  0.51863765811E+02  0.42746112464E+02  0.68602113962E+02  0.00000000000E+00 0. -1.
         21    1    1    2  504  502 -0.85255067497E+02  0.52344654541E+02 -0.37101070162E+02  0.10669994752E+03  0.00000000000E+00 0. -1.
         21    1    1    2  505  504  0.57522432550E+02  0.11608356228E+02  0.27293760819E+03  0.27917471617E+03  0.00000000000E+00 0. -1.
          2    1    1    2  501    0  0.13978737128E+02 -0.11581677658E+03  0.75445466292E+03  0.76342044067E+03  0.00000000000E+00 0.  1.
<scales pt_clust_3="53.65650" pt_clust_4="14000.00000" pt_clust_5="59.64323" pt_clust_6="120.24563"></scales>
<clustering>
<clus scale="   53.656">  2  3  1 -1</clus>
<clus scale="   59.643">  1  5  2 -1</clus>
<clus scale="  120.246">  1  6  2 -1</clus>
<clus scale="   53.656">  2  3  1 -1</clus>
</clustering>
</event>
<event>
 6    0  0.2839294E+002  0.8172484E+02  0.7546771E-02  0.1324227E+00
          1   -1    0    0  505    0 -0.00000000000E+00  0.00000000000E+00  0.25936650310E+04  0.25936650310E+04  0.00000000000E+00 0.  1.
         21   -1    0    0  504  502  0.00000000000E+00 -0.00000000000E+00 -0.85238124214E+02  0.85238124214E+02  0.00000000000E+00 0.  1.
         21    1    1    2  503  501  0.17179958365E+02 -0.72546232914E+02  0.42922433662E+03  0.43565082122E+03  0.00000000000E+00 0. -1.
         21    1    1    2  504  503 -0.95847304738E+01  0.59890842960E+02  0.16792507569E+01  0.60676189826E+02  0.00000000000E+00 0.  1.
         21    1    1    2  505  502  0.54069623396E+02  0.21030496050E+02 -0.35907906244E+02  0.68228906404E+02  0.00000000000E+00 0.  1.
          1    1    1    2  501    0 -0.61664851288E+02 -0.83751060956E+01  0.21134312256E+04  0.21143472378E+04  0.00000000000E+00 0.  1.
<scales pt_clust_3="81.72484" pt_clust_4="14000.00000" pt_clust_5="58.01557" pt_clust_6="61.45240"></scales>
<clustering>
<clus scale="   58.016">  2  5  1 -1</clus>
<clus scale="   61.452">  1  6  2 -1</clus>
<clus scale="   81.725">  1  3  2 -1</clus>
<clus scale="   58.016">  2  3  1 -1</clus>
</clustering>
</event>
<event>
 6    0  0.2839294E+002  0.7007873E+02  0.7546771E-02  0.1359826E+00
         21   -1    0    0  505  502  0.00000000000E+00  0.00000000000E+00  0.22164268266E+03  0.22164268266E+03  0.00000000000E+00 0.  1.
          2   -1    0    0  503    0 -0.00000000000E+00 -0.00000000000E+00 -0.22749488089E+04  0.22749488089E+04  0.00000000000E+00 0. -1.
         21    1    1    2  503  504  0.57641837407E+02 -0.50072839814E+02 -0.11698167767E+04  0.11723059164E+04  0.00000000000E+00 0. -1.
         21    1    1    2  504  502 -0.43731273922E+02 -0.86039672688E+01  0.16651933031E+03  0.17238079922E+03  0.00000000000E+00 0.  1.
         21    1    1    2  505  501  0.64110262170E+02  0.72893209975E+02  0.18186218971E+01  0.97091982993E+02  0.00000000000E+00 0. -1.
          2    1    1    2  501    0 -0.78020825656E+02 -0.14216402892E+02 -0.10518273017E+04  0.10548127929E+04  0.00000000000E+00 0. -1.
<scales pt_clust_3="70.07873" pt_clust_4="44.56964" pt_clust_5="68.59574" pt_clust_6="14000.00000"></scales>
<clustering>
<clus scale="   44.570">  1  4  2 -1</clus>
<clus scale="   68.596">  1  5  2 -1</clus>
<clus scale="   70.079">  2  3  1 -1</clus>
<clus scale="   44.570">  1  3  2 -1</clus>
</clustering>
</event>
<event>
 6    0  0.2839294E+002  0.7436775E+02  0.7546771E-02  0.1345840E+00
         21   -1    0    0  504  502  0.00000000000E+00  0.00000000000E+00  0.16735521960E+04  0.16735521960E+04  0.00000000000E+00 0.  1.
          1   -1    0    0  505    0 -0.00000000000E+00 -0.00000000000E+00 -0.10261414168E+03  0.10261414168E+03  0.00000000000E+00 0. -1.
         21    1    1    2  503  501  0.13687910175E+03 -0.62513820217E+02  0.15685726534E+03  0.21736620690E+03  0.00000000000E+00 0. -1.
         21    1    1    2  504  503 -0.60075410637E+02  0.39990754235E+02  0.14536921797E+04  0.14554824866E+04  0.00000000000E+00 0.  1.
         21    1    1    2  505  502 -0.31213440514E+02  0.15214098800E+01  0.99316065573E+01  0.32790705475E+02  0.00000000000E+00 0. -1.
          1    1    1    2  501    0 -0.45590250601E+02  0.21001656102E+02 -0.49542997267E+02  0.70526938733E+02  0.00000000000E+00 0. -1.
<scales pt_clust_3="74.36775" pt_clust_4="14000.00000" pt_clust_5="31.25050" pt_clust_6="69.70480"></scales>
<clustering>
<clus scale="   31.250">  2  5  1 -1</clus>
<clus scale="   69.705">  2  6  1 -1</clus>
<clus scale="   74.368">  2  3  1 -1</clus>
<clus scale="   74.368">  1  3  2 -1</clus>
</clustering>
</event>
<event>
 6    0  0.2839294E+002  0.9014630E+02  0.7546771E-02  0.1302498E+00
          1   -1    0    0  505    0 -0.00000000000E+00  0.00000000000E+00  0.23406571370E+04  0.23406571370E+04  0.00000000000E+00 0. -1.
         21   -1    0    0  503  502  0.00000000000E+00 -0.00000000000E+00 -0.33420818851E+02  0.33420818851E+02  0.00000000000E+00 0. -1.
         21    1    1    2  503  501  0.83973258516E+02  0.31248549913E+02  0.65823765285E+02  0.11117890130E+03  0.00000000000E+00 0. -1.
         21    1    1    2  504  502 -0.89095947299E+02 -0.25019277813E+02  0.34096808953E+03  0.35330339677E+03  0.00000000000E+00 0. -1.
         21    1    1    2  505  504  0.80618098826E+02  0.84571535142E+01  0.45914293151E+03  0.46624353386E+03  0.00000000000E+00 0. -1.
          1    1    1    2  501    0 -0.75495410044E+02 -0.14686425615E+02  0.14413015319E+04  0.14433521240E+04  0.00000000000E+00 0. -1.
<scales pt_clust_3="14000.00000" pt_clust_4="90.14630" pt_clust_5="41.74305" pt_clust_6="76.91065"></scales>
<clustering>
<clus scale="   76.911">  1  6  2 -1</clus>
<clus scale="   41.743">  1  5  2 -1</clus>
<clus scale="   90.146">  1  4  2 -1</clus>
<clus scale="   90.146">  2  3  1 -1</clus>
</clustering>
</event>
<event>
 6    0  0.2839294E+002  0.6597428E+02  0.7546771E-02  0.1374344E+00
          1   -1    0    0  504    0 -0.00000000000E+00  0.00000000000E+00  0.18418747974E+03  0.18418747974E+03  0.00000000000E+00 0. -1.
         21   -1    0    0  503  502  0.00000000000E+00 -0.00000000000E+00 -0.14104698796E+03  0.14104698796E+03  0.00000000000E+00 0. -1.
         21    1    1    2  503  505 -0.19656598895E+02 -0.35231012517E+02 -0.50131806006E+02  0.64349079997E+02  0.00000000000E+00 0. -1.
         21    1    1    2  504  502  0.62361812109E+02 -0.17168064573E+01  0.85984380985E+02  0.10623208935E+03  0.00000000000E+00 0. -1.
         21    1    1    2  505  501  0.39630401300E+02  0.55542693304E+02  0.15102486447E+02  0.69883077949E+02  0.00000000000E+00 0. -1.
          1    1    1    2  501    0 -0.82335614514E+02 -0.18594874330E+02 -0.78145696519E+01  0.84770220405E+02  0.00000000000E+00 0. -1.
<scales pt_clust_3="40.34360" pt_clust_4="65.97428" pt_clust_5="55.14643" pt_clust_6="14000.00000"></scales>
<clustering>
<clus scale="   40.344">  2  3  1 -1</clus>
<clus scale="   55.146">  2  5  1 -1</clus>
<clus scale="   65.974">  1  4  2 -1</clus>
<clus scale="   40.344">  2  3  1 -1</clus>
</clustering>
</event>
<event>
 6    0  0.2839294E+002  0.2169956E+03  0.7546771E-02  0.1136143E+00
          2   -1    0    0  505    0 -0.00000000000E+00  0.00000000000E+00  0.10482929394E+04  0.10482929394E+04  0.00000000000E+00 0.  1.
         21   -1    0    0  501  502  0.00000000000E+00 -0.00000000000E+00 -0.22743193196E+03  0.22743193196E+03  0.00000000000E+00 0.  1.
         21    1    1    2  503  504 -0.27955864027E+02 -0.56019210819E+02 -0.85172883977E+01  0.63184068529E+02  0.00000000000E+00 0.  1.
         21    1    1    2  504  502  0.32945303845E+02 -0.17549726470E+02 -0.14130423597E+03  0.14615154138E+03  0.00000000000E+00 0.  1.
         21    1    1    2  505  503 -0.15900330855E+01 -0.18310732126E+03  0.35826207595E+03  0.40234628664E+03  0.00000000000E+00 0.  1.
          2    1    1    2  501    0 -0.33994067326E+01  0.25667625855E+03  0.61242045585E+03  0.66404297483E+03  0.00000000000E+00 0.  1.
<scales pt_clust_3="65.02685" pt_clust_4="37.32809" pt_clust_5="14000.00000" pt_clust_6="216.99563"></scales>
<clustering>
<clus scale="   37.328">  2  4  1 -1</clus>
<clus scale="   65.027">  2  3  1 -1</clus>
<clus scale="  216.996">  2  6  1 -1</clus>
<clus scale="   37.328">  2  3  1 -1</clus>
</clustering>
</event>
<event>
 6    0  0.2839294E+002  0.1505872E+03  0.7546771E-02  0.1199753E+00
          2   -1    0    0  505    0 -0.00000000000E+00  0.00000000000E+00  0.58722980450E+03  0.58722980450E+03  0.00000000000E+00 0.  1.
         21   -1    0    0  504  502  0.00000000000E+00 -0.00000000000E+00 -0.20385852015E+03  0.20385852015E+03  0.00000000000E+00 0. -1.
         21    1    1    2  503  501  0.10207991428E+03  0.22463858959E+02  0.25430925510E+03  0.27495114309E+03  0.00000000000E+00 0.  1.
         21    1    1    2  504  503 -0.14434847212E+03  0.19108120670E+01 -0.13747589104E+03  0.19934832134E+03  0.00000000000E+00 0. -1.
         21    1    1    2  505  502 -0.17842464689E+02  0.44851929531E+02  0.17389998329E+02  0.51307515733E+02  0.00000000000E+00 0. -1.
          2    1    1    2  501    0  0.60111022531E+02 -0.69226600557E+02  0.24914792196E+03  0.26548134449E+03  0.00000000000E+00 0.  1.
<scales pt_clust_3="150.58716" pt_clust_4="14000.00000" pt_clust_5="48.27058" pt_clust_6="89.69410"></scales>
<clustering>
<clus scale="   48.271">  2  5  1 -1</clus>
<clus scale="   89.694">  1  6  2 -1</clus>
<clus scale="  150.587">  1  3  2 -1</clus>
<clus scale="   48.271">  2  3  1 -1</clus>
</clustering>
</event>
<event>
 6    0  0.2839294E+002  0.1088489E+03  0.7546771E-02  0.1262716E+00
          2   -1    0    0  504    0 -0.00000000000E+00  0.00000000000E+00  0.77862715480E+03  0.77862715480E+03  0.00000000000E+00 0. -1.
         21   -1    0    0  501  502  0.00000000000E+00 -0.00000000000E+00 -0.82666301361E+03  0.82666301361E+03  0.00000000000E+00 0. -1.
         21    1    1    2  503  502 -0.33559862684E+02 -0.85874986031E+01 -0.36876480731E+03  0.37038829980E+03  0.00000000000E+00 0. -1.
         21    1    1    2  504  505  0.79176666168E+02 -0.24701258066E+02  0.48479465943E+03  0.49183834583E+03  0.00000000000E+00 0. -1.
         21    1    1    2  505  503 -0.36129503646E+02 -0.61450485882E+02 -0.44280756217E+03  0.44850868482E+03  0.00000000000E+00 0. -1.
          2    1    1    2  501    0 -0.94872998383E+01  0.94739242552E+02  0.27874185123E+03  0.29455483796E+03  0.00000000000E+00 0. -1.
<scales pt_clust_3="32.55288" pt_clust_4="82.94032" pt_clust_5="32.55288" pt_clust_6="98.32322"></scales>
<clustering>
<clus scale="   32.553">  3  5 -1 -1</clus>
<clus scale="   82.940">  1  4  2 -1</clus>
<clus scale="   98.323">  1  6  2 -1</clus>
<clus scale="  108.849">  2  3  1 -1</clus>
</clustering>
</event>
<event>
 6    0  0.2839294E+002  0.9990422E+02  0.7546771E-02  0.1280497E+00
          2   -1    0    0  505    0 -0.00000000000E+00  0.00000000000E+00  0.79783980006E+03  0.79783980006E+03  0.00000000000E+00 0.  1.
         21   -1    0    0  504  502  0.00000000000E+00 -0.00000000000E+00 -0.18676862918E+03  0.18676862918E+03  0.00000000000E+00 0.  1.
         21    1    1    2  503  502 -0.12453977182E+03 -0.95516089715E+01 -0.14382962646E+03  0.19049501161E+03  0.00000000000E+00 0.  1.
         21    1    1    2  504  501  0.26921953084E+02  0.35117431153E+02  0.20155718091E+02  0.48623847034E+02  0.00000000000E+00 0.  1.
         21    1    1    2  505  503  0.25847492163E+02  0.26179289616E+02  0.17852987798E+03  0.18228100666E+03  0.00000000000E+00 0.  1.
          2    1    1    2  501    0  0.71770326576E+02 -0.51745111797E+02  0.55621520127E+03  0.56320856394E+03  0.00000000000E+00 0.  1.
<scales pt_clust_3="99.90422" pt_clust_4="46.28339" pt_clust_5="36.78924" pt_clust_6="14000.00000"></scales>
<clustering>
<clus scale="   36.789">  1  5  2 -1</clus>
<clus scale="   46.283">  2  4  1 -1</clus>
<clus scale="   99.904">  2  3  1 -1</clus>
<clus scale="   46.283">  2  3  1 -1</clus>
</clustering>
</event>
<event>
 6    0  0.2839294E+002  0.1821043E+03  0.7546771E-02  0.1165782E+00
          2   -1    0    0  503    0 -0.00000000000E+00  0.00000000000E+00  0.53534912679E+03  0.53534912679E+03  0.00000000000E+00 0. -1.
         21   -1    0    0  504  502  0.00000000000E+00 -0.00000000000E+00 -0.17318867338E+03  0.17318867338E+03  0.00000000000E+00 0. -1.
         21    1    1    2  503  502  0.83952433507E+02 -0.10145471381E+03  0.10110901322E+03  0.16602440363E+03  0.00000000000E+00 0. -1.
         21    1    1    2  504  505 -0.59152951678E+02  0.10747506334E+03 -0.58004251554E+02  0.13569986784E+03  0.00000000000E+00 0. -1.
         21    1    1    2  505  501 -0.61199785643E+02  0.48272803534E+02 -0.31833115712E+01  0.78011606806E+02  0.00000000000E+00 0.  1.
          2    1    1    2  501    0  0.36400303814E+02 -0.54293153066E+02  0.32223900331E+03  0.32880192190E+03  0.00000000000E+00 0. -1.
<scales pt_clust_3="173.13423" pt_clust_4="44.99576" pt_clust_5="44.99576" pt_clust_6="65.36611"></scales>
<clustering>
<clus scale="   44.996">  4  5 -1 -1</clus>
<clus scale="   65.366">  1  6  2 -1</clus>
<clus scale="  173.134">  1  3  2 -1</clus>
<clus scale="  182.104">  2  3  1 -1</clus>
</clustering>
</event>
<event>
 6    0  0.2839294E+002  0.1112199E+03  0.7546771E-02  0.1258327E+00
         21   -1    0    0  501  502  0.00000000000E+00  0.00000000000E+00  0.14042060313E+04  0.14042060313E+04  0.00000000000E+00 0. -1.
          1   -1    0    0  505    0 -0.00000000000E+00 -0.00000000000E+00 -0.11715848489E+04  0.11715848489E+04  0.00000000000E+00 0.  1.
         21    1    1    2  503  502  0.97174322346E+01 -0.57784273903E+02  0.13789244465E+04  0.13801688593E+04  0.00000000000E+00 0. -1.
         21    1    1    2  504  503 -0.30837378564E+02  0.68392521192E+02 -0.11310317042E+03  0.13572327741E+03  0.00000000000E+00 0. -1.
         21    1    1    2  505  504 -0.92451909069E+02  0.25212959971E+02 -0.25073537934E+03  0.26842369362E+03  0.00000000000E+00 0. -1.
          1    1    1    2  501    0  0.11357185540E+03 -0.35821207261E+02 -0.78246471445E+03  0.79147504989E+03  0.00000000000E+00 0.  1.
<scales pt_clust_3="58.59566" pt_clust_4="49.50430" pt_clust_5="14000.00000" pt_clust_6="111.21989"></scales>
<clustering>
<clus scale="   58.596">  1  3  2 -1</clus>
<clus scale="   49.504">  1  4  2 -1</clus>
<clus scale="  111.220">  2  6  1 -1</clus>
<clus scale="   58.596">  1  3  2 -1</clus>
</clustering>
</event>
<event>
 6    0  0.2839294E+002  0.1258955E+03  0.7546771E-02  0.1233676E+00
          2   -1    0    0  504    0 -0.00000000000E+00  0.00000000000E+00  0.15098197657E+04  0.15098197657E+04  0.00000000000E+00 0. -1.
         21   -1    0    0  503  502  0.00000000000E+00 -0.00000000000E+00 -0.57769364976E+02  0.57769364976E+02  0.00000000000E+00 0. -1.
         21    1    1    2  503  501  0.37500307563E+02 -0.17875741747E+03  0.40869893641E+03  0.44765534510E+03  0.00000000000E+00 0. -1.
         21    1    1    2  504  505 -0.81737893136E+02  0.60722522572E+02  0.19999038967E+03  0.22442028403E+03  0.00000000000E+00 0. -1.
         21    1    1    2  505  502  0.25449436858E+02  0.42898643888E+02  0.12982538439E+01  0.49896422185E+02  0.00000000000E+00 0. -1.
          2    1    1    2  501    0  0.18788148715E+02  0.75136251013E+02  0.84206282078E+03  0.84561707935E+03  0.00000000000E+00 0. -1.
<scales pt_clust_3="125.89550" pt_clust_4="14000.00000" pt_clust_5="49.87953" pt_clust_6="79.99076"></scales>
<clustering>
<clus scale="   49.880">  2  5  1 -1</clus>
<clus scale="   79.991">  1  6  2 -1</clus>
<clus scale="  125.895">  1  3  2 -1</clus>
<clus scale="   49.880">  2  3  1 -1</clus>
</clustering>
</event>
<event>
 6    0  0.2839294E+002  0.1041718E+03  0.7546771E-02  0.1271760E+00
          3   -1    0    0  504    0 -0.00000000000E+00  0.00000000000E+00  0.13796146525E+04  0.13796146525E+04  0.00000000000E+00 0. -1.
         21   -1    0    0  505  502  0.00000000000E+00 -0.00000000000E+00 -0.55326084422E+02  0.55326084422E+02  0.00000000000E+00 0. -1.
         21    1    1    2  503  501 -0.14406051908E+02  0.12238136980E+03  0.52636128690E+03  0.54059313569E+03  0.00000000000E+00 0. -1.
         21    1    1    2  504  502 -0.32690299790E+02 -0.62796420159E+02  0.36331777459E+02  0.79574142398E+02  0.00000000000E+00 0. -1.
         21    1    1    2  505  503  0.72157919567E+02  0.34971129735E+02  0.45838598263E+02  0.92362992383E+02  0.00000000000E+00 0. -1.
          3    1    1    2  501    0 -0.25061567869E+02 -0.94556079375E+02  0.71575690541E+03  0.72241046641E+03  0.00000000000E+00 0. -1.
<scales pt_clust_3="104.17177" pt_clust_4="70.79581" pt_clust_5="50.29716" pt_clust_6="14000.00000"></scales>
<clustering>
<clus scale="   70.796">  2  4  1 -1</clus>
<clus scale="   50.297">  2  5  1 -1</clus>
<clus scale="  104.172">  2  3  1 -1</clus>
<clus scale="   70.796">  2  3  1 -1</clus>
</clustering>
</event>
<event>
 6    0  0.2839294E+002  0.2625777E+03  0.7546771E-02  0.1105604E+00
          2   -1    0    0  505    0 -0.00000000000E+00  0.00000000000E+00  0.17906064657E+04  0.17906064657E+04  0.00000000000E+00 0. -1.
         21   -1    0    0  503  502  0.00000000000E+00 -0.00000000000E+00 -0.14818351022E+03  0.14818351022E+03  0.00000000000E+00 0. -1.
         21    1    1    2  503  504 -0.70240913148E+02 -0.15164677944E+00  0.23368676479E+02  0.74026373118E+02  0.00000000000E+00 0. -1.
         21    1    1    2  504  501 -0.67321245901E+02  0.10242874398E+03  0.65646403565E+03  0.66780897556E+03  0.00000000000E+00 0.  1.
         21    1    1    2  505  502  0.19226117703E+03 -0.22672738360E+03  0.85401050995E+02  0.30929436816E+03  0.00000000000E+00 0. -1.
          2    1    1    2  501    0 -0.54699017978E+02  0.12445028640E+03  0.87718919235E+03  0.88766025907E+03  0.00000000000E+00 0. -1.
<scales pt_clust_3="70.24108" pt_clust_4="30.46396" pt_clust_5="260.61042" pt_clust_6="30.46396"></scales>
<clustering>
<clus scale="   30.464">  4  6 -1 -1</clus>
<clus scale="   70.241">  2  3  1 -1</clus>
<clus scale="  260.610">  2  5  1 -1</clus>
<clus scale="   70.241">  2  3  1 -1</clus>
</clustering>
</event>
<event>
 6    0  0.2839294E+002  0.1858761E+03  0.7546771E-02  0.1162234E+00
         -1   -1    0    0    0  501 -0.00000000000E+00  0.00000000000E+00  0.10225313250E+03  0.10225313250E+03  0.00000000000E+00 0.  1.
         21   -1    0    0  504  502  0.00000000000E+00 -0.00000000000E+00 -0.10576979071E+04  0.10576979071E+04  0.00000000000E+00 0.  1.
         21    1    1    2  503  505 -0.10666950968E+02  0.15029005245E+03 -0.41243015855E+03  0.43908942073E+03  0.00000000000E+00 0.  1.
         21    1    1    2  504  501 -0.44070061618E+02 -0.68817573442E+01 -0.17177978767E+02  0.47797613640E+02  0.00000000000E+00 0.  1.
         21    1    1    2  505  502  0.69417885610E+02  0.48163264543E+02 -0.46340155052E+03  0.47104091109E+03  0.00000000000E+00 0.  1.
         -1    1    1    2    0  503 -0.14680873024E+02 -0.19157155965E+03 -0.62435086711E+02  0.20202309411E+03  0.00000000000E+00 0.  1.
<scales pt_clust_3="14000.00000" pt_clust_4="44.60414" pt_clust_5="82.73123" pt_clust_6="185.87606"></scales>
<clustering>
<clus scale="   44.604">  1  4  2 -1</clus>
<clus scale="   82.731">  2  5  1 -1</clus>
<clus scale="  185.876">  1  6  2 -1</clus>
<clus scale="   82.731">  2  3  1 -1</clus>
</clustering>
</event>
<event>
 6    0  0.2839294E+002  0.1041103E+03  0.7546771E-02  0.1271883E+00
         -3   -1    0    0    0  501 -0.00000000000E+00  0.00000000000E+00  0.26343233014E+04  0.26343233014E+04  0.00000000000E+00 0. -1.
         21   -1    0    0  504  502  0.00000000000E+00 -0.00000000000E+00 -0.16163717983E+03  0.16163717983E+03  0.00000000000E+00 0. -1.
         21    1    1    2  503  505  0.13812919099E+01  0.50913918345E+02  0.62271167074E+02  0.80447705358E+02  0.00000000000E+00 0.  1.
         21    1    1    2  504  501  0.98412774701E+01  0.70896388699E+02 -0.12185088770E+03  0.14131803673E+03  0.00000000000E+00 0. -1.
         21    1    1    2  505  502  0.22596595082E+02 -0.23054466327E+02 -0.67948757049E+01  0.32989162808E+02  0.00000000000E+00 0. -1.
         -3    1    1    2    0  503 -0.33819164462E+02 -0.98755840717E+02  0.25390607179E+04  0.25412055764E+04  0.00000000000E+00 0. -1.
<scales pt_clust_3="49.51668" pt_clust_4="14000.00000" pt_clust_5="32.28180" pt_clust_6="104.11025"></scales>
<clustering>
<clus scale="   32.282">  2  5  1 -1</clus>
<clus scale="   49.517">  2  3  1 -1</clus>
<clus scale="  104.110">  1  6  2 -1</clus>
<clus scale="   32.282">  2  3  1 -1</clus>
</clustering>
</event>
<event>
 6    0  0.2839294E+002  0.1505023E+03  0.7546771E-02  0.1199857E+00
         21   -1    0    0  503  502  0.00000000000E+00  0.00000000000E+00  0.68340860833E+03  0.68340860833E+03  0.00000000000E+00 0. -1.
          2   -1    0    0  505    0 -0.00000000000E+00 -0.00000000000E+00 -0.31868734083E+04  0.31868734083E+04  0.00000000000E+00 0.  1.
         21    1    1    2  503  504  0.49415593649E+02  0.15197367644E+02  0.17464171619E+03  0.18213343985E+03  0.00000000000E+00 0. -1.
         21    1    1    2  504  501 -0.11962771149E+02  0.16267241442E+03 -0.23556693551E+03  0.28652609552E+03  0.00000000000E+00 0. -1.
         21    1    1    2  505  502 -0.74024723531E+01 -0.30932512528E+02  0.47708713941E+03  0.47814616544E+03  0.00000000000E+00 0. -1.
          2    1    1    2  501    0 -0.30050350147E+02 -0.14693726954E+03 -0.29196267201E+04  0.29234763158E+04  0.00000000000E+00 0.  1.
<scales pt_clust_3="44.54026" pt_clust_4="14000.00000" pt_clust_5="31.80593" pt_clust_6="150.50233"></scales>
<clustering>
<clus scale="   31.806">  1  5  2 -1</clus>
<clus scale="   44.540">  1  3  2 -1</clus>
<clus scale="  150.502">  2  6  1 -1</clus>
<clus scale="   31.806">  1  3  2 -1</clus>
</clustering>
</event>
<event>
 6    0  0.2839294E+002  0.5742545E+02  0.7546771E-02  0.1408965E+00
         21   -1    0    0  503  502  0.00000000000E+00  0.00000000000E+00  0.14555262482E+02  0.14555262482E+02  0.00000000000E+00 0. -1.
          2   -1    0    0  504    0 -0.00000000000E+00 -0.00000000000E+00 -0.31611846381E+04  0.31611846381E+04  0.00000000000E+00 0.  1.
         21    1    1    2  503  501 -0.68331715190E+02 -0.62083567069E+02 -0.21454067258E+03  0.23356218186E+03  0.00000000000E+00 0. -1.
         21    1    1    2  504  505  0.29746256951E+02 -0.39304138714E+02 -0.12916559684E+04  0.12925961457E+04  0.00000000000E+00 0.  1.
         21    1    1    2  505  502  0.19409454740E+02  0.38393427134E+02 -0.11589025169E+03  0.12361768731E+03  0.00000000000E+00 0. -1.
          2    1    1    2  501    0  0.19176003499E+02  0.62994278650E+02 -0.15245424829E+04  0.15259638857E+04  0.00000000000E+00 0.  1.
<scales pt_clust_3="14000.00000" pt_clust_4="48.49027" pt_clust_5="43.02072" pt_clust_6="57.42545"></scales>
<clustering>
<clus scale="   43.021">  1  5  2 -1</clus>
<clus scale="   48.490">  2  4  1 -1</clus>
<clus scale="   57.425">  2  6  1 -1</clus>
<clus scale="   43.021">  1  3  2 -1</clus>
</clustering>
</event>
<event>
 6    0  0.2839294E+002  0.1090853E+03  0.7546771E-02  0.1262273E+00
         21   -1    0    0  501  502  0.00000000000E+00  0.00000000000E+00  0.15292285513E+03  0.15292285513E+03  0.00000000000E+00 0. -1.
          2   -1    0    0  504    0 -0.00000000000E+00 -0.00000000000E+00 -0.43555163097E+04  0.43555163097E+04  0.00000000000E+00 0. -1.
         21    1    1    2  503  505  0.28418020254E+02 -0.85592103753E+02 -0.36462380614E+03  0.37561165065E+03  0.00000000000E+00 0.  1.
         21    1    1    2  504  503  0.34617531177E+02  0.27825976352E+02 -0.85823007103E+03  0.85937856225E+03  0.00000000000E+00 0.  1.
         21    1    1    2  505  502 -0.10637255548E+03  0.35670088655E+02  0.12520788001E+03  0.16812045979E+03  0.00000000000E+00 0. -1.
          2    1    1    2  501    0  0.43337004047E+02  0.22096038747E+02 -0.31049474574E+04  0.31053284921E+04  0.00000000000E+00 0. -1.
<scales pt_clust_3="14000.00000" pt_clust_4="44.41462" pt_clust_5="109.08533" pt_clust_6="87.62614"></scales>
<clustering>
<clus scale="   44.415">  2  4  1 -1</clus>
<clus scale="   87.626">  2  6  1 -1</clus>
<clus scale="  109.085">  1  5  2 -1</clus>
<clus scale="  109.085">  1  3  2 -1</clus>
</clustering>
</event>
<event>
 6    0  0.2839294E+002  0.1573937E+03  0.7546771E-02  0.1191671E+00
         21   -1    0    0  503  502  0.00000000000E+00  0.00000000000E+00  0.62065268003E+03  0.62065268003E+03  0.00000000000E+00 0. -1.
         -4   -1    0    0    0  501 -0.00000000000E+00 -0.00000000000E+00 -0.13327367239E+03  0.13327367239E+03  0.00000000000E+00 0. -1.
         21    1    1    2  503  501 -0.12747420089E+03 -0.53149117733E+02  0.19440899470E+03  0.23847297086E+03  0.00000000000E+00 0. -1.
         21    1    1    2  504  502  0.53313765823E+02 -0.75535872230E+02  0.33369833571E+03  0.34626955523E+03  0.00000000000E+00 0. -1.
         21    1    1    2  505  504  0.33868392578E+02  0.46868808586E+02  0.18177303833E+02  0.60614912429E+02  0.00000000000E+00 0.  1.
         -4    1    1    2    0  505  0.40292042490E+02  0.81816181377E+02 -0.58905626594E+02  0.10856891391E+03  0.00000000000E+00 0. -1.
<scales pt_clust_3="140.95393" pt_clust_4="92.45553" pt_clust_5="55.76632" pt_clust_6="55.76632"></scales>
<clustering>
<clus scale="   55.766">  5  6 -1 -1</clus>
<clus scale="   92.456">  1  4  2 -1</clus>
<clus scale="  140.954">  1  3  2 -1</clus>
<clus scale="   92.456">  1  3  2 -1</clus>
</clustering>
</event>
<event>
 6    0  0.2839294E+002  0.1594870E+03  0.7546771E-02  0.1189277E+00
         21   -1    0    0  504  502  0.00000000000E+00  0.00000000000E+00  0.86599184592E+02  0.86599184592E+02  0.00000000000E+00 0. -1.
          3   -1    0    0  505    0 -0.00000000000E+00 -0.00000000000E+00 -0.46271243734E+03  0.46271243734E+03  0.00000000000E+00 0.  1.
         21    1    1    2  503  501 -0.80514209452E+02  0.27038861284E+01 -0.11884065030E+03  0.14357210414E+03  0.00000000000E+00 0. -1.
         21    1    1    2  504  503 -0.45289175196E+02  0.16394431678E+02 -0.24324561400E+02  0.53958975780E+02  0.00000000000E+00 0. -1.
         21    1    1    2  505  502  0.16778500259E+03 -0.32123102018E+02 -0.72778438323E+02  0.18568899230E+03  0.00000000000E+00 0. -1.
          3    1    1    2  501    0 -0.41981617939E+02  0.13024784211E+02 -0.16016960273E+03  0.16609154971E+03  0.00000000000E+00 0.  1.
<scales pt_clust_3="37.33192" pt_clust_4="37.33192" pt_clust_5="152.00355" pt_clust_6="43.95567"></scales>
<clustering>
<clus scale="   37.332">  3  4 -1 -1</clus>
<clus scale="   43.956">  2  6  1 -1</clus>
<clus scale="  152.004">  1  5  2 -1</clus>
<clus scale="  152.004">  1  3  2 -1</clus>
</clustering>
</event>
<event>
 6    0  0.2839294E+002  0.6938633E+02  0.7546771E-02  0.1362192E+00
         21   -1    0    0  505  502  0.00000000000E+00  0.00000000000E+00  0.32726908318E+02  0.32726908318E+02  0.00000000000E+00 0.  1.
          2   -1    0    0  504    0 -0.00000000000E+00 -0.00000000000E+00 -0.68806241782E+03  0.68806241782E+03  0.00000000000E+00 0. -1.
         21    1    1    2  503  501 -0.34924045891E+02  0.81168191914E+02 -0.26740093370E+03  0.28162248437E+03  0.00000000000E+00 0.  1.
         21    1    1    2  504  502  0.38839641750E+02 -0.20275746244E+02 -0.23444030444E+02  0.49691510547E+02  0.00000000000E+00 0.  1.
         21    1    1    2  505  503 -0.52738221890E+02 -0.54596140594E+02 -0.13607557905E+03  0.15581598708E+03  0.00000000000E+00 0. -1.
          2    1    1    2  501    0  0.48822626031E+02 -0.62963050759E+01 -0.22841496631E+03  0.23365934414E+03  0.00000000000E+00 0. -1.
<scales pt_clust_3="69.38633" pt_clust_4="43.81351" pt_clust_5="14000.00000" pt_clust_6="54.76396"></scales>
<clustering>
<clus scale="   43.814">  1  4  2 -1</clus>
<clus scale="   54.764">  2  6  1 -1</clus>
<clus scale="   69.386">  2  3  1 -1</clus>
<clus scale="   43.814">  1  3  2 -1</clus>
</clustering>
</event>
<event>
 6    0  0.2839294E+002  0.1191887E+03  0.7546771E-02  0.1244441E+00
         -3   -1    0    0    0  501 -0.00000000000E+00  0.00000000000E+00  0.15968548040E+03  0.15968548040E+03  0.00000000000E+00 0. -1.
         21   -1    0    0  503  502  0.00000000000E+00 -0.00000000000E+00 -0.10366746679E+04  0.10366746679E+04  0.00000000000E+00 0. -1.
         21    1    1    2  503  501 -0.53787876064E+02 -0.11089751878E+03  0.21639123405E+02  0.12513851104E+03  0.00000000000E+00 0. -1.
         21    1    1    2  504  502  0.18822734327E+02 -0.26696180525E+02 -0.72643631475E+03  0.72717033821E+03  0.00000000000E+00 0. -1.
         21    1    1    2  505  504 -0.32295241337E+02  0.42272573605E+02 -0.21370232959E+03  0.22022406491E+03  0.00000000000E+00 0.  1.
         -3    1    1    2    0  505  0.67260383074E+02  0.95321125701E+02  0.41510333430E+02  0.12382723415E+03  0.00000000000E+00 0. -1.
<scales pt_clust_3="119.18871" pt_clust_4="32.66468" pt_clust_5="30.35576" pt_clust_6="14000.00000"></scales>
<clustering>
<clus scale="   32.665">  2  4  1 -1</clus>
<clus scale="   30.356">  2  5  1 -1</clus>
<clus scale="  119.189">  2  3  1 -1</clus>
<clus scale="   32.665">  2  3  1 -1</clus>
</clustering>
</event>
<event>
 6    0  0.2839294E+002  0.1202293E+03  0.7546771E-02  0.1242719E+00
          2   -1    0    0  503    0 -0.00000000000E+00  0.00000000000E+00  0.21709633523E+04  0.21709633523E+04  0.00000000000E+00 0.  1.
         21   -1    0    0  504  502  0.00000000000E+00 -0.00000000000E+00 -0.25483374968E+04  0.25483374968E+04  0.00000000000E+00 0. -1.
         21    1    1    2  503  505 -0.44804932176E+02 -0.53119698839E+00  0.21246154550E+02  0.49589950602E+02  0.00000000000E+00 0.  1.
         21    1    1    2  504  501 -0.43989356338E+02  0.65064892995E+02 -0.88408169556E+02  0.11825611280E+03  0.00000000000E+00 0. -1.
         21    1    1    2  505  502  0.16096829259E+03 -0.92811111923E+02 -0.24265721616E+04  0.24336756459E+04  0.00000000000E+00 0. -1.
          2    1    1    2  501    0 -0.72174004081E+02  0.28277415916E+02  0.21163600322E+04  0.21177791398E+04  0.00000000000E+00 0.  1.
<scales pt_clust_3="44.80808" pt_clust_4="78.71255" pt_clust_5="120.22933" pt_clust_6="14000.00000"></scales>
<clustering>
<clus scale="   44.808">  1  3  2 -1</clus>
<clus scale="   78.713">  2  4  1 -1</clus>
<clus scale="  120.229">  2  5  1 -1</clus>
<clus scale="   78.713">  2  3  1 -1</clus>
</clustering>
</event>
<event>
 6    0  0.2839294E+002  0.7776260E+02  0.7546771E-02  0.1335523E+00
          2   -1    0    0  503    0 -0.00000000000E+00  0.00000000000E+00  0.87665106460E+03  0.87665106460E+03  0.00000000000E+00 0.  1.
         21   -1    0    0  504  502  0.00000000000E+00 -0.00000000000E+00 -0.13451016805E+03  0.13451016805E+03  0.00000000000E+00 0.  1.
         21    1    1    2  503  502  0.24743337216E+02 -0.25858692451E+02  0.10481214360E+03  0.11075418799E+03  0.00000000000E+00 0.  1.
         21    1    1    2  504  505 -0.65363983832E+02 -0.34849339142E+02 -0.68217832153E+02  0.10070054342E+03  0.00000000000E+00 0.  1.
         21    1    1    2  505  501  0.44830956430E+02  0.99809085318E+02  0.17820437441E+02  0.11085682729E+03  0.00000000000E+00 0. -1.
          2    1    1    2  501    0 -0.42103098144E+01 -0.39101053725E+02  0.68772614766E+03  0.68884967394E+03  0.00000000000E+00 0.  1.
<scales pt_clust_3="35.78973" pt_clust_4="77.76260" pt_clust_5="14000.00000" pt_clust_6="64.78317"></scales>
<clustering>
<clus scale="   35.790">  1  3  2 -1</clus>
<clus scale="   64.783">  1  6  2 -1</clus>
<clus scale="   77.763">  2  4  1 -1</clus>
<clus scale="   77.763">  2  3  1 -1</clus>
</clustering>
</event>
<event>
 6    0  0.2839294E+002  0.1366897E+03  0.7546771E-02  0.1217854E+00
          2   -1    0    0  503    0 -0.00000000000E+00  0.00000000000E+00  0.19239532623E+04  0.19239532623E+04  0.00000000000E+00 0.  1.
         21   -1    0    0  505  502  0.00000000000E+00 -0.00000000000E+00 -0.82427425672E+02  0.82427425672E+02  0.00000000000E+00 0.  1.
         21    1    1    2  503  504  0.32771192114E+02  0.10630457269E+03  0.39075254424E+03  0.40627843167E+03  0.00000000000E+00 0.  1.
         21    1    1    2  504  502  0.36276309476E+02  0.82510838441E+01 -0.66413389095E+02  0.76123513219E+02  0.00000000000E+00 0.  1.
         21    1    1    2  505  501 -0.24241875519E+02 -0.34334632757E+02  0.25394484584E+03  0.25739953431E+03  0.00000000000E+00 0.  1.
          2    1    1    2  501    0 -0.44805626071E+02 -0.80221023775E+02  0.12632418357E+04  0.12665792088E+04  0.00000000000E+00 0.  1.
<scales pt_clust_3="126.16995" pt_clust_4="37.20284" pt_clust_5="35.56496" pt_clust_6="35.56496"></scales>
<clustering>
<clus scale="   35.565">  5  6 -1 -1</clus>
<clus scale="   37.203">  2  4  1 -1</clus>
<clus scale="  126.170">  2  3  1 -1</clus>
<clus scale="   37.203">  2  3  1 -1</clus>
</clustering>
</event>
<event>
 6    0  0.2839294E+002  0.1398483E+03  0.7546771E-02  0.1213533E+00
          1   -1    0    0  504    0 -0.00000000000E+00  0.00000000000E+00  0.13883152813E+04  0.13883152813E+04  0.00000000000E+00 0. -1.
         21   -1    0    0  505  502  0.00000000000E+00 -0.00000000000E+00 -0.15743451154E+04  0.15743451154E+04  0.00000000000E+00 0.  1.
         21    1    1    2  503  502 -0.61927246397E+02 -0.35492183207E+02 -0.13285806010E+04  0.13304965586E+04  0.00000000000E+00 0.  1.
         21    1    1    2  504  503  0.82382416782E+02 -0.61291316217E+02 -0.20849062787E+03  0.23240445337E+03  0.00000000000E+00 0. -1.
         21    1    1    2  505  501 -0.72533730141E+02 -0.35136949152E+02  0.58818368754E+02  0.99776488747E+02  0.00000000000E+00 0. -1.
          1    1    1    2  501    0  0.52078559756E+02  0.13192044858E+03  0.12922230260E+04  0.12999828960E+04  0.00000000000E+00 0. -1.
<scales pt_clust_3="71.37702" pt_clust_4="14000.00000" pt_clust_5="86.55382" pt_clust_6="139.84830"></scales>
<clustering>
<clus scale="   71.377">  2  3  1 -1</clus>
<clus scale="   86.554">  2  5  1 -1</clus>
<clus scale="  139.848">  1  6  2 -1</clus>
<clus scale="   71.377">  2  3  1 -1</clus>
</clustering>
</event>
<event>
 6    0  0.2839294E+002  0.1240428E+03  0.7546771E-02  0.1236573E+00
         -3   -1    0    0    0  501 -0.00000000000E+00  0.00000000000E+00  0.15043803139E+04  0.15043803139E+04  0.00000000000E+00 0. -1.
         21   -1    0    0  504  502  0.00000000000E+00 -0.00000000000E+00 -0.14060765398E+03  0.14060765398E+03  0.00000000000E+00 0.  1.
         21    1    1    2  503  502 -0.23741796917E+02  0.35838350564E+02 -0.89845958716E+02  0.99600986891E+02  0.00000000000E+00 0.  1.
         21    1    1    2  504  505  0.37728146631E+02 -0.23119593670E+02  0.63210645025E+02  0.77159019590E+02  0.00000000000E+00 0. -1.
         21    1    1    2  505  501  0.90647934533E+02 -0.32538972274E+02  0.26120489753E+02  0.99790343905E+02  0.00000000000E+00 0. -1.
         -3    1    1    2    0  503 -0.10463428425E+03  0.19820215380E+02  0.13642874839E+04  0.13684376175E+04  0.00000000000E+00 0. -1.
<scales pt_clust_3="42.98907" pt_clust_4="41.52262" pt_clust_5="41.52262" pt_clust_6="107.86053"></scales>
<clustering>
<clus scale="   41.523">  4  5 -1 -1</clus>
<clus scale="   42.989">  2  3  1 -1</clus>
<clus scale="  107.861">  1  6  2 -1</clus>
<clus scale="   42.989">  2  3  1 -1</clus>
</clustering>
</event>
<event>
 6    0  0.2839294E+002  0.1068201E+03  0.7546771E-02  0.1266574E+00
         21   -1    0    0  504  502  0.00000000000E+00  0.00000000000E+00  0.68695391940E+02  0.68695391940E+02  0.00000000000E+00 0.  1.
         -1   -1    0    0    0  501 -0.00000000000E+00 -0.00000000000E+00 -0.20955703032E+04  0.20955703032E+04  0.00000000000E+00 0. -1.
         21    1    1    2  503  501  0.33533605771E+01  0.65480591041E+02 -0.41559902569E+03  0.42073923395E+03  0.00000000000E+00 0.  1.
         21    1    1    2  504  505 -0.33698428132E+02 -0.57157005288E+02  0.53463385243E+01  0.66566437847E+02  0.00000000000E+00 0.  1.
         21    1    1    2  505  503 -0.68980215386E+02  0.27040397755E+01 -0.13024221910E+02  0.70251066200E+02  0.00000000000E+00 0. -1.
         -1    1    1    2    0  502  0.99325282941E+02 -0.11027625529E+02 -0.16035980022E+04  0.16067089572E+04  0.00000000000E+00 0. -1.
<scales pt_clust_3="65.56640" pt_clust_4="65.29332" pt_clust_5="14000.00000" pt_clust_6="106.82011"></scales>
<clustering>
<clus scale="   65.566">  2  3  1 -1</clus>
<clus scale="   65.293">  1  4  2 -1</clus>
<clus scale="  106.820">  2  6  1 -1</clus>
<clus scale="   65.293">  1  3  2 -1</clus>
</clustering>
</event>
<event>
 6    0  0.2839294E+002  0.1393342E+03  0.7546771E-02  0.1214228E+00
         -1   -1    0    0    0  501 -0.00000000000E+00  0.00000000000E+00  0.21550323266E+03  0.21550323266E+03  0.00000000000E+00 0.  1.
         21   -1    0    0  505  502  0.00000000000E+00 -0.00000000000E+00 -0.51506037309E+03  0.51506037309E+03  0.00000000000E+00 0. -1.
         21    1    1    2  503  501 -0.39750728144E+02 -0.35744035440E+02 -0.11522652688E+02  0.54685720097E+02  0.00000000000E+00 0.  1.
         21    1    1    2  504  502  0.59196972328E+02  0.39861065769E+02 -0.11486474710E+03  0.13522979044E+03  0.00000000000E+00 0.  1.
         21    1    1    2  505  503  0.87402268420E+02 -0.69737389943E+02 -0.32502183889E+03  0.34371740694E+03  0.00000000000E+00 0. -1.
         -1    1    1    2    0  504 -0.10684851260E+03  0.65620359614E+02  0.15185209824E+03  0.19693068827E+03  0.00000000000E+00 0.  1.
<scales pt_clust_3="53.45799" pt_clust_4="68.58805" pt_clust_5="14000.00000" pt_clust_6="139.33424"></scales>
<clustering>
<clus scale="   53.458">  1  3  2 -1</clus>
<clus scale="   68.588">  2  4  1 -1</clus>
<clus scale="  139.334">  1  6  2 -1</clus>
<clus scale="   68.588">  2  3  1 -1</clus>
</clustering>
</event>
<event>
 6    0  0.2839294E+002  0.1546252E+03  0.7546771E-02  0.1194902E+00
         -2   -1    0    0    0  501 -0.00000000000E+00  0.00000000000E+00  0.15577072664E+03  0.15577072664E+03  0.00000000000E+00 0. -1.
         21   -1    0    0  503  502  0.00000000000E+00 -0.00000000000E+00 -0.19931779457E+04  0.19931779457E+04  0.00000000000E+00 0. -1.
         21    1    1    2  503  504 -0.36830605140E+02 -0.89225088698E+02 -0.71013197913E+02  0.11983523775E+03  0.00000000000E+00 0. -1.
         21    1    1    2  504  501  0.44973420336E+02  0.42870260675E+01 -0.31786768350E+02  0.55239349845E+02  0.00000000000E+00 0. -1.
         21    1    1    2  505  502 -0.53510089956E+02  0.14752878525E+03 -0.18380502311E+04  0.18447375759E+04  0.00000000000E+00 0. -1.
         -2    1    1    2    0  505  0.45367274760E+02 -0.62590722618E+02  0.10344297822E+03  0.12913650886E+03  0.00000000000E+00 0. -1.
<scales pt_clust_3="93.19423" pt_clust_4="45.17729" pt_clust_5="154.62519" pt_clust_6="14000.00000"></scales>
<clustering>
<clus scale="   45.177">  1  4  2 -1</clus>
<clus scale="   93.194">  1  3  2 -1</clus>
<clus scale="  154.625">  2  5  1 -1</clus>
<clus scale="  154.625">  2  3  1 -1</clus>
</clustering>
</event>
<event>
 6    0  0.2839294E+002  0.1976786E+03  0.7546771E-02  0.1151712E+00
         21   -1    0    0  505  502  0.00000000000E+00  0.00000000000E+00  0.98173888167E+02  0.98173888167E+02  0.00000000000E+00 0.  1.
          2   -1    0    0  504    0 -0.00000000000E+00 -0.00000000000E+00 -0.16245435214E+04  0.16245435214E+04  0.00000000000E+00 0. -1.
         21    1    1    2  503  502  0.12417402414E+03 -0.79647534400E+00 -0.35098365904E+02  0.12904153569E+03  0.00000000000E+00 0.  1.
         21    1    1    2  504  503  0.91612363149E+02  0.14492637209E+03 -0.19822523638E+03  0.26208724263E+03  0.00000000000E+00 0.  1.
         21    1    1    2  505  501 -0.27204612343E+02 -0.49905036079E+02 -0.68413914549E+02  0.88944180600E+02  0.00000000000E+00 0. -1.
          2    1    1    2  501    0 -0.18858177495E+03 -0.94224860669E+02 -0.12246321164E+04  0.12426444507E+04  0.00000000000E+00 0. -1.
<scales pt_clust_3="113.02497" pt_clust_4="197.67863" pt_clust_5="56.83840" pt_clust_6="14000.00000"></scales>
<clustering>
<clus scale="   56.838">  1  5  2 -1</clus>
<clus scale="  113.025">  1  3  2 -1</clus>
<clus scale="  197.679">  1  4  2 -1</clus>
<clus scale="   56.838">  1  3  2 -1</clus>
</clustering>
</event>
<event>
 6    0  0.2839294E+002  0.9377648E+02  0.7546771E-02  0.1293956E+00
         -2   -1    0    0    0  501 -0.00000000000E+00  0.00000000000E+00  0.32299602182E+03  0.32299602182E+03  0.00000000000E+00 0. -1.
         21   -1    0    0  503  502  0.00000000000E+00 -0.00000000000E+00 -0.90221688160E+03  0.90221688160E+03  0.00000000000E+00 0.  1.
         21    1    1    2  503  505  0.10640604843E+03 -0.85125161501E+01 -0.28960017594E+02  0.11060466849E+03  0.00000000000E+00 0. -1.
         21    1    1    2  504  502 -0.21444490251E+02  0.48044319251E+02 -0.80588294217E+03  0.80759856318E+03  0.00000000000E+00 0.  1.
         21    1    1    2  505  501  0.35498006150E+01 -0.31205670795E+02 -0.48541542367E+01  0.31779833032E+02  0.00000000000E+00 0. -1.
         -2    1    1    2    0  504 -0.88511358789E+02 -0.83261323058E+01  0.26047625421E+03  0.27522983872E+03  0.00000000000E+00 0. -1.
<scales pt_clust_3="93.77648" pt_clust_4="52.52998" pt_clust_5="31.40693" pt_clust_6="14000.00000"></scales>
<clustering>
<clus scale="   31.407">  1  5  2 -1</clus>
<clus scale="   52.530">  2  4  1 -1</clus>
<clus scale="   93.776">  2  3  1 -1</clus>
<clus scale="   52.530">  2  3  1 -1</clus>
</clustering>
</event>
<event>
 6    0  0.2839294E+002  0.9164792E+02  0.7546771E-02  0.1298909E+00
         21   -1    0    0  503  502  0.00000000000E+00  0.00000000000E+00  0.16852748767E+03  0.16852748767E+03  0.00000000000E+00 0. -1.
          2   -1    0    0  504    0 -0.00000000000E+00 -0.00000000000E+00 -0.55549858670E+03  0.55549858670E+03  0.00000000000E+00 0.  1.
         21    1    1    2  503  501 -0.91112251202E+02  0.73562959060E+02  0.65883151778E+02  0.13436346584E+03  0.00000000000E+00 0. -1.
         21    1    1    2  504  505  0.31017710686E+02  0.27731265776E+02 -0.11216204996E+03  0.11963045987E+03  0.00000000000E+00 0. -1.
         21    1    1    2  505  502 -0.18056845087E+01 -0.61573597359E+02  0.45700818906E+02  0.76701585622E+02  0.00000000000E+00 0. -1.
          2    1    1    2  501    0  0.61900225025E+02 -0.39720627477E+02 -0.38639301975E+03  0.39333056303E+03  0.00000000000E+00 0.  1.
<scales pt_clust_3="91.64792" pt_clust_4="41.60675" pt_clust_5="60.59998" pt_clust_6="14000.00000"></scales>
<clustering>
<clus scale="   41.607">  2  4  1 -1</clus>
<clus scale="   60.600">  1  5  2 -1</clus>
<clus scale="   91.648">  1  3  2 -1</clus>
<clus scale="   60.600">  1  3  2 -1</clus>
</clustering>
</event>
<event>
 6    0  0.2839294E+002  0.6884798E+02  0.7546771E-02  0.1364055E+00
         -1   -1    0    0    0  501 -0.00000000000E+00  0.00000000000E+00  0.20042621293E+04  0.20042621293E+04  0.00000000000E+00 0. -1.
         21   -1    0    0  503  502  0.00000000000E+00 -0.00000000000E+00 -0.54678882493E+02  0.54678882493E+02  0.00000000000E+00 0.  1.
         21    1    1    2  503  505  0.45104069430E+02 -0.93525305023E+01  0.23024592228E+02  0.51497366468E+02  0.00000000000E+00 0.  1.
         21    1    1    2  504  502 -0.10125699523E+03 -0.36291304549E+02  0.43626727885E+02  0.11607467103E+03  0.00000000000E+00 0.  1.
         21    1    1    2  505  501  0.58485788168E+01  0.61999049800E+02  0.25203924397E+03  0.25961869838E+03  0.00000000000E+00 0.  1.
         -1    1    1    2    0  504  0.50304346980E+02 -0.16355214749E+02  0.16308926827E+04  0.16317502759E+04  0.00000000000E+00 0. -1.
<scales pt_clust_3="46.06351" pt_clust_4="68.84798" pt_clust_5="14000.00000" pt_clust_6="53.38179"></scales>
<clustering>
<clus scale="   46.064">  2  3  1 -1</clus>
<clus scale="   53.382">  1  6  2 -1</clus>
<clus scale="   68.848">  2  4  1 -1</clus>
<clus scale="   46.064">  2  3  1 -1</clus>
</clustering>
</event>
<event>
 6    0  0.2839294E+002  0.9409629E+02  0.7546771E-02  0.1293225E+00
         21   -1    0    0  505  502  0.00000000000E+00  0.00000000000E+00  0.48339404212E+03  0.48339404212E+03  0.00000000000E+00 0. -1.
         -1   -1    0    0    0  501 -0.00000000000E+00 -0.00000000000E+00 -0.44235129158E+03  0.44235129158E+03  0.00000000000E+00 0. -1.
         21    1    1    2  503  501 -0.23417382893E+02 -0.30796611950E+02 -0.57803152259E+02  0.69555801629E+02  0.00000000000E+00 0. -1.
         21    1    1    2  504  502 -0.30439220281E+02 -0.30787381544E+02  0.14800406598E+02  0.45754355302E+02  0.00000000000E+00 0. -1.
         21    1    1    2  505  503  0.28248025193E+02  0.12596551908E+03  0.43446131050E+03  0.45323492059E+03  0.00000000000E+00 0. -1.
         -1    1    1    2    0  504  0.25608577980E+02 -0.64381525586E+02 -0.35041581429E+03  0.35720025617E+03  0.00000000000E+00 0. -1.
<scales pt_clust_3="38.68857" pt_clust_4="44.86292" pt_clust_5="94.09629" pt_clust_6="14000.00000"></scales>
<clustering>
<clus scale="   38.689">  2  3  1 -1</clus>
<clus scale="   44.863">  1  4  2 -1</clus>
<clus scale="   94.096">  1  5  2 -1</clus>
<clus scale="   44.863">  1  3  2 -1</clus>
</clustering>
</event>
<event>
 6    0  0.2839294E+002  0.8105475E+02  0.7546771E-02  0.1326085E+00
          2   -1    0    0  503    0 -0.00000000000E+00  0.00000000000E+00  0.14903868007E+04  0.14903868007E+04  0.00000000000E+00 0.  1.
         21   -1    0    0  504  502  0.00000000000E+00 -0.00000000000E+00 -0.20164089037E+03  0.20164089037E+03  0.00000000000E+00 0. -1.
         21    1    1    2  503  505  0.11126582944E+02  0.41356818980E+02  0.36226839670E+03  0.36479114377E+03  0.00000000000E+00 0.  1.
         21    1    1    2  504  501 -0.89216165465E+02 -0.59203055072E+02  0.17942170257E+03  0.20894179396E+03  0.00000000000E+00 0.  1.
         21    1    1    2  505  502  0.89861597083E+01  0.47528265950E+02 -0.18092090955E+03  0.18727536582E+03  0.00000000000E+00 0. -1.
          2    1    1    2  501    0  0.69103422813E+02 -0.29682029859E+02  0.92797672056E+03  0.93101938747E+03  0.00000000000E+00 0.  1.
<scales pt_clust_3="42.82741" pt_clust_4="81.05475" pt_clust_5="48.49072" pt_clust_6="14000.00000"></scales>
<clustering>
<clus scale="   42.827">  1  3  2 -1</clus>
<clus scale="   48.491">  2  5  1 -1</clus>
<clus scale="   81.055">  2  4  1 -1</clus>
<clus scale="   48.491">  2  3  1 -1</clus>
</clustering>
</event>
<event>
 6    0  0.2839294E+002  0.1506290E+03  0.7546771E-02  0.1199702E+00
          2   -1    0    0  505    0 -0.00000000000E+00  0.00000000000E+00  0.11602967619E+04  0.11602967619E+04  0.00000000000E+00 0.  1.
         21   -1    0    0  503  502  0.00000000000E+00 -0.00000000000E+00 -0.11503518602E+03  0.11503518602E+03  0.00000000000E+00 0.  1.
         21    1    1    2  503  504 -0.95305931304E+02  0.81557424815E+02 -0.54895418338E+02  0.13692458157E+03  0.00000000000E+00 0.  1.
         21    1    1    2  504  501  0.73578148513E+02 -0.10295448938E+03  0.65027487418E+03  0.66247323177E+03  0.00000000000E+00 0. -1.
         21    1    1    2  505  502  0.20545155792E+00  0.43335115185E+02  0.25176769144E+02  0.50118301277E+02  0.00000000000E+00 0. -1.
          2    1    1    2  501    0  0.21522331233E+02 -0.21938050621E+02  0.42470535092E+03  0.42581583332E+03  0.00000000000E+00 0.  1.
<scales pt_clust_3="14000.00000" pt_clust_4="150.62905" pt_clust_5="42.23173" pt_clust_6="30.73254"></scales>
<clustering>
<clus scale="   30.733">  1  6  2 -1</clus>
<clus scale="   42.232">  2  5  1 -1</clus>
<clus scale="  150.629">  1  4  2 -1</clus>
<clus scale="   42.232">  2  3  1 -1</clus>
</clustering>
</event>
<event>
 6    0  0.2839294E+002  0.1015177E+03  0.7546771E-02  0.1277136E+00
         21   -1    0    0  501  502  0.00000000000E+00  0.00000000000E+00  0.32902594113E+02  0.32902594113E+02  0.00000000000E+00 0. -1.
          1   -1    0    0  504    0 -0.00000000000E+00 -0.00000000000E+00 -0.33642788208E+04  0.33642788208E+04  0.00000000000E+00 0. -1.
         21    1    1    2  503  505 -0.54513029274E+02  0.18352786075E+02 -0.32879057996E+03  0.33378397294E+03  0.00000000000E+00 0.  1.
         21    1    1    2  504  503 -0.52559268881E+01  0.59372481857E+02 -0.96204026197E+03  0.96388494232E+03  0.00000000000E+00 0. -1.
         21    1    1    2  505  502  0.99407966730E+02 -0.63140795366E+02 -0.89260559187E+02  0.14777060369E+03  0.00000000000E+00 0. -1.
          1    1    1    2  501    0 -0.39639010567E+02 -0.14584472565E+02 -0.19512848255E+04  0.19517418959E+04  0.00000000000E+00 0. -1.
<scales pt_clust_3="14000.00000" pt_clust_4="59.03485" pt_clust_5="101.51772" pt_clust_6="42.23693"></scales>
<clustering>
<clus scale="   42.237">  2  6  1 -1</clus>
<clus scale="   59.035">  2  4  1 -1</clus>
<clus scale="  101.518">  1  5  2 -1</clus>
<clus scale="  101.518">  1  3  2 -1</clus>
</clustering>
</event>
<event>
 6    0  0.2839294E+002  0.8239179E+02  0.7546771E-02  0.1322398E+00
          2   -1    0    0  504    0 -0.00000000000E+00  0.00000000000E+00  0.13059351999E+04  0.13059351999E+04  0.00000000000E+00 0. -1.
         21   -1    0    0  503  502  0.00000000000E+00 -0.00000000000E+00 -0.21471314332E+02  0.21471314332E+02  0.00000000000E+00 0. -1.
         21    1    1    2  503  501 -0.80139327204E+02  0.31173334020E+02  0.29339880533E+03  0.30573999982E+03  0.00000000000E+00 0. -1.
         21    1    1    2  504  505  0.49657709729E+02  0.11631493148E+02  0.38023119976E+03  0.38363647511E+03  0.00000000000E+00 0. -1.
         21    1    1    2  505  502  0.31895579257E+02 -0.85527064540E+02  0.15267625916E+03  0.17788267722E+03  0.00000000000E+00 0. -1.
          2    1    1    2  501    0 -0.14139617829E+01  0.42722237373E+02  0.45815762128E+03  0.46014736204E+03  0.00000000000E+00 0. -1.
<scales pt_clust_3="82.39179" pt_clust_4="57.94676" pt_clust_5="14000.00000" pt_clust_6="42.74563"></scales>
<clustering>
<clus scale="   42.746">  1  6  2 -1</clus>
<clus scale="   57.947">  1  4  2 -1</clus>
<clus scale="   82.392">  1  3  2 -1</clus>
<clus scale="   82.392">  2  3  1 -1</clus>
</clustering>
</event>
<event>
 6    0  0.2839294E+002  0.1422006E+03  0.7546771E-02  0.1210398E+00
         21   -1    0    0  501  502  0.00000000000E+00  0.00000000000E+00  0.17942742100E+03  0.17942742100E+03  0.00000000000E+00 0.  1.
          1   -1    0    0  505    0 -0.00000000000E+00 -0.00000000000E+00 -0.21895082238E+04  0.21895082238E+04  0.00000000000E+00 0. -1.
         21    1    1    2  503  502 -0.10160256268E+03  0.10157739646E+03  0.14303940387E+03  0.20273460305E+03  0.00000000000E+00 0.  1.
         21    1    1    2  504  503  0.49131536954E+02 -0.31687963662E+02 -0.15939126731E+03  0.16977517798E+03  0.00000000000E+00 0. -1.
         21    1    1    2  505  504  0.17941397848E+02 -0.24192985696E+02 -0.25799642048E+03  0.25974862327E+03  0.00000000000E+00 0.  1.
          1    1    1    2  501    0  0.34529627876E+02 -0.45696447107E+02 -0.17357325189E+04  0.17366772405E+04  0.00000000000E+00 0. -1.
<scales pt_clust_3="14000.00000" pt_clust_4="60.87385" pt_clust_5="30.11967" pt_clust_6="142.20060"></scales>
<clustering>
<clus scale="   30.120">  2  5  1 -1</clus>
<clus scale="   60.874">  2  4  1 -1</clus>
<clus scale="  142.201">  2  6  1 -1</clus>
<clus scale="  142.201">  1  3  2 -1</clus>
</clustering>
</event>
<event>
 6    0  0.2839294E+002  0.1176488E+03  0.7546771E-02  0.1247027E+00
         -2   -1    0    0    0  501 -0.00000000000E+00  0.00000000000E+00  0.10325588245E+03  0.10325588245E+03  0.00000000000E+00 0. -1.
         21   -1    0    0  504  502  0.00000000000E+00 -0.00000000000E+00 -0.10019617212E+04  0.10019617212E+04  0.00000000000E+00 0. -1.
         21    1    1    2  503  502 -0.11305351931E+03 -0.13895928985E+03 -0.82497443758E+03  0.84419997935E+03  0.00000000000E+00 0. -1.
         21    1    1    2  504  501  0.69761068083E+02  0.39302355989E+02 -0.11403139963E+03  0.13933571656E+03  0.00000000000E+00 0. -1.
         21    1    1    2  505  503  0.12834738250E+02  0.41642452171E+02 -0.21173333056E+01  0.43626911753E+02  0.00000000000E+00 0.  1.
         -2    1    1    2    0  505  0.30457712973E+02  0.58014481694E+02  0.42417331764E+02  0.78054995995E+02  0.00000000000E+00 0. -1.
<scales pt_clust_3="111.64487" pt_clust_4="80.07048" pt_clust_5="30.25762" pt_clust_6="30.25762"></scales>
<clustering>
<clus scale="   30.258">  5  6 -1 -1</clus>
<clus scale="   80.070">  2  4  1 -1</clus>
<clus scale="  111.645">  2  3  1 -1</clus>
<clus scale="   80.070">  2  3  1 -1</clus>
</clustering>
</event>
<event>
 6    0  0.2839294E+002  0.5454614E+02  0.7546771E-02  0.1422257E+00
         21   -1    0    0  503  502  0.00000000000E+00  0.00000000000E+00  0.68519965066E+03  0.68519965066E+03  0.00000000000E+00 0. -1.
          2   -1    0    0  504    0 -0.00000000000E+00 -0.00000000000E+00 -0.79949541980E+03  0.79949541980E+03  0.00000000000E+00 0.  1.
         21    1    1    2  503  501  0.30300878540E+02  0.26144539637E+02  0.71220857392E+02  0.81695108304E+02  0.00000000000E+00 0.  1.
         21    1    1    2  504  505 -0.42111916423E+02  0.33319928500E+02 -0.17882158891E+02  0.56598610819E+02  0.00000000000E+00 0. -1.
         21    1    1    2  505  502 -0.61833799387E+02  0.17924838454E+02  0.58383624112E+03  0.58737507184E+03  0.00000000000E+00 0. -1.
          2    1    1    2  501    0  0.73644837271E+02 -0.77389306591E+02 -0.75147070876E+03  0.75902627949E+03  0.00000000000E+00 0.  1.
<scales pt_clust_3="40.02100" pt_clust_4="53.47429" pt_clust_5="54.54614" pt_clust_6="14000.00000"></scales>
<clustering>
<clus scale="   40.021">  1  3  2 -1</clus>
<clus scale="   53.474">  2  4  1 -1</clus>
<clus scale="   54.546">  1  5  2 -1</clus>
<clus scale="   40.021">  1  3  2 -1</clus>
</clustering>
</event>
<event>
 6    0  0.2839294E+002  0.1378062E+03  0.7546771E-02  0.1216312E+00
         21   -1    0    0  505  502  0.00000000000E+00  0.00000000000E+00  0.12905122196E+04  0.12905122196E+04  0.00000000000E+00 0. -1.
         -4   -1    0    0    0  501 -0.00000000000E+00 -0.00000000000E+00 -0.20986940725E+03  0.20986940725E+03  0.00000000000E+00 0. -1.
         21    1    1    2  503  502  0.12069775957E+02 -0.13887622690E+03  0.11447680718E+04  0.11532242731E+04  0.00000000000E+00 0. -1.
         21    1    1    2  504  503 -0.82727513336E+02  0.99425866937E+02 -0.29736422964E+02  0.13271623612E+03  0.00000000000E+00 0. -1.
         21    1    1    2  505  501  0.23344893639E+02  0.47808885988E+02  0.76735170014E+02  0.93375371247E+02  0.00000000000E+00 0. -1.
         -4    1    1    2    0  504  0.47312843740E+02 -0.83585260274E+01 -0.11112400647E+03  0.12106574641E+03  0.00000000000E+00 0. -1.
<scales pt_clust_3="137.80624" pt_clust_4="14000.00000" pt_clust_5="54.53374" pt_clust_6="48.04550"></scales>
<clustering>
<clus scale="   48.046">  2  6  1 -1</clus>
<clus scale="   54.534">  2  5  1 -1</clus>
<clus scale="  137.806">  1  3  2 -1</clus>
<clus scale="  137.806">  1  3  2 -1</clus>
</clustering>
</event>
<event>
 6    0  0.2839294E+002  0.9680839E+02  0.7546771E-02  0.1287154E+00
          2   -1    0    0  504    0 -0.00000000000E+00  0.00000000000E+00  0.13114916757E+04  0.13114916757E+04  0.00000000000E+00 0.  1.
         21   -1    0    0  501  502  0.00000000000E+00 -0.00000000000E+00 -0.10251044148E+03  0.10251044148E+03  0.00000000000E+00 0. -1.
         21    1    1    2  503  502  0.96954859746E+02 -0.25255151221E+02 -0.43792067266E+02  0.10934263874E+03  0.00000000000E+00 0. -1.
         21    1    1    2  504  505  0.38200908763E+02 -0.46667018220E+02  0.34991526290E+03  0.35507437422E+03  0.00000000000E+00 0.  1.
         21    1    1    2  505  503 -0.56924569885E+02  0.89792634257E+02  0.11111011779E+03  0.15378095493E+03  0.00000000000E+00 0.  1.
          2    1    1    2  501    0 -0.78231198624E+02 -0.17870464816E+02  0.79174792080E+03  0.79580414930E+03  0.00000000000E+00 0.  1.
<scales pt_clust_3="96.80839" pt_clust_4="60.30854" pt_clust_5="14000.00000" pt_clust_6="73.24354"></scales>
<clustering>
<clus scale="   60.309">  1  4  2 -1</clus>
<clus scale="   73.244">  1  6  2 -1</clus>
<clus scale="   96.808">  2  3  1 -1</clus>
<clus scale="   96.808">  2  3  1 -1</clus>
</clustering>
</event>
<event>
 6    0  0.2839294E+002  0.8859586E+02  0.7546771E-02  0.1306288E+00
         -2   -1    0    0    0  501 -0.00000000000E+00  0.00000000000E+00  0.56448835897E+02  0.56448835897E+02  0.00000000000E+00 0. -1.
         21   -1    0    0  504  502  0.00000000000E+00 -0.00000000000E+00 -0.69382151275E+03  0.69382151275E+03  0.00000000000E+00 0.  1.
         21    1    1    2  503  501 -0.22712444514E+02 -0.21356680135E+02 -0.46443132344E+02  0.55936816714E+02  0.00000000000E+00 0. -1.
         21    1    1    2  504  503  0.71073109525E+02  0.33606148980E+02 -0.19728765980E+03  0.21237509471E+03  0.00000000000E+00 0.  1.
         21    1    1    2  505  502 -0.10201413323E+03  0.82922664154E+01 -0.40971133183E+03  0.42230204888E+03  0.00000000000E+00 0.  1.
         -2    1    1    2    0  505  0.53653468214E+02 -0.20541735261E+02  0.16069447116E+02  0.59656388338E+02  0.00000000000E+00 0. -1.
<scales pt_clust_3="31.17632" pt_clust_4="14000.00000" pt_clust_5="88.59586" pt_clust_6="51.76527"></scales>
<clustering>
<clus scale="   31.176">  1  3  2 -1</clus>
<clus scale="   51.765">  1  6  2 -1</clus>
<clus scale="   88.596">  2  5  1 -1</clus>
<clus scale="   88.596">  2  3  1 -1</clus>
</clustering>
</event>
<event>
 6    0  0.2839294E+002  0.7728842E+02  0.7546771E-02  0.1336927E+00
         21   -1    0    0  503  502  0.00000000000E+00  0.00000000000E+00  0.14069006635E+03  0.14069006635E+03  0.00000000000E+00 0. -1.
         -3   -1    0    0    0  501 -0.00000000000E+00 -0.00000000000E+00 -0.36476242600E+03  0.36476242600E+03  0.00000000000E+00 0.  1.
         21    1    1    2  503  504  0.68854413035E+01  0.45977395837E+02 -0.23705845735E+02  0.52185221585E+02  0.00000000000E+00 0.  1.
         21    1    1    2  504  501  0.34112442672E+02 -0.45312748236E+01 -0.10796231009E+03  0.11331395147E+03  0.00000000000E+00 0. -1.
         21    1    1    2  505  502  0.60864786082E+02 -0.46773681901E+02  0.97678799983E+02  0.12423142706E+03  0.00000000000E+00 0. -1.
         -3    1    1    2    0  505 -0.10186267006E+03  0.53275608873E+01 -0.19008300381E+03  0.21572189224E+03  0.00000000000E+00 0.  1.
<scales pt_clust_3="46.85787" pt_clust_4="34.41208" pt_clust_5="77.28842" pt_clust_6="14000.00000"></scales>
<clustering>
<clus scale="   34.412">  2  4  1 -1</clus>
<clus scale="   46.858">  2  3  1 -1</clus>
<clus scale="   77.288">  1  5  2 -1</clus>
<clus scale="   77.288">  1  3  2 -1</clus>
</clustering>
</event>
<event>
 6    0  0.2839294E+002  0.2099684E+03  0.7546771E-02  0.1141591E+00
          4   -1    0    0  505    0 -0.00000000000E+00  0.00000000000E+00  0.10436536551E+03  0.10436536551E+03  0.00000000000E+00 0.  1.
         21   -1    0    0  503  502  0.00000000000E+00 -0.00000000000E+00 -0.87904074544E+03  0.87904074544E+03  0.00000000000E+00 0. -1.
         21    1    1    2  503  504  0.12018276165E+03  0.40790027397E+02 -0.28008052346E+03  0.30749442622E+03  0.00000000000E+00 0. -1.
         21    1    1    2  504  501  0.76402803161E+02  0.12781324275E+03 -0.25247670838E+03  0.29311789715E+03  0.00000000000E+00 0. -1.
         21    1    1    2  505  502 -0.41740676233E+02 -0.10089968585E+03 -0.16299431435E+03  0.19618913621E+03  0.00000000000E+00 0.  1.
          4    1    1    2  501    0 -0.15484488858E+03 -0.67703584293E+02 -0.79123833748E+02  0.18660465137E+03  0.00000000000E+00 0.  1.
<scales pt_clust_3="92.52831" pt_clust_4="92.52831" pt_clust_5="109.19263" pt_clust_6="184.50394"></scales>
<clustering>
<clus scale="   92.528">  3  4 -1 -1</clus>
<clus scale="  109.193">  2  5  1 -1</clus>
<clus scale="  184.504">  1  6  2 -1</clus>
<clus scale="  109.193">  2  3  1 -1</clus>
</clustering>
</event>
<event>
 6    0  0.2839294E+002  0.1765576E+03  0.7546771E-02  0.1171177E+00
         21   -1    0    0  504  502  0.00000000000E+00  0.00000000000E+00  0.11115411480E+03  0.11115411480E+03  0.00000000000E+00 0.  1.
          2   -1    0    0  503    0 -0.00000000000E+00 -0.00000000000E+00 -0.22300358028E+04  0.22300358028E+04  0.00000000000E+00 0. -1.
         21    1    1    2  503  502 -0.92528054790E+02  0.21089044855E+03 -0.45143567283E+03  0.50678436135E+03  0.00000000000E+00 0.  1.
         21    1    1    2  504  505  0.43796207328E+02  0.56610015442E+02 -0.19357896105E+02  0.74145328688E+02  0.00000000000E+00 0.  1.
         21    1    1    2  505  501  0.72976933026E+02 -0.16019443280E+03 -0.88922560493E+02  0.19721843427E+03  0.00000000000E+00 0.  1.
          2    1    1    2  501    0 -0.24245085564E+02 -0.10730603119E+03 -0.15591655586E+04  0.15630417933E+04  0.00000000000E+00 0. -1.
<scales pt_clust_3="14000.00000" pt_clust_4="71.57375" pt_clust_5="176.55764" pt_clust_6="108.51218"></scales>
<clustering>
<clus scale="   71.574">  1  4  2 -1</clus>
<clus scale="  108.512">  2  6  1 -1</clus>
<clus scale="  176.558">  1  5  2 -1</clus>
<clus scale="   71.574">  1  3  2 -1</clus>
</clustering>
</event>
<event>
 6    0  0.2839294E+002  0.2710834E+03  0.7546771E-02  0.1100661E+00
         21   -1    0    0  503  502  0.00000000000E+00  0.00000000000E+00  0.54106693134E+02  0.54106693134E+02  0.00000000000E+00 0. -1.
          2   -1    0    0  504    0 -0.00000000000E+00 -0.00000000000E+00 -0.43405862818E+04  0.43405862818E+04  0.00000000000E+00 0. -1.
         21    1    1    2  503  501 -0.77157718547E+02 -0.68245611371E+02 -0.29609972668E+03  0.31350570193E+03  0.00000000000E+00 0. -1.
         21    1    1    2  504  505  0.28121062348E+03  0.16091783531E+03 -0.81228929289E+03  0.87452150335E+03  0.00000000000E+00 0. -1.
         21    1    1    2  505  502  0.53732090255E+02 -0.37061121116E+02 -0.11491651917E+03  0.13216077557E+03  0.00000000000E+00 0. -1.
          2    1    1    2  501    0 -0.25778499518E+03 -0.55611102828E+02 -0.30631740499E+04  0.30745049940E+04  0.00000000000E+00 0. -1.
<scales pt_clust_3="100.73793" pt_clust_4="14000.00000" pt_clust_5="65.27376" pt_clust_6="271.08338"></scales>
<clustering>
<clus scale="   65.274">  1  5  2 -1</clus>
<clus scale="  100.738">  1  3  2 -1</clus>
<clus scale="  271.083">  2  6  1 -1</clus>
<clus scale="   65.274">  1  3  2 -1</clus>
</clustering>
</event>
<event>
 6    0  0.2839294E+002  0.7486920E+02  0.7546771E-02  0.1344277E+00
         21   -1    0    0  501  502  0.00000000000E+00  0.00000000000E+00  0.32173463085E+03  0.32173463085E+03  0.00000000000E+00 0. -1.
          2   -1    0    0  504    0 -0.00000000000E+00 -0.00000000000E+00 -0.45246921631E+03  0.45246921631E+03  0.00000000000E+00 0.  1.
         21    1    1    2  503  505 -0.98906236073E+00 -0.67400805994E+02  0.15579990075E+03  0.16975704983E+03  0.00000000000E+00 0. -1.
         21    1    1    2  504  503  0.30924496283E+02  0.91306016080E+02 -0.84775401669E+02  0.12837438129E+03  0.00000000000E+00 0. -1.
         21    1    1    2  505  502  0.29437295906E+02  0.19496400031E+02  0.13079821414E+03  0.13548002371E+03  0.00000000000E+00 0. -1.
          2    1    1    2  501    0 -0.59372729828E+02 -0.43401610117E+02 -0.33255729868E+03  0.34059239233E+03  0.00000000000E+00 0.  1.
<scales pt_clust_3="56.15979" pt_clust_4="14000.00000" pt_clust_5="35.30813" pt_clust_6="74.86920"></scales>
<clustering>
<clus scale="   35.308">  1  5  2 -1</clus>
<clus scale="   56.160">  1  3  2 -1</clus>
<clus scale="   74.869">  2  6  1 -1</clus>
<clus scale="   35.308">  1  3  2 -1</clus>
</clustering>
</event>
<event>
 6    0  0.2839294E+002  0.1607758E+03  0.7546771E-02  0.1187824E+00
         21   -1    0    0  503  502  0.00000000000E+00  0.00000000000E+00  0.47084791279E+03  0.47084791279E+03  0.00000000000E+00 0.  1.
          2   -1    0    0  505    0 -0.00000000000E+00 -0.00000000000E+00 -0.47363647735E+03  0.47363647735E+03  0.00000000000E+00 0. -1.
         21    1    1    2  503  504  0.32322840282E+02  0.35972508782E+02  0.16075040070E+03  0.16786744389E+03  0.00000000000E+00 0.  1.
         21    1    1    2  504  501 -0.32225364500E+02  0.73528159894E+02 -0.19684025018E+03  0.21258162787E+03  0.00000000000E+00 0. -1.
         21    1    1    2  505  502 -0.86093385861E+00 -0.18816436398E+03  0.26178159856E+03  0.32239133739E+03  0.00000000000E+00 0.  1.
          2    1    1    2  501    0  0.76345807674E+00  0.78663695303E+02 -0.22848031365E+03  0.24164398100E+03  0.00000000000E+00 0. -1.
<scales pt_clust_3="48.36101" pt_clust_4="35.29274" pt_clust_5="156.77295" pt_clust_6="35.29274"></scales>
<clustering>
<clus scale="   35.293">  4  6 -1 -1</clus>
<clus scale="   48.361">  1  3  2 -1</clus>
<clus scale="  156.773">  1  5  2 -1</clus>
<clus scale="   48.361">  1  3  2 -1</clus>
</clustering>
</event>
<event>
 6    0  0.2839294E+002  0.9853512E+02  0.7546771E-02  0.1283407E+00
         21   -1    0    0  503  502  0.00000000000E+00  0.00000000000E+00  0.83636416285E+02  0.83636416285E+02  0.00000000000E+00 0. -1.
          2   -1    0    0  505    0 -0.00000000000E+00 -0.00000000000E+00 -0.42213337210E+03  0.42213337210E+03  0.00000000000E+00 0. -1.
         21    1    1    2  503  504  0.84199549137E+01 -0.50474736903E+02 -0.37069989191E+02  0.63188438854E+02  0.00000000000E+00 0. -1.
         21    1    1    2  504  501  0.26699217238E+02 -0.20114119053E+02 -0.10287861955E+03  0.10817317757E+03  0.00000000000E+00 0. -1.
         21    1    1    2  505  502 -0.27902818488E+02  0.13058342685E+03 -0.71777741051E+01  0.13372404080E+03  0.00000000000E+00 0. -1.
          2    1    1    2  501    0 -0.72163536642E+01 -0.59994570896E+02 -0.19137057297E+03  0.20068413115E+03  0.00000000000E+00 0. -1.
<scales pt_clust_3="51.17221" pt_clust_4="33.37257" pt_clust_5="87.72630" pt_clust_6="33.37257"></scales>
<clustering>
<clus scale="   33.373">  4  6 -1 -1</clus>
<clus scale="   51.172">  1  3  2 -1</clus>
<clus scale="   87.726">  1  5  2 -1</clus>
<clus scale="   51.172">  1  3  2 -1</clus>
</clustering>
</event>
<event>
 6    0  0.2839294E+002  0.1151974E+03  0.7546771E-02  0.1251237E+00
          2   -1    0    0  504    0 -0.00000000000E+00  0.00000000000E+00  0.31854749777E+04  0.31854749777E+04  0.00000000000E+00 0. -1.
         21   -1    0    0  505  502  0.00000000000E+00 -0.00000000000E+00 -0.18438235209E+03  0.18438235209E+03  0.00000000000E+00 0. -1.
         21    1    1    2  503  502 -0.11800154859E+03  0.78533236540E+02 -0.11877134370E+03  0.18492827473E+03  0.00000000000E+00 0. -1.
         21    1    1    2  504  503  0.50349169504E+02 -0.52530748114E+01  0.10772606920E+04  0.10784494574E+04  0.00000000000E+00 0. -1.
         21    1    1    2  505  501  0.64777215839E+02 -0.42384598006E+02  0.15262955927E+02  0.78901835616E+02  0.00000000000E+00 0. -1.
          2    1    1    2  501    0  0.28751632511E+01 -0.30895563722E+02  0.20273403214E+04  0.20275777621E+04  0.00000000000E+00 0. -1.
<scales pt_clust_3="115.19740" pt_clust_4="62.99493" pt_clust_5="14000.00000" pt_clust_6="31.02906"></scales>
<clustering>
<clus scale="   31.029">  1  6  2 -1</clus>
<clus scale="   62.995">  1  4  2 -1</clus>
<clus scale="  115.197">  2  3  1 -1</clus>
<clus scale="  115.197">  2  3  1 -1</clus>
</clustering>
</event>
<event>
 6    0  0.2839294E+002  0.1285175E+03  0.7546771E-02  0.1229672E+00
         21   -1    0    0  504  502  0.00000000000E+00  0.00000000000E+00  0.22741933566E+03  0.22741933566E+03  0.00000000000E+00 0.  1.
          1   -1    0    0  505    0 -0.00000000000E+00 -0.00000000000E+00 -0.42665267011E+03  0.42665267011E+03  0.00000000000E+00 0.  1.
         21    1    1    2  503  502  0.60021198253E+02 -0.74877434137E+02  0.16660429496E+03  0.19226587186E+03  0.00000000000E+00 0.  1.
         21    1    1    2  504  501  0.23879214498E+02 -0.25919896765E+02  0.11178362883E+02  0.36973148772E+02  0.00000000000E+00 0. -1.
         21    1    1    2  505  503 -0.19731463927E+02 -0.34677475364E+02 -0.42654284205E+02  0.58405872371E+02  0.00000000000E+00 0.  1.
          1    1    1    2  501    0 -0.64168948824E+02  0.13547480627E+03 -0.33436170810E+03  0.36642711276E+03  0.00000000000E+00 0.  1.
<scales pt_clust_3="14000.00000" pt_clust_4="35.24284" pt_clust_5="40.33422" pt_clust_6="128.51749"></scales>
<clustering>
<clus scale="   35.243">  1  4  2 -1</clus>
<clus scale="   40.334">  2  5  1 -1</clus>
<clus scale="  128.517">  2  6  1 -1</clus>
<clus scale="   35.243">  1  3  2 -1</clus>
</clustering>
</event>
<event>
 6    0  0.2839294E+002  0.1686211E+03  0.7546771E-02  0.1179293E+00
          1   -1    0    0  504    0 -0.00000000000E+00  0.00000000000E+00  0.34578127328E+03  0.34578127328E+03  0.00000000000E+00 0.  1.
         21   -1    0    0  505  502  0.00000000000E+00 -0.00000000000E+00 -0.93026586145E+03  0.93026586145E+03  0.00000000000E+00 0.  1.
         21    1    1    2  503  501 -0.51874559258E+02 -0.33184591117E+02  0.60245240179E+02  0.86149149445E+02  0.00000000000E+00 0. -1.
         21    1    1    2  504  502  0.13627607260E+03  0.24745115444E+02 -0.44836980792E+03  0.46927494430E+03  0.00000000000E+00 0.  1.
         21    1    1    2  505  503  0.71974521284E+01  0.29814932433E+02 -0.44951426215E+03  0.45055943602E+03  0.00000000000E+00 0.  1.
          1    1    1    2  501    0 -0.91598965469E+02 -0.21375456760E+02  0.25315424171E+03  0.27006360496E+03  0.00000000000E+00 0.  1.
<scales pt_clust_3="57.61677" pt_clust_4="152.72929" pt_clust_5="30.67138" pt_clust_6="57.61677"></scales>
<clustering>
<clus scale="   30.671">  2  5  1 -1</clus>
<clus scale="   57.617">  3  6 -1 -1</clus>
<clus scale="  152.729">  2  4  1 -1</clus>
<clus scale="   30.671">  2  3  1 -1</clus>
</clustering>
</event>
<event>
 6    0  0.2839294E+002  0.1083833E+03  0.7546771E-02  0.1263593E+00
         21   -1    0    0  501  502  0.00000000000E+00  0.00000000000E+00  0.18955038913E+03  0.18955038913E+03  0.00000000000E+00 0.  1.
          4   -1    0    0  503    0 -0.00000000000E+00 -0.00000000000E+00 -0.39020653802E+03  0.39020653802E+03  0.00000000000E+00 0.  1.
         21    1    1    2  503  504  0.39417678750E+01 -0.52152410271E+02 -0.14312684387E+01  0.52320741207E+02  0.00000000000E+00 0.  1.
         21    1    1    2  504  505  0.50737121647E+02 -0.64433580476E+02 -0.49280096155E+01  0.82159765608E+02  0.00000000000E+00 0.  1.
         21    1    1    2  505  502  0.10776790765E+02  0.42755910315E+02  0.11365268096E+03  0.12190627127E+03  0.00000000000E+00 0.  1.
          4    1    1    2  501    0 -0.65455680287E+02  0.73830080432E+02 -0.30794955179E+03  0.32337014907E+03  0.00000000000E+00 0.  1.
<scales pt_clust_3="30.53966" pt_clust_4="30.53966" pt_clust_5="44.09316" pt_clust_6="101.41224"></scales>
<clustering>
<clus scale="   30.540">  3  4 -1 -1</clus>
<clus scale="   44.093">  1  5  2 -1</clus>
<clus scale="  101.412">  2  6  1 -1</clus>
<clus scale="   44.093">  1  3  2 -1</clus>
</clustering>
</event>
<event>
 6    0  0.2839294E+002  0.7945515E+02  0.7546771E-02  0.1330605E+00
         21   -1    0    0  504  502  0.00000000000E+00  0.00000000000E+00  0.16393709764E+03  0.16393709764E+03  0.00000000000E+00 0.  1.
          2   -1    0    0  505    0 -0.00000000000E+00 -0.00000000000E+00 -0.40527434169E+03  0.40527434169E+03  0.00000000000E+00 0. -1.
         21    1    1    2  503  502 -0.75451906486E+02 -0.10595121338E+03  0.21458024690E+02  0.13182980177E+03  0.00000000000E+00 0.  1.
         21    1    1    2  504  501  0.14691116338E+02  0.56965814987E+02  0.68439730135E+02  0.90249263916E+02  0.00000000000E+00 0.  1.
         21    1    1    2  505  503  0.34814328261E+02 -0.42870709892E+01 -0.60008389746E+02  0.69508440278E+02  0.00000000000E+00 0.  1.
          2    1    1    2  501    0  0.25946461886E+02  0.53272469386E+02 -0.27122660913E+03  0.27762393337E+03  0.00000000000E+00 0. -1.
<scales pt_clust_3="79.45515" pt_clust_4="58.98569" pt_clust_5="35.07729" pt_clust_6="14000.00000"></scales>
<clustering>
<clus scale="   35.077">  2  5  1 -1</clus>
<clus scale="   58.986">  1  4  2 -1</clus>
<clus scale="   79.455">  1  3  2 -1</clus>
<clus scale="   58.986">  1  3  2 -1</clus>
</clustering>
</event>
<event>
 6    0  0.2839294E+002  0.1149665E+03  0.7546771E-02  0.1251640E+00
          2   -1    0    0  504    0 -0.00000000000E+00  0.00000000000E+00  0.34664301411E+04  0.34664301411E+04  0.00000000000E+00 0.  1.
         21   -1    0    0  505  502  0.00000000000E+00 -0.00000000000E+00 -0.75048109873E+01  0.75048109873E+01  0.00000000000E+00 0.  1.
         21    1    1    2  503  502  0.64398799984E+02  0.10626360082E+03  0.11481839129E+04  0.11548876379E+04  0.00000000000E+00 0.  1.
         21    1    1    2  504  503 -0.58270978042E+01 -0.11481734775E+03  0.17055131313E+04  0.17093835203E+04  0.00000000000E+00 0.  1.
         21    1    1    2  505  501 -0.25714861272E+02  0.24564195119E+02  0.24160178019E+03  0.24420498349E+03  0.00000000000E+00 0. -1.
          2    1    1    2  501    0 -0.32856840908E+02 -0.16010448191E+02  0.36362650567E+03  0.36545881036E+03  0.00000000000E+00 0.  1.
<scales pt_clust_3="114.96647" pt_clust_4="14000.00000" pt_clust_5="35.56197" pt_clust_6="38.68970"></scales>
<clustering>
<clus scale="   35.562">  2  5  1 -1</clus>
<clus scale="   38.690">  2  6  1 -1</clus>
<clus scale="  114.966">  2  3  1 -1</clus>
<clus scale="   35.562">  2  3  1 -1</clus>
</clustering>
</event>
<event>
 6    0  0.2839294E+002  0.1165601E+03  0.7546771E-02  0.1248882E+00
          1   -1    0    0  503    0 -0.00000000000E+00  0.00000000000E+00  0.53411128623E+02  0.53411128623E+02  0.00000000000E+00 0. -1.
         21   -1    0    0  505  502  0.00000000000E+00 -0.00000000000E+00 -0.15200228098E+04  0.15200228098E+04  0.00000000000E+00 0. -1.
         21    1    1    2  503  504 -0.44190220493E+02  0.18766674897E+02 -0.10695396144E+03  0.11723529136E+03  0.00000000000E+00 0. -1.
         21    1    1    2  504  502 -0.69401819161E+02  0.10028350584E+03 -0.69950491612E+02  0.14059326201E+03  0.00000000000E+00 0. -1.
         21    1    1    2  505  501  0.55453058138E+02 -0.10209911965E+03 -0.12096798255E+04  0.12152467042E+04  0.00000000000E+00 0. -1.
          1    1    1    2  501    0  0.58138981516E+02 -0.16951061089E+02 -0.80027402577E+02  0.10035868078E+03  0.00000000000E+00 0. -1.
<scales pt_clust_3="48.01004" pt_clust_4="14000.00000" pt_clust_5="116.56007" pt_clust_6="50.53312"></scales>
<clustering>
<clus scale="   48.010">  1  3  2 -1</clus>
<clus scale="   50.533">  1  6  2 -1</clus>
<clus scale="  116.560">  2  5  1 -1</clus>
<clus scale="  116.560">  2  3  1 -1</clus>
</clustering>
</event>
<event>
 6    0  0.2839294E+002  0.1413077E+03  0.7546771E-02  0.1211580E+00
          1   -1    0    0  504    0 -0.00000000000E+00  0.00000000000E+00  0.11259606203E+04  0.11259606203E+04  0.00000000000E+00 0. -1.
         21   -1    0    0  503  502  0.00000000000E+00 -0.00000000000E+00 -0.60523797277E+02  0.60523797277E+02  0.00000000000E+00 0. -1.
         21    1    1    2  503  505 -0.24518752694E+02 -0.15506220213E+03  0.10916888081E+03  0.19121532444E+03  0.00000000000E+00 0. -1.
         21    1    1    2  504  502  0.57135769842E+01  0.29565893930E+02  0.10937922755E+01  0.30132763354E+02  0.00000000000E+00 0.  1.
         21    1    1    2  505  501 -0.13981795798E+02  0.31208273110E+02  0.15302957389E+03  0.15680400955E+03  0.00000000000E+00 0. -1.
          1    1    1    2  501    0  0.32786971507E+02  0.94288035091E+02  0.80214457604E+03  0.80833232023E+03  0.00000000000E+00 0. -1.
<scales pt_clust_3="130.15506" pt_clust_4="30.11290" pt_clust_5="32.35716" pt_clust_6="32.35716"></scales>
<clustering>
<clus scale="   30.113">  2  4  1 -1</clus>
<clus scale="   32.357">  5  6 -1 -1</clus>
<clus scale="  130.155">  2  3  1 -1</clus>
<clus scale="   30.113">  2  3  1 -1</clus>
</clustering>
</event>
<event>
 6    0  0.2839294E+002  0.1257960E+03  0.7546771E-02  0.1233831E+00
         21   -1    0    0  504  502  0.00000000000E+00  0.00000000000E+00  0.15369470264E+03  0.15369470264E+03  0.00000000000E+00 0. -1.
          2   -1    0    0  503    0 -0.00000000000E+00 -0.00000000000E+00 -0.56951406343E+03  0.56951406343E+03  0.00000000000E+00 0.  1.
         21    1    1    2  503  502 -0.26263120545E+02  0.35571735039E+02  0.63040926628E+02  0.77001677025E+02  0.00000000000E+00 0. -1.
         21    1    1    2  504  505 -0.82942113781E+02 -0.11121251165E+03  0.70908340662E+01  0.13891687051E+03  0.00000000000E+00 0. -1.
         21    1    1    2  505  501  0.85114630258E+02  0.52407143084E+02 -0.25438628183E+03  0.27331920773E+03  0.00000000000E+00 0.  1.
          2    1    1    2  501    0  0.24090604068E+02  0.23233633526E+02 -0.23156483965E+03  0.23397101080E+03  0.00000000000E+00 0.  1.
<scales pt_clust_3="44.31269" pt_clust_4="14000.00000" pt_clust_5="125.79598" pt_clust_6="33.46878"></scales>
<clustering>
<clus scale="   33.469">  2  6  1 -1</clus>
<clus scale="   44.313">  1  3  2 -1</clus>
<clus scale="  125.796">  2  5  1 -1</clus>
<clus scale="   44.313">  1  3  2 -1</clus>
</clustering>
</event>
<event>
 6    0  0.2839294E+002  0.9652548E+02  0.7546771E-02  0.1287777E+00
         21   -1    0    0  503  502  0.00000000000E+00  0.00000000000E+00  0.46433190214E+03  0.46433190214E+03  0.00000000000E+00 0. -1.
          1   -1    0    0  504    0 -0.00000000000E+00 -0.00000000000E+00 -0.28342889102E+04  0.28342889102E+04  0.00000000000E+00 0. -1.
         21    1    1    2  503  501  0.70379971834E+02  0.63099894879E+01  0.44532001739E+03  0.45089142184E+03  0.00000000000E+00 0. -1.
         21    1    1    2  504  505  0.13568759337E+02 -0.36567380460E+02 -0.25372649541E+03  0.25670687372E+03  0.00000000000E+00 0. -1.
         21    1    1    2  505  502  0.16298353607E+02  0.36666341777E+02 -0.15537659909E+02  0.43028779033E+02  0.00000000000E+00 0. -1.
          1    1    1    2  501    0 -0.10024708478E+03 -0.64089508044E+01 -0.25460128701E+04  0.25479937377E+04  0.00000000000E+00 0. -1.
<scales pt_clust_3="14000.00000" pt_clust_4="39.00365" pt_clust_5="39.80990" pt_clust_6="96.52548"></scales>
<clustering>
<clus scale="   39.004">  2  4  1 -1</clus>
<clus scale="   39.810">  1  5  2 -1</clus>
<clus scale="   96.525">  2  6  1 -1</clus>
<clus scale="   39.810">  1  3  2 -1</clus>
</clustering>
</event>
<event>
 6    0  0.2839294E+002  0.1177605E+03  0.7546771E-02  0.1246838E+00
          2   -1    0    0  503    0 -0.00000000000E+00  0.00000000000E+00  0.82349125654E+03  0.82349125654E+03  0.00000000000E+00 0.  1.
         21   -1    0    0  504  502  0.00000000000E+00 -0.00000000000E+00 -0.86303605956E+02  0.86303605956E+02  0.00000000000E+00 0. -1.
         21    1    1    2  503  502 -0.24222486178E+01 -0.10034012141E+03 -0.85323945660E+01  0.10073137054E+03  0.00000000000E+00 0. -1.
         21    1    1    2  504  505  0.43346547956E+02 -0.47923061560E+01 -0.93806316952E+01  0.44608134561E+02  0.00000000000E+00 0. -1.
         21    1    1    2  505  501 -0.31300089181E+02  0.32374581909E+02  0.33138211058E+03  0.33442773860E+03  0.00000000000E+00 0.  1.
          2    1    1    2  501    0 -0.96242101571E+01  0.72757845659E+02  0.42371856627E+03  0.43002761880E+03  0.00000000000E+00 0.  1.
<scales pt_clust_3="111.26630" pt_clust_4="43.61066" pt_clust_5="30.20912" pt_clust_6="30.20912"></scales>
<clustering>
<clus scale="   30.209">  5  6 -1 -1</clus>
<clus scale="   43.611">  2  4  1 -1</clus>
<clus scale="  111.266">  2  3  1 -1</clus>
<clus scale="   43.611">  2  3  1 -1</clus>
</clustering>
</event>
<event>
 6    0  0.2839294E+002  0.1188334E+03  0.7546771E-02  0.1245034E+00
          4   -1    0    0  505    0 -0.00000000000E+00  0.00000000000E+00  0.13245860217E+03  0.13245860217E+03  0.00000000000E+00 0. -1.
         21   -1    0    0  504  502  0.00000000000E+00 -0.00000000000E+00 -0.83335317016E+03  0.83335317016E+03  0.00000000000E+00 0. -1.
         21    1    1    2  503  502  0.10744423067E+03  0.51838955668E+02 -0.25292011150E+03  0.27964284870E+03  0.00000000000E+00 0. -1.
         21    1    1    2  504  501 -0.12405268272E+03  0.93308412499E+01 -0.52555186392E+03  0.54007489699E+03  0.00000000000E+00 0. -1.
         21    1    1    2  505  503  0.21080171269E+02 -0.23424553330E+02 -0.22711178821E+02  0.38844316996E+02  0.00000000000E+00 0. -1.
          4    1    1    2  501    0 -0.44717192140E+01 -0.37745243588E+02  0.10028858625E+03  0.10724970964E+03  0.00000000000E+00 0. -1.
<scales pt_clust_3="14000.00000" pt_clust_4="118.83339" pt_clust_5="31.51322" pt_clust_6="58.76803"></scales>
<clustering>
<clus scale="   31.513">  1  5  2 -1</clus>
<clus scale="   58.768">  1  6  2 -1</clus>
<clus scale="  118.833">  2  4  1 -1</clus>
<clus scale="  118.833">  2  3  1 -1</clus>
</clustering>
</event>
<event>
 6    0  0.2839294E+002  0.1405099E+03  0.7546771E-02  0.1212645E+00
          2   -1    0    0  505    0 -0.00000000000E+00  0.00000000000E+00  0.21413874556E+03  0.21413874556E+03  0.00000000000E+00 0. -1.
         21   -1    0    0  503  502  0.00000000000E+00 -0.00000000000E+00 -0.34258150248E+03  0.34258150248E+03  0.00000000000E+00 0. -1.
         21    1    1    2  503  504 -0.14324042918E+03  0.12665244814E+02 -0.17348125908E+03  0.22533081509E+03  0.00000000000E+00 0. -1.
         21    1    1    2  504  501  0.56118479115E+02 -0.15088359496E+02  0.52262655301E+02  0.78155789482E+02  0.00000000000E+00 0. -1.
         21    1    1    2  505  502  0.16202204164E+02 -0.34135230864E+02 -0.11390923504E+03  0.12001266280E+03  0.00000000000E+00 0. -1.
          2    1    1    2  501    0  0.70919745904E+02  0.36558345546E+02  0.10668508190E+03  0.13322098066E+03  0.00000000000E+00 0. -1.
<scales pt_clust_3="130.10358" pt_clust_4="45.85381" pt_clust_5="37.78525" pt_clust_6="45.85381"></scales>
<clustering>
<clus scale="   37.785">  2  5  1 -1</clus>
<clus scale="   45.854">  4  6 -1 -1</clus>
<clus scale="  130.104">  2  3  1 -1</clus>
<clus scale="   37.785">  2  3  1 -1</clus>
</clustering>
</event>
<event>
 6    0  0.2839294E+002  0.1544935E+03  0.7546771E-02  0.1195058E+00
          2   -1    0    0  503    0 -0.00000000000E+00  0.00000000000E+00  0.22643609114E+04  0.22643609114E+04  0.00000000000E+00 0.  1.
         21   -1    0    0  504  502  0.00000000000E+00 -0.00000000000E+00 -0.43212498987E+02  0.43212498987E+02  0.00000000000E+00 0.  1.
         21    1    1    2  503  505  0.61113813409E+02 -0.89245771605E+02  0.42419164044E+02  0.11618559040E+03  0.00000000000E+00 0.  1.
         21    1    1    2  504  501  0.12981357867E+01  0.64778870785E+02  0.92161969885E+03  0.92389439686E+03  0.00000000000E+00 0.  1.
         21    1    1    2  505  502  0.57053527055E+01 -0.37091631929E+02  0.10104444146E+03  0.10778830808E+03  0.00000000000E+00 0.  1.
          2    1    1    2  501    0 -0.68117301901E+02  0.61558532750E+02  0.11560651080E+04  0.11597051150E+04  0.00000000000E+00 0.  1.
<scales pt_clust_3="140.29046" pt_clust_4="54.30501" pt_clust_5="37.52786" pt_clust_6="54.30501"></scales>
<clustering>
<clus scale="   37.528">  2  5  1 -1</clus>
<clus scale="   54.305">  4  6 -1 -1</clus>
<clus scale="  140.290">  2  3  1 -1</clus>
<clus scale="   37.528">  2  3  1 -1</clus>
</clustering>
</event>
<event>
 6    0  0.2839294E+002  0.7053566E+02  0.7546771E-02  0.1358281E+00
         -1   -1    0    0    0  501 -0.00000000000E+00  0.00000000000E+00  0.22223164301E+04  0.22223164301E+04  0.00000000000E+00 0.  1.
         21   -1    0    0  505  502  0.00000000000E+00 -0.00000000000E+00 -0.18904776543E+02  0.18904776543E+02  0.00000000000E+00 0.  1.
         21    1    1    2  503  501  0.52470161594E+02  0.37446775191E+02  0.13174943109E+04  0.13190703689E+04  0.00000000000E+00 0.  1.
         21    1    1    2  504  503  0.38501631089E+02  0.27816684280E+02  0.76217566957E+02  0.89806798371E+02  0.00000000000E+00 0.  1.
         21    1    1    2  505  504  0.81121665726E+01 -0.40880525351E+02  0.46871456098E+02  0.62721272279E+02  0.00000000000E+00 0.  1.
         -1    1    1    2    0  502 -0.99083959255E+02 -0.24382934120E+02  0.76282831961E+03  0.76962276711E+03  0.00000000000E+00 0.  1.
<scales pt_clust_3="70.53566" pt_clust_4="43.59447" pt_clust_5="41.67763" pt_clust_6="14000.00000"></scales>
<clustering>
<clus scale="   41.678">  2  5  1 -1</clus>
<clus scale="   43.594">  2  4  1 -1</clus>
<clus scale="   70.536">  1  3  2 -1</clus>
<clus scale="   41.678">  2  3  1 -1</clus>
</clustering>
</event>
<event>
 6    0  0.2839294E+002  0.1699977E+03  0.7546771E-02  0.1177850E+00
         -4   -1    0    0    0  501 -0.00000000000E+00  0.00000000000E+00  0.58211252780E+03  0.58211252780E+03  0.00000000000E+00 0.  1.
         21   -1    0    0  505  502  0.00000000000E+00 -0.00000000000E+00 -0.16831999082E+03  0.16831999082E+03  0.00000000000E+00 0. -1.
         21    1    1    2  503  502  0.31965422699E+02  0.76031541828E+02  0.15384006903E+03  0.17455472047E+03  0.00000000000E+00 0. -1.
         21    1    1    2  504  501 -0.30702437700E+02 -0.11790465003E+03 -0.51759993751E+01  0.12194645197E+03  0.00000000000E+00 0. -1.
         21    1    1    2  505  504 -0.68314485830E+02 -0.11563206691E+02 -0.75619637600E+02  0.10256171953E+03  0.00000000000E+00 0. -1.
         -4    1    1    2    0  503  0.67051500831E+02  0.53436314892E+02  0.34074810493E+03  0.35136962664E+03  0.00000000000E+00 0.  1.
<scales pt_clust_3="71.88219" pt_clust_4="153.25322" pt_clust_5="69.28619" pt_clust_6="71.88219"></scales>
<clustering>
<clus scale="   69.286">  2  5  1 -1</clus>
<clus scale="   71.882">  3  6 -1 -1</clus>
<clus scale="  153.253">  2  4  1 -1</clus>
<clus scale="   69.286">  2  3  1 -1</clus>
</clustering>
</event>
<event>
 6    0  0.2839294E+002  0.8321060E+02  0.7546771E-02  0.1320179E+00
          2   -1    0    0  504    0 -0.00000000000E+00  0.00000000000E+00  0.62220684376E+03  0.62220684376E+03  0.00000000000E+00 0.  1.
         21   -1    0    0  505  502  0.00000000000E+00 -0.00000000000E+00 -0.47556030936E+02  0.47556030936E+02  0.00000000000E+00 0.  1.
         21    1    1    2  503  502  0.59751264488E+02 -0.27210784550E+02  0.78230672175E+02  0.10213069310E+03  0.00000000000E+00 0.  1.
         21    1    1    2  504  503  0.80482018775E+02  0.79684322154E+00  0.26919691771E+03  0.28097147686E+03  0.00000000000E+00 0.  1.
         21    1    1    2  505  501 -0.53249526997E+02  0.55020202370E+02  0.65263506848E+02  0.10060844955E+03  0.00000000000E+00 0.  1.
          2    1    1    2  501    0 -0.86983756267E+02 -0.28606261041E+02  0.16195971610E+03  0.18605225520E+03  0.00000000000E+00 0.  1.
<scales pt_clust_3="65.65547" pt_clust_4="83.21060" pt_clust_5="47.75026" pt_clust_6="14000.00000"></scales>
<clustering>
<clus scale="   65.655">  2  3  1 -1</clus>
<clus scale="   47.750">  2  5  1 -1</clus>
<clus scale="   83.211">  1  4  2 -1</clus>
<clus scale="   65.655">  2  3  1 -1</clus>
</clustering>
</event>
<event>
 6    0  0.2839294E+002  0.1932875E+03  0.7546771E-02  0.1155529E+00
         -1   -1    0    0    0  501 -0.00000000000E+00  0.00000000000E+00  0.89237615551E+03  0.89237615551E+03  0.00000000000E+00 0. -1.
         21   -1    0    0  504  502  0.00000000000E+00 -0.00000000000E+00 -0.12072540988E+03  0.12072540988E+03  0.00000000000E+00 0. -1.
         21    1    1    2  503  501  0.12327250581E+03 -0.52200562388E+02  0.49400022743E+03  0.51181757893E+03  0.00000000000E+00 0. -1.
         21    1    1    2  504  503 -0.20045029483E+03 -0.99391507072E+02  0.20351904794E+03  0.30245494747E+03  0.00000000000E+00 0. -1.
         21    1    1    2  505  502  0.35268903426E+02  0.96332919376E+02  0.78340102789E+01  0.10288488043E+03  0.00000000000E+00 0. -1.
         -1    1    1    2    0  505  0.41908885593E+02  0.55259150084E+02  0.66297459985E+02  0.95944158551E+02  0.00000000000E+00 0. -1.
<scales pt_clust_3="133.86937" pt_clust_4="179.60827" pt_clust_5="58.72399" pt_clust_6="58.72399"></scales>
<clustering>
<clus scale="   58.724">  5  6 -1 -1</clus>
<clus scale="  133.869">  1  3  2 -1</clus>
<clus scale="  179.608">  1  4  2 -1</clus>
<clus scale="  193.288">  2  3  1 -1</clus>
</clustering>
</event>
<event>
 6    0  0.2839294E+002  0.1430016E+03  0.7546771E-02  0.1209346E+00
         21   -1    0    0  503  502  0.00000000000E+00  0.00000000000E+00  0.19432671957E+03  0.19432671957E+03  0.00000000000E+00 0. -1.
         -2   -1    0    0    0  501 -0.00000000000E+00 -0.00000000000E+00 -0.52244724597E+03  0.52244724597E+03  0.00000000000E+00 0.  1.
         21    1    1    2  503  505  0.22088012035E+00 -0.91990032596E+02  0.89329149664E+02  0.12822601867E+03  0.00000000000E+00 0. -1.
         21    1    1    2  504  501 -0.12261167519E+02 -0.69707058251E+02 -0.14578588477E+03  0.16205842896E+03  0.00000000000E+00 0. -1.
         21    1    1    2  505  504  0.13710017848E+03  0.18349539830E+02 -0.10672933528E+03  0.17471209335E+03  0.00000000000E+00 0. -1.
         -2    1    1    2    0  502 -0.12505989108E+03  0.14334755102E+03 -0.16493445601E+03  0.25177742456E+03  0.00000000000E+00 0.  1.
<scales pt_clust_3="95.66968" pt_clust_4="70.77719" pt_clust_5="143.00158" pt_clust_6="14000.00000"></scales>
<clustering>
<clus scale="   70.777">  2  4  1 -1</clus>
<clus scale="   95.670">  1  3  2 -1</clus>
<clus scale="  143.002">  2  5  1 -1</clus>
<clus scale="   95.670">  1  3  2 -1</clus>
</clustering>
</event>
<event>
 6    0  0.2839294E+002  0.1574457E+03  0.7546771E-02  0.1191611E+00
          2   -1    0    0  505    0 -0.00000000000E+00  0.00000000000E+00  0.96743869886E+03  0.96743869886E+03  0.00000000000E+00 0.  1.
         21   -1    0    0  503  502  0.00000000000E+00 -0.00000000000E+00 -0.43759410862E+03  0.43759410862E+03  0.00000000000E+00 0. -1.
         21    1    1    2  503  504  0.87332442442E+02  0.17283216546E+02 -0.27335967623E+03  0.28749117842E+03  0.00000000000E+00 0. -1.
         21    1    1    2  504  501 -0.61234320971E+02 -0.12675147930E+02  0.27542465246E+03  0.28243413502E+03  0.00000000000E+00 0.  1.
         21    1    1    2  505  502  0.18088342069E+02  0.75627569738E+02 -0.14049807924E+03  0.16058152974E+03  0.00000000000E+00 0. -1.
          2    1    1    2  501    0 -0.44186463540E+02 -0.80235638355E+02  0.66827769325E+03  0.67452596431E+03  0.00000000000E+00 0.  1.
<scales pt_clust_3="139.05604" pt_clust_4="61.01121" pt_clust_5="77.76064" pt_clust_6="61.01121"></scales>
<clustering>
<clus scale="   61.011">  4  6 -1 -1</clus>
<clus scale="   77.761">  2  5  1 -1</clus>
<clus scale="  139.056">  2  3  1 -1</clus>
<clus scale="   77.761">  2  3  1 -1</clus>
</clustering>
</event>
<event>
 6    0  0.2839294E+002  0.1443764E+03  0.7546771E-02  0.1207559E+00
         21   -1    0    0  505  502  0.00000000000E+00  0.00000000000E+00  0.10802628774E+03  0.10802628774E+03  0.00000000000E+00 0.  1.
          1   -1    0    0  503    0 -0.00000000000E+00 -0.00000000000E+00 -0.19385770779E+04  0.19385770779E+04  0.00000000000E+00 0. -1.
         21    1    1    2  503  502 -0.93082890259E+02  0.13879421937E+03 -0.29204041322E+02  0.16965003926E+03  0.00000000000E+00 0.  1.
         21    1    1    2  504  501  0.40955361511E+02  0.18575816723E+00 -0.67400945415E+02  0.78868647671E+02  0.00000000000E+00 0. -1.
         21    1    1    2  505  504  0.94481423177E+02 -0.45664083887E+00 -0.48089561487E+02  0.10601676174E+03  0.00000000000E+00 0.  1.
          1    1    1    2  501    0 -0.42353894429E+02 -0.13852333670E+03 -0.16858562420E+04  0.16920679170E+04  0.00000000000E+00 0. -1.
<scales pt_clust_3="143.29247" pt_clust_4="32.92836" pt_clust_5="144.37644" pt_clust_6="14000.00000"></scales>
<clustering>
<clus scale="   32.928">  4  5 -1 -1</clus>
<clus scale="  144.376">  1  4  2 -1</clus>
<clus scale="  143.292">  1  3  2 -1</clus>
<clus scale="  144.376">  1  3  2 -1</clus>
</clustering>
</event>
<event>
 6    0  0.2839294E+002  0.9326492E+02  0.7546771E-02  0.1295132E+00
          1   -1    0    0  503    0 -0.00000000000E+00  0.00000000000E+00  0.73966140726E+03  0.73966140726E+03  0.00000000000E+00 0.  1.
         21   -1    0    0  504  502  0.00000000000E+00 -0.00000000000E+00 -0.54095078840E+02  0.54095078840E+02  0.00000000000E+00 0.  1.
         21    1    1    2  503  505 -0.22469297957E+02  0.22947550202E+02  0.16698778899E+03  0.17004817283E+03  0.00000000000E+00 0. -1.
         21    1    1    2  504  501 -0.20728715909E+02 -0.99040234856E+02  0.11036901822E+03  0.14973298891E+03  0.00000000000E+00 0.  1.
         21    1    1    2  505  502 -0.32680141539E+02  0.20207765882E+02 -0.14364872173E+02  0.41020665590E+02  0.00000000000E+00 0.  1.
          1    1    1    2  501    0  0.75878155405E+02  0.55884918773E+02  0.42257439338E+03  0.43295465877E+03  0.00000000000E+00 0.  1.
<scales pt_clust_3="32.11634" pt_clust_4="93.26492" pt_clust_5="39.15124" pt_clust_6="14000.00000"></scales>
<clustering>
<clus scale="   32.116">  1  3  2 -1</clus>
<clus scale="   39.151">  2  5  1 -1</clus>
<clus scale="   93.265">  2  4  1 -1</clus>
<clus scale="   39.151">  2  3  1 -1</clus>
</clustering>
</event>
<event>
 6    0  0.2839294E+002  0.2292952E+03  0.7546771E-02  0.1127137E+00
          1   -1    0    0  505    0 -0.00000000000E+00  0.00000000000E+00  0.26063181147E+04  0.26063181147E+04  0.00000000000E+00 0. -1.
         21   -1    0    0  503  502  0.00000000000E+00 -0.00000000000E+00 -0.18915515235E+04  0.18915515235E+04  0.00000000000E+00 0. -1.
         21    1    1    2  503  504  0.77282356370E+01 -0.33190393698E+02 -0.13966294149E+04  0.13970451140E+04  0.00000000000E+00 0. -1.
         21    1    1    2  504  501  0.22252588720E+02 -0.33432685700E+02  0.36279947988E+02  0.54121685153E+02  0.00000000000E+00 0. -1.
         21    1    1    2  505  502  0.19139677431E+03  0.50006961722E+01 -0.46153103459E+03  0.49966851819E+03  0.00000000000E+00 0. -1.
          1    1    1    2  501    0 -0.22137759867E+03  0.61622383225E+02  0.25366470926E+04  0.25470343209E+04  0.00000000000E+00 0. -1.
<scales pt_clust_3="34.07826" pt_clust_4="40.73722" pt_clust_5="229.29516" pt_clust_6="14000.00000"></scales>
<clustering>
<clus scale="   34.078">  2  3  1 -1</clus>
<clus scale="   40.737">  2  4  1 -1</clus>
<clus scale="  229.295">  2  5  1 -1</clus>
<clus scale="   34.078">  2  3  1 -1</clus>
</clustering>
</event>
<event>
 6    0  0.2839294E+002  0.9634129E+02  0.7546771E-02  0.1288183E+00
          2   -1    0    0  505    0 -0.00000000000E+00  0.00000000000E+00  0.18488948172E+04  0.18488948172E+04  0.00000000000E+00 0.  1.
         21   -1    0    0  503  502  0.00000000000E+00 -0.00000000000E+00 -0.42367021410E+03  0.42367021410E+03  0.00000000000E+00 0. -1.
         21    1    1    2  503  504  0.10976300983E+02 -0.68504744191E+02 -0.40904860953E+03  0.41489052064E+03  0.00000000000E+00 0. -1.
         21    1    1    2  504  501 -0.32190453080E+02 -0.74716970340E+02  0.36808458785E+03  0.37696832060E+03  0.00000000000E+00 0.  1.
         21    1    1    2  505  502 -0.26784055116E+02  0.13143351205E+03  0.68825127610E+03  0.70120037988E+03  0.00000000000E+00 0.  1.
          2    1    1    2  501    0  0.47998207213E+02  0.11788202484E+02  0.77793734873E+03  0.77950581022E+03  0.00000000000E+00 0.  1.
<scales pt_clust_3="69.36761" pt_clust_4="96.34129" pt_clust_5="14000.00000" pt_clust_6="49.42459"></scales>
<clustering>
<clus scale="   49.425">  1  6  2 -1</clus>
<clus scale="   69.368">  2  3  1 -1</clus>
<clus scale="   96.341">  1  4  2 -1</clus>
<clus scale="   69.368">  2  3  1 -1</clus>
</clustering>
</event>
<event>
 6    0  0.2839294E+002  0.1261004E+03  0.7546771E-02  0.1233359E+00
         21   -1    0    0  503  502  0.00000000000E+00  0.00000000000E+00  0.35795685990E+04  0.35795685990E+04  0.00000000000E+00 0.  1.
          1   -1    0    0  505    0 -0.00000000000E+00 -0.00000000000E+00 -0.19240669101E+04  0.19240669101E+04  0.00000000000E+00 0.  1.
         21    1    1    2  503  501  0.17988231882E+03 -0.12743018035E+03 -0.22076465297E+03  0.31198258203E+03  0.00000000000E+00 0.  1.
         21    1    1    2  504  502 -0.85915418043E+02  0.37498968259E+02  0.35294356367E+04  0.35306803233E+04  0.00000000000E+00 0.  1.
         21    1    1    2  505  504 -0.54411289813E+02  0.21117995192E+02 -0.11590859731E+04  0.11605545447E+04  0.00000000000E+00 0.  1.
          1    1    1    2  501    0 -0.39555610960E+02  0.68813216901E+02 -0.49408332159E+03  0.50041805908E+03  0.00000000000E+00 0.  1.
<scales pt_clust_3="14000.00000" pt_clust_4="93.78986" pt_clust_5="58.36573" pt_clust_6="126.10040"></scales>
<clustering>
<clus scale="   58.366">  2  5  1 -1</clus>
<clus scale="   93.790">  1  4  2 -1</clus>
<clus scale="  126.100">  2  6  1 -1</clus>
<clus scale="   93.790">  1  3  2 -1</clus>
</clustering>
</event>
<event>
 6    0  0.2839294E+002  0.1188408E+03  0.7546771E-02  0.1245022E+00
         -3   -1    0    0    0  501 -0.00000000000E+00  0.00000000000E+00  0.90721822027E+03  0.90721822027E+03  0.00000000000E+00 0. -1.
         21   -1    0    0  503  502  0.00000000000E+00 -0.00000000000E+00 -0.23462979372E+03  0.23462979372E+03  0.00000000000E+00 0. -1.
         21    1    1    2  503  504  0.41106877195E+02 -0.11641261062E+03 -0.19417655803E+03  0.23010042797E+03  0.00000000000E+00 0. -1.
         21    1    1    2  504  501 -0.97309007506E+02  0.45995074313E+02  0.13944287249E+03  0.17615023273E+03  0.00000000000E+00 0.  1.
         21    1    1    2  505  502  0.44896910690E+02  0.29745439751E+02  0.21898413750E+03  0.22550959238E+03  0.00000000000E+00 0. -1.
         -3    1    1    2    0  505  0.11305219621E+02  0.40672096552E+02  0.50833797459E+03  0.51008776092E+03  0.00000000000E+00 0. -1.
<scales pt_clust_3="118.84084" pt_clust_4="14000.00000" pt_clust_5="73.30864" pt_clust_6="42.21407"></scales>
<clustering>
<clus scale="   42.214">  1  6  2 -1</clus>
<clus scale="   73.309">  1  5  2 -1</clus>
<clus scale="  118.841">  2  3  1 -1</clus>
<clus scale="  118.841">  2  3  1 -1</clus>
</clustering>
</event>
<event>
 6    0  0.2839294E+002  0.1199663E+03  0.7546771E-02  0.1243153E+00
         21   -1    0    0  503  502  0.00000000000E+00  0.00000000000E+00  0.50100766561E+02  0.50100766561E+02  0.00000000000E+00 0.  1.
          1   -1    0    0  505    0 -0.00000000000E+00 -0.00000000000E+00 -0.64470500048E+03  0.64470500048E+03  0.00000000000E+00 0.  1.
         21    1    1    2  503  501  0.19069332123E+02 -0.10562874718E+03 -0.15360403697E+03  0.18739069302E+03  0.00000000000E+00 0. -1.
         21    1    1    2  504  502 -0.57494515582E+02  0.12214847104E+03 -0.14903486716E+03  0.20109017860E+03  0.00000000000E+00 0.  1.
         21    1    1    2  505  504  0.96294155723E+01  0.33195363592E+02 -0.92350456834E+02  0.98606615832E+02  0.00000000000E+00 0.  1.
          1    1    1    2  501    0  0.28795767887E+02 -0.49715087459E+02 -0.19961487296E+03  0.20771827959E+03  0.00000000000E+00 0.  1.
<scales pt_clust_3="14000.00000" pt_clust_4="119.96628" pt_clust_5="34.56382" pt_clust_6="49.46476"></scales>
<clustering>
<clus scale="   34.564">  2  5  1 -1</clus>
<clus scale="   49.465">  2  6  1 -1</clus>
<clus scale="  119.966">  2  4  1 -1</clus>
<clus scale="  119.966">  1  3  2 -1</clus>
</clustering>
</event>
<event>
 6    0  0.2839294E+002  0.1019209E+03  0.7546771E-02  0.1276308E+00
         21   -1    0    0  504  502  0.00000000000E+00  0.00000000000E+00  0.23344263378E+02  0.23344263378E+02  0.00000000000E+00 0. -1.
          1   -1    0    0  505    0 -0.00000000000E+00 -0.00000000000E+00 -0.18233477446E+04  0.18233477446E+04  0.00000000000E+00 0. -1.
         21    1    1    2  503  502 -0.37927261135E+02 -0.84656851627E+02 -0.20968048831E+03  0.22928403094E+03  0.00000000000E+00 0. -1.
         21    1    1    2  504  501  0.46118670949E+02  0.11492248154E+03 -0.51638541384E+03  0.53102542708E+03  0.00000000000E+00 0. -1.
         21    1    1    2  505  503  0.43587155715E+02 -0.80592226134E+02 -0.62249566730E+03  0.62920251340E+03  0.00000000000E+00 0. -1.
          1    1    1    2  501    0 -0.51778565528E+02  0.50326596221E+02 -0.45144191177E+03  0.45718003657E+03  0.00000000000E+00 0. -1.
<scales pt_clust_3="101.92089" pt_clust_4="14000.00000" pt_clust_5="60.93264" pt_clust_6="72.20655"></scales>
<clustering>
<clus scale="   72.207">  2  6  1 -1</clus>
<clus scale="   60.933">  2  5  1 -1</clus>
<clus scale="  101.921">  1  3  2 -1</clus>
<clus scale="  101.921">  1  3  2 -1</clus>
</clustering>
</event>
<event>
 6    0  0.2839294E+002  0.1182436E+03  0.7546771E-02  0.1246023E+00
         21   -1    0    0  501  502  0.00000000000E+00  0.00000000000E+00  0.31845841168E+02  0.31845841168E+02  0.00000000000E+00 0. -1.
          2   -1    0    0  503    0 -0.00000000000E+00 -0.00000000000E+00 -0.20271896320E+04  0.20271896320E+04  0.00000000000E+00 0. -1.
         21    1    1    2  503  504  0.51549748754E+01  0.31962771030E+02 -0.60009718939E+03  0.60096990708E+03  0.00000000000E+00 0. -1.
         21    1    1    2  504  505  0.76480887393E+02 -0.81721975460E+01 -0.41034355084E+02  0.87177573070E+02  0.00000000000E+00 0. -1.
         21    1    1    2  505  502  0.45893963924E+02  0.26139335277E+02 -0.15230116893E+03  0.16119915270E+03  0.00000000000E+00 0. -1.
          2    1    1    2  501    0 -0.12752982619E+03 -0.49929908761E+02 -0.12019110774E+04  0.12096888403E+04  0.00000000000E+00 0. -1.
<scales pt_clust_3="32.37580" pt_clust_4="118.24363" pt_clust_5="55.11584" pt_clust_6="14000.00000"></scales>
<clustering>
<clus scale="   32.376">  2  3  1 -1</clus>
<clus scale="   55.116">  1  5  2 -1</clus>
<clus scale="  118.244">  1  4  2 -1</clus>
<clus scale="   55.116">  1  3  2 -1</clus>
</clustering>
</event>
<event>
 6    0  0.2839294E+002  0.2171654E+03  0.7546771E-02  0.1136014E+00
          2   -1    0    0  505    0 -0.00000000000E+00  0.00000000000E+00  0.15910612928E+04  0.15910612928E+04  0.00000000000E+00 0. -1.
         21   -1    0    0  503  502  0.00000000000E+00 -0.00000000000E+00 -0.30496875006E+03  0.30496875006E+03  0.00000000000E+00 0.  1.
         21    1    1    2  503  504  0.10640212792E+03 -0.45588787293E+02 -0.79983060332E+02  0.14070195554E+03  0.00000000000E+00 0.  1.
         21    1    1    2  504  501  0.10544684222E+03  0.11998339972E+03 -0.14883468612E+03  0.21832731513E+03  0.00000000000E+00 0.  1.
         21    1    1    2  505  502 -0.27750130786E+02 -0.32040768562E+02  0.88403531073E+02  0.98040118904E+02  0.00000000000E+00 0.  1.
          2    1    1    2  501    0 -0.18409883936E+03 -0.42353843864E+02  0.14265067581E+04  0.14389606533E+04  0.00000000000E+00 0. -1.
<scales pt_clust_3="115.49895" pt_clust_4="14000.00000" pt_clust_5="42.38727" pt_clust_6="217.16545"></scales>
<clustering>
<clus scale="   42.387">  1  5  2 -1</clus>
<clus scale="  115.499">  2  3  1 -1</clus>
<clus scale="  217.165">  1  6  2 -1</clus>
<clus scale="  115.499">  2  3  1 -1</clus>
</clustering>
</event>
<event>
 6    0  0.2839294E+002  0.1021549E+03  0.7546771E-02  0.1275829E+00
          1   -1    0    0  504    0 -0.00000000000E+00  0.00000000000E+00  0.10018815396E+04  0.10018815396E+04  0.00000000000E+00 0.  1.
         21   -1    0    0  503  502  0.00000000000E+00 -0.00000000000E+00 -0.59287996394E+02  0.59287996394E+02  0.00000000000E+00 0.  1.
         21    1    1    2  503  501 -0.33619989272E+02 -0.85972495260E-01 -0.24699003556E+02  0.41717524454E+02  0.00000000000E+00 0.  1.
         21    1    1    2  504  505  0.98269740477E+01 -0.36692601573E+02  0.16464899143E+03  0.16897398264E+03  0.00000000000E+00 0.  1.
         21    1    1    2  505  502 -0.72297319110E+02 -0.28123004811E+02  0.57998362730E+02  0.96858741626E+02  0.00000000000E+00 0.  1.
          1    1    1    2  501    0  0.96090334333E+02  0.64901578879E+02  0.74464519265E+03  0.75361928733E+03  0.00000000000E+00 0.  1.
<scales pt_clust_3="33.62010" pt_clust_4="37.36872" pt_clust_5="14000.00000" pt_clust_6="102.15494"></scales>
<clustering>
<clus scale="   33.620">  2  3  1 -1</clus>
<clus scale="   37.369">  1  4  2 -1</clus>
<clus scale="  102.155">  1  6  2 -1</clus>
<clus scale="   33.620">  2  3  1 -1</clus>
</clustering>
</event>
<event>
 6    0  0.2839294E+002  0.1662206E+03  0.7546771E-02  0.1181847E+00
         -3   -1    0    0    0  501 -0.00000000000E+00  0.00000000000E+00  0.13777376225E+04  0.13777376225E+04  0.00000000000E+00 0. -1.
         21   -1    0    0  505  502  0.00000000000E+00 -0.00000000000E+00 -0.14919429711E+03  0.14919429711E+03  0.00000000000E+00 0.  1.
         21    1    1    2  503  501 -0.11594803177E+03 -0.21119839495E+02  0.16278466838E+03  0.20096975382E+03  0.00000000000E+00 0. -1.
         21    1    1    2  504  502 -0.78809053772E+01 -0.37656530701E+02  0.11101503450E+02  0.40042057301E+02  0.00000000000E+00 0. -1.
         21    1    1    2  505  503 -0.48827259438E+02 -0.95248541127E+01 -0.10251409194E+03  0.11394719460E+03  0.00000000000E+00 0.  1.
         -3    1    1    2    0  504  0.17265619659E+03  0.68301224309E+02  0.11571712455E+04  0.11719729138E+04  0.00000000000E+00 0. -1.
<scales pt_clust_3="14000.00000" pt_clust_4="38.47237" pt_clust_5="68.00440" pt_clust_6="166.22060"></scales>
<clustering>
<clus scale="   38.472">  2  4  1 -1</clus>
<clus scale="   68.004">  2  5  1 -1</clus>
<clus scale="  166.221">  1  6  2 -1</clus>
<clus scale="   38.472">  2  3  1 -1</clus>
</clustering>
</event>
<event>
 6    0  0.2839294E+002  0.9074528E+02  0.7546771E-02  0.1301057E+00
          1   -1    0    0  505    0 -0.00000000000E+00  0.00000000000E+00  0.31379577806E+03  0.31379577806E+03  0.00000000000E+00 0.  1.
         21   -1    0    0  503  502  0.00000000000E+00 -0.00000000000E+00 -0.48246929813E+03  0.48246929813E+03  0.00000000000E+00 0.  1.
         21    1    1    2  503  501  0.51747185434E+02  0.12013459759E+03 -0.11847693668E+03  0.17648477913E+03  0.00000000000E+00 0.  1.
         21    1    1    2  504  502 -0.60862021726E+02 -0.28977010080E+02 -0.31222726399E+03  0.31942090912E+03  0.00000000000E+00 0.  1.
         21    1    1    2  505  504  0.60107683581E+02 -0.30062121882E+02  0.11681697004E+03  0.13476968980E+03  0.00000000000E+00 0.  1.
          1    1    1    2  501    0 -0.50992847290E+02 -0.61095465633E+02  0.14521371056E+03  0.16558969814E+03  0.00000000000E+00 0.  1.
<scales pt_clust_3="90.74528" pt_clust_4="66.62476" pt_clust_5="67.20614" pt_clust_6="14000.00000"></scales>
<clustering>
<clus scale="   67.206">  1  5  2 -1</clus>
<clus scale="   66.625">  2  4  1 -1</clus>
<clus scale="   90.745">  2  3  1 -1</clus>
<clus scale="   66.625">  2  3  1 -1</clus>
</clustering>
</event>
<event>
 6    0  0.2839294E+002  0.1378283E+03  0.7546771E-02  0.1216281E+00
         21   -1    0    0  505  502  0.00000000000E+00  0.00000000000E+00  0.47900185147E+02  0.47900185147E+02  0.00000000000E+00 0. -1.
         -3   -1    0    0    0  501 -0.00000000000E+00 -0.00000000000E+00 -0.79126053473E+03  0.79126053473E+03  0.00000000000E+00 0. -1.
         21    1    1    2  503  502  0.36300047681E+02 -0.13645955247E+02  0.43486118241E+01  0.39023274864E+02  0.00000000000E+00 0. -1.
         21    1    1    2  504  503 -0.39199978975E+02  0.85931020649E+02 -0.34129156046E+03  0.35411962372E+03  0.00000000000E+00 0.  1.
         21    1    1    2  505  501 -0.16732640249E+02 -0.11562408943E+03 -0.17953385196E+03  0.21419924208E+03  0.00000000000E+00 0. -1.
         -3    1    1    2    0  504  0.19632571542E+02  0.43339024032E+02 -0.22688354898E+03  0.23181857921E+03  0.00000000000E+00 0. -1.
<scales pt_clust_3="38.78022" pt_clust_4="43.09399" pt_clust_5="124.85847" pt_clust_6="43.09399"></scales>
<clustering>
<clus scale="   38.780">  1  3  2 -1</clus>
<clus scale="   43.094">  4  6 -1 -1</clus>
<clus scale="  124.858">  1  5  2 -1</clus>
<clus scale="   38.780">  1  3  2 -1</clus>
</clustering>
</event>
<event>
 6    0  0.2839294E+002  0.8543207E+02  0.7546771E-02  0.1314306E+00
          1   -1    0    0  504    0 -0.00000000000E+00  0.00000000000E+00  0.66818733606E+03  0.66818733606E+03  0.00000000000E+00 0. -1.
         21   -1    0    0  503  502  0.00000000000E+00 -0.00000000000E+00 -0.33856871832E+04  0.33856871832E+04  0.00000000000E+00 0.  1.
         21    1    1    2  503  501 -0.75077062320E+02  0.49414754879E+01 -0.31223683171E+04  0.31232747063E+04  0.00000000000E+00 0.  1.
         21    1    1    2  504  505  0.45559131149E+02 -0.11876579152E+03 -0.30972194742E+01  0.12724205451E+03  0.00000000000E+00 0.  1.
         21    1    1    2  505  502  0.23412953074E+02  0.67084256686E+02 -0.19035488003E+03  0.20318327741E+03  0.00000000000E+00 0.  1.
          1    1    1    2  501    0  0.61049780973E+01  0.46740059347E+02  0.59832056943E+03  0.60017448106E+03  0.00000000000E+00 0. -1.
<scales pt_clust_3="75.22028" pt_clust_4="85.43207" pt_clust_5="14000.00000" pt_clust_6="47.13708"></scales>
<clustering>
<clus scale="   47.137">  1  6  2 -1</clus>
<clus scale="   75.220">  2  3  1 -1</clus>
<clus scale="   85.432">  1  4  2 -1</clus>
<clus scale="   75.220">  2  3  1 -1</clus>
</clustering>
</event>
<event>
 6    0  0.1487467E+003  0.1081882E+03  0.7546771E-02  0.1263962E+00
         21   -1    0    0  504  502  0.00000000000E+00  0.00000000000E+00  0.97584348798E+03  0.97584348798E+03  0.00000000000E+00 0.  1.
          2   -1    0    0  505    0 -0.00000000000E+00 -0.00000000000E+00 -0.20670600145E+04  0.20670600145E+04  0.00000000000E+00 0. -1.
         21    1    1    2  503  502 -0.62539479384E+02 -0.51358426865E+02  0.93972803583E+03  0.94320605163E+03  0.00000000000E+00 0.  1.
         21    1    1    2  504  501 -0.39041315599E+02  0.13893573049E+02  0.13356250115E+02  0.43539006797E+02  0.00000000000E+00 0.  1.
         21    1    1    2  505  503 -0.16481348480E+00 -0.35365591132E+02 -0.75361379997E+02  0.83247160881E+02  0.00000000000E+00 0.  1.
          2    1    1    2  501    0  0.10174560847E+03  0.72830444949E+02 -0.19689394325E+04  0.19729112832E+04  0.00000000000E+00 0. -1.
<scales pt_clust_3="14000.00000" pt_clust_4="41.35172" pt_clust_5="35.36598" pt_clust_6="108.18824"></scales>
<clustering>
<clus scale="   35.366">  2  5  1 -1</clus>
<clus scale="   41.352">  1  4  2 -1</clus>
<clus scale="  108.188">  2  6  1 -1</clus>
<clus scale="   41.352">  1  3  2 -1</clus>
</clustering>
</event>
<event>
 6    0  0.2839294E+002  0.9336853E+02  0.7546771E-02  0.1294893E+00
          1   -1    0    0  503    0 -0.00000000000E+00  0.00000000000E+00  0.13828826810E+04  0.13828826810E+04  0.00000000000E+00 0. -1.
         21   -1    0    0  505  502  0.00000000000E+00 -0.00000000000E+00 -0.12615576504E+03  0.12615576504E+03  0.00000000000E+00 0. -1.
         21    1    1    2  503  504 -0.30683571790E+02 -0.61514994173E+02  0.36427895424E+03  0.37070841990E+03  0.00000000000E+00 0.  1.
         21    1    1    2  504  502  0.88213007604E+02 -0.32595476534E+02 -0.63353174368E+02  0.11339146574E+03  0.00000000000E+00 0. -1.
         21    1    1    2  505  501 -0.33170961319E+02  0.11991582755E+03  0.78916344994E+02  0.14733603727E+03  0.00000000000E+00 0. -1.
          1    1    1    2  501    0 -0.24358474494E+02 -0.25805356841E+02  0.87688479112E+03  0.87760252314E+03  0.00000000000E+00 0. -1.
<scales pt_clust_3="92.35557" pt_clust_4="93.36853" pt_clust_5="14000.00000" pt_clust_6="35.48594"></scales>
<clustering>
<clus scale="   35.486">  1  6  2 -1</clus>
<clus scale="   93.369">  2  4  1 -1</clus>
<clus scale="   92.356">  1  3  2 -1</clus>
<clus scale="   93.369">  2  3  1 -1</clus>
</clustering>
</event>
<event>
 6    0  0.2839294E+002  0.1152852E+03  0.7546771E-02  0.1251084E+00
         21   -1    0    0  505  502  0.00000000000E+00  0.00000000000E+00  0.16546612483E+03  0.16546612483E+03  0.00000000000E+00 0.  1.
         -4   -1    0    0    0  501 -0.00000000000E+00 -0.00000000000E+00 -0.10325451213E+04  0.10325451213E+04  0.00000000000E+00 0.  1.
         21    1    1    2  503  502  0.41640692338E+02 -0.49748921608E+01  0.97706622493E+02  0.10632629444E+03  0.00000000000E+00 0.  1.
         21    1    1    2  504  503 -0.13046190287E+03  0.13925230435E+02 -0.25890887055E+03  0.29025510055E+03  0.00000000000E+00 0. -1.
         21    1    1    2  505  501  0.50679284972E+01  0.72656802486E+02  0.12239785706E+02  0.73854635609E+02  0.00000000000E+00 0.  1.
         -4    1    1    2    0  504  0.83753282037E+02 -0.81607140761E+02 -0.71811653412E+03  0.72757521552E+03  0.00000000000E+00 0.  1.
<scales pt_clust_3="41.93682" pt_clust_4="14000.00000" pt_clust_5="76.87711" pt_clust_6="115.28524"></scales>
<clustering>
<clus scale="   41.937">  1  3  2 -1</clus>
<clus scale="   76.877">  1  5  2 -1</clus>
<clus scale="  115.285">  2  6  1 -1</clus>
<clus scale="   41.937">  1  3  2 -1</clus>
</clustering>
</event>
<event>
 6    0  0.2839294E+002  0.1188839E+03  0.7546771E-02  0.1244950E+00
         21   -1    0    0  504  502  0.00000000000E+00  0.00000000000E+00  0.18057657188E+03  0.18057657188E+03  0.00000000000E+00 0.  1.
          2   -1    0    0  503    0 -0.00000000000E+00 -0.00000000000E+00 -0.15884858388E+04  0.15884858388E+04  0.00000000000E+00 0.  1.
         21    1    1    2  503  502  0.74962012604E+02 -0.15646554174E+02 -0.17698274136E+03  0.19283933398E+03  0.00000000000E+00 0.  1.
         21    1    1    2  504  505  0.27711193847E+02 -0.36347067338E+02  0.14000097527E+03  0.14727285101E+03  0.00000000000E+00 0.  1.
         21    1    1    2  505  501 -0.16973374563E+03  0.53400035921E+02 -0.25463664102E+03  0.31064598370E+03  0.00000000000E+00 0.  1.
          2    1    1    2  501    0  0.67060539178E+02 -0.14064144082E+01 -0.11162908599E+04  0.11183042420E+04  0.00000000000E+00 0.  1.
<scales pt_clust_3="118.88391" pt_clust_4="45.70579" pt_clust_5="14000.00000" pt_clust_6="67.85808"></scales>
<clustering>
<clus scale="   45.706">  1  4  2 -1</clus>
<clus scale="   67.858">  2  6  1 -1</clus>
<clus scale="  118.884">  2  3  1 -1</clus>
<clus scale="   45.706">  1  3  2 -1</clus>
</clustering>
</event>
<event>
 6    0  0.2839294E+002  0.8935548E+02  0.7546771E-02  0.1304420E+00
         21   -1    0    0  503  502  0.00000000000E+00  0.00000000000E+00  0.16858097939E+03  0.16858097939E+03  0.00000000000E+00 0.  1.
         -1   -1    0    0    0  501 -0.00000000000E+00 -0.00000000000E+00 -0.21321430190E+03  0.21321430190E+03  0.00000000000E+00 0.  1.
         21    1    1    2  503  504 -0.76328480238E+02 -0.11032685383E+03  0.71893591893E+02  0.15220624207E+03  0.00000000000E+00 0.  1.
         21    1    1    2  504  501  0.59304891397E+02  0.15485804925E+02 -0.10089786022E+03  0.11805616670E+03  0.00000000000E+00 0.  1.
         21    1    1    2  505  502  0.49935851695E+01  0.37733923797E+02  0.20160506971E+02  0.43072391845E+02  0.00000000000E+00 0.  1.
         -1    1    1    2    0  505  0.12030003672E+02  0.57107125105E+02 -0.35789561154E+02  0.68460480671E+02  0.00000000000E+00 0.  1.
<scales pt_clust_3="14000.00000" pt_clust_4="62.23237" pt_clust_5="38.06291" pt_clust_6="89.35548"></scales>
<clustering>
<clus scale="   38.063">  1  5  2 -1</clus>
<clus scale="   62.232">  2  4  1 -1</clus>
<clus scale="   89.355">  2  6  1 -1</clus>
<clus scale="   38.063">  1  3  2 -1</clus>
</clustering>
</event>
<event>
 6    0  0.2839294E+002  0.6649341E+02  0.7546771E-02  0.1372440E+00
          3   -1    0    0  505    0 -0.00000000000E+00  0.00000000000E+00  0.54300975765E+03  0.54300975765E+03  0.00000000000E+00 0. -1.
         21   -1    0    0  504  502  0.00000000000E+00 -0.00000000000E+00 -0.79438552240E+03  0.79438552240E+03  0.00000000000E+00 0.  1.
         21    1    1    2  503  501  0.21616484378E+02  0.54942353980E+02  0.78472254635E+02  0.98203000999E+02  0.00000000000E+00 0.  1.
         21    1    1    2  504  503  0.37439733987E+01  0.64275776886E+02 -0.82764324465E+02  0.10485860115E+03  0.00000000000E+00 0.  1.
         21    1    1    2  505  502 -0.68857405167E+02 -0.89131667900E+02 -0.68451364191E+03  0.69371804245E+03  0.00000000000E+00 0.  1.
          3    1    1    2  501    0  0.43496947390E+02 -0.30086462967E+02  0.43742994698E+03  0.44061563545E+03  0.00000000000E+00 0. -1.
<scales pt_clust_3="66.49341" pt_clust_4="61.64965" pt_clust_5="14000.00000" pt_clust_6="52.88837"></scales>
<clustering>
<clus scale="   52.888">  1  6  2 -1</clus>
<clus scale="   61.650">  2  4  1 -1</clus>
<clus scale="   66.493">  1  3  2 -1</clus>
<clus scale="   61.650">  2  3  1 -1</clus>
</clustering>
</event>
<event>
 6    0  0.2839294E+002  0.1162948E+03  0.7546771E-02  0.1249338E+00
         21   -1    0    0  504  502  0.00000000000E+00  0.00000000000E+00  0.90641465930E+03  0.90641465930E+03  0.00000000000E+00 0.  1.
          4   -1    0    0  505    0 -0.00000000000E+00 -0.00000000000E+00 -0.30955383322E+04  0.30955383322E+04  0.00000000000E+00 0. -1.
         21    1    1    2  503  502  0.33849735682E+02  0.36804064313E+02  0.39845990372E+03  0.40158515738E+03  0.00000000000E+00 0.  1.
         21    1    1    2  504  501  0.73818168045E+02 -0.81753070306E+02  0.49221862629E+03  0.50439256785E+03  0.00000000000E+00 0.  1.
         21    1    1    2  505  503 -0.55676314356E+02 -0.44896461339E+02 -0.17144008383E+03  0.18576126229E+03  0.00000000000E+00 0. -1.
          4    1    1    2  501    0 -0.51991589372E+02  0.89845467332E+02 -0.29083621190E+04  0.29102140039E+04  0.00000000000E+00 0. -1.
<scales pt_clust_3="50.00344" pt_clust_4="116.29475" pt_clust_5="70.82383" pt_clust_6="14000.00000"></scales>
<clustering>
<clus scale="   50.003">  1  3  2 -1</clus>
<clus scale="   70.824">  2  5  1 -1</clus>
<clus scale="  116.295">  1  4  2 -1</clus>
<clus scale="   50.003">  1  3  2 -1</clus>
</clustering>
</event>
<event>
 6    0  0.2839294E+002  0.1320597E+03  0.7546771E-02  0.1224431E+00
         21   -1    0    0  503  502  0.00000000000E+00  0.00000000000E+00  0.23032097681E+03  0.23032097681E+03  0.00000000000E+00 0. -1.
          2   -1    0    0  504    0 -0.00000000000E+00 -0.00000000000E+00 -0.27555497792E+03  0.27555497792E+03  0.00000000000E+00 0. -1.
         21    1    1    2  503  501  0.77260399987E+02 -0.68130987122E+02 -0.18996507007E+03  0.21609657253E+03  0.00000000000E+00 0. -1.
         21    1    1    2  504  505  0.13487033252E+01  0.35199780457E+02 -0.18053256989E+02  0.39582365175E+02  0.00000000000E+00 0.  1.
         21    1    1    2  505  502 -0.10652559566E+03  0.50997606347E+02  0.17800891955E+03  0.21362498408E+03  0.00000000000E+00 0. -1.
          2    1    1    2  501    0  0.27916492352E+02 -0.18066399682E+02 -0.15224593603E+02  0.36572032936E+02  0.00000000000E+00 0. -1.
<scales pt_clust_3="32.37260" pt_clust_4="35.22561" pt_clust_5="119.13565" pt_clust_6="32.37260"></scales>
<clustering>
<clus scale="   32.373">  3  6 -1 -1</clus>
<clus scale="   35.226">  2  4  1 -1</clus>
<clus scale="  119.136">  1  5  2 -1</clus>
<clus scale="  119.136">  1  3  2 -1</clus>
</clustering>
</event>
<event>
 6    0  0.2839294E+002  0.1248702E+03  0.7546771E-02  0.1235272E+00
          2   -1    0    0  503    0 -0.00000000000E+00  0.00000000000E+00  0.13672962154E+04  0.13672962154E+04  0.00000000000E+00 0.  1.
         21   -1    0    0  505  502  0.00000000000E+00 -0.00000000000E+00 -0.85573758223E+02  0.85573758223E+02  0.00000000000E+00 0. -1.
         21    1    1    2  503  504  0.34502385897E+01  0.53467202519E+02  0.11175481593E+03  0.12393459878E+03  0.00000000000E+00 0.  1.
         21    1    1    2  504  502  0.34293759183E+02  0.64573010467E+02  0.41352749722E+03  0.41994133704E+03  0.00000000000E+00 0.  1.
         21    1    1    2  505  501  0.49250667586E+02 -0.12186545416E+03 -0.15325162762E+02  0.13233169609E+03  0.00000000000E+00 0. -1.
          2    1    1    2  501    0 -0.86994665359E+02  0.38252411741E+01  0.77176530679E+03  0.77666234171E+03  0.00000000000E+00 0.  1.
<scales pt_clust_3="53.57841" pt_clust_4="89.70555" pt_clust_5="124.87016" pt_clust_6="14000.00000"></scales>
<clustering>
<clus scale="   53.578">  1  3  2 -1</clus>
<clus scale="   89.706">  1  4  2 -1</clus>
<clus scale="  124.870">  2  5  1 -1</clus>
<clus scale="  124.870">  2  3  1 -1</clus>
</clustering>
</event>
<event>
 6    0  0.2839294E+002  0.6924049E+02  0.7546771E-02  0.1362695E+00
         21   -1    0    0  503  502  0.00000000000E+00  0.00000000000E+00  0.26459931188E+02  0.26459931188E+02  0.00000000000E+00 0. -1.
          2   -1    0    0  504    0 -0.00000000000E+00 -0.00000000000E+00 -0.47870326816E+04  0.47870326816E+04  0.00000000000E+00 0.  1.
         21    1    1    2  503  501  0.10149964063E+03 -0.14073801050E+02 -0.89546226365E+03  0.90130622684E+03  0.00000000000E+00 0. -1.
         21    1    1    2  504  505 -0.53275465438E+02  0.11905180087E+02 -0.45872781700E+03  0.46196452095E+03  0.00000000000E+00 0.  1.
         21    1    1    2  505  502  0.86839112582E+01 -0.31946889963E+02  0.89104797419E+01  0.34284263770E+02  0.00000000000E+00 0. -1.
          2    1    1    2  501    0 -0.56908086447E+02  0.34115510926E+02 -0.34152931495E+04  0.34159376012E+04  0.00000000000E+00 0.  1.
<scales pt_clust_3="14000.00000" pt_clust_4="50.40137" pt_clust_5="33.10610" pt_clust_6="69.24049"></scales>
<clustering>
<clus scale="   33.106">  1  5  2 -1</clus>
<clus scale="   50.401">  1  4  2 -1</clus>
<clus scale="   69.240">  2  6  1 -1</clus>
<clus scale="   33.106">  1  3  2 -1</clus>
</clustering>
</event>
<event>
 6    0  0.2839294E+002  0.1878258E+03  0.7546771E-02  0.1160437E+00
         21   -1    0    0  505  502  0.00000000000E+00  0.00000000000E+00  0.36497784826E+03  0.36497784826E+03  0.00000000000E+00 0. -1.
          2   -1    0    0  503    0 -0.00000000000E+00 -0.00000000000E+00 -0.45104812479E+03  0.45104812479E+03  0.00000000000E+00 0. -1.
         21    1    1    2  503  504 -0.50532642179E+01 -0.32485515729E+02 -0.13871752302E+02  0.35682905198E+02  0.00000000000E+00 0. -1.
         21    1    1    2  504  502  0.25361367819E+02  0.21429523121E+02 -0.60903853554E+01  0.33756721296E+02  0.00000000000E+00 0. -1.
         21    1    1    2  505  501 -0.18658826744E+03 -0.30561962684E+02  0.29297569771E+03  0.34868893667E+03  0.00000000000E+00 0. -1.
          2    1    1    2  501    0  0.16628016383E+03  0.41617955292E+02 -0.35908383660E+03  0.39789740988E+03  0.00000000000E+00 0. -1.
<scales pt_clust_3="32.87620" pt_clust_4="32.05822" pt_clust_5="187.82577" pt_clust_6="14000.00000"></scales>
<clustering>
<clus scale="   32.876">  2  3  1 -1</clus>
<clus scale="   32.058">  2  4  1 -1</clus>
<clus scale="  187.826">  1  5  2 -1</clus>
<clus scale="  187.826">  1  3  2 -1</clus>
</clustering>
</event>
<event>
 6    0  0.2839294E+002  0.1276947E+03  0.7546771E-02  0.1230917E+00
          2   -1    0    0  505    0 -0.00000000000E+00  0.00000000000E+00  0.29239268174E+03  0.29239268174E+03  0.00000000000E+00 0. -1.
         21   -1    0    0  503  502  0.00000000000E+00 -0.00000000000E+00 -0.15512405314E+03  0.15512405314E+03  0.00000000000E+00 0. -1.
         21    1    1    2  503  501  0.12881124759E+03 -0.21599159648E+02 -0.66160255513E+01  0.13077703544E+03  0.00000000000E+00 0. -1.
         21    1    1    2  504  502 -0.12477137278E+03 -0.51490397587E+02 -0.14267912818E+02  0.13573035712E+03  0.00000000000E+00 0. -1.
         21    1    1    2  505  504  0.65559267045E+01  0.33961505687E+02  0.27427584294E+02  0.44143362170E+02  0.00000000000E+00 0. -1.
          2    1    1    2  501    0 -0.10595801518E+02  0.39128051548E+02  0.13072498267E+03  0.13686598015E+03  0.00000000000E+00 0. -1.
<scales pt_clust_3="14000.00000" pt_clust_4="127.69473" pt_clust_5="34.58850" pt_clust_6="57.28706"></scales>
<clustering>
<clus scale="   34.588">  1  5  2 -1</clus>
<clus scale="   57.287">  1  6  2 -1</clus>
<clus scale="  127.695">  2  4  1 -1</clus>
<clus scale="  127.695">  2  3  1 -1</clus>
</clustering>
</event>
<event>
 6    0  0.2839294E+002  0.7054923E+02  0.7546771E-02  0.1358235E+00
         21   -1    0    0  501  502  0.00000000000E+00  0.00000000000E+00  0.36649572994E+03  0.36649572994E+03  0.00000000000E+00 0.  1.
          2   -1    0    0  504    0 -0.00000000000E+00 -0.00000000000E+00 -0.16710014464E+04  0.16710014464E+04  0.00000000000E+00 0. -1.
         21    1    1    2  503  502 -0.64499257757E+02  0.12314280008E+02  0.26407125085E+03  0.27211288332E+03  0.00000000000E+00 0.  1.
         21    1    1    2  504  505  0.22293669084E+02 -0.32001315012E+02 -0.13003664236E+03  0.13575942030E+03  0.00000000000E+00 0. -1.
         21    1    1    2  505  503  0.11366606667E+03 -0.20004383622E+00  0.60490526287E+02  0.12875992583E+03  0.00000000000E+00 0. -1.
          2    1    1    2  501    0 -0.71460477997E+02  0.19887078840E+02 -0.14990308512E+04  0.15008649469E+04  0.00000000000E+00 0. -1.
<scales pt_clust_3="70.54923" pt_clust_4="39.00118" pt_clust_5="14000.00000" pt_clust_6="50.99229"></scales>
<clustering>
<clus scale="   39.001">  2  4  1 -1</clus>
<clus scale="   50.992">  2  6  1 -1</clus>
<clus scale="   70.549">  1  3  2 -1</clus>
<clus scale="   70.549">  1  3  2 -1</clus>
</clustering>
</event>
<event>
 6    0  0.2839294E+002  0.7970503E+02  0.7546771E-02  0.1329891E+00
         -2   -1    0    0    0  501 -0.00000000000E+00  0.00000000000E+00  0.45134320533E+03  0.45134320533E+03  0.00000000000E+00 0.  1.
         21   -1    0    0  505  502  0.00000000000E+00 -0.00000000000E+00 -0.43444717603E+03  0.43444717603E+03  0.00000000000E+00 0.  1.
         21    1    1    2  503  501  0.18206646343E+02 -0.32661318318E+02  0.28114324352E+02  0.46783105060E+02  0.00000000000E+00 0. -1.
         21    1    1    2  504  502  0.46668303162E+02  0.56493945348E+02 -0.29682429685E+03  0.30573544051E+03  0.00000000000E+00 0.  1.
         21    1    1    2  505  503 -0.10317511278E+03 -0.94627279480E+02 -0.78411738493E+02  0.16046129332E+03  0.00000000000E+00 0. -1.
         -2    1    1    2    0  504  0.38300163277E+02  0.70794652449E+02  0.36401774030E+03  0.37281054247E+03  0.00000000000E+00 0.  1.
<scales pt_clust_3="37.39310" pt_clust_4="14000.00000" pt_clust_5="79.70503" pt_clust_6="68.64164"></scales>
<clustering>
<clus scale="   37.393">  1  3  2 -1</clus>
<clus scale="   68.642">  1  6  2 -1</clus>
<clus scale="   79.705">  1  5  2 -1</clus>
<clus scale="   79.705">  2  3  1 -1</clus>
</clustering>
</event>
<event>
 6    0  0.2839294E+002  0.2390487E+03  0.7546771E-02  0.1120428E+00
          4   -1    0    0  503    0 -0.00000000000E+00  0.00000000000E+00  0.29821714736E+04  0.29821714736E+04  0.00000000000E+00 0. -1.
         21   -1    0    0  501  502  0.00000000000E+00 -0.00000000000E+00 -0.18618736563E+03  0.18618736563E+03  0.00000000000E+00 0.  1.
         21    1    1    2  503  504 -0.84083657606E+02  0.10786501441E+03  0.74824666235E+03  0.76064314269E+03  0.00000000000E+00 0. -1.
         21    1    1    2  504  505  0.22952677610E+03 -0.16524695376E+02  0.20530854461E+03  0.30839456058E+03  0.00000000000E+00 0.  1.
         21    1    1    2  505  502  0.17138980519E+02  0.77110057754E+02 -0.10860383458E+03  0.13429258559E+03  0.00000000000E+00 0.  1.
          4    1    1    2  501    0 -0.16258209902E+03 -0.16845037679E+03  0.19510327356E+04  0.19650285504E+04  0.00000000000E+00 0. -1.
<scales pt_clust_3="141.69979" pt_clust_4="239.04873" pt_clust_5="78.99181" pt_clust_6="14000.00000"></scales>
<clustering>
<clus scale="   78.992">  2  5  1 -1</clus>
<clus scale="  141.700">  1  3  2 -1</clus>
<clus scale="  239.049">  2  4  1 -1</clus>
<clus scale="   78.992">  2  3  1 -1</clus>
</clustering>
</event>
<event>
 6    0  0.2839294E+002  0.9985693E+02  0.7546771E-02  0.1280597E+00
          2   -1    0    0  503    0 -0.00000000000E+00  0.00000000000E+00  0.65776366208E+03  0.65776366208E+03  0.00000000000E+00 0. -1.
         21   -1    0    0  501  502  0.00000000000E+00 -0.00000000000E+00 -0.36091550520E+03  0.36091550520E+03  0.00000000000E+00 0. -1.
         21    1    1    2  503  504  0.18533896298E+02 -0.41934398743E+02  0.14981996447E+03  0.15667808035E+03  0.00000000000E+00 0. -1.
         21    1    1    2  504  505  0.38685711571E+02  0.94709906484E+02 -0.29917046503E+03  0.31617956577E+03  0.00000000000E+00 0. -1.
         21    1    1    2  505  502 -0.57396068422E+02  0.61401840754E+01 -0.30643727654E+02  0.65353259867E+02  0.00000000000E+00 0.  1.
          2    1    1    2  501    0  0.17646055245E+00 -0.58915691817E+02  0.47684238510E+03  0.48046826129E+03  0.00000000000E+00 0. -1.
<scales pt_clust_3="45.84756" pt_clust_4="14000.00000" pt_clust_5="56.95260" pt_clust_6="99.85693"></scales>
<clustering>
<clus scale="   45.848">  1  3  2 -1</clus>
<clus scale="   56.953">  2  5  1 -1</clus>
<clus scale="   99.857">  1  6  2 -1</clus>
<clus scale="   56.953">  2  3  1 -1</clus>
</clustering>
</event>
<event>
 6    0  0.2839294E+002  0.1017191E+03  0.7546771E-02  0.1276722E+00
          2   -1    0    0  504    0 -0.00000000000E+00  0.00000000000E+00  0.74488205537E+03  0.74488205537E+03  0.00000000000E+00 0. -1.
         21   -1    0    0  501  502  0.00000000000E+00 -0.00000000000E+00 -0.31982595732E+02  0.31982595732E+02  0.00000000000E+00 0. -1.
         21    1    1    2  503  505  0.37188304837E+02 -0.11408312652E+02  0.32403348474E+02  0.50627034345E+02  0.00000000000E+00 0. -1.
         21    1    1    2  504  503 -0.47755497879E+02 -0.35844382032E+02  0.37519035512E+03  0.37991210809E+03  0.00000000000E+00 0. -1.
         21    1    1    2  505  502  0.25475845992E+02 -0.54208852047E+02  0.94214365965E+02  0.11164212970E+03  0.00000000000E+00 0. -1.
          2    1    1    2  501    0 -0.14908652950E+02  0.10146154673E+03  0.21109139008E+03  0.23468337897E+03  0.00000000000E+00 0. -1.
<scales pt_clust_3="36.63692" pt_clust_4="59.71103" pt_clust_5="36.63692" pt_clust_6="90.99423"></scales>
<clustering>
<clus scale="   36.637">  3  5 -1 -1</clus>
<clus scale="   59.711">  1  4  2 -1</clus>
<clus scale="   90.994">  1  6  2 -1</clus>
<clus scale="  101.719">  2  3  1 -1</clus>
</clustering>
</event>
<event>
 6    0  0.2839294E+002  0.8920590E+02  0.7546771E-02  0.1304786E+00
         -1   -1    0    0    0  501 -0.00000000000E+00  0.00000000000E+00  0.11260053831E+04  0.11260053831E+04  0.00000000000E+00 0.  1.
         21   -1    0    0  505  502  0.00000000000E+00 -0.00000000000E+00 -0.38377229971E+03  0.38377229971E+03  0.00000000000E+00 0.  1.
         21    1    1    2  503  502  0.89723222444E+01 -0.37695004072E+02 -0.36408090609E+02  0.53169210641E+02  0.00000000000E+00 0.  1.
         21    1    1    2  504  501 -0.89882385588E+02 -0.41722263342E+02  0.79522943914E+03  0.80137971734E+03  0.00000000000E+00 0.  1.
         21    1    1    2  505  504  0.59142226694E+02 -0.11043407344E+02 -0.32632200122E+03  0.33182195271E+03  0.00000000000E+00 0.  1.
         -1    1    1    2    0  503  0.21767836649E+02  0.90460674757E+02  0.30973373604E+03  0.32340680208E+03  0.00000000000E+00 0.  1.
<scales pt_clust_3="38.74811" pt_clust_4="89.20590" pt_clust_5="82.90436" pt_clust_6="14000.00000"></scales>
<clustering>
<clus scale="   38.748">  2  3  1 -1</clus>
<clus scale="   82.904">  2  5  1 -1</clus>
<clus scale="   89.206">  1  4  2 -1</clus>
<clus scale="   38.748">  2  3  1 -1</clus>
</clustering>
</event>
<event>
 6    0  0.2839294E+002  0.1361140E+03  0.7546771E-02  0.1218656E+00
          2   -1    0    0  505    0 -0.00000000000E+00  0.00000000000E+00  0.62473730457E+03  0.62473730457E+03  0.00000000000E+00 0.  1.
         21   -1    0    0  504  502  0.00000000000E+00 -0.00000000000E+00 -0.19747943453E+03  0.19747943453E+03  0.00000000000E+00 0. -1.
         21    1    1    2  503  502  0.12870762028E+03 -0.63700111293E+02 -0.13212017097E+03  0.19513865653E+03  0.00000000000E+00 0. -1.
         21    1    1    2  504  501 -0.51103784852E+02  0.11408177488E+03  0.12386961075E+03  0.17598275101E+03  0.00000000000E+00 0.  1.
         21    1    1    2  505  503 -0.47341611908E+02  0.11181752033E+02  0.16469233381E+03  0.17172601612E+03  0.00000000000E+00 0.  1.
          2    1    1    2  501    0 -0.30262223518E+02 -0.61563415621E+02  0.27081609645E+03  0.27936931544E+03  0.00000000000E+00 0.  1.
<scales pt_clust_3="136.11398" pt_clust_4="14000.00000" pt_clust_5="48.64422" pt_clust_6="80.38659"></scales>
<clustering>
<clus scale="   48.644">  1  5  2 -1</clus>
<clus scale="   80.387">  1  6  2 -1</clus>
<clus scale="  136.114">  2  3  1 -1</clus>
<clus scale="  136.114">  2  3  1 -1</clus>
</clustering>
</event>
<event>
 6    0  0.2839294E+002  0.7155543E+02  0.7546771E-02  0.1354882E+00
          1   -1    0    0  503    0 -0.00000000000E+00  0.00000000000E+00  0.18819093729E+04  0.18819093729E+04  0.00000000000E+00 0.  1.
         21   -1    0    0  504  502  0.00000000000E+00 -0.00000000000E+00 -0.43972485181E+03  0.43972485181E+03  0.00000000000E+00 0. -1.
         21    1    1    2  503  505  0.10156539460E+02  0.54703351535E+02  0.14888426894E+04  0.14898819302E+04  0.00000000000E+00 0.  1.
         21    1    1    2  504  501  0.61028769469E+02 -0.72864032264E+02 -0.40288950322E+03  0.41394882499E+03  0.00000000000E+00 0. -1.
         21    1    1    2  505  502 -0.20984746762E+01  0.31305115123E+02 -0.18571578541E+02  0.36459804694E+02  0.00000000000E+00 0. -1.
          1    1    1    2  501    0 -0.69086834253E+02 -0.13144434394E+02  0.37480291337E+03  0.38134366481E+03  0.00000000000E+00 0.  1.
<scales pt_clust_3="55.67654" pt_clust_4="71.55543" pt_clust_5="31.37537" pt_clust_6="14000.00000"></scales>
<clustering>
<clus scale="   31.375">  2  5  1 -1</clus>
<clus scale="   55.677">  1  3  2 -1</clus>
<clus scale="   71.555">  2  4  1 -1</clus>
<clus scale="   31.375">  2  3  1 -1</clus>
</clustering>
</event>
<event>
 6    0  0.2839294E+002  0.4155309E+03  0.7546771E-02  0.1038531E+00
          2   -1    0    0  505    0 -0.00000000000E+00  0.00000000000E+00  0.13766199184E+04  0.13766199184E+04  0.00000000000E+00 0. -1.
         21   -1    0    0  503  502  0.00000000000E+00 -0.00000000000E+00 -0.34893000959E+03  0.34893000959E+03  0.00000000000E+00 0.  1.
         21    1    1    2  503  504 -0.50474879131E+02  0.35372170134E+02 -0.63978824840E+02  0.88838020415E+02  0.00000000000E+00 0.  1.
         21    1    1    2  504  501 -0.97571153147E+02 -0.17659100034E+03  0.58268153773E+03  0.61662167148E+03  0.00000000000E+00 0. -1.
         21    1    1    2  505  502  0.28789792546E+03  0.30223432080E+03 -0.51333107857E+02  0.42055426299E+03  0.00000000000E+00 0.  1.
          2    1    1    2  501    0 -0.13985189319E+03 -0.16101549060E+03  0.56032030382E+03  0.59953597316E+03  0.00000000000E+00 0. -1.
<scales pt_clust_3="61.63525" pt_clust_4="46.01610" pt_clust_5="412.82873" pt_clust_6="46.01610"></scales>
<clustering>
<clus scale="   46.016">  4  6 -1 -1</clus>
<clus scale="   61.635">  2  3  1 -1</clus>
<clus scale="  412.829">  2  5  1 -1</clus>
<clus scale="   61.635">  2  3  1 -1</clus>
</clustering>
</event>
<event>
 6    0  0.2839294E+002  0.1342327E+03  0.7546771E-02  0.1221307E+00
         21   -1    0    0  501  502  0.00000000000E+00  0.00000000000E+00  0.54274769218E+02  0.54274769218E+02  0.00000000000E+00 0. -1.
          2   -1    0    0  505    0 -0.00000000000E+00 -0.00000000000E+00 -0.28549662489E+04  0.28549662489E+04  0.00000000000E+00 0.  1.
         21    1    1    2  503  504 -0.36966875599E+02  0.10112339605E+03 -0.16722003274E+03  0.19888446513E+03  0.00000000000E+00 0. -1.
         21    1    1    2  504  502 -0.69219742897E+01  0.52488544304E+02  0.80758346392E+01  0.53555392972E+02  0.00000000000E+00 0.  1.
         21    1    1    2  505  503 -0.30906109021E+02 -0.13624170745E+03 -0.23830268608E+04  0.23871183485E+04  0.00000000000E+00 0.  1.
          2    1    1    2  501    0  0.74794958910E+02 -0.17370232901E+02 -0.25852042075E+03  0.26968281149E+03  0.00000000000E+00 0.  1.
<scales pt_clust_3="134.23266" pt_clust_4="52.94300" pt_clust_5="14000.00000" pt_clust_6="73.31092"></scales>
<clustering>
<clus scale="   52.943">  1  4  2 -1</clus>
<clus scale="   73.311">  1  6  2 -1</clus>
<clus scale="  134.233">  1  3  2 -1</clus>
<clus scale="   52.943">  1  3  2 -1</clus>
</clustering>
</event>
<event>
 6    0  0.2839294E+002  0.1611411E+03  0.7546771E-02  0.1187414E+00
         21   -1    0    0  503  502  0.00000000000E+00  0.00000000000E+00  0.86159609187E+02  0.86159609187E+02  0.00000000000E+00 0.  1.
         -1   -1    0    0    0  501 -0.00000000000E+00 -0.00000000000E+00 -0.52653629504E+03  0.52653629504E+03  0.00000000000E+00 0. -1.
         21    1    1    2  503  504  0.57000258789E+02  0.11784000464E+03 -0.74203056584E+02  0.15047056125E+03  0.00000000000E+00 0.  1.
         21    1    1    2  504  501  0.78363294276E+02  0.15149803505E+02 -0.10690470538E+03  0.13341266233E+03  0.00000000000E+00 0. -1.
         21    1    1    2  505  502 -0.80022383378E+01 -0.29318068047E+02 -0.13564619118E+02  0.33280381972E+02  0.00000000000E+00 0.  1.
         -1    1    1    2    0  505 -0.12736131473E+03 -0.10367174010E+03 -0.24570430477E+03  0.29553229868E+03  0.00000000000E+00 0. -1.
<scales pt_clust_3="145.18477" pt_clust_4="79.81430" pt_clust_5="30.07543" pt_clust_6="30.07543"></scales>
<clustering>
<clus scale="   30.075">  5  6 -1 -1</clus>
<clus scale="   79.814">  2  4  1 -1</clus>
<clus scale="  145.185">  1  3  2 -1</clus>
<clus scale="  145.185">  1  3  2 -1</clus>
</clustering>
</event>
<event>
 6    0  0.2839294E+002  0.7784806E+02  0.7546771E-02  0.1335272E+00
         21   -1    0    0  501  502  0.00000000000E+00  0.00000000000E+00  0.13330303156E+04  0.13330303156E+04  0.00000000000E+00 0.  1.
          2   -1    0    0  503    0 -0.00000000000E+00 -0.00000000000E+00 -0.27841185213E+03  0.27841185213E+03  0.00000000000E+00 0. -1.
         21    1    1    2  503  504  0.31593478460E+02  0.13084998989E+02 -0.26253782132E+02  0.43111786740E+02  0.00000000000E+00 0.  1.
         21    1    1    2  504  505  0.86690920833E+02 -0.63512951341E+02  0.49881968062E+03  0.51026491602E+03  0.00000000000E+00 0. -1.
         21    1    1    2  505  502 -0.10167399461E+02  0.68910165967E+02  0.80583914186E+03  0.80884405762E+03  0.00000000000E+00 0.  1.
          2    1    1    2  501    0 -0.10811699983E+03 -0.18482213615E+02 -0.22378657690E+03  0.24922140733E+03  0.00000000000E+00 0. -1.
<scales pt_clust_3="34.19598" pt_clust_4="77.84806" pt_clust_5="69.70788" pt_clust_6="14000.00000"></scales>
<clustering>
<clus scale="   34.196">  2  3  1 -1</clus>
<clus scale="   69.708">  1  5  2 -1</clus>
<clus scale="   77.848">  1  4  2 -1</clus>
<clus scale="   69.708">  1  3  2 -1</clus>
</clustering>
</event>
<event>
 6    0  0.2839294E+002  0.1653343E+03  0.7546771E-02  0.1182803E+00
         -2   -1    0    0    0  501 -0.00000000000E+00  0.00000000000E+00  0.18292944659E+04  0.18292944659E+04  0.00000000000E+00 0.  1.
         21   -1    0    0  505  502  0.00000000000E+00 -0.00000000000E+00 -0.67817625032E+02  0.67817625032E+02  0.00000000000E+00 0.  1.
         21    1    1    2  503  501  0.53610644353E+01 -0.39033400761E+02  0.22381198653E+03  0.22725349876E+03  0.00000000000E+00 0. -1.
         21    1    1    2  504  502  0.13979542803E+03  0.15290671471E+02  0.97180252761E+02  0.17094024646E+03  0.00000000000E+00 0.  1.
         21    1    1    2  505  503  0.29536434910E+02 -0.16031559793E+02 -0.11804469228E+02  0.35619620862E+02  0.00000000000E+00 0.  1.
         -2    1    1    2    0  504 -0.17469292738E+03  0.39774289083E+02  0.14522890708E+04  0.14632987248E+04  0.00000000000E+00 0.  1.
<scales pt_clust_3="40.19017" pt_clust_4="165.33428" pt_clust_5="33.60672" pt_clust_6="14000.00000"></scales>
<clustering>
<clus scale="   33.607">  2  5  1 -1</clus>
<clus scale="   40.190">  1  3  2 -1</clus>
<clus scale="  165.334">  2  4  1 -1</clus>
<clus scale="   33.607">  2  3  1 -1</clus>
</clustering>
</event>
<event>
 6    0  0.2839294E+002  0.6912781E+02  0.7546771E-02  0.1363084E+00
         21   -1    0    0  504  502  0.00000000000E+00  0.00000000000E+00  0.36029316630E+03  0.36029316630E+03  0.00000000000E+00 0.  1.
          2   -1    0    0  505    0 -0.00000000000E+00 -0.00000000000E+00 -0.11430535440E+04  0.11430535440E+04  0.00000000000E+00 0.  1.
         21    1    1    2  503  501 -0.24207200594E+01 -0.70742866654E+02  0.26138252869E+03  0.27079741390E+03  0.00000000000E+00 0.  1.
         21    1    1    2  504  503 -0.27572439049E+02  0.42957130482E+02  0.81685366571E+02  0.96322653442E+02  0.00000000000E+00 0.  1.
         21    1    1    2  505  502 -0.38387222352E+01  0.83583830380E+02 -0.49379642384E+03  0.50083520312E+03  0.00000000000E+00 0.  1.
          2    1    1    2  501    0  0.33831881343E+02 -0.55798094207E+02 -0.63203184911E+03  0.63539143983E+03  0.00000000000E+00 0.  1.
<scales pt_clust_3="41.06879" pt_clust_4="51.04463" pt_clust_5="69.12781" pt_clust_6="14000.00000"></scales>
<clustering>
<clus scale="   51.045">  1  4  2 -1</clus>
<clus scale="   41.069">  1  3  2 -1</clus>
<clus scale="   69.128">  1  5  2 -1</clus>
<clus scale="   51.045">  1  3  2 -1</clus>
</clustering>
</event>
<event>
 6    0  0.2839294E+002  0.9610249E+02  0.7546771E-02  0.1288712E+00
         21   -1    0    0  503  502  0.00000000000E+00  0.00000000000E+00  0.13721980382E+04  0.13721980382E+04  0.00000000000E+00 0. -1.
         -4   -1    0    0    0  501 -0.00000000000E+00 -0.00000000000E+00 -0.82996221877E+02  0.82996221877E+02  0.00000000000E+00 0.  1.
         21    1    1    2  503  505 -0.67160469673E+02 -0.67273466322E+02  0.40129656156E+03  0.41240171954E+03  0.00000000000E+00 0. -1.
         21    1    1    2  504  502  0.21663855900E+02 -0.22702228714E+02  0.89326255938E+03  0.89381357891E+03  0.00000000000E+00 0. -1.
         21    1    1    2  505  501  0.64159241019E+02  0.38895307206E+02 -0.39475628507E+02  0.84779587029E+02  0.00000000000E+00 0.  1.
         -4    1    1    2    0  504 -0.18662627246E+02  0.51080387830E+02  0.34118323918E+02  0.64199374635E+02  0.00000000000E+00 0.  1.
<scales pt_clust_3="14000.00000" pt_clust_4="31.38015" pt_clust_5="96.10249" pt_clust_6="51.44559"></scales>
<clustering>
<clus scale="   31.380">  1  4  2 -1</clus>
<clus scale="   51.446">  2  6  1 -1</clus>
<clus scale="   96.102">  2  5  1 -1</clus>
<clus scale="   31.380">  1  3  2 -1</clus>
</clustering>
</event>
<event>
 6    0  0.2839294E+002  0.1385621E+03  0.7546771E-02  0.1215277E+00
          1   -1    0    0  503    0 -0.00000000000E+00  0.00000000000E+00  0.25412126930E+03  0.25412126930E+03  0.00000000000E+00 0. -1.
         21   -1    0    0  501  502  0.00000000000E+00 -0.00000000000E+00 -0.11917950845E+04  0.11917950845E+04  0.00000000000E+00 0. -1.
         21    1    1    2  503  504  0.57437256275E+02  0.30498555234E+02  0.20235703145E+02  0.68107884724E+02  0.00000000000E+00 0.  1.
         21    1    1    2  504  505 -0.64629566829E+02 -0.88702042594E+02  0.78566579709E+01  0.11003072454E+03  0.00000000000E+00 0. -1.
         21    1    1    2  505  502  0.10266104712E+02  0.14163918375E+03 -0.11003082409E+04  0.11094346651E+04  0.00000000000E+00 0. -1.
          1    1    1    2  501    0 -0.30737941577E+01 -0.83435696390E+02  0.13454206458E+03  0.15834307937E+03  0.00000000000E+00 0. -1.
<scales pt_clust_3="65.03230" pt_clust_4="14000.00000" pt_clust_5="138.56214" pt_clust_6="72.33535"></scales>
<clustering>
<clus scale="   65.032">  1  3  2 -1</clus>
<clus scale="   72.335">  1  6  2 -1</clus>
<clus scale="  138.562">  2  5  1 -1</clus>
<clus scale="  138.562">  2  3  1 -1</clus>
</clustering>
</event>
<event>
 6    0  0.2839294E+002  0.1397745E+03  0.7546771E-02  0.1213633E+00
         21   -1    0    0  501  502  0.00000000000E+00  0.00000000000E+00  0.48248876297E+03  0.48248876297E+03  0.00000000000E+00 0.  1.
          1   -1    0    0  503    0 -0.00000000000E+00 -0.00000000000E+00 -0.14658942170E+04  0.14658942170E+04  0.00000000000E+00 0.  1.
         21    1    1    2  503  505  0.15493612695E+02 -0.37743225629E+02 -0.21344744966E+03  0.21731179646E+03  0.00000000000E+00 0. -1.
         21    1    1    2  504  502 -0.23400359577E+02 -0.20479640965E+02  0.38408400889E+03  0.38534078217E+03  0.00000000000E+00 0.  1.
         21    1    1    2  505  504  0.71254240502E+02  0.15188827978E+03  0.17556878516E+02  0.16868746340E+03  0.00000000000E+00 0.  1.
          1    1    1    2  501    0 -0.63347493620E+02 -0.93665413186E+02 -0.11715988917E+04  0.11770429379E+04  0.00000000000E+00 0.  1.
<scales pt_clust_3="41.00245" pt_clust_4="31.09650" pt_clust_5="14000.00000" pt_clust_6="139.77452"></scales>
<clustering>
<clus scale="   31.097">  1  4  2 -1</clus>
<clus scale="   41.002">  2  3  1 -1</clus>
<clus scale="  139.775">  2  6  1 -1</clus>
<clus scale="   31.097">  1  3  2 -1</clus>
</clustering>
</event>
<event>
 6    0  0.2839294E+002  0.1094987E+03  0.7546771E-02  0.1261501E+00
         21   -1    0    0  505  502  0.00000000000E+00  0.00000000000E+00  0.98851740315E+02  0.98851740315E+02  0.00000000000E+00 0.  1.
          2   -1    0    0  504    0 -0.00000000000E+00 -0.00000000000E+00 -0.23914877571E+04  0.23914877571E+04  0.00000000000E+00 0. -1.
         21    1    1    2  503  502 -0.95653249162E+02  0.29142091663E+02 -0.35166157277E+02  0.10599747261E+03  0.00000000000E+00 0.  1.
         21    1    1    2  504  503 -0.54286399132E+02 -0.13542407368E+02 -0.10941620006E+04  0.10955915724E+04  0.00000000000E+00 0.  1.
         21    1    1    2  505  501  0.11916929181E+03 -0.66077202276E+00  0.56378464921E+01  0.11930440915E+03  0.00000000000E+00 0.  1.
          2    1    1    2  501    0  0.30770356483E+02 -0.14938912273E+02 -0.11689457054E+04  0.11694460433E+04  0.00000000000E+00 0. -1.
<scales pt_clust_3="109.49868" pt_clust_4="37.93490" pt_clust_5="14000.00000" pt_clust_6="34.20506"></scales>
<clustering>
<clus scale="   34.205">  2  6  1 -1</clus>
<clus scale="   37.935">  2  4  1 -1</clus>
<clus scale="  109.499">  2  3  1 -1</clus>
<clus scale="  109.499">  1  3  2 -1</clus>
</clustering>
</event>
<event>
 6    0  0.2839294E+002  0.9269695E+02  0.7546771E-02  0.1296449E+00
         21   -1    0    0  504  502  0.00000000000E+00  0.00000000000E+00  0.27675108549E+03  0.27675108549E+03  0.00000000000E+00 0.  1.
          2   -1    0    0  505    0 -0.00000000000E+00 -0.00000000000E+00 -0.10690121861E+04  0.10690121861E+04  0.00000000000E+00 0.  1.
         21    1    1    2  503  501  0.36050082444E+02  0.39831375070E+02 -0.12491231401E+03  0.13597511932E+03  0.00000000000E+00 0. -1.
         21    1    1    2  504  503  0.45770317641E+02  0.34578827798E+02  0.92700601106E+02  0.10901384662E+03  0.00000000000E+00 0.  1.
         21    1    1    2  505  502 -0.83008014619E+02 -0.12568151321E+03  0.13619448916E+03  0.20306430541E+03  0.00000000000E+00 0.  1.
          2    1    1    2  501    0  0.11876145346E+01  0.51271310341E+02 -0.89624387683E+03  0.89771000020E+03  0.00000000000E+00 0.  1.
<scales pt_clust_3="92.69695" pt_clust_4="58.90501" pt_clust_5="14000.00000" pt_clust_6="51.28506"></scales>
<clustering>
<clus scale="   51.285">  2  6  1 -1</clus>
<clus scale="   58.905">  1  4  2 -1</clus>
<clus scale="   92.697">  2  3  1 -1</clus>
<clus scale="   58.905">  1  3  2 -1</clus>
</clustering>
</event>
<event>
 6    0  0.2839294E+002  0.1204605E+03  0.7546771E-02  0.1242339E+00
          1   -1    0    0  503    0 -0.00000000000E+00  0.00000000000E+00  0.58186008767E+03  0.58186008767E+03  0.00000000000E+00 0. -1.
         21   -1    0    0  504  502  0.00000000000E+00 -0.00000000000E+00 -0.81613447935E+02  0.81613447935E+02  0.00000000000E+00 0. -1.
         21    1    1    2  503  502 -0.54127388293E+02 -0.33836826951E+02  0.27875430430E+03  0.28596969628E+03  0.00000000000E+00 0. -1.
         21    1    1    2  504  505 -0.23038069688E+02  0.11259947992E+03 -0.11754798596E+02  0.11553168753E+03  0.00000000000E+00 0. -1.
         21    1    1    2  505  501  0.63167979135E+02 -0.41563425044E+02  0.18226547724E+03  0.19732819384E+03  0.00000000000E+00 0. -1.
          1    1    1    2  501    0  0.13997478846E+02 -0.37199227924E+02  0.50981656791E+02  0.64643957965E+02  0.00000000000E+00 0. -1.
<scales pt_clust_3="63.83342" pt_clust_4="111.55093" pt_clust_5="32.96262" pt_clust_6="32.96262"></scales>
<clustering>
<clus scale="   32.963">  5  6 -1 -1</clus>
<clus scale="   63.833">  1  3  2 -1</clus>
<clus scale="  111.551">  2  4  1 -1</clus>
<clus scale="  111.551">  2  3  1 -1</clus>
</clustering>
</event>
<event>
 6    0  0.2839294E+002  0.1111705E+03  0.7546771E-02  0.1258417E+00
          2   -1    0    0  504    0 -0.00000000000E+00  0.00000000000E+00  0.14651224284E+04  0.14651224284E+04  0.00000000000E+00 0.  1.
         21   -1    0    0  505  502  0.00000000000E+00 -0.00000000000E+00 -0.28423388613E+02  0.28423388613E+02  0.00000000000E+00 0.  1.
         21    1    1    2  503  501 -0.68613579625E+02  0.90964783724E+02  0.48820200924E+03  0.50132186967E+03  0.00000000000E+00 0.  1.
         21    1    1    2  504  502  0.11389858098E+03 -0.32879401402E+02  0.25973265808E+03  0.28550831067E+03  0.00000000000E+00 0.  1.
         21    1    1    2  505  503 -0.17376470209E+02 -0.27156422164E+02  0.22890092075E+02  0.39539465055E+02  0.00000000000E+00 0.  1.
          2    1    1    2  501    0 -0.27908531147E+02 -0.30928960158E+02  0.66587428040E+03  0.66717617162E+03  0.00000000000E+00 0.  1.
<scales pt_clust_3="111.17052" pt_clust_4="14000.00000" pt_clust_5="32.23993" pt_clust_6="42.68952"></scales>
<clustering>
<clus scale="   32.240">  2  5  1 -1</clus>
<clus scale="   42.690">  1  6  2 -1</clus>
<clus scale="  111.171">  1  3  2 -1</clus>
<clus scale="   32.240">  2  3  1 -1</clus>
</clustering>
</event>
<event>
 6    0  0.2839294E+002  0.1405869E+03  0.7546771E-02  0.1212541E+00
         21   -1    0    0  505  502  0.00000000000E+00  0.00000000000E+00  0.75968819122E+02  0.75968819122E+02  0.00000000000E+00 0. -1.
          1   -1    0    0  503    0 -0.00000000000E+00 -0.00000000000E+00 -0.13775972906E+04  0.13775972906E+04  0.00000000000E+00 0. -1.
         21    1    1    2  503  502 -0.12370537792E+03  0.38354288611E+02 -0.67331514709E+03  0.68565834005E+03  0.00000000000E+00 0. -1.
         21    1    1    2  504  501  0.16022059996E+03  0.75919426634E+02 -0.16952391740E+03  0.24530136274E+03  0.00000000000E+00 0. -1.
         21    1    1    2  505  504 -0.31016238037E+02 -0.22739927360E+02  0.14059157746E+02  0.40948397219E+02  0.00000000000E+00 0. -1.
          1    1    1    2  501    0 -0.54989840002E+01 -0.91533787884E+02 -0.47284856477E+03  0.48165800975E+03  0.00000000000E+00 0. -1.
<scales pt_clust_3="140.58694" pt_clust_4="14000.00000" pt_clust_5="38.45922" pt_clust_6="93.96936"></scales>
<clustering>
<clus scale="   38.459">  1  5  2 -1</clus>
<clus scale="   93.969">  2  6  1 -1</clus>
<clus scale="  140.587">  2  3  1 -1</clus>
<clus scale="   38.459">  1  3  2 -1</clus>
</clustering>
</event>
<event>
 6    0  0.2839294E+002  0.6699148E+02  0.7546771E-02  0.1370633E+00
         21   -1    0    0  503  502  0.00000000000E+00  0.00000000000E+00  0.18916422887E+02  0.18916422887E+02  0.00000000000E+00 0.  1.
          2   -1    0    0  504    0 -0.00000000000E+00 -0.00000000000E+00 -0.13999676611E+04  0.13999676611E+04  0.00000000000E+00 0.  1.
         21    1    1    2  503  501  0.28213904329E+02  0.11183100078E+02 -0.18331163496E+02  0.35455855369E+02  0.00000000000E+00 0.  1.
         21    1    1    2  504  505  0.29719135603E+02 -0.46230231030E+02 -0.58787129516E+03  0.59043468814E+03  0.00000000000E+00 0.  1.
         21    1    1    2  505  502 -0.38384627279E+02 -0.58175227317E+02 -0.24818434727E+03  0.25778519530E+03  0.00000000000E+00 0.  1.
          2    1    1    2  501    0 -0.19548412653E+02  0.93222358269E+02 -0.52666443233E+03  0.53520834523E+03  0.00000000000E+00 0.  1.
<scales pt_clust_3="30.34940" pt_clust_4="55.80474" pt_clust_5="14000.00000" pt_clust_6="66.99148"></scales>
<clustering>
<clus scale="   30.349">  1  3  2 -1</clus>
<clus scale="   55.805">  2  4  1 -1</clus>
<clus scale="   66.991">  2  6  1 -1</clus>
<clus scale="   30.349">  1  3  2 -1</clus>
</clustering>
</event>
<event>
 6    0  0.2839294E+002  0.1312850E+03  0.7546771E-02  0.1225561E+00
         21   -1    0    0  504  502  0.00000000000E+00  0.00000000000E+00  0.43478281894E+03  0.43478281894E+03  0.00000000000E+00 0. -1.
          2   -1    0    0  502    0 -0.00000000000E+00 -0.00000000000E+00 -0.24242637962E+04  0.24242637962E+04  0.00000000000E+00 0.  1.
         21    1    1    2  503  505  0.12337797099E+03 -0.80957555637E+02 -0.62166260429E+03  0.63893711984E+03  0.00000000000E+00 0. -1.
         21    1    1    2  504  503 -0.25595963241E+02  0.21908472888E+02  0.42329338218E+03  0.42463210184E+03  0.00000000000E+00 0. -1.
         21    1    1    2  505  501 -0.37304222060E+02  0.41069992031E+02 -0.55773128884E+03  0.56048420119E+03  0.00000000000E+00 0.  1.
          2    1    1    2  501    0 -0.60477785685E+02  0.17979090718E+02 -0.12333804663E+04  0.12349931923E+04  0.00000000000E+00 0.  1.
<scales pt_clust_3="120.93845" pt_clust_4="33.69176" pt_clust_5="48.82480" pt_clust_6="48.82480"></scales>
<clustering>
<clus scale="   33.692">  1  4  2 -1</clus>
<clus scale="   48.825">  5  6 -1 -1</clus>
<clus scale="  120.938">  1  3  2 -1</clus>
<clus scale="   33.692">  1  3  2 -1</clus>
</clustering>
</event>
<event>
 6    0  0.2839294E+002  0.1093600E+03  0.7546771E-02  0.1261760E+00
         21   -1    0    0  505  502  0.00000000000E+00  0.00000000000E+00  0.89487090718E+02  0.89487090718E+02  0.00000000000E+00 0. -1.
          1   -1    0    0  504    0 -0.00000000000E+00 -0.00000000000E+00 -0.10388106683E+04  0.10388106683E+04  0.00000000000E+00 0.  1.
         21    1    1    2  503  502 -0.36816934916E+02 -0.71188407749E+02  0.29775908882E+02  0.85497841167E+02  0.00000000000E+00 0. -1.
         21    1    1    2  504  503 -0.39685422806E+02 -0.88882400041E+00 -0.43098076868E+03  0.43280497429E+03  0.00000000000E+00 0.  1.
         21    1    1    2  505  501  0.87991389832E+02 -0.44843901585E+02 -0.79233247093E+02  0.12661503718E+03  0.00000000000E+00 0. -1.
          1    1    1    2  501    0 -0.11489032110E+02  0.11692113333E+03 -0.46888547066E+03  0.48337990636E+03  0.00000000000E+00 0.  1.
<scales pt_clust_3="81.03426" pt_clust_4="39.69537" pt_clust_5="14000.00000" pt_clust_6="109.36001"></scales>
<clustering>
<clus scale="   39.695">  2  4  1 -1</clus>
<clus scale="   81.034">  1  3  2 -1</clus>
<clus scale="  109.360">  2  6  1 -1</clus>
<clus scale="   81.034">  1  3  2 -1</clus>
</clustering>
</event>
<event>
 6    0  0.2839294E+002  0.1146093E+03  0.7546771E-02  0.1252265E+00
          1   -1    0    0  505    0 -0.00000000000E+00  0.00000000000E+00  0.14034587484E+04  0.14034587484E+04  0.00000000000E+00 0.  1.
         21   -1    0    0  503  502  0.00000000000E+00 -0.00000000000E+00 -0.56203448869E+02  0.56203448869E+02  0.00000000000E+00 0.  1.
         21    1    1    2  503  501 -0.18885497119E+02  0.11235774665E+03  0.33382405600E+02  0.11872367177E+03  0.00000000000E+00 0.  1.
         21    1    1    2  504  502  0.13094371463E+00  0.55931852422E+02  0.12266115946E+03  0.13481153252E+03  0.00000000000E+00 0.  1.
         21    1    1    2  505  504  0.11751666025E+01 -0.45446743419E+02  0.13072742211E+03  0.13840681485E+03  0.00000000000E+00 0. -1.
          1    1    1    2  501    0  0.17579386802E+02 -0.12284285566E+03  0.10604843124E+04  0.10677201781E+04  0.00000000000E+00 0.  1.
<scales pt_clust_3="114.60932" pt_clust_4="51.32163" pt_clust_5="45.46193" pt_clust_6="14000.00000"></scales>
<clustering>
<clus scale="   45.462">  1  5  2 -1</clus>
<clus scale="   51.322">  1  4  2 -1</clus>
<clus scale="  114.609">  2  3  1 -1</clus>
<clus scale="  114.609">  2  3  1 -1</clus>
</clustering>
</event>
<event>
 6    0  0.2839294E+002  0.2735081E+03  0.7546771E-02  0.1099288E+00
         21   -1    0    0  505  502  0.00000000000E+00  0.00000000000E+00  0.14968091678E+03  0.14968091678E+03  0.00000000000E+00 0. -1.
          2   -1    0    0  503    0 -0.00000000000E+00 -0.00000000000E+00 -0.39541489658E+04  0.39541489658E+04  0.00000000000E+00 0.  1.
         21    1    1    2  503  502  0.11488262353E+03  0.31953720127E+03 -0.99243437501E+02  0.35376729649E+03  0.00000000000E+00 0. -1.
         21    1    1    2  504  501 -0.14900367421E+02 -0.33952627234E+02 -0.23279041848E+03  0.23572479883E+03  0.00000000000E+00 0.  1.
         21    1    1    2  505  504  0.45672852002E+02 -0.11765724664E+03 -0.21485275384E+03  0.24918054284E+03  0.00000000000E+00 0. -1.
          2    1    1    2  501    0 -0.14565510811E+03 -0.16792732739E+03 -0.32575814392E+04  0.32651572444E+04  0.00000000000E+00 0.  1.
<scales pt_clust_3="260.50125" pt_clust_4="34.03740" pt_clust_5="126.21108" pt_clust_6="34.03740"></scales>
<clustering>
<clus scale="   34.037">  4  6 -1 -1</clus>
<clus scale="  126.211">  1  5  2 -1</clus>
<clus scale="  260.501">  1  3  2 -1</clus>
<clus scale="  126.211">  1  3  2 -1</clus>
</clustering>
</event>
<event>
 6    0  0.2839294E+002  0.1258873E+03  0.7546771E-02  0.1233689E+00
         21   -1    0    0  504  502  0.00000000000E+00  0.00000000000E+00  0.58004338673E+02  0.58004338673E+02  0.00000000000E+00 0.  1.
          1   -1    0    0  503    0 -0.00000000000E+00 -0.00000000000E+00 -0.27657924702E+04  0.27657924702E+04  0.00000000000E+00 0.  1.
         21    1    1    2  503  505 -0.87594512649E+01  0.34054560852E+02 -0.96091117202E+03  0.96155432588E+03  0.00000000000E+00 0. -1.
         21    1    1    2  504  501  0.21554723764E+02 -0.38917071769E+02 -0.52370814175E+02  0.68715695216E+02  0.00000000000E+00 0.  1.
         21    1    1    2  505  502 -0.11845021254E+03 -0.43965205538E+02 -0.36600877235E+02  0.13154093037E+03  0.00000000000E+00 0.  1.
          1    1    1    2  501    0  0.10565494004E+03  0.48827716456E+02 -0.16579052681E+04  0.16619858575E+04  0.00000000000E+00 0.  1.
<scales pt_clust_3="35.16306" pt_clust_4="43.34673" pt_clust_5="14000.00000" pt_clust_6="125.88734"></scales>
<clustering>
<clus scale="   35.163">  2  3  1 -1</clus>
<clus scale="   43.347">  1  4  2 -1</clus>
<clus scale="  125.887">  2  6  1 -1</clus>
<clus scale="   43.347">  1  3  2 -1</clus>
</clustering>
</event>
<event>
 6    0  0.2839294E+002  0.8818164E+02  0.7546771E-02  0.1307316E+00
         21   -1    0    0  503  502  0.00000000000E+00  0.00000000000E+00  0.97914774421E+02  0.97914774421E+02  0.00000000000E+00 0.  1.
          2   -1    0    0  505    0 -0.00000000000E+00 -0.00000000000E+00 -0.64262564939E+03  0.64262564939E+03  0.00000000000E+00 0.  1.
         21    1    1    2  503  504  0.15535745074E+02 -0.48733997419E+02  0.13697140064E+02  0.52952559195E+02  0.00000000000E+00 0.  1.
         21    1    1    2  504  501 -0.13498569020E+03  0.98888087248E+02 -0.89618692980E+02  0.18981965254E+03  0.00000000000E+00 0.  1.
         21    1    1    2  505  502  0.45105035312E+02 -0.15129756906E+02 -0.43023719424E+02  0.64143699516E+02  0.00000000000E+00 0.  1.
          2    1    1    2  501    0  0.74344909813E+02 -0.35024332923E+02 -0.42576560263E+03  0.43362451256E+03  0.00000000000E+00 0.  1.
<scales pt_clust_3="63.58440" pt_clust_4="88.18164" pt_clust_5="47.57493" pt_clust_6="14000.00000"></scales>
<clustering>
<clus scale="   47.575">  1  5  2 -1</clus>
<clus scale="   63.584">  1  3  2 -1</clus>
<clus scale="   88.182">  1  4  2 -1</clus>
<clus scale="   47.575">  1  3  2 -1</clus>
</clustering>
</event>
<event>
 6    0  0.2839294E+002  0.9783051E+02  0.7546771E-02  0.1284925E+00
         -1   -1    0    0    0  501 -0.00000000000E+00  0.00000000000E+00  0.13434336201E+03  0.13434336201E+03  0.00000000000E+00 0.  1.
         21   -1    0    0  503  502  0.00000000000E+00 -0.00000000000E+00 -0.30675605435E+03  0.30675605435E+03  0.00000000000E+00 0.  1.
         21    1    1    2  503  504  0.33121337065E+02 -0.50804873135E+02 -0.15756905075E+03  0.16883768495E+03  0.00000000000E+00 0.  1.
         21    1    1    2  504  501  0.42838455980E+02  0.14806854874E+02 -0.15421225893E+02  0.47876826023E+02  0.00000000000E+00 0. -1.
         21    1    1    2  505  502 -0.12106236233E+03  0.84849097654E+02 -0.30568429263E+02  0.15096322007E+03  0.00000000000E+00 0.  1.
         -1    1    1    2    0  505  0.45102569289E+02 -0.48851079392E+02  0.31146013563E+02  0.73421685319E+02  0.00000000000E+00 0.  1.
<scales pt_clust_3="61.20808" pt_clust_4="45.32523" pt_clust_5="97.83051" pt_clust_6="14000.00000"></scales>
<clustering>
<clus scale="   45.325">  1  4  2 -1</clus>
<clus scale="   61.208">  2  3  1 -1</clus>
<clus scale="   97.831">  2  5  1 -1</clus>
<clus scale="   61.208">  2  3  1 -1</clus>
</clustering>
</event>
<event>
 6    0  0.2839294E+002  0.1283252E+03  0.7546771E-02  0.1229962E+00
         21   -1    0    0  504  502  0.00000000000E+00  0.00000000000E+00  0.48390768240E+03  0.48390768240E+03  0.00000000000E+00 0. -1.
          2   -1    0    0  505    0 -0.00000000000E+00 -0.00000000000E+00 -0.34092339574E+03  0.34092339574E+03  0.00000000000E+00 0.  1.
         21    1    1    2  503  501 -0.52274350280E+02 -0.18539523831E+02 -0.13366025943E+03  0.14471139068E+03  0.00000000000E+00 0.  1.
         21    1    1    2  504  503 -0.31919269308E+02  0.22568499917E+02  0.39445569585E+03  0.39638803328E+03  0.00000000000E+00 0. -1.
         21    1    1    2  505  502  0.11657539707E+03  0.59027166858E+02  0.16655932251E+02  0.13172490163E+03  0.00000000000E+00 0. -1.
          2    1    1    2  501    0 -0.32381777487E+02 -0.63056142943E+02 -0.13446708201E+03  0.15200675255E+03  0.00000000000E+00 0.  1.
<scales pt_clust_3="43.33695" pt_clust_4="39.09190" pt_clust_5="118.92221" pt_clust_6="43.33695"></scales>
<clustering>
<clus scale="   39.092">  1  4  2 -1</clus>
<clus scale="   43.337">  3  6 -1 -1</clus>
<clus scale="  118.922">  1  5  2 -1</clus>
<clus scale="   39.092">  1  3  2 -1</clus>
</clustering>
</event>
<event>
 6    0  0.2839294E+002  0.7000773E+02  0.7546771E-02  0.1360067E+00
         21   -1    0    0  505  502  0.00000000000E+00  0.00000000000E+00  0.75260136116E+03  0.75260136116E+03  0.00000000000E+00 0.  1.
         -3   -1    0    0    0  501 -0.00000000000E+00 -0.00000000000E+00 -0.48110575200E+03  0.48110575200E+03  0.00000000000E+00 0. -1.
         21    1    1    2  503  504  0.71141843715E+02 -0.26188563951E+02  0.25972081951E+03  0.27055850919E+03  0.00000000000E+00 0.  1.
         21    1    1    2  504  502 -0.21403151385E+01  0.36780312003E+02  0.47418259666E+03  0.47561171903E+03  0.00000000000E+00 0.  1.
         21    1    1    2  505  501  0.24573145677E+02 -0.45515764727E+02 -0.11584275108E+03  0.12686633638E+03  0.00000000000E+00 0. -1.
         -3    1    1    2    0  503 -0.93574674253E+02  0.34924016674E+02 -0.34656505593E+03  0.36067054856E+03  0.00000000000E+00 0. -1.
<scales pt_clust_3="70.00773" pt_clust_4="36.84253" pt_clust_5="51.06386" pt_clust_6="14000.00000"></scales>
<clustering>
<clus scale="   36.843">  1  4  2 -1</clus>
<clus scale="   51.064">  2  5  1 -1</clus>
<clus scale="   70.008">  1  3  2 -1</clus>
<clus scale="   36.843">  1  3  2 -1</clus>
</clustering>
</event>
<event>
 6    0  0.2839294E+002  0.1380492E+03  0.7546771E-02  0.1215978E+00
         21   -1    0    0  503  502  0.00000000000E+00  0.00000000000E+00  0.14088499383E+03  0.14088499383E+03  0.00000000000E+00 0. -1.
          2   -1    0    0  505    0 -0.00000000000E+00 -0.00000000000E+00 -0.26113175526E+04  0.26113175526E+04  0.00000000000E+00 0. -1.
         21    1    1    2  503  501 -0.42306437768E+02 -0.41781917795E+02 -0.98579616316E+03  0.98758778781E+03  0.00000000000E+00 0. -1.
         21    1    1    2  504  502  0.33905879694E+02  0.30837047682E+02  0.68845392074E+02  0.82705623735E+02  0.00000000000E+00 0. -1.
         21    1    1    2  505  504  0.81974103244E+02  0.14227823292E+02  0.36048623366E+02  0.90673523175E+02  0.00000000000E+00 0. -1.
          2    1    1    2  501    0 -0.73573545170E+02 -0.32829531783E+01 -0.15895304110E+04  0.15912356117E+04  0.00000000000E+00 0. -1.
<scales pt_clust_3="45.49980" pt_clust_4="44.52316" pt_clust_5="44.52316" pt_clust_6="134.25037"></scales>
<clustering>
<clus scale="   44.523">  4  5 -1 -1</clus>
<clus scale="   45.500">  3  6 -1 -1</clus>
<clus scale="  134.250">  2  3  1 -1</clus>
<clus scale="  138.049">  1  3  2 -1</clus>
</clustering>
</event>
<event>
 6    0  0.2839294E+002  0.8410322E+02  0.7546771E-02  0.1317795E+00
         -2   -1    0    0    0  501 -0.00000000000E+00  0.00000000000E+00  0.75610097474E+03  0.75610097474E+03  0.00000000000E+00 0. -1.
         21   -1    0    0  504  502  0.00000000000E+00 -0.00000000000E+00 -0.69584432555E+02  0.69584432555E+02  0.00000000000E+00 0.  1.
         21    1    1    2  503  501  0.38303458865E+02  0.93547461631E+00  0.95990305270E+02  0.10335457793E+03  0.00000000000E+00 0.  1.
         21    1    1    2  504  503 -0.98483944590E+02 -0.92206427265E+02  0.14829394358E+03  0.20047993983E+03  0.00000000000E+00 0.  1.
         21    1    1    2  505  502  0.21267750571E+02  0.58095161757E+02 -0.13447969377E+02  0.63310448697E+02  0.00000000000E+00 0.  1.
         -2    1    1    2    0  505  0.38912735153E+02  0.33175790892E+02  0.45568026271E+03  0.45854044083E+03  0.00000000000E+00 0. -1.
<scales pt_clust_3="38.31488" pt_clust_4="14000.00000" pt_clust_5="62.41386" pt_clust_6="84.10322"></scales>
<clustering>
<clus scale="   38.315">  1  3  2 -1</clus>
<clus scale="   62.414">  2  5  1 -1</clus>
<clus scale="   84.103">  1  6  2 -1</clus>
<clus scale="   62.414">  2  3  1 -1</clus>
</clustering>
</event>
<event>
 6    0  0.2839294E+002  0.1023948E+03  0.7546771E-02  0.1275339E+00
         21   -1    0    0  504  502  0.00000000000E+00  0.00000000000E+00  0.34134575482E+03  0.34134575482E+03  0.00000000000E+00 0. -1.
          2   -1    0    0  505    0 -0.00000000000E+00 -0.00000000000E+00 -0.14854894146E+04  0.14854894146E+04  0.00000000000E+00 0.  1.
         21    1    1    2  503  501 -0.48082481270E+02  0.72128582491E+02 -0.35962904061E+03  0.36992905301E+03  0.00000000000E+00 0.  1.
         21    1    1    2  504  503  0.33274835080E+02 -0.33724977252E+02  0.20611990160E+03  0.21149468687E+03  0.00000000000E+00 0. -1.
         21    1    1    2  505  502 -0.90182194651E+02  0.12871662315E+02  0.10759757637E+03  0.14098136885E+03  0.00000000000E+00 0. -1.
          2    1    1    2  501    0  0.10498984084E+03 -0.51275267554E+02 -0.10982320971E+04  0.11044300606E+04  0.00000000000E+00 0.  1.
<scales pt_clust_3="14000.00000" pt_clust_4="47.37709" pt_clust_5="61.88836" pt_clust_6="102.39484"></scales>
<clustering>
<clus scale="   47.377">  1  4  2 -1</clus>
<clus scale="   61.888">  1  5  2 -1</clus>
<clus scale="  102.395">  2  6  1 -1</clus>
<clus scale="   47.377">  1  3  2 -1</clus>
</clustering>
</event>
<event>
 6    0  0.2839294E+002  0.8370996E+02  0.7546771E-02  0.1318841E+00
         -2   -1    0    0    0  501 -0.00000000000E+00  0.00000000000E+00  0.32774383563E+03  0.32774383563E+03  0.00000000000E+00 0. -1.
         21   -1    0    0  505  502  0.00000000000E+00 -0.00000000000E+00 -0.14375064432E+03  0.14375064432E+03  0.00000000000E+00 0. -1.
         21    1    1    2  503  502 -0.22798975063E+02  0.48201437616E+02 -0.91976928119E+02  0.10631522543E+03  0.00000000000E+00 0. -1.
         21    1    1    2  504  503 -0.51766089569E+02  0.26829188658E+02  0.16103101817E+02  0.60488373109E+02  0.00000000000E+00 0. -1.
         21    1    1    2  505  501 -0.22058520256E+02 -0.35748129676E+02  0.28109034370E+02  0.50543297324E+02  0.00000000000E+00 0. -1.
         -2    1    1    2    0  504  0.96623584887E+02 -0.39282496598E+02  0.23175798325E+03  0.25414758408E+03  0.00000000000E+00 0. -1.
<scales pt_clust_3="52.75985" pt_clust_4="14000.00000" pt_clust_5="42.00604" pt_clust_6="83.70996"></scales>
<clustering>
<clus scale="   42.006">  1  5  2 -1</clus>
<clus scale="   52.760">  2  3  1 -1</clus>
<clus scale="   83.710">  1  6  2 -1</clus>
<clus scale="   52.760">  2  3  1 -1</clus>
</clustering>
</event>
<event>
 6    0  0.2839294E+002  0.1797042E+03  0.7546771E-02  0.1168090E+00
          1   -1    0    0  504    0 -0.00000000000E+00  0.00000000000E+00  0.24003580369E+04  0.24003580369E+04  0.00000000000E+00 0.  1.
         21   -1    0    0  505  502  0.00000000000E+00 -0.00000000000E+00 -0.50681694326E+02  0.50681694326E+02  0.00000000000E+00 0.  1.
         21    1    1    2  503  502 -0.21268841408E+02 -0.31297932902E+02  0.30351721002E+02  0.48509289694E+02  0.00000000000E+00 0.  1.
         21    1    1    2  504  503 -0.21409532271E+03 -0.67721452971E+02  0.14140918771E+04  0.14318096379E+04  0.00000000000E+00 0.  1.
         21    1    1    2  505  501  0.87625538404E+02  0.10265541363E+03  0.15262975195E+03  0.20374545420E+03  0.00000000000E+00 0.  1.
          1    1    1    2  501    0  0.14773862571E+03 -0.36360277588E+01  0.75260299251E+03  0.76697534938E+03  0.00000000000E+00 0.  1.
<scales pt_clust_3="37.84077" pt_clust_4="14000.00000" pt_clust_5="111.89004" pt_clust_6="179.70417"></scales>
<clustering>
<clus scale="   37.841">  2  3  1 -1</clus>
<clus scale="  111.890">  2  5  1 -1</clus>
<clus scale="  179.704">  1  6  2 -1</clus>
<clus scale="   37.841">  2  3  1 -1</clus>
</clustering>
</event>
<event>
 6    0  0.2839294E+002  0.1857699E+03  0.7546771E-02  0.1162333E+00
          1   -1    0    0  505    0 -0.00000000000E+00  0.00000000000E+00  0.73503202560E+03  0.73503202560E+03  0.00000000000E+00 0.  1.
         21   -1    0    0  504  502  0.00000000000E+00 -0.00000000000E+00 -0.70903895213E+02  0.70903895213E+02  0.00000000000E+00 0.  1.
         21    1    1    2  503  502  0.14259437767E+03 -0.13764916079E+03  0.20988510187E+03  0.28867317852E+03  0.00000000000E+00 0.  1.
         21    1    1    2  504  501 -0.60358547053E+02  0.50930211501E+02  0.66674143999E+02  0.10335609379E+03  0.00000000000E+00 0.  1.
         21    1    1    2  505  503 -0.65585047573E+02  0.14470671791E+02  0.23281234033E+03  0.24230638584E+03  0.00000000000E+00 0. -1.
          1    1    1    2  501    0 -0.16650783043E+02  0.72248277498E+02  0.15475654419E+03  0.17160026267E+03  0.00000000000E+00 0.  1.
<scales pt_clust_3="170.42413" pt_clust_4="72.52801" pt_clust_5="67.16248" pt_clust_6="72.52801"></scales>
<clustering>
<clus scale="   67.162">  1  5  2 -1</clus>
<clus scale="   72.528">  4  6 -1 -1</clus>
<clus scale="  170.424">  1  3  2 -1</clus>
<clus scale="  185.770">  2  3  1 -1</clus>
</clustering>
</event>
<event>
 6    0  0.2839294E+002  0.1180749E+03  0.7546771E-02  0.1246307E+00
         21   -1    0    0  504  502  0.00000000000E+00  0.00000000000E+00  0.61194448813E+03  0.61194448813E+03  0.00000000000E+00 0.  1.
         -2   -1    0    0    0  501 -0.00000000000E+00 -0.00000000000E+00 -0.81556881483E+03  0.81556881483E+03  0.00000000000E+00 0. -1.
         21    1    1    2  503  502  0.64005444470E+02 -0.21540572216E+02  0.35181644142E+03  0.35823944733E+03  0.00000000000E+00 0. -1.
         21    1    1    2  504  501  0.73773989088E+01 -0.34279963250E+02 -0.51335912923E+03  0.51455528125E+03  0.00000000000E+00 0. -1.
         21    1    1    2  505  503  0.47108400318E+02  0.17586416076E+02  0.24061773728E+03  0.24581574177E+03  0.00000000000E+00 0.  1.
         -2    1    1    2    0  505 -0.11849124370E+03  0.38234119390E+02 -0.28269937615E+03  0.30890283261E+03  0.00000000000E+00 0. -1.
<scales pt_clust_3="33.88980" pt_clust_4="35.06482" pt_clust_5="33.88980" pt_clust_6="111.35163"></scales>
<clustering>
<clus scale="   33.890">  3  5 -1 -1</clus>
<clus scale="   35.065">  2  4  1 -1</clus>
<clus scale="  111.352">  2  6  1 -1</clus>
<clus scale="  118.075">  1  3  2 -1</clus>
</clustering>
</event>
<event>
 6    0  0.2839294E+002  0.9976675E+02  0.7546771E-02  0.1280787E+00
          1   -1    0    0  503    0 -0.00000000000E+00  0.00000000000E+00  0.93028574386E+02  0.93028574386E+02  0.00000000000E+00 0.  1.
         21   -1    0    0  505  502  0.00000000000E+00 -0.00000000000E+00 -0.60201199232E+03  0.60201199232E+03  0.00000000000E+00 0.  1.
         21    1    1    2  503  502  0.38462855052E+02  0.16453751546E+02 -0.49706085281E+02  0.64967777187E+02  0.00000000000E+00 0. -1.
         21    1    1    2  504  501 -0.12280916954E+03  0.31942728616E+02 -0.21331939673E+03  0.24820877313E+03  0.00000000000E+00 0.  1.
         21    1    1    2  505  504 -0.96125283022E+01 -0.29832302289E+02 -0.27884407862E+03  0.28060004836E+03  0.00000000000E+00 0.  1.
          1    1    1    2  501    0  0.93958842790E+02 -0.18564177873E+02  0.32886142702E+02  0.10126396803E+03  0.00000000000E+00 0.  1.
<scales pt_clust_3="38.40582" pt_clust_4="14000.00000" pt_clust_5="31.34273" pt_clust_6="99.76675"></scales>
<clustering>
<clus scale="   31.343">  2  5  1 -1</clus>
<clus scale="   38.406">  2  3  1 -1</clus>
<clus scale="   99.767">  1  6  2 -1</clus>
<clus scale="   31.343">  2  3  1 -1</clus>
</clustering>
</event>
<event>
 6    0  0.2839294E+002  0.1489646E+03  0.7546771E-02  0.1201751E+00
          2   -1    0    0  504    0 -0.00000000000E+00  0.00000000000E+00  0.15372968776E+03  0.15372968776E+03  0.00000000000E+00 0.  1.
         21   -1    0    0  503  502  0.00000000000E+00 -0.00000000000E+00 -0.15690794233E+04  0.15690794233E+04  0.00000000000E+00 0.  1.
         21    1    1    2  503  505  0.12227232013E+02 -0.36527615914E+02 -0.98602634132E+02  0.10585958334E+03  0.00000000000E+00 0.  1.
         21    1    1    2  504  502  0.13159282999E+03  0.45268352200E+02 -0.14255222281E+04  0.14322986838E+04  0.00000000000E+00 0.  1.
         21    1    1    2  505  501 -0.62262396879E+02 -0.22942173252E+02  0.51239249761E+02  0.83835613523E+02  0.00000000000E+00 0. -1.
          2    1    1    2  501    0 -0.81557665128E+02  0.14201436966E+02  0.57535876949E+02  0.10081523044E+03  0.00000000000E+00 0.  1.
<scales pt_clust_3="38.51976" pt_clust_4="143.83030" pt_clust_5="34.71224" pt_clust_6="34.71224"></scales>
<clustering>
<clus scale="   34.712">  5  6 -1 -1</clus>
<clus scale="   38.520">  2  3  1 -1</clus>
<clus scale="  143.830">  2  4  1 -1</clus>
<clus scale="   38.520">  2  3  1 -1</clus>
</clustering>
</event>
<event>
 6    0  0.2839294E+002  0.1061624E+03  0.7546771E-02  0.1267846E+00
         21   -1    0    0  501  502  0.00000000000E+00  0.00000000000E+00  0.41913467814E+03  0.41913467814E+03  0.00000000000E+00 0.  1.
          2   -1    0    0  503    0 -0.00000000000E+00 -0.00000000000E+00 -0.90501394272E+03  0.90501394272E+03  0.00000000000E+00 0. -1.
         21    1    1    2  503  504  0.90380983345E+02 -0.55773332589E+01 -0.45389226309E+03  0.46283692084E+03  0.00000000000E+00 0. -1.
         21    1    1    2  504  505  0.30876436626E+02 -0.74470484030E+02  0.27710467050E+02  0.85247154290E+02  0.00000000000E+00 0. -1.
         21    1    1    2  505  502  0.40583213834E+02  0.32852901461E+02  0.33910137159E+03  0.34309772746E+03  0.00000000000E+00 0.  1.
          2    1    1    2  501    0 -0.16184063381E+03  0.47194915828E+02 -0.39879884013E+03  0.43296681827E+03  0.00000000000E+00 0. -1.
<scales pt_clust_3="14000.00000" pt_clust_4="78.73820" pt_clust_5="52.21408" pt_clust_6="106.16241"></scales>
<clustering>
<clus scale="   52.214">  1  5  2 -1</clus>
<clus scale="   78.738">  1  4  2 -1</clus>
<clus scale="  106.162">  1  6  2 -1</clus>
<clus scale="   52.214">  1  3  2 -1</clus>
</clustering>
</event>
<event>
 6    0  0.2839294E+002  0.1381880E+03  0.7546771E-02  0.1215788E+00
         21   -1    0    0  504  502  0.00000000000E+00  0.00000000000E+00  0.23356171455E+03  0.23356171455E+03  0.00000000000E+00 0.  1.
          1   -1    0    0  505    0 -0.00000000000E+00 -0.00000000000E+00 -0.12399461127E+04  0.12399461127E+04  0.00000000000E+00 0.  1.
         21    1    1    2  503  501  0.18992959736E+02 -0.62702578720E+02 -0.63015119779E+02  0.90902426911E+02  0.00000000000E+00 0.  1.
         21    1    1    2  504  503 -0.43400419679E+02  0.24082201266E+02  0.10663676000E+02  0.50766749275E+02  0.00000000000E+00 0. -1.
         21    1    1    2  505  502  0.61340554990E+02 -0.95261838438E+02  0.16723483170E+03  0.20200240217E+03  0.00000000000E+00 0.  1.
          1    1    1    2  501    0 -0.36933095048E+02  0.13388221589E+03 -0.11212677861E+04  0.11298362489E+04  0.00000000000E+00 0.  1.
<scales pt_clust_3="63.11153" pt_clust_4="49.63415" pt_clust_5="138.18803" pt_clust_6="14000.00000"></scales>
<clustering>
<clus scale="   49.634">  1  4  2 -1</clus>
<clus scale="   63.112">  1  3  2 -1</clus>
<clus scale="  138.188">  1  5  2 -1</clus>
<clus scale="   49.634">  1  3  2 -1</clus>
</clustering>
</event>
<event>
 6    0  0.2839294E+002  0.7173508E+02  0.7546771E-02  0.1354290E+00
         -3   -1    0    0    0  501 -0.00000000000E+00  0.00000000000E+00  0.14330758518E+03  0.14330758518E+03  0.00000000000E+00 0. -1.
         21   -1    0    0  503  502  0.00000000000E+00 -0.00000000000E+00 -0.10290638290E+04  0.10290638290E+04  0.00000000000E+00 0.  1.
         21    1    1    2  503  504 -0.83694081072E+02  0.48130796609E+02 -0.28167972345E+02  0.10057190191E+03  0.00000000000E+00 0. -1.
         21    1    1    2  504  501  0.32115396224E+02 -0.50414897863E+02 -0.96285421357E+00  0.59782837750E+02  0.00000000000E+00 0. -1.
         21    1    1    2  505  502  0.65568246857E+02  0.30456709041E+02 -0.92967546656E+03  0.93248232114E+03  0.00000000000E+00 0.  1.
         -3    1    1    2    0  505 -0.13989562009E+02 -0.28172607787E+02  0.73050049267E+02  0.79534353412E+02  0.00000000000E+00 0. -1.
<scales pt_clust_3="71.73508" pt_clust_4="67.94043" pt_clust_5="14000.00000" pt_clust_6="31.45479"></scales>
<clustering>
<clus scale="   31.455">  1  6  2 -1</clus>
<clus scale="   67.940">  1  4  2 -1</clus>
<clus scale="   71.735">  1  3  2 -1</clus>
<clus scale="   71.735">  2  3  1 -1</clus>
</clustering>
</event>
<event>
 6    0  0.2839294E+002  0.1162644E+03  0.7546771E-02  0.1249390E+00
          2   -1    0    0  505    0 -0.00000000000E+00  0.00000000000E+00  0.93976157885E+03  0.93976157885E+03  0.00000000000E+00 0.  1.
         21   -1    0    0  503  502  0.00000000000E+00 -0.00000000000E+00 -0.14262974836E+03  0.14262974836E+03  0.00000000000E+00 0.  1.
         21    1    1    2  503  501 -0.26248223333E+02  0.36972893526E+02 -0.92077043164E+02  0.10263598765E+03  0.00000000000E+00 0.  1.
         21    1    1    2  504  502 -0.35215244167E+02  0.78335260204E+02  0.61695644360E+02  0.10574913213E+03  0.00000000000E+00 0.  1.
         21    1    1    2  505  504  0.12918680718E+03 -0.16899450325E+01  0.24852433197E+03  0.28010075088E+03  0.00000000000E+00 0.  1.
          2    1    1    2  501    0 -0.67723339680E+02 -0.11361820870E+03  0.57898889733E+03  0.59390545655E+03  0.00000000000E+00 0.  1.
<scales pt_clust_3="45.34274" pt_clust_4="107.61449" pt_clust_5="14000.00000" pt_clust_6="116.26439"></scales>
<clustering>
<clus scale="   45.343">  2  3  1 -1</clus>
<clus scale="  107.614">  2  4  1 -1</clus>
<clus scale="  116.264">  1  6  2 -1</clus>
<clus scale="   45.343">  2  3  1 -1</clus>
</clustering>
</event>
<event>
 6    0  0.2839294E+002  0.2244962E+03  0.7546771E-02  0.1130575E+00
          1   -1    0    0  505    0 -0.00000000000E+00  0.00000000000E+00  0.20216522823E+04  0.20216522823E+04  0.00000000000E+00 0. -1.
         21   -1    0    0  501  502  0.00000000000E+00 -0.00000000000E+00 -0.11004669920E+03  0.11004669920E+03  0.00000000000E+00 0. -1.
         21    1    1    2  503  502  0.54957816446E+02 -0.58575280807E+01  0.67187552984E+02  0.86999077580E+02  0.00000000000E+00 0. -1.
         21    1    1    2  504  503  0.13498043563E+03  0.14817578751E+03  0.33608530183E+02  0.20323709137E+03  0.00000000000E+00 0. -1.
         21    1    1    2  505  504 -0.73850888323E+02  0.37529802829E+02  0.98088572697E+03  0.98437759482E+03  0.00000000000E+00 0. -1.
          1    1    1    2  501    0 -0.11608736375E+03 -0.17984806226E+03  0.82992377300E+03  0.85708521776E+03  0.00000000000E+00 0. -1.
<scales pt_clust_3="55.26909" pt_clust_4="224.49621" pt_clust_5="81.94009" pt_clust_6="14000.00000"></scales>
<clustering>
<clus scale="   55.269">  2  3  1 -1</clus>
<clus scale="   81.940">  1  5  2 -1</clus>
<clus scale="  224.496">  2  4  1 -1</clus>
<clus scale="   55.269">  2  3  1 -1</clus>
</clustering>
</event>
<event>
 6    0  0.2839294E+002  0.7882717E+02  0.7546771E-02  0.1332413E+00
         21   -1    0    0  505  502  0.00000000000E+00  0.00000000000E+00  0.95192060895E+02  0.95192060895E+02  0.00000000000E+00 0. -1.
          2   -1    0    0  504    0 -0.00000000000E+00 -0.00000000000E+00 -0.10955015110E+04  0.10955015110E+04  0.00000000000E+00 0. -1.
         21    1    1    2  503  502 -0.98230660479E+02  0.80533035657E+00 -0.11300787275E+02  0.98881843673E+02  0.00000000000E+00 0. -1.
         21    1    1    2  504  503  0.72508327155E+02 -0.98225354603E+01 -0.88042378722E+03  0.88345910195E+03  0.00000000000E+00 0. -1.
         21    1    1    2  505  501  0.41876559570E+02 -0.72474741548E+02 -0.18337247354E+02  0.85688325018E+02  0.00000000000E+00 0. -1.
          2    1    1    2  501    0 -0.16154226246E+02  0.81491946652E+02 -0.90247628225E+02  0.12266430122E+03  0.00000000000E+00 0. -1.
<scales pt_clust_3="78.82717" pt_clust_4="73.17062" pt_clust_5="14000.00000" pt_clust_6="79.16110"></scales>
<clustering>
<clus scale="   73.171">  2  4  1 -1</clus>
<clus scale="   79.161">  2  6  1 -1</clus>
<clus scale="   78.827">  2  3  1 -1</clus>
<clus scale="   78.827">  1  3  2 -1</clus>
</clustering>
</event>
<event>
 6    0  0.2839294E+002  0.2241196E+03  0.7546771E-02  0.1130848E+00
          2   -1    0    0  505    0 -0.00000000000E+00  0.00000000000E+00  0.20710769893E+04  0.20710769893E+04  0.00000000000E+00 0.  1.
         21   -1    0    0  503  502  0.00000000000E+00 -0.00000000000E+00 -0.11724334036E+03  0.11724334036E+03  0.00000000000E+00 0. -1.
         21    1    1    2  503  501  0.24798677100E+03 -0.48998587993E+02  0.91323149450E+02  0.26877168348E+03  0.00000000000E+00 0. -1.
         21    1    1    2  504  502 -0.41739444985E+02 -0.42698537043E+02  0.26096266021E+02  0.65164111546E+02  0.00000000000E+00 0. -1.
         21    1    1    2  505  504 -0.94331828558E+01  0.56890654671E+02  0.41244555095E+03  0.41645751768E+03  0.00000000000E+00 0. -1.
          2    1    1    2  501    0 -0.19681414316E+03  0.34806470366E+02  0.14239686825E+04  0.14379270169E+04  0.00000000000E+00 0.  1.
<scales pt_clust_3="224.11961" pt_clust_4="58.78556" pt_clust_5="57.66742" pt_clust_6="14000.00000"></scales>
<clustering>
<clus scale="   57.667">  1  5  2 -1</clus>
<clus scale="   58.786">  2  4  1 -1</clus>
<clus scale="  224.120">  2  3  1 -1</clus>
<clus scale="   58.786">  2  3  1 -1</clus>
</clustering>
</event>
<event>
 6    0  0.2839294E+002  0.6878489E+02  0.7546771E-02  0.1364275E+00
          2   -1    0    0  503    0 -0.00000000000E+00  0.00000000000E+00  0.21080598447E+04  0.21080598447E+04  0.00000000000E+00 0. -1.
         21   -1    0    0  501  502  0.00000000000E+00 -0.00000000000E+00 -0.84978470693E+02  0.84978470693E+02  0.00000000000E+00 0. -1.
         21    1    1    2  503  505  0.51530153004E+02 -0.21011521739E+02  0.36027236724E+03  0.36454494827E+03  0.00000000000E+00 0.  1.
         21    1    1    2  504  502 -0.64009742452E+02  0.29392176669E+02 -0.56897971043E+02  0.90545713796E+02  0.00000000000E+00 0. -1.
         21    1    1    2  505  504  0.67219526347E+02  0.18906552111E+02  0.13436422419E+03  0.15142545089E+03  0.00000000000E+00 0. -1.
          2    1    1    2  501    0 -0.54739936899E+02 -0.27287207040E+02  0.15853427537E+04  0.15865222025E+04  0.00000000000E+00 0. -1.
<scales pt_clust_3="55.64927" pt_clust_4="14000.00000" pt_clust_5="68.78489" pt_clust_6="47.04846"></scales>
<clustering>
<clus scale="   55.649">  1  3  2 -1</clus>
<clus scale="   47.048">  1  6  2 -1</clus>
<clus scale="   68.785">  1  5  2 -1</clus>
<clus scale="   68.785">  2  3  1 -1</clus>
</clustering>
</event>
<event>
 6    0  0.2839294E+002  0.2350483E+03  0.7546771E-02  0.1123136E+00
         21   -1    0    0  505  502  0.00000000000E+00  0.00000000000E+00  0.71798144321E+03  0.71798144321E+03  0.00000000000E+00 0.  1.
          2   -1    0    0  504    0 -0.00000000000E+00 -0.00000000000E+00 -0.24180674303E+04  0.24180674303E+04  0.00000000000E+00 0.  1.
         21    1    1    2  503  501 -0.37434798852E+02  0.10851751457E+02  0.18103626536E+03  0.18518437853E+03  0.00000000000E+00 0.  1.
         21    1    1    2  504  502 -0.56091964822E+02  0.12768078758E+02 -0.95722896225E+02  0.11167902764E+03  0.00000000000E+00 0.  1.
         21    1    1    2  505  503 -0.11560681379E+03  0.15176294175E+03  0.50123738228E+03  0.53631692056E+03  0.00000000000E+00 0.  1.
          2    1    1    2  501    0  0.20913357746E+03 -0.17538277197E+03 -0.22866367385E+04  0.23028685468E+04  0.00000000000E+00 0.  1.
<scales pt_clust_3="32.59848" pt_clust_4="57.52680" pt_clust_5="32.59848" pt_clust_6="223.71009"></scales>
<clustering>
<clus scale="   32.598">  3  5 -1 -1</clus>
<clus scale="   57.527">  2  4  1 -1</clus>
<clus scale="  223.710">  2  6  1 -1</clus>
<clus scale="  235.048">  1  3  2 -1</clus>
</clustering>
</event>
<event>
 6    0  0.2839294E+002  0.9923318E+02  0.7546771E-02  0.1281917E+00
         21   -1    0    0  503  502  0.00000000000E+00  0.00000000000E+00  0.55471333422E+02  0.55471333422E+02  0.00000000000E+00 0.  1.
         -2   -1    0    0    0  501 -0.00000000000E+00 -0.00000000000E+00 -0.10987383748E+04  0.10987383748E+04  0.00000000000E+00 0.  1.
         21    1    1    2  503  504  0.93395559257E+02  0.62420871354E+02 -0.29386452787E+02  0.11611485382E+03  0.00000000000E+00 0.  1.
         21    1    1    2  504  501 -0.21846150121E+02 -0.51885285207E+02 -0.28181191337E+03  0.28738004735E+03  0.00000000000E+00 0.  1.
         21    1    1    2  505  502 -0.61891829084E+02  0.23942044203E+02 -0.11626198451E+03  0.13386810311E+03  0.00000000000E+00 0.  1.
         -2    1    1    2    0  505 -0.96575800526E+01 -0.34477630351E+02 -0.61580669073E+03  0.61684670397E+03  0.00000000000E+00 0.  1.
<scales pt_clust_3="14000.00000" pt_clust_4="99.23318" pt_clust_5="66.12034" pt_clust_6="35.80469"></scales>
<clustering>
<clus scale="   35.805">  2  6  1 -1</clus>
<clus scale="   66.120">  2  5  1 -1</clus>
<clus scale="   99.233">  2  4  1 -1</clus>
<clus scale="   99.233">  1  3  2 -1</clus>
</clustering>
</event>
<event>
 6    0  0.2839294E+002  0.9324024E+02  0.7546771E-02  0.1295189E+00
         21   -1    0    0  505  502  0.00000000000E+00  0.00000000000E+00  0.95569108290E+02  0.95569108290E+02  0.00000000000E+00 0.  1.
          2   -1    0    0  503    0 -0.00000000000E+00 -0.00000000000E+00 -0.11956231248E+04  0.11956231248E+04  0.00000000000E+00 0.  1.
         21    1    1    2  503  502  0.42049113380E+02 -0.88973415527E+01  0.74158199080E+02  0.85713062678E+02  0.00000000000E+00 0.  1.
         21    1    1    2  504  501  0.64257891280E+02  0.71771749052E+02 -0.39060367154E+03  0.40230770410E+03  0.00000000000E+00 0.  1.
         21    1    1    2  505  504 -0.14007950271E+01 -0.60195850947E+02 -0.16326185100E+03  0.17401130621E+03  0.00000000000E+00 0.  1.
          2    1    1    2  501    0 -0.10490620963E+03 -0.26785565524E+01 -0.62034669306E+03  0.62916016011E+03  0.00000000000E+00 0.  1.
<scales pt_clust_3="42.98012" pt_clust_4="93.24024" pt_clust_5="64.58798" pt_clust_6="14000.00000"></scales>
<clustering>
<clus scale="   42.980">  1  3  2 -1</clus>
<clus scale="   64.588">  1  5  2 -1</clus>
<clus scale="   93.240">  1  4  2 -1</clus>
<clus scale="   42.980">  1  3  2 -1</clus>
</clustering>
</event>
<event>
 6    0  0.2839294E+002  0.6987970E+02  0.7546771E-02  0.1360503E+00
         -4   -1    0    0    0  501 -0.00000000000E+00  0.00000000000E+00  0.50031109710E+02  0.50031109710E+02  0.00000000000E+00 0.  1.
         21   -1    0    0  505  502  0.00000000000E+00 -0.00000000000E+00 -0.37125030448E+04  0.37125030448E+04  0.00000000000E+00 0.  1.
         21    1    1    2  503  504 -0.10402344123E+02 -0.60931892972E+02 -0.91839244457E+02  0.11070388957E+03  0.00000000000E+00 0.  1.
         21    1    1    2  504  501 -0.33667843039E+02  0.90432303607E+01 -0.81286030206E+02  0.88446155241E+02  0.00000000000E+00 0.  1.
         21    1    1    2  505  503  0.16873613500E+02 -0.67420678916E+02 -0.34239130922E+04  0.34246183919E+04  0.00000000000E+00 0.  1.
         -4    1    1    2    0  502  0.27196573662E+02  0.11930934153E+03 -0.65433568182E+02  0.13876571781E+03  0.00000000000E+00 0.  1.
<scales pt_clust_3="61.55865" pt_clust_4="34.86121" pt_clust_5="14000.00000" pt_clust_6="69.87970"></scales>
<clustering>
<clus scale="   34.861">  1  4  2 -1</clus>
<clus scale="   61.559">  1  3  2 -1</clus>
<clus scale="   69.880">  1  6  2 -1</clus>
<clus scale="   69.880">  2  3  1 -1</clus>
</clustering>
</event>
<event>
 6    0  0.2839294E+002  0.1114612E+03  0.7546771E-02  0.1257888E+00
         21   -1    0    0  501  502  0.00000000000E+00  0.00000000000E+00  0.26203733449E+02  0.26203733449E+02  0.00000000000E+00 0. -1.
          1   -1    0    0  504    0 -0.00000000000E+00 -0.00000000000E+00 -0.26862631845E+04  0.26862631845E+04  0.00000000000E+00 0. -1.
         21    1    1    2  503  502 -0.84873841900E+01  0.31281765100E+02 -0.27563847942E+02  0.42548210674E+02  0.00000000000E+00 0.  1.
         21    1    1    2  504  505 -0.23743195962E+02 -0.80221087209E+02 -0.12489967588E+04  0.12517955367E+04  0.00000000000E+00 0. -1.
         21    1    1    2  505  503  0.82804976631E+02  0.63937746151E+02 -0.14660396626E+03  0.18010392128E+03  0.00000000000E+00 0. -1.
          1    1    1    2  501    0 -0.50574396479E+02 -0.14998424042E+02 -0.12368948781E+04  0.12380192494E+04  0.00000000000E+00 0. -1.
<scales pt_clust_3="32.41272" pt_clust_4="14000.00000" pt_clust_5="111.46115" pt_clust_6="52.73776"></scales>
<clustering>
<clus scale="   32.413">  1  3  2 -1</clus>
<clus scale="   52.738">  2  6  1 -1</clus>
<clus scale="  111.461">  1  5  2 -1</clus>
<clus scale="   32.413">  1  3  2 -1</clus>
</clustering>
</event>
<event>
 6    0  0.2839294E+002  0.1082388E+03  0.7546771E-02  0.1263866E+00
         21   -1    0    0  505  502  0.00000000000E+00  0.00000000000E+00  0.13337531470E+03  0.13337531470E+03  0.00000000000E+00 0.  1.
          2   -1    0    0  503    0 -0.00000000000E+00 -0.00000000000E+00 -0.21637143388E+04  0.21637143388E+04  0.00000000000E+00 0.  1.
         21    1    1    2  503  504 -0.56581090890E+02  0.17916747327E+02 -0.87268387457E+02  0.10553767636E+03  0.00000000000E+00 0.  1.
         21    1    1    2  504  502 -0.25122753120E+02  0.26225175198E+02  0.76497414894E+02  0.84680381577E+02  0.00000000000E+00 0.  1.
         21    1    1    2  505  501  0.10737113750E+03  0.61804282266E+02 -0.48898559038E+02  0.13318933722E+03  0.00000000000E+00 0.  1.
          2    1    1    2  501    0 -0.25667293487E+02 -0.10594620479E+03 -0.19706694925E+04  0.19736822583E+04  0.00000000000E+00 0.  1.
<scales pt_clust_3="64.93471" pt_clust_4="36.31684" pt_clust_5="108.23882" pt_clust_6="14000.00000"></scales>
<clustering>
<clus scale="   36.317">  1  4  2 -1</clus>
<clus scale="   64.935">  1  3  2 -1</clus>
<clus scale="  108.239">  1  5  2 -1</clus>
<clus scale="   36.317">  1  3  2 -1</clus>
</clustering>
</event>
<event>
 6    0  0.2839294E+002  0.1020343E+03  0.7546771E-02  0.1276075E+00
         21   -1    0    0  504  502  0.00000000000E+00  0.00000000000E+00  0.56461492115E+02  0.56461492115E+02  0.00000000000E+00 0. -1.
          2   -1    0    0  503    0 -0.00000000000E+00 -0.00000000000E+00 -0.12320254623E+04  0.12320254623E+04  0.00000000000E+00 0. -1.
         21    1    1    2  503  505 -0.41041629969E+02 -0.60969892064E+02 -0.62579638384E+03  0.63009749814E+03  0.00000000000E+00 0. -1.
         21    1    1    2  504  501 -0.20496742929E+02  0.11282470640E+03 -0.47048825052E+02  0.12394806487E+03  0.00000000000E+00 0. -1.
         21    1    1    2  505  502  0.41604351754E+02 -0.76085160346E+02 -0.10813058483E+03  0.13860770933E+03  0.00000000000E+00 0. -1.
          2    1    1    2  501    0  0.19934021144E+02  0.24230346008E+02 -0.39458817646E+03  0.39583368208E+03  0.00000000000E+00 0. -1.
<scales pt_clust_3="50.11078" pt_clust_4="102.03428" pt_clust_5="14000.00000" pt_clust_6="31.37634"></scales>
<clustering>
<clus scale="   31.376">  2  6  1 -1</clus>
<clus scale="   50.111">  2  3  1 -1</clus>
<clus scale="  102.034">  1  4  2 -1</clus>
<clus scale="  102.034">  1  3  2 -1</clus>
</clustering>
</event>
<event>
 6    0  0.2839294E+002  0.2185597E+03  0.7546771E-02  0.1134961E+00
         21   -1    0    0  501  502  0.00000000000E+00  0.00000000000E+00  0.21507685574E+03  0.21507685574E+03  0.00000000000E+00 0. -1.
          1   -1    0    0  505    0 -0.00000000000E+00 -0.00000000000E+00 -0.27917869271E+04  0.27917869271E+04  0.00000000000E+00 0. -1.
         21    1    1    2  503  502  0.67697946791E+02  0.64781145523E+02  0.12986652071E+03  0.16014031977E+03  0.00000000000E+00 0.  1.
         21    1    1    2  504  503 -0.21955100518E+03  0.93314799480E+02 -0.16564700792E+03  0.29042938369E+03  0.00000000000E+00 0. -1.
         21    1    1    2  505  504  0.31715224084E+02  0.18273110141E+02 -0.10821478097E+03  0.11423747552E+03  0.00000000000E+00 0. -1.
          1    1    1    2  501    0  0.12013783431E+03 -0.17636905514E+03 -0.24327148032E+04  0.24420566039E+04  0.00000000000E+00 0. -1.
<scales pt_clust_3="93.90031" pt_clust_4="218.55974" pt_clust_5="36.60276" pt_clust_6="14000.00000"></scales>
<clustering>
<clus scale="   36.603">  2  5  1 -1</clus>
<clus scale="   93.900">  1  3  2 -1</clus>
<clus scale="  218.560">  1  4  2 -1</clus>
<clus scale="   93.900">  1  3  2 -1</clus>
</clustering>
</event>
<event>
 6    0  0.2839294E+002  0.9385896E+02  0.7546771E-02  0.1293767E+00
         21   -1    0    0  503  502  0.00000000000E+00  0.00000000000E+00  0.30823180051E+02  0.30823180051E+02  0.00000000000E+00 0.  1.
          2   -1    0    0  504    0 -0.00000000000E+00 -0.00000000000E+00 -0.16024771723E+04  0.16024771723E+04  0.00000000000E+00 0.  1.
         21    1    1    2  503  501  0.15926945047E+02  0.25726369943E+02 -0.50283987174E+02  0.58685543834E+02  0.00000000000E+00 0. -1.
         21    1    1    2  504  505  0.36381160711E+02 -0.64037397243E+02 -0.27222414614E+03  0.28201128141E+03  0.00000000000E+00 0. -1.
         21    1    1    2  505  502 -0.49411980452E+01 -0.52804018320E+02 -0.16292773656E+02  0.55480936026E+02  0.00000000000E+00 0.  1.
          2    1    1    2  501    0 -0.47366907713E+02  0.91115045620E+02 -0.12328530853E+04  0.12371225911E+04  0.00000000000E+00 0.  1.
<scales pt_clust_3="30.25746" pt_clust_4="14000.00000" pt_clust_5="34.54157" pt_clust_6="93.85896"></scales>
<clustering>
<clus scale="   30.257">  1  3  2 -1</clus>
<clus scale="   34.542">  1  5  2 -1</clus>
<clus scale="   93.859">  2  6  1 -1</clus>
<clus scale="   30.257">  1  3  2 -1</clus>
</clustering>
</event>
<event>
 6    0  0.2839294E+002  0.8737841E+02  0.7546771E-02  0.1309327E+00
          1   -1    0    0  505    0 -0.00000000000E+00  0.00000000000E+00  0.21122839231E+03  0.21122839231E+03  0.00000000000E+00 0.  1.
         21   -1    0    0  504  502  0.00000000000E+00 -0.00000000000E+00 -0.15631442323E+03  0.15631442323E+03  0.00000000000E+00 0.  1.
         21    1    1    2  503  501  0.46980656702E+02  0.30596904943E+02  0.47701999821E+02  0.73612726367E+02  0.00000000000E+00 0.  1.
         21    1    1    2  504  503  0.66790011473E+02  0.40808341347E+02 -0.15250452818E+02  0.79742100971E+02  0.00000000000E+00 0.  1.
         21    1    1    2  505  502 -0.78930396420E+02 -0.51493943274E+02 -0.67339155554E+02  0.11582830200E+03  0.00000000000E+00 0.  1.
          1    1    1    2  501    0 -0.34840271755E+02 -0.19911303016E+02  0.89801577637E+02  0.98359686202E+02  0.00000000000E+00 0.  1.
<scales pt_clust_3="35.34321" pt_clust_4="14000.00000" pt_clust_5="87.37841" pt_clust_6="40.12860"></scales>
<clustering>
<clus scale="   40.129">  1  6  2 -1</clus>
<clus scale="   35.343">  1  3  2 -1</clus>
<clus scale="   87.378">  2  5  1 -1</clus>
<clus scale="   87.378">  2  3  1 -1</clus>
</clustering>
</event>
<event>
 6    0  0.2839294E+002  0.1232306E+03  0.7546771E-02  0.1237861E+00
         21   -1    0    0  503  502  0.00000000000E+00  0.00000000000E+00  0.67744860787E+03  0.67744860787E+03  0.00000000000E+00 0.  1.
          2   -1    0    0  504    0 -0.00000000000E+00 -0.00000000000E+00 -0.32203437116E+03  0.32203437116E+03  0.00000000000E+00 0.  1.
         21    1    1    2  503  505  0.62905597255E+02 -0.51207164903E+02  0.20860076605E+03  0.22381592325E+03  0.00000000000E+00 0.  1.
         21    1    1    2  504  502 -0.49502220736E+02 -0.65882157618E+02  0.44494076170E+03  0.45250769051E+03  0.00000000000E+00 0.  1.
         21    1    1    2  505  501 -0.13721021042E+02  0.72951235261E+02 -0.13384867820E+03  0.15305429691E+03  0.00000000000E+00 0. -1.
          2    1    1    2  501    0  0.31764452349E+00  0.44138087261E+02 -0.16427861284E+03  0.17010506836E+03  0.00000000000E+00 0.  1.
<scales pt_clust_3="81.11281" pt_clust_4="116.28949" pt_clust_5="31.44175" pt_clust_6="31.44175"></scales>
<clustering>
<clus scale="   31.442">  5  6 -1 -1</clus>
<clus scale="   81.113">  1  3  2 -1</clus>
<clus scale="  116.289">  1  4  2 -1</clus>
<clus scale="   81.113">  1  3  2 -1</clus>
</clustering>
</event>
<event>
 6    0  0.2839294E+002  0.1497166E+03  0.7546771E-02  0.1200822E+00
         21   -1    0    0  504  502  0.00000000000E+00  0.00000000000E+00  0.19846746111E+03  0.19846746111E+03  0.00000000000E+00 0. -1.
         -1   -1    0    0    0  501 -0.00000000000E+00 -0.00000000000E+00 -0.53274673398E+03  0.53274673398E+03  0.00000000000E+00 0. -1.
         21    1    1    2  503  502 -0.16247592929E+03 -0.97818565526E+01  0.13816690657E+03  0.21350458166E+03  0.00000000000E+00 0. -1.
         21    1    1    2  504  505  0.24434452715E+02  0.26397313740E+02 -0.26337819408E+02  0.44581850381E+02  0.00000000000E+00 0. -1.
         21    1    1    2  505  501  0.55836456545E+02  0.41206443573E+01 -0.82077505924E+02  0.99354952408E+02  0.00000000000E+00 0.  1.
         -1    1    1    2    0  503  0.82205020035E+02 -0.20736101545E+02 -0.36403085412E+03  0.37377281064E+03  0.00000000000E+00 0. -1.
<scales pt_clust_3="144.31183" pt_clust_4="31.95262" pt_clust_5="31.95262" pt_clust_6="84.78002"></scales>
<clustering>
<clus scale="   31.953">  4  5 -1 -1</clus>
<clus scale="   84.780">  2  6  1 -1</clus>
<clus scale="  144.312">  1  3  2 -1</clus>
<clus scale="  144.312">  1  3  2 -1</clus>
</clustering>
</event>
<event>
 6    0  0.2839294E+002  0.8363550E+02  0.7546771E-02  0.1319040E+00
         -2   -1    0    0    0  501 -0.00000000000E+00  0.00000000000E+00  0.19422985880E+03  0.19422985880E+03  0.00000000000E+00 0.  1.
         21   -1    0    0  505  502  0.00000000000E+00 -0.00000000000E+00 -0.13197656195E+04  0.13197656195E+04  0.00000000000E+00 0.  1.
         21    1    1    2  503  504  0.33304439111E+02  0.10568990794E+03 -0.77248407700E+03  0.78039169109E+03  0.00000000000E+00 0.  1.
         21    1    1    2  504  501 -0.36543577585E+02 -0.13878624885E+02  0.37930560312E+02  0.54468125514E+02  0.00000000000E+00 0.  1.
         21    1    1    2  505  503 -0.16017084876E+02 -0.66668074707E+02 -0.53108770477E+03  0.53549540553E+03  0.00000000000E+00 0.  1.
         -2    1    1    2    0  502  0.19256223350E+02 -0.25143208346E+02  0.14010546074E+03  0.14364025617E+03  0.00000000000E+00 0.  1.
<scales pt_clust_3="14000.00000" pt_clust_4="41.02378" pt_clust_5="83.63550" pt_clust_6="31.66991"></scales>
<clustering>
<clus scale="   31.670">  1  6  2 -1</clus>
<clus scale="   41.024">  1  4  2 -1</clus>
<clus scale="   83.635">  2  5  1 -1</clus>
<clus scale="   83.635">  2  3  1 -1</clus>
</clustering>
</event>
<event>
 6    0  0.2839294E+002  0.7859329E+02  0.7546771E-02  0.1333092E+00
         21   -1    0    0  503  502  0.00000000000E+00  0.00000000000E+00  0.49574535168E+03  0.49574535168E+03  0.00000000000E+00 0.  1.
          3   -1    0    0  504    0 -0.00000000000E+00 -0.00000000000E+00 -0.20098121053E+03  0.20098121053E+03  0.00000000000E+00 0. -1.
         21    1    1    2  503  501 -0.44110529506E+02  0.31818393959E+02 -0.30943489170E+02  0.62575143063E+02  0.00000000000E+00 0.  1.
         21    1    1    2  504  505  0.89534485441E+02 -0.66337993932E+02  0.20506682353E+02  0.11330347542E+03  0.00000000000E+00 0. -1.
         21    1    1    2  505  502 -0.74429258216E+02  0.18356451699E+02  0.40680024658E+03  0.41396028120E+03  0.00000000000E+00 0.  1.
          3    1    1    2  501    0  0.29005302280E+02  0.16163148274E+02 -0.10159929860E+03  0.10688766252E+03  0.00000000000E+00 0. -1.
<scales pt_clust_3="49.75999" pt_clust_4="78.59329" pt_clust_5="14000.00000" pt_clust_6="33.20474"></scales>
<clustering>
<clus scale="   33.205">  2  6  1 -1</clus>
<clus scale="   49.760">  2  3  1 -1</clus>
<clus scale="   78.593">  2  4  1 -1</clus>
<clus scale="   78.593">  1  3  2 -1</clus>
</clustering>
</event>
<event>
 6    0  0.2839294E+002  0.1313622E+03  0.7546771E-02  0.1225448E+00
         21   -1    0    0  505  502  0.00000000000E+00  0.00000000000E+00  0.15702075449E+03  0.15702075449E+03  0.00000000000E+00 0. -1.
          1   -1    0    0  504    0 -0.00000000000E+00 -0.00000000000E+00 -0.20695333971E+04  0.20695333971E+04  0.00000000000E+00 0.  1.
         21    1    1    2  503  501  0.52230308997E+02  0.10079598427E+02 -0.61078119203E+03  0.61309319684E+03  0.00000000000E+00 0.  1.
         21    1    1    2  504  502 -0.10370748734E+03 -0.29266421946E+02  0.12898796182E+03  0.16807635372E+03  0.00000000000E+00 0. -1.
         21    1    1    2  505  503 -0.27287078593E+01 -0.32267136817E+02 -0.35063767773E+02  0.47729254922E+02  0.00000000000E+00 0. -1.
          1    1    1    2  501    0  0.54205886206E+02  0.51453960336E+02 -0.13956556446E+04  0.13976553461E+04  0.00000000000E+00 0.  1.
<scales pt_clust_3="39.64099" pt_clust_4="122.67899" pt_clust_5="32.38231" pt_clust_6="39.64099"></scales>
<clustering>
<clus scale="   32.382">  1  5  2 -1</clus>
<clus scale="   39.641">  3  6 -1 -1</clus>
<clus scale="  122.679">  1  4  2 -1</clus>
<clus scale="   32.382">  1  3  2 -1</clus>
</clustering>
</event>
<event>
 6    0  0.2839294E+002  0.1314782E+03  0.7546771E-02  0.1225279E+00
         21   -1    0    0  504  502  0.00000000000E+00  0.00000000000E+00  0.24145644673E+03  0.24145644673E+03  0.00000000000E+00 0. -1.
          2   -1    0    0  503    0 -0.00000000000E+00 -0.00000000000E+00 -0.25228645112E+04  0.25228645112E+04  0.00000000000E+00 0. -1.
         21    1    1    2  503  505  0.27580411385E+02 -0.15391355570E+02 -0.14011668333E+03  0.14363237053E+03  0.00000000000E+00 0. -1.
         21    1    1    2  504  501 -0.12974191968E+03  0.21387644061E+02  0.21620377777E+03  0.25305033208E+03  0.00000000000E+00 0. -1.
         21    1    1    2  505  502 -0.22380514762E+02  0.35807657229E+02 -0.13937650495E+03  0.14563270886E+03  0.00000000000E+00 0.  1.
          2    1    1    2  501    0  0.12454202306E+03 -0.41803945719E+02 -0.22181186540E+04  0.22220055464E+04  0.00000000000E+00 0. -1.
<scales pt_clust_3="31.58438" pt_clust_4="131.47817" pt_clust_5="40.58066" pt_clust_6="14000.00000"></scales>
<clustering>
<clus scale="   31.584">  2  3  1 -1</clus>
<clus scale="   40.581">  2  5  1 -1</clus>
<clus scale="  131.478">  1  4  2 -1</clus>
<clus scale="  131.478">  1  3  2 -1</clus>
</clustering>
</event>
<event>
 6    0  0.2839294E+002  0.1141550E+03  0.7546771E-02  0.1253063E+00
         21   -1    0    0  504  502  0.00000000000E+00  0.00000000000E+00  0.12409785541E+03  0.12409785541E+03  0.00000000000E+00 0.  1.
          2   -1    0    0  503    0 -0.00000000000E+00 -0.00000000000E+00 -0.58603815318E+03  0.58603815318E+03  0.00000000000E+00 0.  1.
         21    1    1    2  503  505  0.17965638669E+02 -0.89630840787E+02 -0.28290343435E+03  0.29730591141E+03  0.00000000000E+00 0.  1.
         21    1    1    2  504  501  0.29121173693E+02  0.10462595983E+03  0.64219542196E+02  0.12616966287E+03  0.00000000000E+00 0.  1.
         21    1    1    2  505  502 -0.38035346840E+02  0.15823183744E+02  0.97925512692E-01  0.41195513620E+02  0.00000000000E+00 0.  1.
          2    1    1    2  501    0 -0.90514655214E+01 -0.30818302790E+02 -0.24335433113E+03  0.24546492070E+03  0.00000000000E+00 0.  1.
<scales pt_clust_3="114.15496" pt_clust_4="14000.00000" pt_clust_5="41.03104" pt_clust_6="32.12004"></scales>
<clustering>
<clus scale="   32.120">  2  6  1 -1</clus>
<clus scale="   41.031">  1  5  2 -1</clus>
<clus scale="  114.155">  2  3  1 -1</clus>
<clus scale="   41.031">  1  3  2 -1</clus>
</clustering>
</event>
<event>
 6    0  0.2839294E+002  0.1226323E+03  0.7546771E-02  0.1238817E+00
          1   -1    0    0  505    0 -0.00000000000E+00  0.00000000000E+00  0.13246712566E+04  0.13246712566E+04  0.00000000000E+00 0. -1.
         21   -1    0    0  503  502  0.00000000000E+00 -0.00000000000E+00 -0.54792893108E+03  0.54792893108E+03  0.00000000000E+00 0.  1.
         21    1    1    2  503  501  0.36393709787E+02 -0.75482936645E+02 -0.14544599832E+03  0.16785920965E+03  0.00000000000E+00 0. -1.
         21    1    1    2  504  502 -0.32510417715E+02 -0.50208504411E+02 -0.37910278661E+03  0.38379257938E+03  0.00000000000E+00 0.  1.
         21    1    1    2  505  504  0.35277061536E+02  0.13320289801E+02  0.43617216737E+02  0.57657287370E+02  0.00000000000E+00 0. -1.
          1    1    1    2  501    0 -0.39160353607E+02  0.11237115125E+03  0.12576738937E+04  0.12632911113E+04  0.00000000000E+00 0. -1.
<scales pt_clust_3="122.63232" pt_clust_4="59.75904" pt_clust_5="37.70811" pt_clust_6="14000.00000"></scales>
<clustering>
<clus scale="   37.708">  1  5  2 -1</clus>
<clus scale="   59.759">  2  4  1 -1</clus>
<clus scale="  122.632">  2  3  1 -1</clus>
<clus scale="   59.759">  2  3  1 -1</clus>
</clustering>
</event>
<event>
 6    0  0.2839294E+002  0.1085155E+03  0.7546771E-02  0.1263344E+00
          2   -1    0    0  503    0 -0.00000000000E+00  0.00000000000E+00  0.50753210319E+03  0.50753210319E+03  0.00000000000E+00 0.  1.
         21   -1    0    0  504  502  0.00000000000E+00 -0.00000000000E+00 -0.54147444970E+03  0.54147444970E+03  0.00000000000E+00 0.  1.
         21    1    1    2  503  502  0.35313313476E+02 -0.10833952276E+02 -0.29588277711E+03  0.29817951375E+03  0.00000000000E+00 0.  1.
         21    1    1    2  504  505 -0.11187752197E+03  0.68829137441E+02 -0.22041163772E+03  0.25658394363E+03  0.00000000000E+00 0.  1.
         21    1    1    2  505  501  0.45027771022E+02 -0.13339957406E+02  0.14295111887E+03  0.15046752810E+03  0.00000000000E+00 0.  1.
          2    1    1    2  501    0  0.31536437470E+02 -0.44655227760E+02  0.33940094946E+03  0.34377556741E+03  0.00000000000E+00 0.  1.
<scales pt_clust_3="36.93785" pt_clust_4="96.89384" pt_clust_5="45.44888" pt_clust_6="45.44888"></scales>
<clustering>
<clus scale="   36.938">  2  3  1 -1</clus>
<clus scale="   45.449">  5  6 -1 -1</clus>
<clus scale="   96.894">  2  4  1 -1</clus>
<clus scale="   36.938">  2  3  1 -1</clus>
</clustering>
</event>
<event>
 6    0  0.2839294E+002  0.3839928E+03  0.7546771E-02  0.1049468E+00
         21   -1    0    0  505  502  0.00000000000E+00  0.00000000000E+00  0.17902945328E+03  0.17902945328E+03  0.00000000000E+00 0. -1.
          4   -1    0    0  504    0 -0.00000000000E+00 -0.00000000000E+00 -0.18055225549E+04  0.18055225549E+04  0.00000000000E+00 0. -1.
         21    1    1    2  503  502  0.84235432701E+02  0.32153896132E+03 -0.62304680913E+02  0.33817862888E+03  0.00000000000E+00 0. -1.
         21    1    1    2  504  503 -0.18678586114E+02  0.47607396926E+02 -0.17225518409E+02  0.53963620206E+02  0.00000000000E+00 0. -1.
         21    1    1    2  505  501 -0.22473427729E+02 -0.15573443688E+03 -0.55765125836E+03  0.57942488360E+03  0.00000000000E+00 0. -1.
          4    1    1    2  501    0 -0.43083418858E+02 -0.21341192137E+03 -0.98931164395E+03  0.10129848755E+04  0.00000000000E+00 0. -1.
<scales pt_clust_3="32.54405" pt_clust_4="32.54405" pt_clust_5="39.03077" pt_clust_6="377.72294"></scales>
<clustering>
<clus scale="   32.544">  3  4 -1 -1</clus>
<clus scale="   39.031">  5  6 -1 -1</clus>
<clus scale="  377.723">  2  5  1 -1</clus>
<clus scale="  383.993">  1  3  2 -1</clus>
</clustering>
</event>
<event>
 6    0  0.2839294E+002  0.1732568E+03  0.7546771E-02  0.1174493E+00
          2   -1    0    0  505    0 -0.00000000000E+00  0.00000000000E+00  0.26453768123E+03  0.26453768123E+03  0.00000000000E+00 0.  1.
         21   -1    0    0  503  502  0.00000000000E+00 -0.00000000000E+00 -0.24816011602E+03  0.24816011602E+03  0.00000000000E+00 0. -1.
         21    1    1    2  503  504  0.68453259924E+02  0.38665708065E+02  0.10070937690E+03  0.12776253117E+03  0.00000000000E+00 0.  1.
         21    1    1    2  504  501  0.43926070539E+02 -0.96736214803E+01  0.30134588776E+02  0.54140299835E+02  0.00000000000E+00 0.  1.
         21    1    1    2  505  502 -0.15213205505E+03 -0.93774800004E+01 -0.18977630242E+03  0.24340736280E+03  0.00000000000E+00 0. -1.
          2    1    1    2  501    0  0.39752724583E+02 -0.19614606584E+02  0.75309901956E+02  0.87387603445E+02  0.00000000000E+00 0.  1.
<scales pt_clust_3="65.05641" pt_clust_4="32.19415" pt_clust_5="152.42080" pt_clust_6="65.05641"></scales>
<clustering>
<clus scale="   32.194">  4  6 -1 -1</clus>
<clus scale="   65.056">  3  4 -1 -1</clus>
<clus scale="  152.421">  2  5  1 -1</clus>
<clus scale="  152.421">  2  3  1 -1</clus>
</clustering>
</event>
<event>
 6    0  0.2839294E+002  0.9554540E+02  0.7546771E-02  0.1289952E+00
         -4   -1    0    0    0  501 -0.00000000000E+00  0.00000000000E+00  0.59560103026E+03  0.59560103026E+03  0.00000000000E+00 0. -1.
         21   -1    0    0  504  502  0.00000000000E+00 -0.00000000000E+00 -0.18874575935E+03  0.18874575935E+03  0.00000000000E+00 0. -1.
         21    1    1    2  503  501 -0.22341346916E+02  0.21184980388E+02  0.34391335981E+02  0.46159540364E+02  0.00000000000E+00 0. -1.
         21    1    1    2  504  503  0.14954312472E+03  0.11285643255E+02 -0.11442771657E+03  0.18863778576E+03  0.00000000000E+00 0. -1.
         21    1    1    2  505  502 -0.56847057165E+02 -0.37117288823E+02  0.11380002806E+02  0.68838837162E+02  0.00000000000E+00 0.  1.
         -4    1    1    2    0  505 -0.70354720642E+02  0.46466651800E+01  0.47551164870E+03  0.48071062632E+03  0.00000000000E+00 0. -1.
<scales pt_clust_3="30.78862" pt_clust_4="14000.00000" pt_clust_5="68.44048" pt_clust_6="95.54540"></scales>
<clustering>
<clus scale="   30.789">  1  3  2 -1</clus>
<clus scale="   68.440">  2  5  1 -1</clus>
<clus scale="   95.545">  1  6  2 -1</clus>
<clus scale="   68.440">  2  3  1 -1</clus>
</clustering>
</event>
<event>
 6    0  0.2839294E+002  0.2133896E+03  0.7546771E-02  0.1138910E+00
         21   -1    0    0  504  502  0.00000000000E+00  0.00000000000E+00  0.13352867429E+03  0.13352867429E+03  0.00000000000E+00 0. -1.
          4   -1    0    0  505    0 -0.00000000000E+00 -0.00000000000E+00 -0.69714567461E+03  0.69714567461E+03  0.00000000000E+00 0. -1.
         21    1    1    2  503  501 -0.94561856736E+02  0.63447987788E+02 -0.20249651463E+03  0.23231967274E+03  0.00000000000E+00 0. -1.
         21    1    1    2  504  503  0.20695442238E+03 -0.11836426679E+03 -0.15889990859E+03  0.28651250154E+03  0.00000000000E+00 0. -1.
         21    1    1    2  505  502 -0.34763633814E+02  0.20523189467E+02  0.38989973581E+02  0.56124233462E+02  0.00000000000E+00 0.  1.
          4    1    1    2  501    0 -0.77628931826E+02  0.34393089529E+02 -0.24121055069E+03  0.25571794115E+03  0.00000000000E+00 0. -1.
<scales pt_clust_3="39.40198" pt_clust_4="208.45361" pt_clust_5="40.36969" pt_clust_6="39.40198"></scales>
<clustering>
<clus scale="   39.402">  3  6 -1 -1</clus>
<clus scale="   40.370">  1  5  2 -1</clus>
<clus scale="  208.454">  1  4  2 -1</clus>
<clus scale="   40.370">  1  3  2 -1</clus>
</clustering>
</event>
<event>
 6    0  0.2839294E+002  0.2315943E+03  0.7546771E-02  0.1125523E+00
          1   -1    0    0  503    0 -0.00000000000E+00  0.00000000000E+00  0.24279348385E+04  0.24279348385E+04  0.00000000000E+00 0.  1.
         21   -1    0    0  504  502  0.00000000000E+00 -0.00000000000E+00 -0.48078942982E+03  0.48078942982E+03  0.00000000000E+00 0.  1.
         21    1    1    2  503  502 -0.56496641452E+01 -0.16459194287E+03  0.51872908375E+02  0.17266506592E+03  0.00000000000E+00 0. -1.
         21    1    1    2  504  505 -0.21627762977E+03  0.17395160707E+03 -0.36802139952E+03  0.46095002467E+03  0.00000000000E+00 0.  1.
         21    1    1    2  505  501  0.13897597418E+03  0.16469575790E+02  0.11628603181E+04  0.11712513341E+04  0.00000000000E+00 0.  1.
          1    1    1    2  501    0  0.82951319733E+02 -0.25829239981E+02  0.11004335818E+04  0.11038578437E+04  0.00000000000E+00 0.  1.
<scales pt_clust_3="164.68888" pt_clust_4="222.15477" pt_clust_5="51.56529" pt_clust_6="51.56529"></scales>
<clustering>
<clus scale="   51.565">  5  6 -1 -1</clus>
<clus scale="  164.689">  2  3  1 -1</clus>
<clus scale="  222.155">  2  4  1 -1</clus>
<clus scale="  164.689">  2  3  1 -1</clus>
</clustering>
</event>
<event>
 6    0  0.2839294E+002  0.8051992E+02  0.7546771E-02  0.1327582E+00
         21   -1    0    0  504  502  0.00000000000E+00  0.00000000000E+00  0.10749368450E+02  0.10749368450E+02  0.00000000000E+00 0.  1.
          1   -1    0    0  505    0 -0.00000000000E+00 -0.00000000000E+00 -0.31864340543E+04  0.31864340543E+04  0.00000000000E+00 0.  1.
         21    1    1    2  503  502 -0.24040210590E+02  0.89563206675E+02 -0.20509738689E+04  0.20530692416E+04  0.00000000000E+00 0.  1.
         21    1    1    2  504  501 -0.13581900320E+02  0.36476568350E+02 -0.11848409350E+03  0.12471362583E+03  0.00000000000E+00 0.  1.
         21    1    1    2  505  503 -0.15808814187E+02 -0.32041060147E+02 -0.52328207878E+03  0.52450041193E+03  0.00000000000E+00 0. -1.
          1    1    1    2  501    0  0.53430925098E+02 -0.93998714878E+02 -0.48294464464E+03  0.49490014341E+03  0.00000000000E+00 0.  1.
<scales pt_clust_3="14000.00000" pt_clust_4="37.82233" pt_clust_5="35.72881" pt_clust_6="80.51992"></scales>
<clustering>
<clus scale="   35.729">  2  5  1 -1</clus>
<clus scale="   37.822">  1  4  2 -1</clus>
<clus scale="   80.520">  1  6  2 -1</clus>
<clus scale="   37.822">  1  3  2 -1</clus>
</clustering>
</event>
<event>
 6    0  0.2839294E+002  0.1421043E+03  0.7546771E-02  0.1210525E+00
         -2   -1    0    0    0  501 -0.00000000000E+00  0.00000000000E+00  0.32164452169E+03  0.32164452169E+03  0.00000000000E+00 0.  1.
         21   -1    0    0  504  502  0.00000000000E+00 -0.00000000000E+00 -0.97995389249E+03  0.97995389249E+03  0.00000000000E+00 0.  1.
         21    1    1    2  503  502 -0.82094989868E+02  0.72917538537E+01 -0.73168560926E+03  0.73631283286E+03  0.00000000000E+00 0.  1.
         21    1    1    2  504  501 -0.42853141800E+02  0.54783300874E+02  0.43726853174E+02  0.82156189695E+02  0.00000000000E+00 0. -1.
         21    1    1    2  505  503 -0.13202123379E+02 -0.12549138043E+03 -0.18266300078E+03  0.22200935674E+03  0.00000000000E+00 0.  1.
         -2    1    1    2    0  505  0.13815025505E+03  0.63416325707E+02  0.21231238607E+03  0.26112003488E+03  0.00000000000E+00 0.  1.
<scales pt_clust_3="82.84451" pt_clust_4="69.55287" pt_clust_5="14000.00000" pt_clust_6="142.10434"></scales>
<clustering>
<clus scale="   69.553">  1  4  2 -1</clus>
<clus scale="   82.845">  2  3  1 -1</clus>
<clus scale="  142.104">  1  6  2 -1</clus>
<clus scale="   82.845">  2  3  1 -1</clus>
</clustering>
</event>
<event>
 6    0  0.2839294E+002  0.1074917E+03  0.7546771E-02  0.1265287E+00
         21   -1    0    0  505  502  0.00000000000E+00  0.00000000000E+00  0.70710523226E+03  0.70710523226E+03  0.00000000000E+00 0. -1.
          4   -1    0    0  504    0 -0.00000000000E+00 -0.00000000000E+00 -0.14438594993E+03  0.14438594993E+03  0.00000000000E+00 0.  1.
         21    1    1    2  503  501 -0.46841793662E+02 -0.53623548076E+01  0.37186505079E+01  0.47294152325E+02  0.00000000000E+00 0. -1.
         21    1    1    2  504  502  0.49809098984E+02 -0.73804671467E+02 -0.82733569250E+01  0.89423287273E+02  0.00000000000E+00 0.  1.
         21    1    1    2  505  503  0.66669808228E+02  0.54832960801E+02  0.61880114569E+03  0.62479306561E+03  0.00000000000E+00 0. -1.
          4    1    1    2  501    0 -0.69637113550E+02  0.24334065474E+02 -0.51527156947E+02  0.89980676976E+02  0.00000000000E+00 0.  1.
<scales pt_clust_3="41.01096" pt_clust_4="94.46166" pt_clust_5="86.32217" pt_clust_6="41.01096"></scales>
<clustering>
<clus scale="   41.011">  3  6 -1 -1</clus>
<clus scale="   86.322">  1  5  2 -1</clus>
<clus scale="   94.462">  1  4  2 -1</clus>
<clus scale="   86.322">  1  3  2 -1</clus>
</clustering>
</event>
<event>
 6    0  0.2839294E+002  0.9824279E+02  0.7546771E-02  0.1284035E+00
         21   -1    0    0  501  502  0.00000000000E+00  0.00000000000E+00  0.11698809401E+03  0.11698809401E+03  0.00000000000E+00 0.  1.
          1   -1    0    0  505    0 -0.00000000000E+00 -0.00000000000E+00 -0.14421599191E+04  0.14421599191E+04  0.00000000000E+00 0.  1.
         21    1    1    2  503  502  0.77256331987E+02 -0.38740744403E+02  0.65983376971E+02  0.10873450301E+03  0.00000000000E+00 0.  1.
         21    1    1    2  504  503 -0.59860031701E+02  0.13852511549E+03 -0.18646499897E+03  0.23987835846E+03  0.00000000000E+00 0. -1.
         21    1    1    2  505  504  0.12496115034E+02 -0.27943557224E+02 -0.61116536298E+03  0.61193144729E+03  0.00000000000E+00 0. -1.
          1    1    1    2  501    0 -0.29892415320E+02 -0.71840813864E+02 -0.59352484014E+03  0.59860370438E+03  0.00000000000E+00 0.  1.
<scales pt_clust_3="87.03685" pt_clust_4="98.24279" pt_clust_5="30.61038" pt_clust_6="14000.00000"></scales>
<clustering>
<clus scale="   30.610">  2  5  1 -1</clus>
<clus scale="   87.037">  1  3  2 -1</clus>
<clus scale="   98.243">  1  4  2 -1</clus>
<clus scale="   87.037">  1  3  2 -1</clus>
</clustering>
</event>
<event>
 6    0  0.2839294E+002  0.3164854E+03  0.7546771E-02  0.1077278E+00
         21   -1    0    0  505  502  0.00000000000E+00  0.00000000000E+00  0.10117410672E+03  0.10117410672E+03  0.00000000000E+00 0.  1.
          1   -1    0    0  503    0 -0.00000000000E+00 -0.00000000000E+00 -0.22229683259E+04  0.22229683259E+04  0.00000000000E+00 0. -1.
         21    1    1    2  503  504 -0.17979990325E+02 -0.37758891150E+02 -0.24795863547E+03  0.25146073017E+03  0.00000000000E+00 0. -1.
         21    1    1    2  504  502  0.14134690093E+02  0.29642564713E+02  0.11936387050E+02  0.34942072672E+02  0.00000000000E+00 0.  1.
         21    1    1    2  505  501  0.99979636505E+02 -0.31179000763E+03 -0.41032829785E+03  0.52495547296E+03  0.00000000000E+00 0.  1.
          1    1    1    2  501    0 -0.96134336274E+02  0.31990633407E+03 -0.14754436729E+04  0.15127841568E+04  0.00000000000E+00 0. -1.
<scales pt_clust_3="41.08146" pt_clust_4="32.84008" pt_clust_5="316.48544" pt_clust_6="14000.00000"></scales>
<clustering>
<clus scale="   32.840">  1  4  2 -1</clus>
<clus scale="   41.081">  2  3  1 -1</clus>
<clus scale="  316.485">  1  5  2 -1</clus>
<clus scale="   32.840">  1  3  2 -1</clus>
</clustering>
</event>
<event>
 6    0  0.2839294E+002  0.9051911E+02  0.7546771E-02  0.1301599E+00
         21   -1    0    0  503  502  0.00000000000E+00  0.00000000000E+00  0.16324406670E+03  0.16324406670E+03  0.00000000000E+00 0.  1.
         -1   -1    0    0    0  501 -0.00000000000E+00 -0.00000000000E+00 -0.46622921831E+03  0.46622921831E+03  0.00000000000E+00 0. -1.
         21    1    1    2  503  501 -0.11355092075E+02 -0.43649362818E+02 -0.22244864694E+03  0.22697490063E+03  0.00000000000E+00 0. -1.
         21    1    1    2  504  505 -0.37895258562E+02  0.10860786785E+03  0.56479249477E+02  0.12814688916E+03  0.00000000000E+00 0.  1.
         21    1    1    2  505  502 -0.15273301502E+02 -0.32381068885E+02  0.56998578635E+02  0.67310068543E+02  0.00000000000E+00 0.  1.
         -1    1    1    2    0  504  0.64523652139E+02 -0.32577436149E+02 -0.19401433278E+03  0.20704142667E+03  0.00000000000E+00 0. -1.
<scales pt_clust_3="45.89006" pt_clust_4="90.51911" pt_clust_5="35.80234" pt_clust_6="14000.00000"></scales>
<clustering>
<clus scale="   35.802">  1  5  2 -1</clus>
<clus scale="   45.890">  2  3  1 -1</clus>
<clus scale="   90.519">  1  4  2 -1</clus>
<clus scale="   35.802">  1  3  2 -1</clus>
</clustering>
</event>
<event>
 6    0  0.2839294E+002  0.1168061E+03  0.7546771E-02  0.1248461E+00
          1   -1    0    0  502    0 -0.00000000000E+00  0.00000000000E+00  0.11559068218E+04  0.11559068218E+04  0.00000000000E+00 0. -1.
         21   -1    0    0  504  502  0.00000000000E+00 -0.00000000000E+00 -0.89468035999E+02  0.89468035999E+02  0.00000000000E+00 0. -1.
         21    1    1    2  503  505 -0.68820906725E+02 -0.23408372848E+02 -0.19221143303E+02  0.75191232679E+02  0.00000000000E+00 0. -1.
         21    1    1    2  504  503  0.38821699359E+02  0.14663172236E+02 -0.13135699290E+02  0.43527916984E+02  0.00000000000E+00 0. -1.
         21    1    1    2  505  501 -0.90388167522E+02 -0.32747501749E+02  0.24112274069E+03  0.25958157827E+03  0.00000000000E+00 0.  1.
          1    1    1    2  501    0  0.12038737489E+03  0.41492702362E+02  0.85767288773E+03  0.86707412990E+03  0.00000000000E+00 0. -1.
<scales pt_clust_3="40.68166" pt_clust_4="41.49859" pt_clust_5="116.80615" pt_clust_6="14000.00000"></scales>
<clustering>
<clus scale="   41.499">  2  4  1 -1</clus>
<clus scale="   40.682">  2  3  1 -1</clus>
<clus scale="  116.806">  2  5  1 -1</clus>
<clus scale="   41.499">  2  3  1 -1</clus>
</clustering>
</event>
<event>
 6    0  0.2839294E+002  0.3744849E+03  0.7546771E-02  0.1052991E+00
         21   -1    0    0  505  502  0.00000000000E+00  0.00000000000E+00  0.32613619959E+03  0.32613619959E+03  0.00000000000E+00 0.  1.
          3   -1    0    0  504    0 -0.00000000000E+00 -0.00000000000E+00 -0.11451127430E+04  0.11451127430E+04  0.00000000000E+00 0.  1.
         21    1    1    2  503  502 -0.66148799895E+02 -0.17478062702E+03  0.17966656175E+03  0.25923735210E+03  0.00000000000E+00 0.  1.
         21    1    1    2  504  503 -0.29047174490E+02 -0.15226637207E+03 -0.25204955388E+01  0.15503270399E+03  0.00000000000E+00 0. -1.
         21    1    1    2  505  501  0.15016185293E+02  0.79411413977E+02 -0.13465757838E+03  0.15704878830E+03  0.00000000000E+00 0.  1.
          3    1    1    2  501    0  0.80179789093E+02  0.24763558512E+03 -0.86146503121E+03  0.89993009817E+03  0.00000000000E+00 0.  1.
<scales pt_clust_3="141.73000" pt_clust_4="141.73000" pt_clust_5="52.63306" pt_clust_6="353.47435"></scales>
<clustering>
<clus scale="   52.633">  5  6 -1 -1</clus>
<clus scale="  141.730">  3  4 -1 -1</clus>
<clus scale="  353.474">  2  5  1 -1</clus>
<clus scale="  374.485">  1  3  2 -1</clus>
</clustering>
</event>
<event>
 6    0  0.2839294E+002  0.9137111E+02  0.7546771E-02  0.1299565E+00
         21   -1    0    0  504  502  0.00000000000E+00  0.00000000000E+00  0.48002266098E+03  0.48002266098E+03  0.00000000000E+00 0.  1.
          1   -1    0    0  505    0 -0.00000000000E+00 -0.00000000000E+00 -0.57598336556E+03  0.57598336556E+03  0.00000000000E+00 0.  1.
         21    1    1    2  503  502  0.54698004648E+02 -0.13389194797E+02  0.64009270770E+02  0.85254495449E+02  0.00000000000E+00 0.  1.
         21    1    1    2  504  501 -0.78359883661E+01 -0.66973129028E+02  0.39164266892E+03  0.39740506143E+03  0.00000000000E+00 0.  1.
         21    1    1    2  505  503  0.36215905330E+02  0.40103133895E+02 -0.11475412514E+03  0.12683990848E+03  0.00000000000E+00 0. -1.
          1    1    1    2  501    0 -0.83077921612E+02  0.40259189930E+02 -0.43685851915E+03  0.44650656119E+03  0.00000000000E+00 0.  1.
<scales pt_clust_3="56.92213" pt_clust_4="91.37111" pt_clust_5="54.03567" pt_clust_6="14000.00000"></scales>
<clustering>
<clus scale="   54.036">  2  5  1 -1</clus>
<clus scale="   56.922">  1  3  2 -1</clus>
<clus scale="   91.371">  1  4  2 -1</clus>
<clus scale="   56.922">  1  3  2 -1</clus>
</clustering>
</event>
<event>
 6    0  0.2839294E+002  0.1261520E+03  0.7546771E-02  0.1233280E+00
         21   -1    0    0  503  502  0.00000000000E+00  0.00000000000E+00  0.97173807768E+02  0.97173807768E+02  0.00000000000E+00 0.  1.
         -2   -1    0    0    0  501 -0.00000000000E+00 -0.00000000000E+00 -0.10202327063E+04  0.10202327063E+04  0.00000000000E+00 0.  1.
         21    1    1    2  503  505 -0.11683786314E+02 -0.65928754055E+02 -0.57351693398E+02  0.88160808807E+02  0.00000000000E+00 0. -1.
         21    1    1    2  504  502 -0.10184937539E+03  0.95170902498E+02 -0.78787226962E+01  0.13961686940E+03  0.00000000000E+00 0.  1.
         21    1    1    2  505  501 -0.53605536932E+02  0.39215924890E+01 -0.10741141899E+03  0.12010888979E+03  0.00000000000E+00 0. -1.
         -2    1    1    2    0  504  0.16713869863E+03 -0.33163740932E+02 -0.75041706347E+03  0.76951994609E+03  0.00000000000E+00 0.  1.
<scales pt_clust_3="67.53339" pt_clust_4="14000.00000" pt_clust_5="53.74879" pt_clust_6="126.15197"></scales>
<clustering>
<clus scale="   53.749">  2  5  1 -1</clus>
<clus scale="   67.533">  1  3  2 -1</clus>
<clus scale="  126.152">  2  6  1 -1</clus>
<clus scale="   67.533">  1  3  2 -1</clus>
</clustering>
</event>
<event>
 6    0  0.2839294E+002  0.1907999E+03  0.7546771E-02  0.1157742E+00
         21   -1    0    0  504  502  0.00000000000E+00  0.00000000000E+00  0.82115256985E+03  0.82115256985E+03  0.00000000000E+00 0.  1.
          1   -1    0    0  505    0 -0.00000000000E+00 -0.00000000000E+00 -0.91321753558E+03  0.91321753558E+03  0.00000000000E+00 0. -1.
         21    1    1    2  503  502  0.11414688777E+03 -0.14424593345E+03  0.69766963962E+03  0.72151183452E+03  0.00000000000E+00 0.  1.
         21    1    1    2  504  501 -0.34119745912E+02 -0.27661919464E+02  0.75461104474E+02  0.87313900028E+02  0.00000000000E+00 0.  1.
         21    1    1    2  505  503  0.38151422130E+02 -0.55210184407E+02 -0.11860605914E+03  0.13627579659E+03  0.00000000000E+00 0.  1.
          1    1    1    2  501    0 -0.11817856399E+03  0.22711803732E+03 -0.74658965068E+03  0.78926857430E+03  0.00000000000E+00 0. -1.
<scales pt_clust_3="190.79987" pt_clust_4="43.92424" pt_clust_5="67.15175" pt_clust_6="14000.00000"></scales>
<clustering>
<clus scale="   43.924">  1  4  2 -1</clus>
<clus scale="   67.152">  2  5  1 -1</clus>
<clus scale="  190.800">  1  3  2 -1</clus>
<clus scale="   43.924">  1  3  2 -1</clus>
</clustering>
</event>
<event>
 6    0  0.2839294E+002  0.8849843E+02  0.7546771E-02  0.1306529E+00
         -1   -1    0    0    0  501 -0.00000000000E+00  0.00000000000E+00  0.56294716572E+03  0.56294716572E+03  0.00000000000E+00 0. -1.
         21   -1    0    0  504  502  0.00000000000E+00 -0.00000000000E+00 -0.12572806516E+03  0.12572806516E+03  0.00000000000E+00 0.  1.
         21    1    1    2  503  505  0.36384909625E+02  0.70018070807E+02  0.81916074067E+02  0.11373932952E+03  0.00000000000E+00 0.  1.
         21    1    1    2  504  503 -0.89759406946E+02  0.86428682554E+01 -0.76624929048E+02  0.11833355424E+03  0.00000000000E+00 0.  1.
         21    1    1    2  505  501 -0.18487229518E+01 -0.49822982184E+02  0.53694197466E+02  0.73272192350E+02  0.00000000000E+00 0.  1.
         -1    1    1    2    0  502  0.55223220272E+02 -0.28837956879E+02  0.37823375807E+03  0.38333015477E+03  0.00000000000E+00 0. -1.
<scales pt_clust_3="70.20575" pt_clust_4="88.49843" pt_clust_5="49.85727" pt_clust_6="14000.00000"></scales>
<clustering>
<clus scale="   49.857">  1  5  2 -1</clus>
<clus scale="   70.206">  1  3  2 -1</clus>
<clus scale="   88.498">  2  4  1 -1</clus>
<clus scale="   88.498">  2  3  1 -1</clus>
</clustering>
</event>
<event>
 6    0  0.2839294E+002  0.9738743E+02  0.7546771E-02  0.1285888E+00
         21   -1    0    0  505  502  0.00000000000E+00  0.00000000000E+00  0.52242913492E+02  0.52242913492E+02  0.00000000000E+00 0. -1.
          2   -1    0    0  504    0 -0.00000000000E+00 -0.00000000000E+00 -0.23478574559E+04  0.23478574559E+04  0.00000000000E+00 0. -1.
         21    1    1    2  503  502  0.72642678933E+02 -0.27919512321E+02 -0.13205365700E+02  0.78935667820E+02  0.00000000000E+00 0. -1.
         21    1    1    2  504  503 -0.37587785902E+02  0.52526884429E+02 -0.14931281974E+04  0.14945245830E+04  0.00000000000E+00 0. -1.
         21    1    1    2  505  501  0.30467209455E+02  0.53611173191E+02 -0.47403167430E+02  0.77778332621E+02  0.00000000000E+00 0.  1.
          2    1    1    2  501    0 -0.65522102487E+02 -0.78218545299E+02 -0.74187781184E+03  0.74886178594E+03  0.00000000000E+00 0. -1.
<scales pt_clust_3="14000.00000" pt_clust_4="65.08632" pt_clust_5="61.66367" pt_clust_6="97.38743"></scales>
<clustering>
<clus scale="   61.664">  1  5  2 -1</clus>
<clus scale="   65.086">  2  4  1 -1</clus>
<clus scale="   97.387">  2  6  1 -1</clus>
<clus scale="   61.664">  1  3  2 -1</clus>
</clustering>
</event>
<event>
 6    0  0.2839294E+002  0.2272188E+03  0.7546771E-02  0.1128613E+00
          1   -1    0    0  504    0 -0.00000000000E+00  0.00000000000E+00  0.48295580135E+03  0.48295580135E+03  0.00000000000E+00 0. -1.
         21   -1    0    0  503  502  0.00000000000E+00 -0.00000000000E+00 -0.31042126345E+04  0.31042126345E+04  0.00000000000E+00 0. -1.
         21    1    1    2  503  505 -0.22209785619E+03  0.87503817601E+02 -0.71754425363E+03  0.75621037531E+03  0.00000000000E+00 0.  1.
         21    1    1    2  504  502  0.78649102344E+01 -0.66693764418E+02 -0.23391083745E+04  0.23400722003E+04  0.00000000000E+00 0. -1.
         21    1    1    2  505  501  0.70203259415E+02  0.73322217042E+00  0.77918820934E+02  0.10488268638E+03  0.00000000000E+00 0.  1.
          1    1    1    2  501    0  0.14402968654E+03 -0.21543275353E+02  0.35747697399E+03  0.38600317389E+03  0.00000000000E+00 0. -1.
<scales pt_clust_3="215.77245" pt_clust_4="67.15590" pt_clust_5="49.44160" pt_clust_6="49.44160"></scales>
<clustering>
<clus scale="   49.442">  5  6 -1 -1</clus>
<clus scale="   67.156">  2  4  1 -1</clus>
<clus scale="  215.772">  2  3  1 -1</clus>
<clus scale="   67.156">  2  3  1 -1</clus>
</clustering>
</event>
<event>
 6    0  0.2839294E+002  0.1053210E+03  0.7546771E-02  0.1269488E+00
         21   -1    0    0  504  502  0.00000000000E+00  0.00000000000E+00  0.21340313767E+03  0.21340313767E+03  0.00000000000E+00 0. -1.
          1   -1    0    0  503    0 -0.00000000000E+00 -0.00000000000E+00 -0.78174916484E+03  0.78174916484E+03  0.00000000000E+00 0. -1.
         21    1    1    2  503  505 -0.32994959441E+01 -0.37233230137E+02 -0.94306381300E+02  0.10144404198E+03  0.00000000000E+00 0. -1.
         21    1    1    2  504  501 -0.93046136179E+02 -0.27387613392E+02 -0.27065112824E+01  0.97030871523E+02  0.00000000000E+00 0. -1.
         21    1    1    2  505  502  0.71185318126E+02  0.89041653531E+02  0.14213754501E+03  0.18220550838E+03  0.00000000000E+00 0. -1.
          1    1    1    2  501    0  0.25160313998E+02 -0.24420810001E+02 -0.61347067959E+03  0.61447188063E+03  0.00000000000E+00 0. -1.
<scales pt_clust_3="52.72181" pt_clust_4="105.32101" pt_clust_5="14000.00000" pt_clust_6="35.06305"></scales>
<clustering>
<clus scale="   35.063">  2  6  1 -1</clus>
<clus scale="   52.722">  2  3  1 -1</clus>
<clus scale="  105.321">  2  4  1 -1</clus>
<clus scale="  105.321">  1  3  2 -1</clus>
</clustering>
</event>
<event>
 6    0  0.2839294E+002  0.1389056E+03  0.7546771E-02  0.1214809E+00
         21   -1    0    0  505  502  0.00000000000E+00  0.00000000000E+00  0.56726425376E+02  0.56726425376E+02  0.00000000000E+00 0.  1.
          1   -1    0    0  504    0 -0.00000000000E+00 -0.00000000000E+00 -0.75750637686E+03  0.75750637686E+03  0.00000000000E+00 0.  1.
         21    1    1    2  503  502 -0.90980967487E+02  0.77556732566E+02 -0.34229403195E+03  0.36257107927E+03  0.00000000000E+00 0.  1.
         21    1    1    2  504  503 -0.27093618299E+02 -0.15169110215E+02 -0.64440618312E+02  0.71531526935E+02  0.00000000000E+00 0.  1.
         21    1    1    2  505  501 -0.13230203340E+02  0.38600850842E+02  0.20411957049E+01  0.40856216737E+02  0.00000000000E+00 0.  1.
          1    1    1    2  501    0  0.13130478913E+03 -0.10098847319E+03 -0.29608649692E+03  0.33927397929E+03  0.00000000000E+00 0.  1.
<scales pt_clust_3="138.90563" pt_clust_4="31.05102" pt_clust_5="40.65765" pt_clust_6="14000.00000"></scales>
<clustering>
<clus scale="   31.051">  2  4  1 -1</clus>
<clus scale="   40.658">  1  5  2 -1</clus>
<clus scale="  138.906">  2  3  1 -1</clus>
<clus scale="   40.658">  1  3  2 -1</clus>
</clustering>
</event>
<event>
 6    0  0.2839294E+002  0.5228882E+03  0.7546771E-02  0.1007972E+00
          1   -1    0    0  504    0 -0.00000000000E+00  0.00000000000E+00  0.14637328813E+04  0.14637328813E+04  0.00000000000E+00 0. -1.
         21   -1    0    0  505  502  0.00000000000E+00 -0.00000000000E+00 -0.10438652399E+04  0.10438652399E+04  0.00000000000E+00 0.  1.
         21    1    1    2  503  502 -0.22547256674E+02  0.72815000318E+02 -0.24158735017E+03  0.25332755637E+03  0.00000000000E+00 0.  1.
         21    1    1    2  504  503 -0.44478104768E+02 -0.67009078956E+02  0.90472739188E+02  0.12105302558E+03  0.00000000000E+00 0. -1.
         21    1    1    2  505  501  0.53253542029E+03  0.60053647380E+02 -0.63966323388E+03  0.83448754766E+03  0.00000000000E+00 0.  1.
          1    1    1    2  501    0 -0.46551005885E+03 -0.65859568743E+02  0.12106454862E+04  0.12987299916E+04  0.00000000000E+00 0. -1.
<scales pt_clust_3="76.22600" pt_clust_4="79.50984" pt_clust_5="14000.00000" pt_clust_6="522.88822"></scales>
<clustering>
<clus scale="   76.226">  2  3  1 -1</clus>
<clus scale="   79.510">  1  4  2 -1</clus>
<clus scale="  522.888">  1  6  2 -1</clus>
<clus scale="   76.226">  2  3  1 -1</clus>
</clustering>
</event>
<event>
 6    0  0.2839294E+002  0.1009785E+03  0.7546771E-02  0.1278252E+00
         21   -1    0    0  504  502  0.00000000000E+00  0.00000000000E+00  0.68775131392E+02  0.68775131392E+02  0.00000000000E+00 0.  1.
          2   -1    0    0  503    0 -0.00000000000E+00 -0.00000000000E+00 -0.17216691248E+04  0.17216691248E+04  0.00000000000E+00 0.  1.
         21    1    1    2  503  502 -0.27989640659E+02  0.18427608571E+02 -0.18741557682E+03  0.19038801217E+03  0.00000000000E+00 0.  1.
         21    1    1    2  504  505 -0.47855039583E+02 -0.88661747707E+02  0.18511245599E+02  0.10243864766E+03  0.00000000000E+00 0.  1.
         21    1    1    2  505  501  0.11603936345E+03  0.54156694798E+02 -0.64935655455E+03  0.66186253588E+03  0.00000000000E+00 0. -1.
          2    1    1    2  501    0 -0.40194683212E+02  0.16077444338E+02 -0.83463310760E+03  0.83575506046E+03  0.00000000000E+00 0.  1.
<scales pt_clust_3="33.51114" pt_clust_4="100.97846" pt_clust_5="14000.00000" pt_clust_6="61.28981"></scales>
<clustering>
<clus scale="   33.511">  2  3  1 -1</clus>
<clus scale="   61.290">  2  6  1 -1</clus>
<clus scale="  100.978">  1  4  2 -1</clus>
<clus scale="  100.978">  1  3  2 -1</clus>
</clustering>
</event>
<event>
 6    0  0.2839294E+002  0.1023073E+03  0.7546771E-02  0.1275518E+00
         21   -1    0    0  503  502  0.00000000000E+00  0.00000000000E+00  0.29961043587E+03  0.29961043587E+03  0.00000000000E+00 0. -1.
          1   -1    0    0  505    0 -0.00000000000E+00 -0.00000000000E+00 -0.40120266697E+03  0.40120266697E+03  0.00000000000E+00 0. -1.
         21    1    1    2  503  501  0.31215334423E+02  0.94521057660E+01  0.25574774623E+02  0.41446453450E+02  0.00000000000E+00 0. -1.
         21    1    1    2  504  502 -0.43765164330E+02  0.58490134335E+02  0.19088879040E+03  0.20438937282E+03  0.00000000000E+00 0. -1.
         21    1    1    2  505  504  0.11279998724E+03 -0.70893453052E+02 -0.13003766447E+02  0.13386118462E+03  0.00000000000E+00 0. -1.
          1    1    1    2  501    0 -0.10025015733E+03  0.29512129504E+01 -0.30505202967E+03  0.32111609195E+03  0.00000000000E+00 0. -1.
<scales pt_clust_3="32.61502" pt_clust_4="68.66722" pt_clust_5="102.30726" pt_clust_6="14000.00000"></scales>
<clustering>
<clus scale="   32.615">  1  3  2 -1</clus>
<clus scale="   68.667">  1  4  2 -1</clus>
<clus scale="  102.307">  1  5  2 -1</clus>
<clus scale="   32.615">  1  3  2 -1</clus>
</clustering>
</event>
<event>
 6    0  0.2839294E+002  0.8271998E+02  0.7546771E-02  0.1321505E+00
          2   -1    0    0  504    0 -0.00000000000E+00  0.00000000000E+00  0.22498041093E+04  0.22498041093E+04  0.00000000000E+00 0.  1.
         21   -1    0    0  505  502  0.00000000000E+00 -0.00000000000E+00 -0.70455115976E+02  0.70455115976E+02  0.00000000000E+00 0. -1.
         21    1    1    2  503  502  0.14448622210E+01 -0.31808633404E+02 -0.47863453579E+02  0.57487276630E+02  0.00000000000E+00 0. -1.
         21    1    1    2  504  503  0.29504093231E+02  0.76395401455E+01  0.13827075950E+03  0.14158974900E+03  0.00000000000E+00 0.  1.
         21    1    1    2  505  501 -0.16431983161E+02  0.10846715867E+03  0.18329673903E+03  0.21361841943E+03  0.00000000000E+00 0. -1.
          2    1    1    2  501    0 -0.14516972292E+02 -0.84298065407E+02  0.19056449484E+04  0.19075637803E+04  0.00000000000E+00 0.  1.
<scales pt_clust_3="31.82715" pt_clust_4="30.47711" pt_clust_5="14000.00000" pt_clust_6="82.71998"></scales>
<clustering>
<clus scale="   30.477">  1  4  2 -1</clus>
<clus scale="   31.827">  2  3  1 -1</clus>
<clus scale="   82.720">  1  6  2 -1</clus>
<clus scale="   31.827">  2  3  1 -1</clus>
</clustering>
</event>
<event>
 6    0  0.2839294E+002  0.9206708E+02  0.7546771E-02  0.1297922E+00
          3   -1    0    0  505    0 -0.00000000000E+00  0.00000000000E+00  0.32369766946E+03  0.32369766946E+03  0.00000000000E+00 0. -1.
         21   -1    0    0  504  502  0.00000000000E+00 -0.00000000000E+00 -0.14563324918E+04  0.14563324918E+04  0.00000000000E+00 0.  1.
         21    1    1    2  503  502 -0.40511628231E+02 -0.63261563550E+02 -0.28711006403E+03  0.29677500958E+03  0.00000000000E+00 0.  1.
         21    1    1    2  504  501 -0.52421602104E+02  0.43248785444E+02 -0.11391780414E+04  0.11412033526E+04  0.00000000000E+00 0.  1.
         21    1    1    2  505  503  0.63859593165E+01 -0.30516542763E+02 -0.61759754516E+00  0.31183670171E+02  0.00000000000E+00 0. -1.
          3    1    1    2  501    0  0.86547271019E+02  0.50529320869E+02  0.29427088067E+03  0.31086812895E+03  0.00000000000E+00 0. -1.
<scales pt_clust_3="92.06708" pt_clust_4="67.87950" pt_clust_5="31.17755" pt_clust_6="14000.00000"></scales>
<clustering>
<clus scale="   31.178">  1  5  2 -1</clus>
<clus scale="   67.880">  2  4  1 -1</clus>
<clus scale="   92.067">  2  3  1 -1</clus>
<clus scale="   67.880">  2  3  1 -1</clus>
</clustering>
</event>
<event>
 6    0  0.2839294E+002  0.1806310E+03  0.7546771E-02  0.1167194E+00
         21   -1    0    0  505  502  0.00000000000E+00  0.00000000000E+00  0.17538186926E+04  0.17538186926E+04  0.00000000000E+00 0.  1.
         -2   -1    0    0    0  501 -0.00000000000E+00 -0.00000000000E+00 -0.56531884187E+02  0.56531884187E+02  0.00000000000E+00 0. -1.
         21    1    1    2  503  502  0.69394284046E+02 -0.65233683124E+02  0.21312683194E+03  0.23343959939E+03  0.00000000000E+00 0. -1.
         21    1    1    2  504  503  0.28730805803E+02 -0.33203208825E+02  0.35981872623E+02  0.56768014197E+02  0.00000000000E+00 0. -1.
         21    1    1    2  505  501 -0.13210855549E+03  0.12485646444E+03  0.14632789238E+04  0.14745260310E+04  0.00000000000E+00 0.  1.
         -2    1    1    2    0  504  0.33983465638E+02 -0.26419572487E+02 -0.15100819919E+02  0.45616932267E+02  0.00000000000E+00 0. -1.
<scales pt_clust_3="36.22835" pt_clust_4="36.22835" pt_clust_5="172.57058" pt_clust_6="43.04497"></scales>
<clustering>
<clus scale="   36.228">  3  4 -1 -1</clus>
<clus scale="   43.045">  2  6  1 -1</clus>
<clus scale="  172.571">  1  5  2 -1</clus>
<clus scale="  172.571">  1  3  2 -1</clus>
</clustering>
</event>
<event>
 6    0  0.2839294E+002  0.2337808E+03  0.7546771E-02  0.1124007E+00
          1   -1    0    0  504    0 -0.00000000000E+00  0.00000000000E+00  0.28153882618E+04  0.28153882618E+04  0.00000000000E+00 0.  1.
         21   -1    0    0  505  502  0.00000000000E+00 -0.00000000000E+00 -0.15119319526E+03  0.15119319526E+03  0.00000000000E+00 0.  1.
         21    1    1    2  503  502 -0.27715763767E+03 -0.18008623801E+01  0.30679379075E+02  0.27885627754E+03  0.00000000000E+00 0.  1.
         21    1    1    2  504  503 -0.64853732502E+01  0.60121192326E+02  0.19501642067E+03  0.20417644861E+03  0.00000000000E+00 0.  1.
         21    1    1    2  505  501  0.47489011715E+02 -0.94738061648E+01  0.18932724233E+02  0.51994300494E+02  0.00000000000E+00 0.  1.
          1    1    1    2  501    0  0.23615399920E+03 -0.48846523781E+02  0.24195665425E+04  0.24315544304E+04  0.00000000000E+00 0.  1.
<scales pt_clust_3="14000.00000" pt_clust_4="59.99697" pt_clust_5="48.42478" pt_clust_6="233.78077"></scales>
<clustering>
<clus scale="   48.425">  2  5  1 -1</clus>
<clus scale="   59.997">  1  4  2 -1</clus>
<clus scale="  233.781">  1  6  2 -1</clus>
<clus scale="   48.425">  2  3  1 -1</clus>
</clustering>
</event>
<event>
 6    0  0.2839294E+002  0.1416363E+03  0.7546771E-02  0.1211144E+00
          2   -1    0    0  503    0 -0.00000000000E+00  0.00000000000E+00  0.83680637059E+03  0.83680637059E+03  0.00000000000E+00 0.  1.
         21   -1    0    0  501  502  0.00000000000E+00 -0.00000000000E+00 -0.30498739867E+03  0.30498739867E+03  0.00000000000E+00 0. -1.
         21    1    1    2  503  504  0.10083219025E+01 -0.36095022432E+02  0.61197983922E+02  0.71056742070E+02  0.00000000000E+00 0.  1.
         21    1    1    2  504  505  0.25693376928E+02  0.56524900005E+02 -0.77628410933E+02  0.99405151388E+02  0.00000000000E+00 0. -1.
         21    1    1    2  505  502  0.40920616690E+02  0.58880978611E+02 -0.20175608119E+03  0.21411908558E+03  0.00000000000E+00 0. -1.
          2    1    1    2  501    0 -0.67622315521E+02 -0.79310856184E+02  0.75000548012E+03  0.75721279022E+03  0.00000000000E+00 0.  1.
<scales pt_clust_3="36.10910" pt_clust_4="46.29920" pt_clust_5="46.29920" pt_clust_6="132.57084"></scales>
<clustering>
<clus scale="   36.109">  1  3  2 -1</clus>
<clus scale="   46.299">  4  5 -1 -1</clus>
<clus scale="  132.571">  1  6  2 -1</clus>
<clus scale="  141.636">  2  3  1 -1</clus>
</clustering>
</event>
<event>
 6    0  0.2839294E+002  0.1365701E+03  0.7546771E-02  0.1218020E+00
         21   -1    0    0  503  502  0.00000000000E+00  0.00000000000E+00  0.46254139371E+03  0.46254139371E+03  0.00000000000E+00 0.  1.
          2   -1    0    0  505    0 -0.00000000000E+00 -0.00000000000E+00 -0.34937430205E+04  0.34937430205E+04  0.00000000000E+00 0. -1.
         21    1    1    2  503  504 -0.37180532033E+02  0.54423396400E+02  0.37583848394E+03  0.38157419207E+03  0.00000000000E+00 0.  1.
         21    1    1    2  504  501 -0.14793842744E+02 -0.62340495317E+02 -0.19089057593E+04  0.19099807310E+04  0.00000000000E+00 0. -1.
         21    1    1    2  505  502  0.24279951180E+02  0.74072779739E+02  0.64056252851E+02  0.10089348967E+03  0.00000000000E+00 0. -1.
          2    1    1    2  501    0  0.27694423597E+02 -0.66155680822E+02 -0.15621906043E+04  0.15638360015E+04  0.00000000000E+00 0. -1.
<scales pt_clust_3="65.91129" pt_clust_4="44.48440" pt_clust_5="128.20432" pt_clust_6="44.48440"></scales>
<clustering>
<clus scale="   44.484">  4  6 -1 -1</clus>
<clus scale="   65.911">  1  3  2 -1</clus>
<clus scale="  128.204">  1  5  2 -1</clus>
<clus scale="   65.911">  1  3  2 -1</clus>
</clustering>
</event>
<event>
 6    0  0.2839294E+002  0.9885722E+02  0.7546771E-02  0.1282718E+00
         -1   -1    0    0    0  501 -0.00000000000E+00  0.00000000000E+00  0.27623514599E+03  0.27623514599E+03  0.00000000000E+00 0.  1.
         21   -1    0    0  505  502  0.00000000000E+00 -0.00000000000E+00 -0.18794273079E+04  0.18794273079E+04  0.00000000000E+00 0.  1.
         21    1    1    2  503  501  0.31768189011E+02  0.35908219813E+02  0.55723253808E+02  0.73509857149E+02  0.00000000000E+00 0. -1.
         21    1    1    2  504  503 -0.13544458705E+03  0.28331682048E+02 -0.13731837867E+04  0.13801382657E+04  0.00000000000E+00 0.  1.
         21    1    1    2  505  504  0.70244860090E+02 -0.47652458781E+01 -0.48567455444E+03  0.49075128198E+03  0.00000000000E+00 0. -1.
         -1    1    1    2    0  502  0.33431537947E+02 -0.59474655982E+02  0.19994292547E+03  0.21126304902E+03  0.00000000000E+00 0.  1.
<scales pt_clust_3="47.94391" pt_clust_4="14000.00000" pt_clust_5="98.85722" pt_clust_6="68.83742"></scales>
<clustering>
<clus scale="   47.944">  1  3  2 -1</clus>
<clus scale="   68.837">  1  6  2 -1</clus>
<clus scale="   98.857">  2  5  1 -1</clus>
<clus scale="   98.857">  2  3  1 -1</clus>
</clustering>
</event>
<event>
 6    0  0.2839294E+002  0.8104298E+02  0.7546771E-02  0.1326117E+00
         21   -1    0    0  505  502  0.00000000000E+00  0.00000000000E+00  0.26971548129E+03  0.26971548129E+03  0.00000000000E+00 0. -1.
          2   -1    0    0  504    0 -0.00000000000E+00 -0.00000000000E+00 -0.11291572281E+04  0.11291572281E+04  0.00000000000E+00 0.  1.
         21    1    1    2  503  501 -0.47106640268E+02  0.24278508581E+02  0.59916745192E+02  0.79990611265E+02  0.00000000000E+00 0. -1.
         21    1    1    2  504  502  0.10583568109E+02  0.60771737528E+02 -0.11426080656E+03  0.12984894267E+03  0.00000000000E+00 0. -1.
         21    1    1    2  505  503 -0.99674541799E+01  0.38838673973E+02  0.18542498932E+03  0.18971088372E+03  0.00000000000E+00 0. -1.
          2    1    1    2  501    0  0.46490526339E+02 -0.12388892008E+03 -0.99052267473E+03  0.99932227170E+03  0.00000000000E+00 0.  1.
<scales pt_clust_3="81.04298" pt_clust_4="65.17327" pt_clust_5="40.09729" pt_clust_6="14000.00000"></scales>
<clustering>
<clus scale="   40.097">  1  5  2 -1</clus>
<clus scale="   65.173">  2  4  1 -1</clus>
<clus scale="   81.043">  1  3  2 -1</clus>
<clus scale="   40.097">  1  3  2 -1</clus>
</clustering>
</event>
<event>
 6    0  0.2839294E+002  0.1007268E+03  0.7546771E-02  0.1278775E+00
          2   -1    0    0  503    0 -0.00000000000E+00  0.00000000000E+00  0.43324210704E+02  0.43324210704E+02  0.00000000000E+00 0.  1.
         21   -1    0    0  505  502  0.00000000000E+00 -0.00000000000E+00 -0.51119823379E+03  0.51119823379E+03  0.00000000000E+00 0.  1.
         21    1    1    2  503  504 -0.24844655217E+02  0.10440124299E+03 -0.10875601842E+03  0.15278988178E+03  0.00000000000E+00 0.  1.
         21    1    1    2  504  502  0.45111004845E+02 -0.21587717607E+02 -0.12525253431E+03  0.13486745219E+03  0.00000000000E+00 0.  1.
         21    1    1    2  505  501 -0.35703884285E+02  0.78364289043E+01 -0.69424835759E+02  0.78460084063E+02  0.00000000000E+00 0.  1.
          2    1    1    2  501    0  0.15437534657E+02 -0.90649954289E+02 -0.16444063460E+03  0.18840502646E+03  0.00000000000E+00 0.  1.
<scales pt_clust_3="14000.00000" pt_clust_4="39.50260" pt_clust_5="36.55375" pt_clust_6="100.72678"></scales>
<clustering>
<clus scale="   36.554">  2  5  1 -1</clus>
<clus scale="   39.503">  2  4  1 -1</clus>
<clus scale="  100.727">  2  6  1 -1</clus>
<clus scale="   36.554">  2  3  1 -1</clus>
</clustering>
</event>
<event>
 6    0  0.2839294E+002  0.9251226E+02  0.7546771E-02  0.1296879E+00
         21   -1    0    0  503  502  0.00000000000E+00  0.00000000000E+00  0.28939493154E+02  0.28939493154E+02  0.00000000000E+00 0. -1.
          2   -1    0    0  504    0 -0.00000000000E+00 -0.00000000000E+00 -0.32848840591E+04  0.32848840591E+04  0.00000000000E+00 0. -1.
         21    1    1    2  503  501 -0.12310661830E+03  0.76325945075E+02 -0.18435736074E+03  0.23445367521E+03  0.00000000000E+00 0. -1.
         21    1    1    2  504  505  0.25950281812E+02 -0.16640046993E+02 -0.43401691213E+03  0.43511031739E+03  0.00000000000E+00 0.  1.
         21    1    1    2  505  502  0.31097285010E+02 -0.51283711750E+02 -0.31064932503E+03  0.31638594053E+03  0.00000000000E+00 0. -1.
          2    1    1    2  501    0  0.66059051480E+02 -0.84021863319E+01 -0.23269209681E+04  0.23278736191E+04  0.00000000000E+00 0. -1.
<scales pt_clust_3="92.51226" pt_clust_4="30.82707" pt_clust_5="63.03819" pt_clust_6="14000.00000"></scales>
<clustering>
<clus scale="   30.827">  2  4  1 -1</clus>
<clus scale="   63.038">  1  5  2 -1</clus>
<clus scale="   92.512">  1  3  2 -1</clus>
<clus scale="   63.038">  1  3  2 -1</clus>
</clustering>
</event>
<event>
 6    0  0.2839294E+002  0.8664332E+02  0.7546771E-02  0.1311190E+00
         21   -1    0    0  504  502  0.00000000000E+00  0.00000000000E+00  0.33616799607E+03  0.33616799607E+03  0.00000000000E+00 0. -1.
         -1   -1    0    0    0  501 -0.00000000000E+00 -0.00000000000E+00 -0.17680966227E+04  0.17680966227E+04  0.00000000000E+00 0.  1.
         21    1    1    2  503  501  0.31702095710E+02 -0.26126903869E+02 -0.36575644247E+03  0.36805626362E+03  0.00000000000E+00 0. -1.
         21    1    1    2  504  503 -0.53515474898E+02  0.62177149202E+02  0.95443767848E+02  0.12585474468E+03  0.00000000000E+00 0. -1.
         21    1    1    2  505  502  0.71776630502E+02  0.23784978724E+02  0.21686547433E+03  0.22966985840E+03  0.00000000000E+00 0. -1.
         -1    1    1    2    0  505 -0.49963251314E+02 -0.59835224057E+02 -0.13784814263E+04  0.13806837521E+04  0.00000000000E+00 0.  1.
<scales pt_clust_3="41.08087" pt_clust_4="86.64332" pt_clust_5="75.71499" pt_clust_6="14000.00000"></scales>
<clustering>
<clus scale="   41.081">  2  3  1 -1</clus>
<clus scale="   75.715">  1  5  2 -1</clus>
<clus scale="   86.643">  1  4  2 -1</clus>
<clus scale="   75.715">  1  3  2 -1</clus>
</clustering>
</event>
<event>
 6    0  0.2839294E+002  0.1301819E+03  0.7546771E-02  0.1227186E+00
          1   -1    0    0  505    0 -0.00000000000E+00  0.00000000000E+00  0.79100005861E+03  0.79100005861E+03  0.00000000000E+00 0.  1.
         21   -1    0    0  504  502  0.00000000000E+00 -0.00000000000E+00 -0.97587138285E+03  0.97587138285E+03  0.00000000000E+00 0. -1.
         21    1    1    2  503  501 -0.24020660607E+03 -0.11591996715E+02 -0.17384610769E+03  0.29674240874E+03  0.00000000000E+00 0. -1.
         21    1    1    2  504  503  0.12106320010E+03 -0.17225178019E+00 -0.71455165659E+03  0.72473470872E+03  0.00000000000E+00 0. -1.
         21    1    1    2  505  502  0.92099713717E+01 -0.85039859624E+02  0.14859339654E+03  0.17145436359E+03  0.00000000000E+00 0. -1.
          1    1    1    2  501    0  0.10993343459E+03  0.96804108120E+02  0.55493304350E+03  0.57393996041E+03  0.00000000000E+00 0.  1.
<scales pt_clust_3="130.18193" pt_clust_4="14000.00000" pt_clust_5="85.53713" pt_clust_6="119.97701"></scales>
<clustering>
<clus scale="   85.537">  1  5  2 -1</clus>
<clus scale="  119.977">  1  6  2 -1</clus>
<clus scale="  130.182">  1  3  2 -1</clus>
<clus scale="  130.182">  2  3  1 -1</clus>
</clustering>
</event>
<event>
 6    0  0.2839294E+002  0.1359168E+03  0.7546771E-02  0.1218931E+00
         21   -1    0    0  504  502  0.00000000000E+00  0.00000000000E+00  0.14710777349E+03  0.14710777349E+03  0.00000000000E+00 0. -1.
          2   -1    0    0  505    0 -0.00000000000E+00 -0.00000000000E+00 -0.10527893645E+04  0.10527893645E+04  0.00000000000E+00 0.  1.
         21    1    1    2  503  501 -0.62702224647E+02 -0.62066768884E+02 -0.25531618866E+03  0.27012998532E+03  0.00000000000E+00 0.  1.
         21    1    1    2  504  503  0.31008710692E+02  0.14174881198E+03  0.92866425458E+02  0.17227431269E+03  0.00000000000E+00 0. -1.
         21    1    1    2  505  502  0.28423511729E+02 -0.22626153523E+02 -0.49447748077E+02  0.61358932782E+02  0.00000000000E+00 0. -1.
          2    1    1    2  501    0  0.32700022263E+01 -0.57055889574E+02 -0.69378407971E+03  0.69613390717E+03  0.00000000000E+00 0.  1.
<scales pt_clust_3="135.91684" pt_clust_4="14000.00000" pt_clust_5="36.32959" pt_clust_6="76.38980"></scales>
<clustering>
<clus scale="   36.330">  2  5  1 -1</clus>
<clus scale="   76.390">  2  6  1 -1</clus>
<clus scale="  135.917">  2  3  1 -1</clus>
<clus scale="  135.917">  1  3  2 -1</clus>
</clustering>
</event>
<event>
 6    0  0.2839294E+002  0.1103914E+03  0.7546771E-02  0.1259847E+00
         21   -1    0    0  505  502  0.00000000000E+00  0.00000000000E+00  0.77947773995E+03  0.77947773995E+03  0.00000000000E+00 0. -1.
         -4   -1    0    0    0  501 -0.00000000000E+00 -0.00000000000E+00 -0.30283410065E+04  0.30283410065E+04  0.00000000000E+00 0.  1.
         21    1    1    2  503  504  0.52956116589E+02  0.10156249545E+03  0.12279859462E+03  0.16792494040E+03  0.00000000000E+00 0.  1.
         21    1    1    2  504  502  0.38356250126E+02 -0.30955476327E+02  0.62623998683E+03  0.62817669851E+03  0.00000000000E+00 0. -1.
         21    1    1    2  505  501 -0.51015593732E+02 -0.56264432219E+02 -0.20709415563E+03  0.22058165480E+03  0.00000000000E+00 0. -1.
         -4    1    1    2    0  503 -0.40296772983E+02 -0.14342586908E+02 -0.27908076924E+04  0.27911354527E+04  0.00000000000E+00 0.  1.
<scales pt_clust_3="14000.00000" pt_clust_4="49.19843" pt_clust_5="110.39143" pt_clust_6="42.77312"></scales>
<clustering>
<clus scale="   42.773">  2  6  1 -1</clus>
<clus scale="   49.198">  1  4  2 -1</clus>
<clus scale="  110.391">  2  5  1 -1</clus>
<clus scale="   49.198">  1  3  2 -1</clus>
</clustering>
</event>
<event>
 6    0  0.2839294E+002  0.7646247E+02  0.7546771E-02  0.1339401E+00
          2   -1    0    0  504    0 -0.00000000000E+00  0.00000000000E+00  0.68401994245E+03  0.68401994245E+03  0.00000000000E+00 0. -1.
         21   -1    0    0  505  502  0.00000000000E+00 -0.00000000000E+00 -0.13279929353E+04  0.13279929353E+04  0.00000000000E+00 0. -1.
         21    1    1    2  503  502 -0.28437461072E+02 -0.98861944118E+01 -0.66740014029E+03  0.66807886757E+03  0.00000000000E+00 0. -1.
         21    1    1    2  504  503  0.12573346039E+03 -0.56305909069E+02 -0.62492270347E+03  0.63992784263E+03  0.00000000000E+00 0. -1.
         21    1    1    2  505  501 -0.43202499131E+02  0.12411718090E+02 -0.58902769144E+01  0.45334336206E+02  0.00000000000E+00 0. -1.
          2    1    1    2  501    0 -0.54093500191E+02  0.53780385390E+02  0.65424012780E+03  0.65867183137E+03  0.00000000000E+00 0. -1.
<scales pt_clust_3="30.10691" pt_clust_4="76.46247" pt_clust_5="45.90934" pt_clust_6="14000.00000"></scales>
<clustering>
<clus scale="   30.107">  2  3  1 -1</clus>
<clus scale="   45.909">  2  5  1 -1</clus>
<clus scale="   76.462">  2  4  1 -1</clus>
<clus scale="   30.107">  2  3  1 -1</clus>
</clustering>
</event>
<event>
 6    0  0.2839294E+002  0.9525799E+02  0.7546771E-02  0.1290596E+00
          1   -1    0    0  504    0 -0.00000000000E+00  0.00000000000E+00  0.15918069283E+04  0.15918069283E+04  0.00000000000E+00 0.  1.
         21   -1    0    0  505  502  0.00000000000E+00 -0.00000000000E+00 -0.22068074612E+03  0.22068074612E+03  0.00000000000E+00 0.  1.
         21    1    1    2  503  502  0.67400457468E+02  0.44472656344E+02  0.21003779695E+03  0.22502558738E+03  0.00000000000E+00 0.  1.
         21    1    1    2  504  503 -0.11091883156E+03  0.66383683532E+02  0.21344428930E+03  0.24953606006E+03  0.00000000000E+00 0.  1.
         21    1    1    2  505  501  0.25031711318E+02 -0.16973934341E+02 -0.19195194884E+03  0.19431997242E+03  0.00000000000E+00 0.  1.
          1    1    1    2  501    0  0.18486662769E+02 -0.93882405534E+02  0.11395960447E+04  0.11436060545E+04  0.00000000000E+00 0.  1.
<scales pt_clust_3="84.23548" pt_clust_4="95.25799" pt_clust_5="30.24402" pt_clust_6="14000.00000"></scales>
<clustering>
<clus scale="   30.244">  2  5  1 -1</clus>
<clus scale="   84.235">  2  3  1 -1</clus>
<clus scale="   95.258">  2  4  1 -1</clus>
<clus scale="   30.244">  2  3  1 -1</clus>
</clustering>
</event>
<event>
 6    0  0.2839294E+002  0.1457186E+03  0.7546771E-02  0.1205835E+00
          4   -1    0    0  504    0 -0.00000000000E+00  0.00000000000E+00  0.10226402712E+03  0.10226402712E+03  0.00000000000E+00 0.  1.
         21   -1    0    0  501  502  0.00000000000E+00 -0.00000000000E+00 -0.13345286961E+04  0.13345286961E+04  0.00000000000E+00 0.  1.
         21    1    1    2  503  505  0.16737277902E+03 -0.19380862488E+03 -0.59068131505E+03  0.64380109209E+03  0.00000000000E+00 0.  1.
         21    1    1    2  504  503 -0.41465033529E+02  0.26266202690E+02 -0.56043174243E+02  0.74498991863E+02  0.00000000000E+00 0.  1.
         21    1    1    2  505  502 -0.67812600234E+02  0.10059632539E+03 -0.61363136493E+03  0.62550908983E+03  0.00000000000E+00 0.  1.
          4    1    1    2  501    0 -0.58095145252E+02  0.66946096792E+02  0.28091185244E+02  0.92983549437E+02  0.00000000000E+00 0.  1.
<scales pt_clust_3="145.71864" pt_clust_4="49.08424" pt_clust_5="14000.00000" pt_clust_6="119.58325"></scales>
<clustering>
<clus scale="   49.084">  1  4  2 -1</clus>
<clus scale="  119.583">  1  6  2 -1</clus>
<clus scale="  145.719">  1  3  2 -1</clus>
<clus scale="  145.719">  2  3  1 -1</clus>
</clustering>
</event>
<event>
 6    0  0.2839294E+002  0.1113522E+03  0.7546771E-02  0.1258086E+00
         21   -1    0    0  505  502  0.00000000000E+00  0.00000000000E+00  0.23161506639E+03  0.23161506639E+03  0.00000000000E+00 0.  1.
          2   -1    0    0  504    0 -0.00000000000E+00 -0.00000000000E+00 -0.37936839948E+03  0.37936839948E+03  0.00000000000E+00 0. -1.
         21    1    1    2  503  501  0.75802178743E+02 -0.86296147646E+01 -0.19538450118E+03  0.20975114744E+03  0.00000000000E+00 0. -1.
         21    1    1    2  504  502  0.27080862322E+02  0.18059524687E+02  0.13081458821E+01  0.32576537288E+02  0.00000000000E+00 0. -1.
         21    1    1    2  505  503 -0.12346144477E+03  0.48420193578E+02  0.17881631441E+03  0.22262640856E+03  0.00000000000E+00 0.  1.
          2    1    1    2  501    0  0.20578403707E+02 -0.57850103501E+02 -0.13249329221E+03  0.14602937257E+03  0.00000000000E+00 0. -1.
<scales pt_clust_3="111.35218" pt_clust_4="32.55026" pt_clust_5="14000.00000" pt_clust_6="61.15899"></scales>
<clustering>
<clus scale="   32.550">  1  4  2 -1</clus>
<clus scale="   61.159">  2  6  1 -1</clus>
<clus scale="  111.352">  2  3  1 -1</clus>
<clus scale="   32.550">  1  3  2 -1</clus>
</clustering>
</event>
<event>
 6    0  0.2839294E+002  0.1538407E+03  0.7546771E-02  0.1195831E+00
          3   -1    0    0  504    0 -0.00000000000E+00  0.00000000000E+00  0.53703766611E+02  0.53703766611E+02  0.00000000000E+00 0.  1.
         21   -1    0    0  501  502  0.00000000000E+00 -0.00000000000E+00 -0.20046390937E+04  0.20046390937E+04  0.00000000000E+00 0. -1.
         21    1    1    2  503  502  0.46450268161E+02 -0.27302020193E+02 -0.14274154743E+04  0.14284319948E+04  0.00000000000E+00 0. -1.
         21    1    1    2  504  505  0.32661606548E+02 -0.22289272602E+02 -0.11463107698E+03  0.12125953994E+03  0.00000000000E+00 0. -1.
         21    1    1    2  505  503  0.75367208893E+02  0.23739682434E+02 -0.31777159382E+03  0.32744858305E+03  0.00000000000E+00 0. -1.
          3    1    1    2  501    0 -0.15447908360E+03  0.25851610361E+02 -0.91117182039E+02  0.18120274251E+03  0.00000000000E+00 0.  1.
<scales pt_clust_3="53.87975" pt_clust_4="36.72100" pt_clust_5="36.72100" pt_clust_6="144.81846"></scales>
<clustering>
<clus scale="   36.721">  4  5 -1 -1</clus>
<clus scale="   53.880">  2  3  1 -1</clus>
<clus scale="  144.818">  1  6  2 -1</clus>
<clus scale="   53.880">  2  3  1 -1</clus>
</clustering>
</event>
<event>
 6    0  0.2839294E+002  0.2754627E+03  0.7546771E-02  0.1098193E+00
          1   -1    0    0  503    0 -0.00000000000E+00  0.00000000000E+00  0.54883141123E+03  0.54883141123E+03  0.00000000000E+00 0.  1.
         21   -1    0    0  505  502  0.00000000000E+00 -0.00000000000E+00 -0.90732678627E+03  0.90732678627E+03  0.00000000000E+00 0.  1.
         21    1    1    2  503  504 -0.46850581930E+02 -0.12187359094E+03 -0.56022955352E+02  0.14207998001E+03  0.00000000000E+00 0. -1.
         21    1    1    2  504  502  0.35887948882E+02 -0.30743006063E+02 -0.17384089674E+02  0.50351602462E+02  0.00000000000E+00 0.  1.
         21    1    1    2  505  501  0.13233614309E+03 -0.10257574974E+03 -0.72323096959E+03  0.74235953188E+03  0.00000000000E+00 0.  1.
          1    1    1    2  501    0 -0.12137351004E+03  0.25519234674E+03  0.43814263957E+03  0.52136708314E+03  0.00000000000E+00 0.  1.
<scales pt_clust_3="132.45868" pt_clust_4="47.25545" pt_clust_5="275.46274" pt_clust_6="14000.00000"></scales>
<clustering>
<clus scale="   47.255">  2  4  1 -1</clus>
<clus scale="  132.459">  2  3  1 -1</clus>
<clus scale="  275.463">  2  5  1 -1</clus>
<clus scale="   47.255">  2  3  1 -1</clus>
</clustering>
</event>
<event>
 6    0  0.2839294E+002  0.1621674E+03  0.7546771E-02  0.1186271E+00
          2   -1    0    0  505    0 -0.00000000000E+00  0.00000000000E+00  0.95129508043E+03  0.95129508043E+03  0.00000000000E+00 0. -1.
         21   -1    0    0  503  502  0.00000000000E+00 -0.00000000000E+00 -0.20644067440E+03  0.20644067440E+03  0.00000000000E+00 0. -1.
         21    1    1    2  503  504  0.38282334937E+02  0.72742220535E+02  0.26378075932E+02  0.86329431288E+02  0.00000000000E+00 0. -1.
         21    1    1    2  504  501  0.16457766514E+03 -0.32058931742E+02  0.62864842766E+02  0.17906862211E+03  0.00000000000E+00 0. -1.
         21    1    1    2  505  502 -0.59061435441E+02 -0.11582296630E+03 -0.70791391612E+02  0.14803592066E+03  0.00000000000E+00 0. -1.
          2    1    1    2  501    0 -0.14379856464E+03  0.75139677511E+02  0.72640287894E+03  0.74430178077E+03  0.00000000000E+00 0. -1.
<scales pt_clust_3="82.20078" pt_clust_4="162.16740" pt_clust_5="79.05234" pt_clust_6="14000.00000"></scales>
<clustering>
<clus scale="   82.201">  2  3  1 -1</clus>
<clus scale="   79.052">  2  5  1 -1</clus>
<clus scale="  162.167">  2  4  1 -1</clus>
<clus scale="   82.201">  2  3  1 -1</clus>
</clustering>
</event>
<event>
 6    0  0.2839294E+002  0.7149941E+02  0.7546771E-02  0.1355067E+00
          2   -1    0    0  505    0 -0.00000000000E+00  0.00000000000E+00  0.37723572277E+04  0.37723572277E+04  0.00000000000E+00 0. -1.
         21   -1    0    0  503  502  0.00000000000E+00 -0.00000000000E+00 -0.79392795271E+02  0.79392795271E+02  0.00000000000E+00 0.  1.
         21    1    1    2  503  501  0.23822184424E+02 -0.41220456128E+02 -0.27736540625E+01  0.47689785394E+02  0.00000000000E+00 0.  1.
         21    1    1    2  504  502  0.18963758600E+01  0.10589341696E+03  0.11691942397E+01  0.10591684952E+03  0.00000000000E+00 0.  1.
         21    1    1    2  505  504 -0.67154222261E+02 -0.86740882377E+02  0.20785176341E+04  0.20814103934E+04  0.00000000000E+00 0. -1.
          2    1    1    2  501    0  0.41435661977E+02  0.22067921548E+02  0.16160512581E+04  0.16167329947E+04  0.00000000000E+00 0. -1.
<scales pt_clust_3="47.62851" pt_clust_4="14000.00000" pt_clust_5="71.49941" pt_clust_6="46.94579"></scales>
<clustering>
<clus scale="   46.946">  1  6  2 -1</clus>
<clus scale="   47.629">  2  3  1 -1</clus>
<clus scale="   71.499">  1  5  2 -1</clus>
<clus scale="   47.629">  2  3  1 -1</clus>
</clustering>
</event>
<event>
 6    0  0.2839294E+002  0.1152510E+03  0.7546771E-02  0.1251144E+00
          2   -1    0    0  503    0 -0.00000000000E+00  0.00000000000E+00  0.19094141246E+04  0.19094141246E+04  0.00000000000E+00 0. -1.
         21   -1    0    0  505  502  0.00000000000E+00 -0.00000000000E+00 -0.13561195885E+04  0.13561195885E+04  0.00000000000E+00 0.  1.
         21    1    1    2  503  502  0.58150756755E+02  0.21380555833E+02  0.48472344453E+02  0.78665156554E+02  0.00000000000E+00 0.  1.
         21    1    1    2  504  501 -0.14423665755E+03  0.43860107521E+02  0.28683777590E+03  0.32404294792E+03  0.00000000000E+00 0.  1.
         21    1    1    2  505  504 -0.23143454346E+02 -0.43028885994E+02 -0.13199516195E+04  0.13208555494E+04  0.00000000000E+00 0.  1.
          2    1    1    2  501    0  0.10922935514E+03 -0.22211777360E+02  0.15379360352E+04  0.15419700592E+04  0.00000000000E+00 0. -1.
<scales pt_clust_3="48.47379" pt_clust_4="14000.00000" pt_clust_5="48.85800" pt_clust_6="115.25100"></scales>
<clustering>
<clus scale="   48.858">  2  5  1 -1</clus>
<clus scale="   48.474">  2  3  1 -1</clus>
<clus scale="  115.251">  1  6  2 -1</clus>
<clus scale="   48.858">  2  3  1 -1</clus>
</clustering>
</event>
<event>
 6    0  0.2839294E+002  0.1383020E+03  0.7546771E-02  0.1215632E+00
         21   -1    0    0  505  502  0.00000000000E+00  0.00000000000E+00  0.10793748487E+03  0.10793748487E+03  0.00000000000E+00 0.  1.
          2   -1    0    0  504    0 -0.00000000000E+00 -0.00000000000E+00 -0.70622864357E+03  0.70622864357E+03  0.00000000000E+00 0.  1.
         21    1    1    2  503  502  0.12696204124E+03  0.56529423404E+02  0.36633051665E+02  0.14372514081E+03  0.00000000000E+00 0.  1.
         21    1    1    2  504  503 -0.53510670051E+02 -0.52913594691E+02 -0.81929674435E+02  0.11124617686E+03  0.00000000000E+00 0. -1.
         21    1    1    2  505  501 -0.32039115449E+02  0.16788472735E+02 -0.27956819930E+03  0.28189844944E+03  0.00000000000E+00 0. -1.
          2    1    1    2  501    0 -0.41412255738E+02 -0.20404301448E+02 -0.27342633663E+03  0.27729636133E+03  0.00000000000E+00 0.  1.
<scales pt_clust_3="132.81472" pt_clust_4="75.25450" pt_clust_5="34.14113" pt_clust_6="34.14113"></scales>
<clustering>
<clus scale="   34.141">  5  6 -1 -1</clus>
<clus scale="   75.255">  2  4  1 -1</clus>
<clus scale="  132.815">  1  3  2 -1</clus>
<clus scale="  132.815">  1  3  2 -1</clus>
</clustering>
</event>
<event>
 6    0  0.2839294E+002  0.1082452E+03  0.7546771E-02  0.1263854E+00
          3   -1    0    0  503    0 -0.00000000000E+00  0.00000000000E+00  0.16918267939E+04  0.16918267939E+04  0.00000000000E+00 0.  1.
         21   -1    0    0  505  502  0.00000000000E+00 -0.00000000000E+00 -0.66801058483E+03  0.66801058483E+03  0.00000000000E+00 0.  1.
         21    1    1    2  503  504  0.35270533462E+02  0.11437740411E+02  0.29336420715E+02  0.47280630461E+02  0.00000000000E+00 0.  1.
         21    1    1    2  504  502  0.44788457124E+02 -0.43440910494E+01 -0.57173740904E+03  0.57350548552E+03  0.00000000000E+00 0.  1.
         21    1    1    2  505  501 -0.89231310140E+02 -0.93290178116E+02 -0.36371476474E+02  0.13411997742E+03  0.00000000000E+00 0.  1.
          3    1    1    2  501    0  0.91723195541E+01  0.86196528754E+02  0.16025886739E+04  0.16049312853E+04  0.00000000000E+00 0.  1.
<scales pt_clust_3="37.07873" pt_clust_4="45.01681" pt_clust_5="108.24519" pt_clust_6="14000.00000"></scales>
<clustering>
<clus scale="   37.079">  1  3  2 -1</clus>
<clus scale="   45.017">  2  4  1 -1</clus>
<clus scale="  108.245">  2  5  1 -1</clus>
<clus scale="   45.017">  2  3  1 -1</clus>
</clustering>
</event>
<event>
 6    0  0.2839294E+002  0.7751071E+02  0.7546771E-02  0.1336268E+00
          3   -1    0    0  503    0 -0.00000000000E+00  0.00000000000E+00  0.24354530247E+03  0.24354530247E+03  0.00000000000E+00 0. -1.
         21   -1    0    0  504  502  0.00000000000E+00 -0.00000000000E+00 -0.78226247131E+03  0.78226247131E+03  0.00000000000E+00 0. -1.
         21    1    1    2  503  505  0.25084108302E+02 -0.68779978310E+02 -0.23335443327E+02  0.76840359323E+02  0.00000000000E+00 0.  1.
         21    1    1    2  504  501  0.48160719936E+02 -0.51477036869E+01 -0.65197522316E+03  0.65377186037E+03  0.00000000000E+00 0. -1.
         21    1    1    2  505  502  0.31266040490E+02  0.42381887825E+00 -0.55961674294E+02  0.64105022425E+02  0.00000000000E+00 0. -1.
          3    1    1    2  501    0 -0.10451086873E+03  0.73503863119E+02  0.19255517195E+03  0.23109053165E+03  0.00000000000E+00 0. -1.
<scales pt_clust_3="73.95499" pt_clust_4="14000.00000" pt_clust_5="31.26891" pt_clust_6="77.51071"></scales>
<clustering>
<clus scale="   31.269">  2  5  1 -1</clus>
<clus scale="   73.955">  1  3  2 -1</clus>
<clus scale="   77.511">  1  6  2 -1</clus>
<clus scale="   31.269">  2  3  1 -1</clus>
</clustering>
</event>
<event>
 6    0  0.2839294E+002  0.8008385E+02  0.7546771E-02  0.1328814E+00
         -2   -1    0    0    0  501 -0.00000000000E+00  0.00000000000E+00  0.43146154585E+03  0.43146154585E+03  0.00000000000E+00 0.  1.
         21   -1    0    0  505  502  0.00000000000E+00 -0.00000000000E+00 -0.34302111538E+03  0.34302111538E+03  0.00000000000E+00 0. -1.
         21    1    1    2  503  501 -0.44858372033E+02  0.26461970478E+02  0.29628826739E+03  0.30083092730E+03  0.00000000000E+00 0.  1.
         21    1    1    2  504  502  0.88034522281E+02  0.21575940894E+02 -0.30523710485E+03  0.31841056596E+03  0.00000000000E+00 0. -1.
         21    1    1    2  505  503 -0.18900660032E+02  0.25073370328E+02  0.42764442961E+00  0.31402097525E+02  0.00000000000E+00 0. -1.
         -2    1    1    2    0  504 -0.24275490216E+02 -0.73111281699E+02  0.96961623503E+02  0.12383907045E+03  0.00000000000E+00 0.  1.
<scales pt_clust_3="52.28306" pt_clust_4="80.08385" pt_clust_5="31.39919" pt_clust_6="14000.00000"></scales>
<clustering>
<clus scale="   31.399">  2  5  1 -1</clus>
<clus scale="   52.283">  1  3  2 -1</clus>
<clus scale="   80.084">  2  4  1 -1</clus>
<clus scale="   31.399">  2  3  1 -1</clus>
</clustering>
</event>
<event>
 6    0  0.3566708E+002  0.8486008E+02  0.7546771E-02  0.1315799E+00
         21   -1    0    0  504  502  0.00000000000E+00  0.00000000000E+00  0.17358342320E+03  0.17358342320E+03  0.00000000000E+00 0.  1.
          2   -1    0    0  503    0 -0.00000000000E+00 -0.00000000000E+00 -0.23558226576E+04  0.23558226576E+04  0.00000000000E+00 0. -1.
         21    1    1    2  503  505  0.69011540522E+01  0.50542526899E+02 -0.10275314956E+03  0.11471871119E+03  0.00000000000E+00 0. -1.
         21    1    1    2  504  501 -0.22753626675E+02 -0.25046475816E+02 -0.36952205098E+02  0.50105078977E+02  0.00000000000E+00 0.  1.
         21    1    1    2  505  502  0.10027542542E+03 -0.91724827221E+01  0.14435438687E+03  0.17600421697E+03  0.00000000000E+00 0.  1.
          2    1    1    2  501    0 -0.84422952794E+02 -0.16323568361E+02 -0.21868882666E+04  0.21885780737E+04  0.00000000000E+00 0. -1.
<scales pt_clust_3="50.01693" pt_clust_4="33.83864" pt_clust_5="14000.00000" pt_clust_6="84.86008"></scales>
<clustering>
<clus scale="   33.839">  1  4  2 -1</clus>
<clus scale="   50.017">  2  3  1 -1</clus>
<clus scale="   84.860">  2  6  1 -1</clus>
<clus scale="   33.839">  1  3  2 -1</clus>
</clustering>
</event>
<event>
 6    0  0.2839294E+002  0.2043747E+03  0.7546771E-02  0.1146100E+00
         21   -1    0    0  504  502  0.00000000000E+00  0.00000000000E+00  0.67529390766E+02  0.67529390766E+02  0.00000000000E+00 0. -1.
          1   -1    0    0  505    0 -0.00000000000E+00 -0.00000000000E+00 -0.18535257335E+04  0.18535257335E+04  0.00000000000E+00 0. -1.
         21    1    1    2  503  502  0.17405888086E+03 -0.17335399394E+03 -0.46620269241E+03  0.52696589229E+03  0.00000000000E+00 0. -1.
         21    1    1    2  504  501 -0.61242492180E+01  0.91213279679E+02 -0.64739556229E+02  0.11202043992E+03  0.00000000000E+00 0. -1.
         21    1    1    2  505  503 -0.18862714917E+02 -0.50975617047E+02 -0.16147614450E+03  0.17037858078E+03  0.00000000000E+00 0. -1.
          1    1    1    2  501    0 -0.14907191672E+03  0.13311633131E+03 -0.10935779496E+04  0.11116902113E+04  0.00000000000E+00 0. -1.
<scales pt_clust_3="14000.00000" pt_clust_4="88.82885" pt_clust_5="54.35362" pt_clust_6="204.37474"></scales>
<clustering>
<clus scale="   54.354">  2  5  1 -1</clus>
<clus scale="   88.829">  1  4  2 -1</clus>
<clus scale="  204.375">  2  6  1 -1</clus>
<clus scale="   88.829">  1  3  2 -1</clus>
</clustering>
</event>
<event>
 6    0  0.2839294E+002  0.6050466E+02  0.7546771E-02  0.1395726E+00
          2   -1    0    0  505    0 -0.00000000000E+00  0.00000000000E+00  0.48376390278E+03  0.48376390278E+03  0.00000000000E+00 0.  1.
         21   -1    0    0  503  502  0.00000000000E+00 -0.00000000000E+00 -0.48958750476E+03  0.48958750476E+03  0.00000000000E+00 0.  1.
         21    1    1    2  503  501  0.40131311720E+02 -0.68391928185E+02  0.60330551382E+01  0.79525944041E+02  0.00000000000E+00 0.  1.
         21    1    1    2  504  502 -0.49683389235E+02  0.33542703269E+02 -0.42942394511E+03  0.43358791120E+03  0.00000000000E+00 0.  1.
         21    1    1    2  505  504 -0.56358375515E+02 -0.59230900526E+01  0.28322897342E+02  0.63352474303E+02  0.00000000000E+00 0.  1.
          2    1    1    2  501    0  0.65910453030E+02  0.40772314969E+02  0.38924439064E+03  0.39688507799E+03  0.00000000000E+00 0.  1.
<scales pt_clust_3="60.50466" pt_clust_4="14000.00000" pt_clust_5="56.66877" pt_clust_6="38.62638"></scales>
<clustering>
<clus scale="   56.669">  1  5  2 -1</clus>
<clus scale="   38.626">  1  6  2 -1</clus>
<clus scale="   60.505">  1  3  2 -1</clus>
<clus scale="   60.505">  2  3  1 -1</clus>
</clustering>
</event>
<event>
 6    0  0.2839294E+002  0.1086725E+03  0.7546771E-02  0.1263048E+00
         21   -1    0    0  503  502  0.00000000000E+00  0.00000000000E+00  0.57008830203E+02  0.57008830203E+02  0.00000000000E+00 0.  1.
          1   -1    0    0  505    0 -0.00000000000E+00 -0.00000000000E+00 -0.17842989010E+04  0.17842989010E+04  0.00000000000E+00 0. -1.
         21    1    1    2  503  504  0.94832008322E+02  0.33299933564E+02 -0.13691514876E+02  0.10143694079E+03  0.00000000000E+00 0.  1.
         21    1    1    2  504  501 -0.63524202811E+02 -0.46667149723E+02 -0.23878984626E+03  0.25146319389E+03  0.00000000000E+00 0. -1.
         21    1    1    2  505  502  0.23688213253E+02  0.37561927904E+02 -0.73936583748E+02  0.86247598757E+02  0.00000000000E+00 0.  1.
          1    1    1    2  501    0 -0.54996018765E+02 -0.24194711745E+02 -0.14008721259E+04  0.14021599978E+04  0.00000000000E+00 0. -1.
<scales pt_clust_3="14000.00000" pt_clust_4="108.67248" pt_clust_5="44.40754" pt_clust_6="59.61757"></scales>
<clustering>
<clus scale="   44.408">  1  5  2 -1</clus>
<clus scale="   59.618">  2  6  1 -1</clus>
<clus scale="  108.672">  2  4  1 -1</clus>
<clus scale="   44.408">  1  3  2 -1</clus>
</clustering>
</event>
<event>
 6    0  0.2839294E+002  0.9044029E+02  0.7546771E-02  0.1301789E+00
         21   -1    0    0  503  502  0.00000000000E+00  0.00000000000E+00  0.17039110623E+03  0.17039110623E+03  0.00000000000E+00 0.  1.
          2   -1    0    0  505    0 -0.00000000000E+00 -0.00000000000E+00 -0.16679264370E+04  0.16679264370E+04  0.00000000000E+00 0.  1.
         21    1    1    2  503  501 -0.54829327478E+02 -0.89502817943E+02 -0.88560418429E+02  0.13733155968E+03  0.00000000000E+00 0.  1.
         21    1    1    2  504  502  0.36916959000E+02  0.33343337998E+00  0.14053664495E+03  0.14530492632E+03  0.00000000000E+00 0.  1.
         21    1    1    2  505  504  0.52940716582E+02  0.59418713215E+02 -0.12632138788E+04  0.12657182177E+04  0.00000000000E+00 0.  1.
          2    1    1    2  501    0 -0.35028348104E+02  0.29750671349E+02 -0.28629767855E+03  0.28996283962E+03  0.00000000000E+00 0.  1.
<scales pt_clust_3="90.44029" pt_clust_4="36.91846" pt_clust_5="14000.00000" pt_clust_6="44.12418"></scales>
<clustering>
<clus scale="   36.918">  1  4  2 -1</clus>
<clus scale="   44.124">  2  6  1 -1</clus>
<clus scale="   90.440">  1  3  2 -1</clus>
<clus scale="   36.918">  1  3  2 -1</clus>
</clustering>
</event>
<event>
 6    0  0.2839294E+002  0.1337898E+03  0.7546771E-02  0.1221938E+00
         21   -1    0    0  505  502  0.00000000000E+00  0.00000000000E+00  0.18147352044E+03  0.18147352044E+03  0.00000000000E+00 0. -1.
          2   -1    0    0  504    0 -0.00000000000E+00 -0.00000000000E+00 -0.38625665058E+04  0.38625665058E+04  0.00000000000E+00 0. -1.
         21    1    1    2  503  502  0.40000307772E+02 -0.13801919232E+02  0.97174826165E+01  0.43415977068E+02  0.00000000000E+00 0. -1.
         21    1    1    2  504  503  0.57599830387E+02  0.26801097272E+02 -0.19773775324E+03  0.20769270168E+03  0.00000000000E+00 0. -1.
         21    1    1    2  505  501  0.94570829670E+02  0.27448119086E+01  0.13218219597E+03  0.16255247998E+03  0.00000000000E+00 0. -1.
          2    1    1    2  501    0 -0.19217096783E+03 -0.15743989949E+02 -0.36252549107E+04  0.36303788675E+04  0.00000000000E+00 0. -1.
<scales pt_clust_3="42.31451" pt_clust_4="64.51497" pt_clust_5="14000.00000" pt_clust_6="133.78976"></scales>
<clustering>
<clus scale="   42.315">  1  3  2 -1</clus>
<clus scale="   64.515">  2  4  1 -1</clus>
<clus scale="  133.790">  2  6  1 -1</clus>
<clus scale="   42.315">  1  3  2 -1</clus>
</clustering>
</event>
<event>
 6    0  0.2839294E+002  0.1460682E+03  0.7546771E-02  0.1205389E+00
          2   -1    0    0  504    0 -0.00000000000E+00  0.00000000000E+00  0.21046388665E+04  0.21046388665E+04  0.00000000000E+00 0.  1.
         21   -1    0    0  505  502  0.00000000000E+00 -0.00000000000E+00 -0.28004373750E+03  0.28004373750E+03  0.00000000000E+00 0.  1.
         21    1    1    2  503  501  0.38841349951E+02  0.44438200899E+02  0.72124118222E+02  0.93194917214E+02  0.00000000000E+00 0. -1.
         21    1    1    2  504  502  0.64717808953E+02  0.36766248947E+02 -0.20305998415E+02  0.77152352064E+02  0.00000000000E+00 0.  1.
         21    1    1    2  505  503  0.36134740455E+02 -0.25808149101E+02 -0.21568213219E+03  0.22020572694E+03  0.00000000000E+00 0.  1.
          2    1    1    2  501    0 -0.13969389936E+03 -0.55396300745E+02  0.19884591414E+04  0.19941296078E+04  0.00000000000E+00 0.  1.
<scales pt_clust_3="60.22657" pt_clust_4="14000.00000" pt_clust_5="44.40473" pt_clust_6="146.06817"></scales>
<clustering>
<clus scale="   44.405">  2  5  1 -1</clus>
<clus scale="   60.227">  2  3  1 -1</clus>
<clus scale="  146.068">  1  6  2 -1</clus>
<clus scale="   44.405">  2  3  1 -1</clus>
</clustering>
</event>
<event>
 6    0  0.2839294E+002  0.1075945E+03  0.7546771E-02  0.1265090E+00
          1   -1    0    0  504    0 -0.00000000000E+00  0.00000000000E+00  0.14925510401E+04  0.14925510401E+04  0.00000000000E+00 0.  1.
         21   -1    0    0  503  502  0.00000000000E+00 -0.00000000000E+00 -0.64484305525E+03  0.64484305525E+03  0.00000000000E+00 0.  1.
         21    1    1    2  503  505 -0.57251706664E+02 -0.16511814020E+02 -0.51510495882E+03  0.51853979261E+03  0.00000000000E+00 0.  1.
         21    1    1    2  504  502 -0.24394343133E+02  0.43307581731E+02  0.16925604527E+03  0.17640362659E+03  0.00000000000E+00 0. -1.
         21    1    1    2  505  501 -0.38243079502E+02  0.69383824705E+02 -0.10683598268E+03  0.13300592264E+03  0.00000000000E+00 0. -1.
          1    1    1    2  501    0  0.11988912930E+03 -0.96179592416E+02  0.13003928811E+04  0.13094447535E+04  0.00000000000E+00 0.  1.
<scales pt_clust_3="59.60013" pt_clust_4="49.70544" pt_clust_5="14000.00000" pt_clust_6="107.59449"></scales>
<clustering>
<clus scale="   49.705">  1  4  2 -1</clus>
<clus scale="   59.600">  2  3  1 -1</clus>
<clus scale="  107.594">  1  6  2 -1</clus>
<clus scale="   59.600">  2  3  1 -1</clus>
</clustering>
</event>
<event>
 6    0  0.2839294E+002  0.7980178E+02  0.7546771E-02  0.1329615E+00
         21   -1    0    0  501  502  0.00000000000E+00  0.00000000000E+00  0.16814412963E+04  0.16814412963E+04  0.00000000000E+00 0.  1.
          1   -1    0    0  504    0 -0.00000000000E+00 -0.00000000000E+00 -0.25654512778E+03  0.25654512778E+03  0.00000000000E+00 0. -1.
         21    1    1    2  503  505 -0.40828626324E+02  0.36411438857E+02  0.20433087222E+02  0.58397608346E+02  0.00000000000E+00 0.  1.
         21    1    1    2  504  503  0.78871319711E+00 -0.49680631960E+02  0.42918899959E+01  0.49871911736E+02  0.00000000000E+00 0. -1.
         21    1    1    2  505  502  0.39550637872E+00  0.79862769947E+02  0.16069283742E+04  0.16089117497E+04  0.00000000000E+00 0.  1.
          1    1    1    2  501    0  0.39644406748E+02 -0.66593576843E+02 -0.20675718294E+03  0.22080515428E+03  0.00000000000E+00 0. -1.
<scales pt_clust_3="52.05792" pt_clust_4="49.68689" pt_clust_5="79.80178" pt_clust_6="14000.00000"></scales>
<clustering>
<clus scale="   49.687">  2  4  1 -1</clus>
<clus scale="   52.058">  2  3  1 -1</clus>
<clus scale="   79.802">  1  5  2 -1</clus>
<clus scale="   79.802">  1  3  2 -1</clus>
</clustering>
</event>
<event>
 6    0  0.2839294E+002  0.9055202E+02  0.7546771E-02  0.1301520E+00
         21   -1    0    0  503  502  0.00000000000E+00  0.00000000000E+00  0.74833367677E+03  0.74833367677E+03  0.00000000000E+00 0. -1.
          2   -1    0    0  505    0 -0.00000000000E+00 -0.00000000000E+00 -0.21456199958E+04  0.21456199958E+04  0.00000000000E+00 0. -1.
         21    1    1    2  503  501 -0.43682711206E+02 -0.79332337163E+02  0.73350232053E+03  0.73907202166E+03  0.00000000000E+00 0. -1.
         21    1    1    2  504  502  0.18774876510E+02  0.37496047423E+02 -0.24665692250E+03  0.25019609705E+03  0.00000000000E+00 0. -1.
         21    1    1    2  505  504 -0.84650612249E+00 -0.38411083720E+02 -0.30278051895E+02  0.48917158051E+02  0.00000000000E+00 0. -1.
          2    1    1    2  501    0  0.25754340819E+02  0.80247373460E+02 -0.18538536652E+04  0.18557683959E+04  0.00000000000E+00 0. -1.
<scales pt_clust_3="90.55202" pt_clust_4="37.88737" pt_clust_5="38.42041" pt_clust_6="14000.00000"></scales>
<clustering>
<clus scale="   38.420">  2  5  1 -1</clus>
<clus scale="   37.887">  2  4  1 -1</clus>
<clus scale="   90.552">  1  3  2 -1</clus>
<clus scale="   90.552">  1  3  2 -1</clus>
</clustering>
</event>
<event>
 6    0  0.2839294E+002  0.1484048E+03  0.7546771E-02  0.1202447E+00
          3   -1    0    0  503    0 -0.00000000000E+00  0.00000000000E+00  0.23128311037E+03  0.23128311037E+03  0.00000000000E+00 0. -1.
         21   -1    0    0  505  502  0.00000000000E+00 -0.00000000000E+00 -0.62467062465E+03  0.62467062465E+03  0.00000000000E+00 0. -1.
         21    1    1    2  503  504  0.55327599540E+02 -0.67054828097E+00 -0.86431194923E+01  0.56002646548E+02  0.00000000000E+00 0.  1.
         21    1    1    2  504  502 -0.26905245086E+02 -0.61103117833E+02 -0.16255408751E+03  0.17573080148E+03  0.00000000000E+00 0. -1.
         21    1    1    2  505  501 -0.12860525862E+03  0.35539086464E+02 -0.39822486606E+03  0.41998259864E+03  0.00000000000E+00 0. -1.
          3    1    1    2  501    0  0.10018290417E+03  0.26234579650E+02  0.17603455878E+03  0.20423768835E+03  0.00000000000E+00 0. -1.
<scales pt_clust_3="55.33166" pt_clust_4="66.09603" pt_clust_5="148.40483" pt_clust_6="14000.00000"></scales>
<clustering>
<clus scale="   55.332">  1  3  2 -1</clus>
<clus scale="   66.096">  2  4  1 -1</clus>
<clus scale="  148.405">  2  5  1 -1</clus>
<clus scale="   66.096">  2  3  1 -1</clus>
</clustering>
</event>
<event>
 6    0  0.2839294E+002  0.1529069E+03  0.7546771E-02  0.1196946E+00
         21   -1    0    0  503  502  0.00000000000E+00  0.00000000000E+00  0.35624411002E+03  0.35624411002E+03  0.00000000000E+00 0.  1.
          2   -1    0    0  505    0 -0.00000000000E+00 -0.00000000000E+00 -0.19637448657E+03  0.19637448657E+03  0.00000000000E+00 0.  1.
         21    1    1    2  503  501 -0.95920470228E+01  0.37256315773E+02 -0.69817153374E+01  0.39099677494E+02  0.00000000000E+00 0.  1.
         21    1    1    2  504  502  0.61947649294E+02 -0.23778417870E+02  0.20755268414E+03  0.21790144815E+03  0.00000000000E+00 0.  1.
         21    1    1    2  505  504  0.43328333896E+02 -0.93066309875E+02  0.73854707931E+02  0.12646422591E+03  0.00000000000E+00 0.  1.
          2    1    1    2  501    0 -0.95683936167E+02  0.79588411973E+02 -0.11455605329E+03  0.16915324504E+03  0.00000000000E+00 0.  1.
<scales pt_clust_3="34.55180" pt_clust_4="66.35454" pt_clust_5="139.70821" pt_clust_6="34.55180"></scales>
<clustering>
<clus scale="   34.552">  3  6 -1 -1</clus>
<clus scale="   66.355">  1  4  2 -1</clus>
<clus scale="  139.708">  1  5  2 -1</clus>
<clus scale="   66.355">  1  3  2 -1</clus>
</clustering>
</event>
<event>
 6    0  0.2839294E+002  0.8844118E+02  0.7546771E-02  0.1306671E+00
         21   -1    0    0  505  502  0.00000000000E+00  0.00000000000E+00  0.42588921018E+02  0.42588921018E+02  0.00000000000E+00 0.  1.
          2   -1    0    0  504    0 -0.00000000000E+00 -0.00000000000E+00 -0.81611582988E+03  0.81611582988E+03  0.00000000000E+00 0.  1.
         21    1    1    2  503  502 -0.31518605491E+02 -0.31343313322E+01 -0.43200511385E+02  0.53568000792E+02  0.00000000000E+00 0. -1.
         21    1    1    2  504  503 -0.29164977501E+01  0.51573103082E+02 -0.14224909220E+03  0.15133768583E+03  0.00000000000E+00 0.  1.
         21    1    1    2  505  501  0.10009870344E+03 -0.56165226444E+02 -0.76430774439E+02  0.13789831896E+03  0.00000000000E+00 0.  1.
          2    1    1    2  501    0 -0.65663600200E+02  0.77264546947E+01 -0.51164653084E+03  0.51590074531E+03  0.00000000000E+00 0.  1.
<scales pt_clust_3="31.67407" pt_clust_4="51.63484" pt_clust_5="88.44118" pt_clust_6="14000.00000"></scales>
<clustering>
<clus scale="   31.674">  1  3  2 -1</clus>
<clus scale="   51.635">  2  4  1 -1</clus>
<clus scale="   88.441">  1  5  2 -1</clus>
<clus scale="   31.674">  1  3  2 -1</clus>
</clustering>
</event>
<event>
 6    0  0.2839294E+002  0.8187719E+02  0.7546771E-02  0.1323807E+00
         21   -1    0    0  505  502  0.00000000000E+00  0.00000000000E+00  0.15342851052E+03  0.15342851052E+03  0.00000000000E+00 0. -1.
          2   -1    0    0  503    0 -0.00000000000E+00 -0.00000000000E+00 -0.22075651299E+04  0.22075651299E+04  0.00000000000E+00 0. -1.
         21    1    1    2  503  504 -0.44879004459E+02 -0.24022013226E+02 -0.43837477861E+03  0.44132032435E+03  0.00000000000E+00 0. -1.
         21    1    1    2  504  502 -0.50878321653E+02  0.23479713427E+01 -0.39811841906E+02  0.64645953776E+02  0.00000000000E+00 0. -1.
         21    1    1    2  505  501 -0.31817286974E+02  0.26393455049E+02  0.13404439363E+03  0.14027420890E+03  0.00000000000E+00 0. -1.
          2    1    1    2  501    0  0.12757461309E+03 -0.47194131654E+01 -0.17099943925E+04  0.17147531534E+04  0.00000000000E+00 0. -1.
<scales pt_clust_3="52.43018" pt_clust_4="81.87719" pt_clust_5="41.33950" pt_clust_6="14000.00000"></scales>
<clustering>
<clus scale="   41.339">  1  5  2 -1</clus>
<clus scale="   52.430">  2  3  1 -1</clus>
<clus scale="   81.877">  1  4  2 -1</clus>
<clus scale="   41.339">  1  3  2 -1</clus>
</clustering>
</event>
<event>
 6    0  0.2839294E+002  0.1884969E+03  0.7546771E-02  0.1159824E+00
          2   -1    0    0  504    0 -0.00000000000E+00  0.00000000000E+00  0.33718462893E+03  0.33718462893E+03  0.00000000000E+00 0. -1.
         21   -1    0    0  505  502  0.00000000000E+00 -0.00000000000E+00 -0.56708189609E+03  0.56708189609E+03  0.00000000000E+00 0. -1.
         21    1    1    2  503  502  0.18601026861E+03  0.20502811286E+02 -0.49921072075E+03  0.53313368775E+03  0.00000000000E+00 0. -1.
         21    1    1    2  504  503 -0.65691480607E+02 -0.13391333067E+02 -0.61715085353E+01  0.67325967822E+02  0.00000000000E+00 0.  1.
         21    1    1    2  505  501 -0.66396994985E+02  0.55389189038E+01  0.10321037361E+03  0.12284796208E+03  0.00000000000E+00 0.  1.
          2    1    1    2  501    0 -0.53921793020E+02 -0.12650397123E+02  0.17227458851E+03  0.18095890737E+03  0.00000000000E+00 0. -1.
<scales pt_clust_3="183.44379" pt_clust_4="67.04251" pt_clust_5="39.52660" pt_clust_6="39.52660"></scales>
<clustering>
<clus scale="   39.527">  5  6 -1 -1</clus>
<clus scale="   67.043">  1  4  2 -1</clus>
<clus scale="  183.444">  2  3  1 -1</clus>
<clus scale="  183.444">  2  3  1 -1</clus>
</clustering>
</event>
<event>
 6    0  0.2839294E+002  0.6355053E+02  0.7546771E-02  0.1383508E+00
         -3   -1    0    0    0  501 -0.00000000000E+00  0.00000000000E+00  0.20143318318E+04  0.20143318318E+04  0.00000000000E+00 0. -1.
         21   -1    0    0  505  502  0.00000000000E+00 -0.00000000000E+00 -0.26330191185E+03  0.26330191185E+03  0.00000000000E+00 0.  1.
         21    1    1    2  503  501 -0.45904319039E+02 -0.22546836074E+02  0.39821296332E+03  0.40148366154E+03  0.00000000000E+00 0.  1.
         21    1    1    2  504  502  0.53391875286E+02 -0.73254700141E+02 -0.11592051279E+01  0.90654769294E+02  0.00000000000E+00 0.  1.
         21    1    1    2  505  503 -0.50324226450E+02  0.11129033051E+02 -0.21122409480E+03  0.21742125326E+03  0.00000000000E+00 0.  1.
         -3    1    1    2    0  504  0.42836670203E+02  0.84672503164E+02  0.15652002566E+04  0.15680740596E+04  0.00000000000E+00 0. -1.
<scales pt_clust_3="51.14261" pt_clust_4="14000.00000" pt_clust_5="51.61683" pt_clust_6="63.55053"></scales>
<clustering>
<clus scale="   51.143">  1  3  2 -1</clus>
<clus scale="   51.617">  2  5  1 -1</clus>
<clus scale="   63.551">  1  6  2 -1</clus>
<clus scale="   51.617">  2  3  1 -1</clus>
</clustering>
</event>
<event>
 6    0  0.2839294E+002  0.1392486E+03  0.7546771E-02  0.1214344E+00
          1   -1    0    0  503    0 -0.00000000000E+00  0.00000000000E+00  0.93011747955E+03  0.93011747955E+03  0.00000000000E+00 0.  1.
         21   -1    0    0  505  502  0.00000000000E+00 -0.00000000000E+00 -0.95804618913E+02  0.95804618913E+02  0.00000000000E+00 0.  1.
         21    1    1    2  503  504  0.50592411899E+02  0.19816445812E+03  0.28336690516E+03  0.34946465851E+03  0.00000000000E+00 0. -1.
         21    1    1    2  504  502 -0.55215159221E+02 -0.22509421825E+02  0.71980997148E+02  0.93470058464E+02  0.00000000000E+00 0.  1.
         21    1    1    2  505  501 -0.34319494124E+02 -0.52964585465E+02 -0.21158695842E+02  0.66563994773E+02  0.00000000000E+00 0.  1.
          1    1    1    2  501    0  0.38942241446E+02 -0.12269045083E+03  0.50012365417E+03  0.51642338672E+03  0.00000000000E+00 0.  1.
<scales pt_clust_3="139.24858" pt_clust_4="59.62707" pt_clust_5="90.06794" pt_clust_6="14000.00000"></scales>
<clustering>
<clus scale="   59.627">  2  4  1 -1</clus>
<clus scale="   90.068">  2  5  1 -1</clus>
<clus scale="  139.249">  2  3  1 -1</clus>
<clus scale="   59.627">  2  3  1 -1</clus>
</clustering>
</event>
<event>
 6    0  0.2839294E+002  0.9848427E+02  0.7546771E-02  0.1283516E+00
         21   -1    0    0  503  502  0.00000000000E+00  0.00000000000E+00  0.33792793834E+03  0.33792793834E+03  0.00000000000E+00 0.  1.
          2   -1    0    0  505    0 -0.00000000000E+00 -0.00000000000E+00 -0.52243404014E+03  0.52243404014E+03  0.00000000000E+00 0. -1.
         21    1    1    2  503  501  0.55274134499E+02  0.10249004762E+03  0.15804297557E+03  0.19630848666E+03  0.00000000000E+00 0.  1.
         21    1    1    2  504  502  0.21848522648E+02 -0.40669746048E+02  0.14875921424E+03  0.15575843479E+03  0.00000000000E+00 0.  1.
         21    1    1    2  505  504  0.25704645276E+01 -0.30701306567E+02 -0.49689358786E+02  0.58465458942E+02  0.00000000000E+00 0. -1.
          2    1    1    2  501    0 -0.79693121674E+02 -0.31118995004E+02 -0.44161893282E+03  0.44982959809E+03  0.00000000000E+00 0. -1.
<scales pt_clust_3="14000.00000" pt_clust_4="46.37821" pt_clust_5="30.80872" pt_clust_6="98.48427"></scales>
<clustering>
<clus scale="   30.809">  2  5  1 -1</clus>
<clus scale="   46.378">  1  4  2 -1</clus>
<clus scale="   98.484">  2  6  1 -1</clus>
<clus scale="   46.378">  1  3  2 -1</clus>
</clustering>
</event>
<event>
 6    0  0.2839294E+002  0.1691233E+03  0.7546771E-02  0.1178765E+00
         21   -1    0    0  504  502  0.00000000000E+00  0.00000000000E+00  0.19824318596E+03  0.19824318596E+03  0.00000000000E+00 0. -1.
          2   -1    0    0  502    0 -0.00000000000E+00 -0.00000000000E+00 -0.28101483870E+04  0.28101483870E+04  0.00000000000E+00 0. -1.
         21    1    1    2  503  505 -0.17991684482E+03 -0.90375108172E+02 -0.51116598314E+02  0.20772731609E+03  0.00000000000E+00 0. -1.
         21    1    1    2  504  503  0.14478975970E+03  0.58686489300E+02  0.63770120155E+02  0.16874479774E+03  0.00000000000E+00 0. -1.
         21    1    1    2  505  501  0.37518475316E+00  0.81555673979E+02 -0.50938532148E+03  0.51587292472E+03  0.00000000000E+00 0. -1.
          2    1    1    2  501    0  0.34751900362E+02 -0.49867055107E+02 -0.21151734014E+04  0.21160465344E+04  0.00000000000E+00 0. -1.
<scales pt_clust_3="14000.00000" pt_clust_4="169.12330" pt_clust_5="51.76700" pt_clust_6="60.78172"></scales>
<clustering>
<clus scale="   60.782">  2  6  1 -1</clus>
<clus scale="   51.767">  2  5  1 -1</clus>
<clus scale="  169.123">  1  4  2 -1</clus>
<clus scale="  169.123">  1  3  2 -1</clus>
</clustering>
</event>
<event>
 6    0  0.2839294E+002  0.9508995E+02  0.7546771E-02  0.1290974E+00
          4   -1    0    0  505    0 -0.00000000000E+00  0.00000000000E+00  0.40738784160E+03  0.40738784160E+03  0.00000000000E+00 0.  1.
         21   -1    0    0  501  502  0.00000000000E+00 -0.00000000000E+00 -0.64221124448E+02  0.64221124448E+02  0.00000000000E+00 0.  1.
         21    1    1    2  503  504 -0.29056762808E+02  0.22298257015E+02  0.29731285571E+02  0.47174750370E+02  0.00000000000E+00 0.  1.
         21    1    1    2  504  502 -0.43386264443E+02  0.33324686109E+01 -0.63433766924E+00  0.43518681892E+02  0.00000000000E+00 0.  1.
         21    1    1    2  505  503  0.12792592667E+03  0.31234842224E+02  0.15714302467E+03  0.20502338473E+03  0.00000000000E+00 0.  1.
          4    1    1    2  501    0 -0.55482899422E+02 -0.56865567850E+02  0.15692674459E+03  0.17589214906E+03  0.00000000000E+00 0.  1.
<scales pt_clust_3="35.22037" pt_clust_4="35.22037" pt_clust_5="86.99632" pt_clust_6="79.44838"></scales>
<clustering>
<clus scale="   35.220">  3  4 -1 -1</clus>
<clus scale="   79.448">  1  6  2 -1</clus>
<clus scale="   86.996">  1  5  2 -1</clus>
<clus scale="   95.090">  2  3  1 -1</clus>
</clustering>
</event>
<event>
 6    0  0.2839294E+002  0.8904505E+02  0.7546771E-02  0.1305181E+00
          1   -1    0    0  504    0 -0.00000000000E+00  0.00000000000E+00  0.43053880812E+03  0.43053880812E+03  0.00000000000E+00 0.  1.
         21   -1    0    0  503  502  0.00000000000E+00 -0.00000000000E+00 -0.17817613730E+03  0.17817613730E+03  0.00000000000E+00 0.  1.
         21    1    1    2  503  501 -0.46090482131E+02 -0.92733516977E+01 -0.82225227858E+02  0.94717029573E+02  0.00000000000E+00 0.  1.
         21    1    1    2  504  505  0.11581367957E+03 -0.16938467410E+02 -0.24227529630E+02  0.11952695615E+03  0.00000000000E+00 0.  1.
         21    1    1    2  505  502  0.17338567511E+02  0.26705814147E+02  0.77491010677E+01  0.32770032041E+02  0.00000000000E+00 0.  1.
          1    1    1    2  501    0 -0.87061764952E+02 -0.49399503958E+00  0.35106632724E+03  0.36170092766E+03  0.00000000000E+00 0.  1.
<scales pt_clust_3="37.16738" pt_clust_4="89.04505" pt_clust_5="31.84064" pt_clust_6="14000.00000"></scales>
<clustering>
<clus scale="   31.841">  2  5  1 -1</clus>
<clus scale="   37.167">  2  3  1 -1</clus>
<clus scale="   89.045">  2  4  1 -1</clus>
<clus scale="   31.841">  2  3  1 -1</clus>
</clustering>
</event>
<event>
 6    0  0.2839294E+002  0.6191403E+02  0.7546771E-02  0.1389971E+00
         21   -1    0    0  501  502  0.00000000000E+00  0.00000000000E+00  0.42881947396E+03  0.42881947396E+03  0.00000000000E+00 0. -1.
          3   -1    0    0  503    0 -0.00000000000E+00 -0.00000000000E+00 -0.18529469598E+03  0.18529469598E+03  0.00000000000E+00 0.  1.
         21    1    1    2  503  505  0.45509301590E+02 -0.20681130485E+02  0.73570929632E+01  0.50526552487E+02  0.00000000000E+00 0.  1.
         21    1    1    2  504  502 -0.23062117203E+02 -0.63404009031E+02  0.30880796417E+03  0.31609221494E+03  0.00000000000E+00 0. -1.
         21    1    1    2  505  504  0.48183852541E+02  0.28386808534E+02  0.63315519278E+02  0.84476917118E+02  0.00000000000E+00 0.  1.
          3    1    1    2  501    0 -0.70631036928E+02  0.55698330981E+02 -0.13595579843E+03  0.16301848539E+03  0.00000000000E+00 0.  1.
<scales pt_clust_3="49.98806" pt_clust_4="61.91403" pt_clust_5="14000.00000" pt_clust_6="46.91110"></scales>
<clustering>
<clus scale="   49.988">  2  3  1 -1</clus>
<clus scale="   46.911">  2  6  1 -1</clus>
<clus scale="   61.914">  1  4  2 -1</clus>
<clus scale="   61.914">  1  3  2 -1</clus>
</clustering>
</event>
<event>
 6    0  0.2839294E+002  0.1245834E+03  0.7546771E-02  0.1235722E+00
         21   -1    0    0  504  502  0.00000000000E+00  0.00000000000E+00  0.26948153579E+02  0.26948153579E+02  0.00000000000E+00 0. -1.
          2   -1    0    0  503    0 -0.00000000000E+00 -0.00000000000E+00 -0.32861929115E+04  0.32861929115E+04  0.00000000000E+00 0.  1.
         21    1    1    2  503  502 -0.22005048698E+02 -0.29345150853E+02 -0.17034882222E+04  0.17038830603E+04  0.00000000000E+00 0.  1.
         21    1    1    2  504  505 -0.18491373214E+02 -0.35116615949E+02 -0.24642520652E+02  0.46715751339E+02  0.00000000000E+00 0. -1.
         21    1    1    2  505  501  0.14494278559E+03  0.44913761931E+02 -0.42389782802E+03  0.45023885406E+03  0.00000000000E+00 0.  1.
          2    1    1    2  501    0 -0.10444636368E+03  0.19548004871E+02 -0.11072161871E+04  0.11123033994E+04  0.00000000000E+00 0.  1.
<scales pt_clust_3="36.67915" pt_clust_4="40.50441" pt_clust_5="124.58342" pt_clust_6="14000.00000"></scales>
<clustering>
<clus scale="   36.679">  2  3  1 -1</clus>
<clus scale="   40.504">  1  4  2 -1</clus>
<clus scale="  124.583">  1  5  2 -1</clus>
<clus scale="   40.504">  1  3  2 -1</clus>
</clustering>
</event>
<event>
 6    0  0.2839294E+002  0.1123051E+03  0.7546771E-02  0.1256360E+00
          2   -1    0    0  505    0 -0.00000000000E+00  0.00000000000E+00  0.79435908561E+03  0.79435908561E+03  0.00000000000E+00 0. -1.
         21   -1    0    0  503  502  0.00000000000E+00 -0.00000000000E+00 -0.26657878494E+03  0.26657878494E+03  0.00000000000E+00 0. -1.
         21    1    1    2  503  501 -0.59184323695E+02  0.58156818110E+02 -0.72954432836E+01  0.83295997242E+02  0.00000000000E+00 0. -1.
         21    1    1    2  504  502  0.15336173509E+03 -0.12369836079E+03 -0.16962414206E+03  0.25998741473E+03  0.00000000000E+00 0. -1.
         21    1    1    2  505  504 -0.31796151329E+02  0.41318855553E+02  0.14735523329E+03  0.15630677478E+03  0.00000000000E+00 0. -1.
          2    1    1    2  501    0 -0.62381260061E+02  0.24222687129E+02  0.55734465272E+03  0.56134768379E+03  0.00000000000E+00 0. -1.
<scales pt_clust_3="86.03098" pt_clust_4="112.30511" pt_clust_5="52.13677" pt_clust_6="14000.00000"></scales>
<clustering>
<clus scale="   52.137">  1  5  2 -1</clus>
<clus scale="   86.031">  2  3  1 -1</clus>
<clus scale="  112.305">  2  4  1 -1</clus>
<clus scale="   86.031">  2  3  1 -1</clus>
</clustering>
</event>
<event>
 6    0  0.2839294E+002  0.8576447E+02  0.7546771E-02  0.1313445E+00
          2   -1    0    0  503    0 -0.00000000000E+00  0.00000000000E+00  0.13202623540E+04  0.13202623540E+04  0.00000000000E+00 0.  1.
         21   -1    0    0  504  502  0.00000000000E+00 -0.00000000000E+00 -0.36572353812E+02  0.36572353812E+02  0.00000000000E+00 0. -1.
         21    1    1    2  503  505  0.17772728804E+02 -0.41656424746E+02  0.19836718200E+03  0.20347153734E+03  0.00000000000E+00 0. -1.
         21    1    1    2  504  501  0.17408748434E+02  0.27912775399E+02  0.77912180505E+02  0.84572427088E+02  0.00000000000E+00 0.  1.
         21    1    1    2  505  502 -0.62966500459E+02 -0.90523903172E+02  0.82776481656E+02  0.13788148223E+03  0.00000000000E+00 0. -1.
          2    1    1    2  501    0  0.27785023222E+02  0.10426755252E+03  0.92463415606E+03  0.93090926119E+03  0.00000000000E+00 0.  1.
<scales pt_clust_3="43.89163" pt_clust_4="32.89662" pt_clust_5="85.76447" pt_clust_6="14000.00000"></scales>
<clustering>
<clus scale="   32.897">  2  4  1 -1</clus>
<clus scale="   43.892">  1  3  2 -1</clus>
<clus scale="   85.764">  2  5  1 -1</clus>
<clus scale="   32.897">  2  3  1 -1</clus>
</clustering>
</event>
<event>
 6    0  0.2839294E+002  0.3122990E+03  0.7546771E-02  0.1079249E+00
         21   -1    0    0  501  502  0.00000000000E+00  0.00000000000E+00  0.33330109751E+03  0.33330109751E+03  0.00000000000E+00 0. -1.
          1   -1    0    0  505    0 -0.00000000000E+00 -0.00000000000E+00 -0.14619561247E+04  0.14619561247E+04  0.00000000000E+00 0. -1.
         21    1    1    2  503  502  0.42860919111E+02  0.48674955117E+02  0.93019694861E+02  0.11339741300E+03  0.00000000000E+00 0. -1.
         21    1    1    2  504  503 -0.35049418651E+03  0.57980061967E+02  0.45884891311E+02  0.35820843878E+03  0.00000000000E+00 0. -1.
         21    1    1    2  505  504  0.14113996592E+03  0.20757261086E+02 -0.28189643494E+03  0.31593821216E+03  0.00000000000E+00 0. -1.
          1    1    1    2  501    0  0.16649330147E+03 -0.12741227817E+03 -0.98566317842E+03  0.10077131583E+04  0.00000000000E+00 0. -1.
<scales pt_clust_3="64.85607" pt_clust_4="14000.00000" pt_clust_5="146.35180" pt_clust_6="312.29897"></scales>
<clustering>
<clus scale="   64.856">  1  3  2 -1</clus>
<clus scale="  146.352">  2  5  1 -1</clus>
<clus scale="  312.299">  2  6  1 -1</clus>
<clus scale="   64.856">  1  3  2 -1</clus>
</clustering>
</event>
<event>
 6    0  0.2839294E+002  0.5756715E+02  0.7546771E-02  0.1408334E+00
          2   -1    0    0  504    0 -0.00000000000E+00  0.00000000000E+00  0.16635739656E+04  0.16635739656E+04  0.00000000000E+00 0.  1.
         21   -1    0    0  503  502  0.00000000000E+00 -0.00000000000E+00 -0.36272736309E+02  0.36272736309E+02  0.00000000000E+00 0.  1.
         21    1    1    2  503  501  0.61220544712E+02 -0.64272729038E+02  0.68296041526E+02  0.11199682175E+03  0.00000000000E+00 0.  1.
         21    1    1    2  504  505  0.23429229583E+02 -0.27509591764E+02  0.57611587695E+03  0.57724796241E+03  0.00000000000E+00 0.  1.
         21    1    1    2  505  502 -0.48655579969E+02  0.14311405893E+02  0.42019587556E+02  0.65862185957E+02  0.00000000000E+00 0. -1.
          2    1    1    2  501    0 -0.35994194326E+02  0.77470914909E+02  0.94086972323E+03  0.94473973176E+03  0.00000000000E+00 0.  1.
<scales pt_clust_3="57.56715" pt_clust_4="36.13456" pt_clust_5="49.22571" pt_clust_6="14000.00000"></scales>
<clustering>
<clus scale="   36.135">  1  4  2 -1</clus>
<clus scale="   49.226">  2  5  1 -1</clus>
<clus scale="   57.567">  2  3  1 -1</clus>
<clus scale="   49.226">  2  3  1 -1</clus>
</clustering>
</event>
<event>
 6    0  0.2839294E+002  0.8010761E+02  0.7546771E-02  0.1328746E+00
         21   -1    0    0  504  502  0.00000000000E+00  0.00000000000E+00  0.38245402822E+02  0.38245402822E+02  0.00000000000E+00 0.  1.
          1   -1    0    0  505    0 -0.00000000000E+00 -0.00000000000E+00 -0.17533493012E+04  0.17533493012E+04  0.00000000000E+00 0. -1.
         21    1    1    2  503  502 -0.43618201206E+02 -0.70506425218E+02 -0.69989949916E+03  0.70479288617E+03  0.00000000000E+00 0.  1.
         21    1    1    2  504  501  0.37060544247E+02  0.70807843217E+02 -0.19055294616E+02  0.82160445799E+02  0.00000000000E+00 0.  1.
         21    1    1    2  505  503 -0.43379800663E+02  0.41633124251E+02 -0.34150635349E+03  0.34675886956E+03  0.00000000000E+00 0.  1.
          1    1    1    2  501    0  0.49937457622E+02 -0.41934542251E+02 -0.65464275111E+03  0.65788250250E+03  0.00000000000E+00 0. -1.
<scales pt_clust_3="80.10761" pt_clust_4="14000.00000" pt_clust_5="60.12590" pt_clust_6="37.31690"></scales>
<clustering>
<clus scale="   60.126">  2  5  1 -1</clus>
<clus scale="   37.317">  2  6  1 -1</clus>
<clus scale="   80.108">  2  3  1 -1</clus>
<clus scale="   80.108">  1  3  2 -1</clus>
</clustering>
</event>
<event>
 6    0  0.2839294E+002  0.2537691E+03  0.7546771E-02  0.1110946E+00
         -1   -1    0    0    0  501 -0.00000000000E+00  0.00000000000E+00  0.66667430955E+03  0.66667430955E+03  0.00000000000E+00 0. -1.
         21   -1    0    0  504  502  0.00000000000E+00 -0.00000000000E+00 -0.54914534030E+03  0.54914534030E+03  0.00000000000E+00 0.  1.
         21    1    1    2  503  505  0.12297959169E+03 -0.20303908495E+03  0.13694464332E+02  0.23777381761E+03  0.00000000000E+00 0.  1.
         21    1    1    2  504  503  0.10258719232E+03  0.49176441221E+02 -0.38565002190E+03  0.40208008381E+03  0.00000000000E+00 0.  1.
         21    1    1    2  505  501  0.97603907349E+01  0.40318731998E+02  0.82179724367E+02  0.92056354883E+02  0.00000000000E+00 0. -1.
         -1    1    1    2    0  502 -0.23532717474E+03  0.11354391173E+03  0.40730480246E+03  0.48390939355E+03  0.00000000000E+00 0. -1.
<scales pt_clust_3="253.76906" pt_clust_4="114.13762" pt_clust_5="41.48331" pt_clust_6="14000.00000"></scales>
<clustering>
<clus scale="   41.483">  1  5  2 -1</clus>
<clus scale="  114.138">  2  4  1 -1</clus>
<clus scale="  253.769">  2  3  1 -1</clus>
<clus scale="  114.138">  2  3  1 -1</clus>
</clustering>
</event>
<event>
 6    0  0.2839294E+002  0.1186542E+03  0.7546771E-02  0.1245334E+00
         -1   -1    0    0    0  501 -0.00000000000E+00  0.00000000000E+00  0.67182891910E+03  0.67182891910E+03  0.00000000000E+00 0.  1.
         21   -1    0    0  504  502  0.00000000000E+00 -0.00000000000E+00 -0.43887004479E+03  0.43887004479E+03  0.00000000000E+00 0. -1.
         21    1    1    2  503  502  0.11772312902E+02  0.42677436791E+02 -0.26032087919E+02  0.51357770235E+02  0.00000000000E+00 0. -1.
         21    1    1    2  504  505 -0.13053879587E+03 -0.34324199493E+02 -0.37435698613E+03  0.39794683183E+03  0.00000000000E+00 0. -1.
         21    1    1    2  505  501  0.21904448262E+02  0.25955795610E+02  0.19826327871E+02  0.39326726996E+02  0.00000000000E+00 0.  1.
         -1    1    1    2    0  503  0.96862034703E+02 -0.34309032907E+02  0.61352162049E+03  0.62206763484E+03  0.00000000000E+00 0.  1.
<scales pt_clust_3="44.88038" pt_clust_4="118.65420" pt_clust_5="33.96334" pt_clust_6="14000.00000"></scales>
<clustering>
<clus scale="   33.963">  1  5  2 -1</clus>
<clus scale="   44.880">  2  3  1 -1</clus>
<clus scale="  118.654">  2  4  1 -1</clus>
<clus scale="   44.880">  2  3  1 -1</clus>
</clustering>
</event>
<event>
 6    0  0.2839294E+002  0.1337051E+03  0.7546771E-02  0.1222059E+00
          2   -1    0    0  504    0 -0.00000000000E+00  0.00000000000E+00  0.56131356571E+03  0.56131356571E+03  0.00000000000E+00 0. -1.
         21   -1    0    0  503  502  0.00000000000E+00 -0.00000000000E+00 -0.21851277099E+03  0.21851277099E+03  0.00000000000E+00 0. -1.
         21    1    1    2  503  505  0.38844570264E+02  0.38321869260E+02 -0.77910613565E+02  0.95118505080E+02  0.00000000000E+00 0. -1.
         21    1    1    2  504  502 -0.64289606768E+02  0.11955709623E+02  0.74029287359E+02  0.98774631955E+02  0.00000000000E+00 0. -1.
         21    1    1    2  505  501  0.81517539875E+02 -0.13810804251E+01 -0.10230840693E+03  0.13082059020E+03  0.00000000000E+00 0. -1.
          2    1    1    2  501    0 -0.56072503371E+02 -0.48896498458E+02  0.44899052786E+03  0.45511260947E+03  0.00000000000E+00 0. -1.
<scales pt_clust_3="42.65042" pt_clust_4="65.39184" pt_clust_5="42.65042" pt_clust_6="123.12246"></scales>
<clustering>
<clus scale="   42.650">  3  5 -1 -1</clus>
<clus scale="   65.392">  1  4  2 -1</clus>
<clus scale="  123.122">  1  6  2 -1</clus>
<clus scale="  133.705">  2  3  1 -1</clus>
</clustering>
</event>
<event>
 6    0  0.2839294E+002  0.1469130E+03  0.7546771E-02  0.1204318E+00
         -2   -1    0    0    0  501 -0.00000000000E+00  0.00000000000E+00  0.42651481751E+03  0.42651481751E+03  0.00000000000E+00 0. -1.
         21   -1    0    0  505  502  0.00000000000E+00 -0.00000000000E+00 -0.72370654269E+02  0.72370654269E+02  0.00000000000E+00 0.  1.
         21    1    1    2  503  504  0.37940878987E+02  0.45185054350E+02  0.69279482424E+02  0.90999154501E+02  0.00000000000E+00 0. -1.
         21    1    1    2  504  502 -0.10992192951E+02 -0.13888544193E+03  0.80525154059E+02  0.16091704298E+03  0.00000000000E+00 0.  1.
         21    1    1    2  505  501 -0.31534755186E+02  0.14011898810E+02  0.85747031950E+01  0.35556991264E+02  0.00000000000E+00 0. -1.
         -2    1    1    2    0  503  0.45860691502E+01  0.79688488769E+02  0.19576482356E+03  0.21141228303E+03  0.00000000000E+00 0. -1.
<scales pt_clust_3="51.80718" pt_clust_4="133.34609" pt_clust_5="34.50759" pt_clust_6="51.80718"></scales>
<clustering>
<clus scale="   34.508">  2  5  1 -1</clus>
<clus scale="   51.807">  3  6 -1 -1</clus>
<clus scale="  133.346">  2  4  1 -1</clus>
<clus scale="   34.508">  2  3  1 -1</clus>
</clustering>
</event>
<event>
 6    0  0.2839294E+002  0.1438691E+03  0.7546771E-02  0.1208216E+00
         21   -1    0    0  503  502  0.00000000000E+00  0.00000000000E+00  0.32254257768E+03  0.32254257768E+03  0.00000000000E+00 0.  1.
          1   -1    0    0  504    0 -0.00000000000E+00 -0.00000000000E+00 -0.98985978377E+03  0.98985978377E+03  0.00000000000E+00 0. -1.
         21    1    1    2  503  505 -0.40311676382E+02  0.84797643615E+02  0.17129586357E+03  0.19534058588E+03  0.00000000000E+00 0.  1.
         21    1    1    2  504  502 -0.32516199639E+02  0.19379628090E+02 -0.35657909408E+02  0.52003458801E+02  0.00000000000E+00 0. -1.
         21    1    1    2  505  501  0.83403928430E+01  0.47638223870E+02  0.11900646996E+03  0.12845817381E+03  0.00000000000E+00 0.  1.
          1    1    1    2  501    0  0.64487483178E+02 -0.15181549558E+03 -0.92196163022E+03  0.93660014295E+03  0.00000000000E+00 0. -1.
<scales pt_clust_3="32.16674" pt_clust_4="37.85331" pt_clust_5="32.16674" pt_clust_6="136.70975"></scales>
<clustering>
<clus scale="   32.167">  3  5 -1 -1</clus>
<clus scale="   37.853">  2  4  1 -1</clus>
<clus scale="  136.710">  2  6  1 -1</clus>
<clus scale="  143.869">  1  3  2 -1</clus>
</clustering>
</event>
<event>
 6    0  0.2839294E+002  0.1512944E+03  0.7546771E-02  0.1198891E+00
          2   -1    0    0  504    0 -0.00000000000E+00  0.00000000000E+00  0.59750211258E+03  0.59750211258E+03  0.00000000000E+00 0.  1.
         21   -1    0    0  503  502  0.00000000000E+00 -0.00000000000E+00 -0.66234718349E+02  0.66234718349E+02  0.00000000000E+00 0. -1.
         21    1    1    2  503  501 -0.25764376238E+02  0.25180516532E+02  0.32654113477E+02  0.48622552615E+02  0.00000000000E+00 0. -1.
         21    1    1    2  504  505 -0.67073153057E+01 -0.45774476881E+02  0.11573329304E+03  0.12463741786E+03  0.00000000000E+00 0.  1.
         21    1    1    2  505  502  0.12207045784E+03 -0.57690461739E+02  0.62622601697E+02  0.14883204056E+03  0.00000000000E+00 0. -1.
          2    1    1    2  501    0 -0.89598766301E+02  0.78284422088E+02  0.32025738602E+03  0.34164481990E+03  0.00000000000E+00 0.  1.
<scales pt_clust_3="33.68951" pt_clust_4="46.26328" pt_clust_5="138.35299" pt_clust_6="33.68951"></scales>
<clustering>
<clus scale="   33.690">  3  6 -1 -1</clus>
<clus scale="   46.263">  1  4  2 -1</clus>
<clus scale="  138.353">  2  5  1 -1</clus>
<clus scale="  138.353">  2  3  1 -1</clus>
</clustering>
</event>
<event>
 6    0  0.2839294E+002  0.9034937E+02  0.7546771E-02  0.1302008E+00
          2   -1    0    0  504    0 -0.00000000000E+00  0.00000000000E+00  0.99035794781E+03  0.99035794781E+03  0.00000000000E+00 0.  1.
         21   -1    0    0  505  502  0.00000000000E+00 -0.00000000000E+00 -0.56554329159E+02  0.56554329159E+02  0.00000000000E+00 0. -1.
         21    1    1    2  503  501 -0.52382696499E+02  0.73763718395E+02  0.21628446463E+03  0.23444402889E+03  0.00000000000E+00 0.  1.
         21    1    1    2  504  502  0.46104994835E+02 -0.92371901967E+02  0.25201920924E+03  0.27234522329E+03  0.00000000000E+00 0. -1.
         21    1    1    2  505  503  0.33623870048E+02 -0.16027986887E+02 -0.26775429524E+02  0.45873572205E+02  0.00000000000E+00 0. -1.
          2    1    1    2  501    0 -0.27346168384E+02  0.34636170460E+02  0.49227537430E+03  0.49424945258E+03  0.00000000000E+00 0.  1.
<scales pt_clust_3="90.34937" pt_clust_4="14000.00000" pt_clust_5="37.24864" pt_clust_6="42.50743"></scales>
<clustering>
<clus scale="   37.249">  2  5  1 -1</clus>
<clus scale="   42.507">  1  6  2 -1</clus>
<clus scale="   90.349">  2  3  1 -1</clus>
<clus scale="   37.249">  2  3  1 -1</clus>
</clustering>
</event>
<event>
 6    0  0.2839294E+002  0.8558538E+02  0.7546771E-02  0.1313909E+00
          1   -1    0    0  503    0 -0.00000000000E+00  0.00000000000E+00  0.24180877860E+04  0.24180877860E+04  0.00000000000E+00 0. -1.
         21   -1    0    0  504  502  0.00000000000E+00 -0.00000000000E+00 -0.13383775989E+03  0.13383775989E+03  0.00000000000E+00 0. -1.
         21    1    1    2  503  502  0.94570841951E+01 -0.49466821862E+02 -0.73548922511E+02  0.89139480081E+02  0.00000000000E+00 0. -1.
         21    1    1    2  504  505 -0.20778288687E+02  0.70886953325E+02 -0.12383940767E+02  0.74900329914E+02  0.00000000000E+00 0. -1.
         21    1    1    2  505  501 -0.72975698671E+02  0.72646903406E+00  0.15858855108E+03  0.17457465133E+03  0.00000000000E+00 0. -1.
          1    1    1    2  501    0  0.84296903162E+02 -0.22146600497E+02  0.22115943383E+04  0.22133110845E+04  0.00000000000E+00 0. -1.
<scales pt_clust_3="50.36271" pt_clust_4="32.44299" pt_clust_5="14000.00000" pt_clust_6="85.58538"></scales>
<clustering>
<clus scale="   50.363">  2  3  1 -1</clus>
<clus scale="   32.443">  2  4  1 -1</clus>
<clus scale="   85.585">  1  6  2 -1</clus>
<clus scale="   50.363">  2  3  1 -1</clus>
</clustering>
</event>
<event>
 6    0  0.2839294E+002  0.1020666E+03  0.7546771E-02  0.1276009E+00
          2   -1    0    0  503    0 -0.00000000000E+00  0.00000000000E+00  0.54617239983E+03  0.54617239983E+03  0.00000000000E+00 0.  1.
         21   -1    0    0  504  502  0.00000000000E+00 -0.00000000000E+00 -0.81207940442E+03  0.81207940442E+03  0.00000000000E+00 0. -1.
         21    1    1    2  503  505 -0.22297828377E+02 -0.59056379605E+02  0.15042135346E+03  0.16313010972E+03  0.00000000000E+00 0. -1.
         21    1    1    2  504  501 -0.29144730612E+02  0.10567590262E+03 -0.75514883959E+03  0.76306394335E+03  0.00000000000E+00 0. -1.
         21    1    1    2  505  502  0.40497023801E+02 -0.77876374981E+00 -0.36057550673E+02  0.54228796504E+02  0.00000000000E+00 0. -1.
          2    1    1    2  501    0  0.10945535188E+02 -0.45840759268E+02  0.37487803221E+03  0.37782895467E+03  0.00000000000E+00 0.  1.
<scales pt_clust_3="14000.00000" pt_clust_4="102.06655" pt_clust_5="40.50451" pt_clust_6="47.14901"></scales>
<clustering>
<clus scale="   40.505">  2  5  1 -1</clus>
<clus scale="   47.149">  1  6  2 -1</clus>
<clus scale="  102.067">  2  4  1 -1</clus>
<clus scale="   40.505">  2  3  1 -1</clus>
</clustering>
</event>
<event>
 6    0  0.2839294E+002  0.1163723E+03  0.7546771E-02  0.1249204E+00
         21   -1    0    0  503  502  0.00000000000E+00  0.00000000000E+00  0.24704646319E+03  0.24704646319E+03  0.00000000000E+00 0.  1.
          1   -1    0    0  504    0 -0.00000000000E+00 -0.00000000000E+00 -0.33364903817E+03  0.33364903817E+03  0.00000000000E+00 0.  1.
         21    1    1    2  503  501  0.23476415425E+02 -0.28286259722E+02  0.40639637337E+02  0.54798126730E+02  0.00000000000E+00 0.  1.
         21    1    1    2  504  505  0.54204517266E+01  0.31820028034E+02 -0.12877811298E+02  0.34752460414E+02  0.00000000000E+00 0. -1.
         21    1    1    2  505  502 -0.66076871565E+02 -0.84586464278E+02  0.16558805630E+03  0.19733328985E+03  0.00000000000E+00 0.  1.
          1    1    1    2  501    0  0.37180004414E+02  0.81052695967E+02 -0.27995245732E+03  0.29381162436E+03  0.00000000000E+00 0.  1.
<scales pt_clust_3="36.28337" pt_clust_4="32.27841" pt_clust_5="116.37234" pt_clust_6="14000.00000"></scales>
<clustering>
<clus scale="   32.278">  2  4  1 -1</clus>
<clus scale="   36.283">  1  3  2 -1</clus>
<clus scale="  116.372">  1  5  2 -1</clus>
<clus scale="   36.283">  1  3  2 -1</clus>
</clustering>
</event>
<event>
 6    0  0.2839294E+002  0.1669461E+03  0.7546771E-02  0.1181070E+00
         21   -1    0    0  503  502  0.00000000000E+00  0.00000000000E+00  0.11826016731E+04  0.11826016731E+04  0.00000000000E+00 0.  1.
          1   -1    0    0  505    0 -0.00000000000E+00 -0.00000000000E+00 -0.28152677183E+03  0.28152677183E+03  0.00000000000E+00 0.  1.
         21    1    1    2  503  504 -0.74823191751E+02 -0.16807210207E+02  0.76500174763E+03  0.76883591632E+03  0.00000000000E+00 0.  1.
         21    1    1    2  504  501  0.16392471749E+03  0.15612321560E+03  0.32792097808E+03  0.39846949610E+03  0.00000000000E+00 0.  1.
         21    1    1    2  505  502 -0.78366580717E+02 -0.13279166348E+00 -0.32128552124E+02  0.84697003893E+02  0.00000000000E+00 0. -1.
          1    1    1    2  501    0 -0.10734945021E+02 -0.13918321373E+03 -0.15971927238E+03  0.21212602857E+03  0.00000000000E+00 0.  1.
<scales pt_clust_3="76.68763" pt_clust_4="14000.00000" pt_clust_5="83.10636" pt_clust_6="166.94612"></scales>
<clustering>
<clus scale="   76.688">  1  3  2 -1</clus>
<clus scale="   83.106">  2  5  1 -1</clus>
<clus scale="  166.946">  2  6  1 -1</clus>
<clus scale="   76.688">  1  3  2 -1</clus>
</clustering>
</event>
<event>
 6    0  0.2839294E+002  0.1011917E+03  0.7546771E-02  0.1277810E+00
         21   -1    0    0  501  502  0.00000000000E+00  0.00000000000E+00  0.54589534993E+02  0.54589534993E+02  0.00000000000E+00 0.  1.
          1   -1    0    0  503    0 -0.00000000000E+00 -0.00000000000E+00 -0.21543087802E+04  0.21543087802E+04  0.00000000000E+00 0.  1.
         21    1    1    2  503  504 -0.17893385733E+02  0.32388372285E+02 -0.30344381379E+03  0.30569155703E+03  0.00000000000E+00 0. -1.
         21    1    1    2  504  505  0.11585258120E+02 -0.80065312697E+02 -0.19589764796E+03  0.21194471208E+03  0.00000000000E+00 0. -1.
         21    1    1    2  505  502  0.25134153741E+02  0.10638545565E+03 -0.21782544435E+02  0.11146331280E+03  0.00000000000E+00 0.  1.
          1    1    1    2  501    0 -0.18826026128E+02 -0.58708515237E+02 -0.15785952390E+04  0.15797987333E+04  0.00000000000E+00 0.  1.
<scales pt_clust_3="37.00243" pt_clust_4="101.19166" pt_clust_5="14000.00000" pt_clust_6="46.12508"></scales>
<clustering>
<clus scale="   37.002">  2  3  1 -1</clus>
<clus scale="   46.125">  2  6  1 -1</clus>
<clus scale="  101.192">  2  4  1 -1</clus>
<clus scale="  101.192">  1  3  2 -1</clus>
</clustering>
</event>
<event>
 6    0  0.2839294E+002  0.9648026E+02  0.7546771E-02  0.1287877E+00
          2   -1    0    0  503    0 -0.00000000000E+00  0.00000000000E+00  0.16281461437E+04  0.16281461437E+04  0.00000000000E+00 0.  1.
         21   -1    0    0  504  502  0.00000000000E+00 -0.00000000000E+00 -0.54240693638E+03  0.54240693638E+03  0.00000000000E+00 0. -1.
         21    1    1    2  503  505  0.34612640556E+02  0.20360868285E+02  0.22159887938E+03  0.22520804423E+03  0.00000000000E+00 0.  1.
         21    1    1    2  504  501 -0.47154842316E+02  0.28996329481E+02  0.21451097622E+01  0.55398265073E+02  0.00000000000E+00 0. -1.
         21    1    1    2  505  502  0.10938671906E+01 -0.11471122034E+03 -0.50676115922E+03  0.51958323021E+03  0.00000000000E+00 0. -1.
          2    1    1    2  501    0  0.11448334569E+02  0.65354022569E+02  0.13687563774E+04  0.13703635405E+04  0.00000000000E+00 0.  1.
<scales pt_clust_3="40.15719" pt_clust_4="54.97607" pt_clust_5="96.48026" pt_clust_6="14000.00000"></scales>
<clustering>
<clus scale="   40.157">  1  3  2 -1</clus>
<clus scale="   54.976">  2  4  1 -1</clus>
<clus scale="   96.480">  2  5  1 -1</clus>
<clus scale="   54.976">  2  3  1 -1</clus>
</clustering>
</event>
<event>
 6    0  0.2839294E+002  0.1050268E+03  0.7546771E-02  0.1270067E+00
         21   -1    0    0  501  502  0.00000000000E+00  0.00000000000E+00  0.88058705262E+03  0.88058705262E+03  0.00000000000E+00 0.  1.
          3   -1    0    0  504    0 -0.00000000000E+00 -0.00000000000E+00 -0.74892513580E+02  0.74892513580E+02  0.00000000000E+00 0.  1.
         21    1    1    2  503  505  0.35588128520E+02 -0.11469803402E+03  0.44519740865E+03  0.46111049280E+03  0.00000000000E+00 0.  1.
         21    1    1    2  504  503  0.24257875375E+02  0.43845023770E+02  0.40123297396E+01  0.50268572857E+02  0.00000000000E+00 0.  1.
         21    1    1    2  505  502 -0.27661747601E+02  0.90120134427E+02  0.38538538022E+03  0.39674765557E+03  0.00000000000E+00 0.  1.
          3    1    1    2  501    0 -0.32184256294E+02 -0.19267124173E+02 -0.28900579577E+02  0.47352844972E+02  0.00000000000E+00 0.  1.
<scales pt_clust_3="105.02676" pt_clust_4="31.97739" pt_clust_5="14000.00000" pt_clust_6="37.51064"></scales>
<clustering>
<clus scale="   37.511">  2  6  1 -1</clus>
<clus scale="   31.977">  2  4  1 -1</clus>
<clus scale="  105.027">  2  3  1 -1</clus>
<clus scale="  105.027">  1  3  2 -1</clus>
</clustering>
</event>
<event>
 6    0  0.2839294E+002  0.8080910E+02  0.7546771E-02  0.1326771E+00
          2   -1    0    0  505    0 -0.00000000000E+00  0.00000000000E+00  0.23776462894E+04  0.23776462894E+04  0.00000000000E+00 0.  1.
         21   -1    0    0  503  502  0.00000000000E+00 -0.00000000000E+00 -0.15894618829E+03  0.15894618829E+03  0.00000000000E+00 0. -1.
         21    1    1    2  503  501  0.69446433204E+00  0.66401088357E+02 -0.10844481375E+03  0.12716078187E+03  0.00000000000E+00 0. -1.
         21    1    1    2  504  502  0.32763117792E+02  0.76519690764E+01 -0.27905334855E+02  0.43711351290E+02  0.00000000000E+00 0. -1.
         21    1    1    2  505  504 -0.10852056846E+02  0.47735832377E+02  0.16347843462E+03  0.17065074104E+03  0.00000000000E+00 0. -1.
          2    1    1    2  501    0 -0.22605525277E+02 -0.12178888981E+03  0.21915718151E+04  0.21950696035E+04  0.00000000000E+00 0.  1.
<scales pt_clust_3="80.80910" pt_clust_4="33.64483" pt_clust_5="48.96941" pt_clust_6="14000.00000"></scales>
<clustering>
<clus scale="   33.645">  2  4  1 -1</clus>
<clus scale="   48.969">  1  5  2 -1</clus>
<clus scale="   80.809">  2  3  1 -1</clus>
<clus scale="   33.645">  2  3  1 -1</clus>
</clustering>
</event>
<event>
 6    0  0.2839294E+002  0.9584674E+02  0.7546771E-02  0.1289280E+00
         -2   -1    0    0    0  501 -0.00000000000E+00  0.00000000000E+00  0.15655353320E+04  0.15655353320E+04  0.00000000000E+00 0.  1.
         21   -1    0    0  504  502  0.00000000000E+00 -0.00000000000E+00 -0.30072473653E+03  0.30072473653E+03  0.00000000000E+00 0.  1.
         21    1    1    2  503  505  0.12811470077E+02 -0.36608368176E+02  0.35279616571E+02  0.52430503826E+02  0.00000000000E+00 0.  1.
         21    1    1    2  504  503 -0.33909714260E+02 -0.44021767265E+01 -0.27968267277E+03  0.28176523087E+03  0.00000000000E+00 0.  1.
         21    1    1    2  505  501 -0.76934477959E+02  0.18895168555E+02  0.15448446965E+03  0.17361276640E+03  0.00000000000E+00 0.  1.
         -2    1    1    2    0  502  0.98032722142E+02  0.22115376348E+02  0.13547291821E+04  0.13584515675E+04  0.00000000000E+00 0.  1.
<scales pt_clust_3="38.53457" pt_clust_4="34.19427" pt_clust_5="14000.00000" pt_clust_6="95.84674"></scales>
<clustering>
<clus scale="   34.194">  2  4  1 -1</clus>
<clus scale="   38.535">  2  3  1 -1</clus>
<clus scale="   95.847">  1  6  2 -1</clus>
<clus scale="   34.194">  2  3  1 -1</clus>
</clustering>
</event>
<event>
 6    0  0.2839294E+002  0.1779706E+03  0.7546771E-02  0.1169782E+00
          2   -1    0    0  503    0 -0.00000000000E+00  0.00000000000E+00  0.14631006155E+04  0.14631006155E+04  0.00000000000E+00 0.  1.
         21   -1    0    0  505  502  0.00000000000E+00 -0.00000000000E+00 -0.17363134496E+03  0.17363134496E+03  0.00000000000E+00 0. -1.
         21    1    1    2  503  504 -0.56766000144E+01  0.40125306601E+02  0.16812789170E+03  0.17294291540E+03  0.00000000000E+00 0.  1.
         21    1    1    2  504  502  0.52523283357E+02  0.68948252689E+02  0.24034161535E+03  0.25549295277E+03  0.00000000000E+00 0.  1.
         21    1    1    2  505  501 -0.91943033686E+02 -0.15066433914E+03 -0.11483632553E+03  0.21057218761E+03  0.00000000000E+00 0. -1.
          2    1    1    2  501    0  0.45096350344E+02  0.41590779853E+02  0.99583608899E+03  0.99772390465E+03  0.00000000000E+00 0.  1.
<scales pt_clust_3="34.98837" pt_clust_4="34.98837" pt_clust_5="170.45592" pt_clust_6="61.34716"></scales>
<clustering>
<clus scale="   34.988">  3  4 -1 -1</clus>
<clus scale="   61.347">  1  6  2 -1</clus>
<clus scale="  170.456">  2  5  1 -1</clus>
<clus scale="  170.456">  2  3  1 -1</clus>
</clustering>
</event>
<event>
 6    0  0.2839294E+002  0.1235617E+03  0.7546771E-02  0.1237334E+00
          2   -1    0    0  504    0 -0.00000000000E+00  0.00000000000E+00  0.72422804155E+03  0.72422804155E+03  0.00000000000E+00 0. -1.
         21   -1    0    0  503  502  0.00000000000E+00 -0.00000000000E+00 -0.10186555276E+03  0.10186555276E+03  0.00000000000E+00 0.  1.
         21    1    1    2  503  501 -0.12431705021E+02  0.50336775649E+02  0.30260069586E+02  0.60033408065E+02  0.00000000000E+00 0. -1.
         21    1    1    2  504  505 -0.24904400410E+02  0.75414323936E+02  0.36674608448E+03  0.37524690524E+03  0.00000000000E+00 0. -1.
         21    1    1    2  505  502 -0.10673358558E+03 -0.70861409642E+02  0.13537232652E+02  0.12882800292E+03  0.00000000000E+00 0.  1.
          2    1    1    2  501    0  0.14406969101E+03 -0.54889689943E+02  0.21181910208E+03  0.26198527809E+03  0.00000000000E+00 0. -1.
<scales pt_clust_3="51.84919" pt_clust_4="81.94656" pt_clust_5="14000.00000" pt_clust_6="123.56175"></scales>
<clustering>
<clus scale="   51.849">  2  3  1 -1</clus>
<clus scale="   81.947">  1  4  2 -1</clus>
<clus scale="  123.562">  1  6  2 -1</clus>
<clus scale="   51.849">  2  3  1 -1</clus>
</clustering>
</event>
<event>
 6    0  0.2839294E+002  0.2334001E+03  0.7546771E-02  0.1124269E+00
         21   -1    0    0  505  502  0.00000000000E+00  0.00000000000E+00  0.97308576432E+02  0.97308576432E+02  0.00000000000E+00 0.  1.
          2   -1    0    0  503    0 -0.00000000000E+00 -0.00000000000E+00 -0.26284683128E+04  0.26284683128E+04  0.00000000000E+00 0.  1.
         21    1    1    2  503  504  0.22216865359E+02  0.26374208920E+02 -0.23722637241E+03  0.23971971085E+03  0.00000000000E+00 0. -1.
         21    1    1    2  504  502 -0.67475051867E+02  0.19134512647E+03 -0.38642713847E+03  0.43645363258E+03  0.00000000000E+00 0. -1.
         21    1    1    2  505  501  0.12925661104E+03 -0.21599458106E+03 -0.15611280765E+03  0.29619611621E+03  0.00000000000E+00 0.  1.
          2    1    1    2  501    0 -0.83998424534E+02 -0.17247543259E+01 -0.17513934179E+04  0.17534074296E+04  0.00000000000E+00 0.  1.
<scales pt_clust_3="34.48461" pt_clust_4="233.40013" pt_clust_5="14000.00000" pt_clust_6="69.96195"></scales>
<clustering>
<clus scale="   34.485">  2  3  1 -1</clus>
<clus scale="   69.962">  2  6  1 -1</clus>
<clus scale="  233.400">  2  4  1 -1</clus>
<clus scale="  233.400">  1  3  2 -1</clus>
</clustering>
</event>
<event>
 6    0  0.2839294E+002  0.9630136E+02  0.7546771E-02  0.1288272E+00
         21   -1    0    0  503  502  0.00000000000E+00  0.00000000000E+00  0.33495708899E+02  0.33495708899E+02  0.00000000000E+00 0. -1.
          2   -1    0    0  505    0 -0.00000000000E+00 -0.00000000000E+00 -0.15322508867E+04  0.15322508867E+04  0.00000000000E+00 0. -1.
         21    1    1    2  503  501 -0.38891154179E+02  0.80244264428E+02 -0.18982805270E+03  0.20972923840E+03  0.00000000000E+00 0. -1.
         21    1    1    2  504  502  0.12215710853E+03 -0.37822305106E+02 -0.21530368058E+03  0.25041677420E+03  0.00000000000E+00 0. -1.
         21    1    1    2  505  504  0.14944643174E+02 -0.53841586524E+02 -0.24802166637E+03  0.25423808878E+03  0.00000000000E+00 0. -1.
          2    1    1    2  501    0 -0.98210597531E+02  0.11419627203E+02 -0.84560177815E+03  0.85136249422E+03  0.00000000000E+00 0. -1.
<scales pt_clust_3="80.61541" pt_clust_4="96.30136" pt_clust_5="55.87718" pt_clust_6="14000.00000"></scales>
<clustering>
<clus scale="   55.877">  2  5  1 -1</clus>
<clus scale="   80.615">  1  3  2 -1</clus>
<clus scale="   96.301">  1  4  2 -1</clus>
<clus scale="   80.615">  1  3  2 -1</clus>
</clustering>
</event>
<event>
 6    0  0.2839294E+002  0.1180366E+03  0.7546771E-02  0.1246372E+00
          1   -1    0    0  504    0 -0.00000000000E+00  0.00000000000E+00  0.18633117899E+04  0.18633117899E+04  0.00000000000E+00 0.  1.
         21   -1    0    0  505  502  0.00000000000E+00 -0.00000000000E+00 -0.44280681386E+02  0.44280681386E+02  0.00000000000E+00 0.  1.
         21    1    1    2  503  502  0.84697664285E+02  0.89587183430E+02  0.99365738217E+02  0.15834490109E+03  0.00000000000E+00 0.  1.
         21    1    1    2  504  503  0.27800344129E+02  0.27276501640E+02  0.68282570678E+03  0.68393553242E+03  0.00000000000E+00 0.  1.
         21    1    1    2  505  501 -0.87546648243E+02 -0.66245015302E+02  0.21380025730E+03  0.24034010837E+03  0.00000000000E+00 0.  1.
          1    1    1    2  501    0 -0.24951360171E+02 -0.50618669768E+02  0.82303940627E+03  0.82497192944E+03  0.00000000000E+00 0.  1.
<scales pt_clust_3="14000.00000" pt_clust_4="38.94697" pt_clust_5="118.03656" pt_clust_6="32.05199"></scales>
<clustering>
<clus scale="   38.947">  1  4  2 -1</clus>
<clus scale="   32.052">  1  6  2 -1</clus>
<clus scale="  118.037">  1  5  2 -1</clus>
<clus scale="  118.037">  2  3  1 -1</clus>
</clustering>
</event>
<event>
 6    0  0.2839294E+002  0.9478217E+02  0.7546771E-02  0.1291667E+00
          1   -1    0    0  502    0 -0.00000000000E+00  0.00000000000E+00  0.18311649839E+04  0.18311649839E+04  0.00000000000E+00 0.  1.
         21   -1    0    0  503  502  0.00000000000E+00 -0.00000000000E+00 -0.87201062918E+02  0.87201062918E+02  0.00000000000E+00 0. -1.
         21    1    1    2  503  505  0.43448272834E+01 -0.33417793924E+02 -0.53915710811E+02  0.63580896086E+02  0.00000000000E+00 0. -1.
         21    1    1    2  504  501  0.32272583029E+02  0.58503564114E+02  0.21816021619E+03  0.22816236885E+03  0.00000000000E+00 0.  1.
         21    1    1    2  505  504 -0.46731953877E+01  0.75170990744E+02  0.43846120397E+02  0.87149290751E+02  0.00000000000E+00 0. -1.
          1    1    1    2  501    0 -0.31944214925E+02 -0.10025676093E+03  0.15358732952E+04  0.15394734911E+04  0.00000000000E+00 0.  1.
<scales pt_clust_3="33.69906" pt_clust_4="14000.00000" pt_clust_5="49.75996" pt_clust_6="94.78217"></scales>
<clustering>
<clus scale="   33.699">  2  3  1 -1</clus>
<clus scale="   49.760">  2  5  1 -1</clus>
<clus scale="   94.782">  1  6  2 -1</clus>
<clus scale="   33.699">  2  3  1 -1</clus>
</clustering>
</event>
<event>
 6    0  0.2839294E+002  0.1090392E+03  0.7546771E-02  0.1262360E+00
         -2   -1    0    0    0  501 -0.00000000000E+00  0.00000000000E+00  0.18239410696E+03  0.18239410696E+03  0.00000000000E+00 0.  1.
         21   -1    0    0  504  502  0.00000000000E+00 -0.00000000000E+00 -0.13461375300E+04  0.13461375300E+04  0.00000000000E+00 0.  1.
         21    1    1    2  503  501  0.29038560712E+02 -0.20701327959E+02 -0.89179589946E+01  0.36760209196E+02  0.00000000000E+00 0. -1.
         21    1    1    2  504  503  0.10770633883E+02  0.78317068062E+02 -0.12403757431E+02  0.80021390281E+02  0.00000000000E+00 0. -1.
         21    1    1    2  505  502 -0.89597805160E+01 -0.11084533988E+03 -0.12674950360E+04  0.12723641905E+04  0.00000000000E+00 0.  1.
         -2    1    1    2    0  505 -0.30849414080E+02  0.53229599772E+02  0.12507332932E+03  0.13938584702E+03  0.00000000000E+00 0.  1.
<scales pt_clust_3="35.66207" pt_clust_4="14000.00000" pt_clust_5="109.03915" pt_clust_6="37.84940"></scales>
<clustering>
<clus scale="   35.662">  1  3  2 -1</clus>
<clus scale="   37.849">  1  6  2 -1</clus>
<clus scale="  109.039">  2  5  1 -1</clus>
<clus scale="  109.039">  2  3  1 -1</clus>
</clustering>
</event>
<event>
 6    0  0.2839294E+002  0.9340137E+02  0.7546771E-02  0.1294818E+00
          1   -1    0    0  504    0 -0.00000000000E+00  0.00000000000E+00  0.37019442415E+03  0.37019442415E+03  0.00000000000E+00 0. -1.
         21   -1    0    0  501  502  0.00000000000E+00 -0.00000000000E+00 -0.11013085359E+03  0.11013085359E+03  0.00000000000E+00 0. -1.
         21    1    1    2  503  505  0.18619656606E+01  0.90895177119E+02  0.49028397220E+02  0.10329174156E+03  0.00000000000E+00 0. -1.
         21    1    1    2  504  503  0.66593737437E+02 -0.58102086053E+02  0.92697256200E+02  0.12807560102E+03  0.00000000000E+00 0. -1.
         21    1    1    2  505  502  0.37666381929E+02  0.18524552253E+02 -0.35622066390E+02  0.55053128682E+02  0.00000000000E+00 0. -1.
          1    1    1    2  501    0 -0.10612208503E+03 -0.51317643319E+02  0.15395998353E+03  0.19390480648E+03  0.00000000000E+00 0. -1.
<scales pt_clust_3="91.27178" pt_clust_4="93.40137" pt_clust_5="41.97518" pt_clust_6="14000.00000"></scales>
<clustering>
<clus scale="   41.975">  2  5  1 -1</clus>
<clus scale="   93.401">  1  4  2 -1</clus>
<clus scale="   91.272">  2  3  1 -1</clus>
<clus scale="   41.975">  2  3  1 -1</clus>
</clustering>
</event>
<event>
 6    0  0.2839294E+002  0.6732641E+02  0.7546771E-02  0.1369428E+00
         21   -1    0    0  504  502  0.00000000000E+00  0.00000000000E+00  0.16822462388E+03  0.16822462388E+03  0.00000000000E+00 0.  1.
          2   -1    0    0  503    0 -0.00000000000E+00 -0.00000000000E+00 -0.16233682577E+04  0.16233682577E+04  0.00000000000E+00 0.  1.
         21    1    1    2  503  505 -0.78053471079E+02 -0.37025037292E+02 -0.49251506971E+03  0.50003429045E+03  0.00000000000E+00 0.  1.
         21    1    1    2  504  501  0.62492172137E+02  0.31089793632E+02 -0.35557602229E+03  0.36236191090E+03  0.00000000000E+00 0.  1.
         21    1    1    2  505  502 -0.42752029895E+02 -0.12871690880E+02  0.15672750646E+03  0.16296296441E+03  0.00000000000E+00 0.  1.
          2    1    1    2  501    0  0.58313328837E+02  0.18806934540E+02 -0.76378004826E+03  0.76623371579E+03  0.00000000000E+00 0.  1.
<scales pt_clust_3="14000.00000" pt_clust_4="52.06731" pt_clust_5="44.64769" pt_clust_6="67.32641"></scales>
<clustering>
<clus scale="   44.648">  1  5  2 -1</clus>
<clus scale="   52.067">  1  4  2 -1</clus>
<clus scale="   67.326">  2  6  1 -1</clus>
<clus scale="   44.648">  1  3  2 -1</clus>
</clustering>
</event>
<event>
 6    0  0.2839294E+002  0.7729299E+02  0.7546771E-02  0.1336914E+00
          2   -1    0    0  505    0 -0.00000000000E+00  0.00000000000E+00  0.14812222324E+04  0.14812222324E+04  0.00000000000E+00 0. -1.
         21   -1    0    0  503  502  0.00000000000E+00 -0.00000000000E+00 -0.12694399963E+03  0.12694399963E+03  0.00000000000E+00 0. -1.
         21    1    1    2  503  504  0.24507686879E+02 -0.54400150160E+02  0.13908809526E+02  0.61265471809E+02  0.00000000000E+00 0.  1.
         21    1    1    2  504  501  0.80734854772E+02  0.15965716593E+02  0.20451398901E+03  0.22045179196E+03  0.00000000000E+00 0.  1.
         21    1    1    2  505  502 -0.61863758348E+02  0.63198304205E+02 -0.74152078401E+02  0.11541092228E+03  0.00000000000E+00 0. -1.
          2    1    1    2  501    0 -0.43378783303E+02 -0.24763870639E+02  0.12100075126E+04  0.12110380459E+04  0.00000000000E+00 0. -1.
<scales pt_clust_3="77.29299" pt_clust_4="46.81406" pt_clust_5="14000.00000" pt_clust_6="49.94966"></scales>
<clustering>
<clus scale="   49.950">  1  6  2 -1</clus>
<clus scale="   46.814">  1  4  2 -1</clus>
<clus scale="   77.293">  1  3  2 -1</clus>
<clus scale="   77.293">  2  3  1 -1</clus>
</clustering>
</event>
<event>
 6    0  0.2839294E+002  0.1048064E+03  0.7546771E-02  0.1270502E+00
          1   -1    0    0  504    0 -0.00000000000E+00  0.00000000000E+00  0.24336227471E+04  0.24336227471E+04  0.00000000000E+00 0.  1.
         21   -1    0    0  505  502  0.00000000000E+00 -0.00000000000E+00 -0.13674525514E+04  0.13674525514E+04  0.00000000000E+00 0.  1.
         21    1    1    2  503  502  0.23284065742E+02 -0.37461963949E+02 -0.16301493576E+03  0.16887692483E+03  0.00000000000E+00 0.  1.
         21    1    1    2  504  503 -0.36217845293E+01 -0.33179737858E+02  0.99083736139E+02  0.10455428779E+03  0.00000000000E+00 0. -1.
         21    1    1    2  505  501  0.79952074439E+02  0.55963305214E+02 -0.11956940158E+04  0.11996701235E+04  0.00000000000E+00 0.  1.
          1    1    1    2  501    0 -0.99614355651E+02  0.14678396593E+02  0.23257954111E+04  0.23279739623E+04  0.00000000000E+00 0.  1.
<scales pt_clust_3="44.14137" pt_clust_4="33.37682" pt_clust_5="104.80637" pt_clust_6="14000.00000"></scales>
<clustering>
<clus scale="   33.377">  1  4  2 -1</clus>
<clus scale="   44.141">  2  3  1 -1</clus>
<clus scale="  104.806">  2  5  1 -1</clus>
<clus scale="   44.141">  2  3  1 -1</clus>
</clustering>
</event>
<event>
 6    0  0.2839294E+002  0.1399225E+03  0.7546771E-02  0.1213433E+00
         21   -1    0    0  505  502  0.00000000000E+00  0.00000000000E+00  0.31290746806E+03  0.31290746806E+03  0.00000000000E+00 0. -1.
          2   -1    0    0  503    0 -0.00000000000E+00 -0.00000000000E+00 -0.23842383796E+04  0.23842383796E+04  0.00000000000E+00 0.  1.
         21    1    1    2  503  504  0.41482065475E+02 -0.89101430366E+01 -0.10468499305E+03  0.11295618697E+03  0.00000000000E+00 0. -1.
         21    1    1    2  504  502  0.22385033329E+02 -0.12609615363E+03 -0.19987131795E+03  0.23738128278E+03  0.00000000000E+00 0. -1.
         21    1    1    2  505  501 -0.61561232233E+02 -0.15239318184E+02  0.28376752023E+03  0.29076799629E+03  0.00000000000E+00 0. -1.
          2    1    1    2  501    0 -0.23058665721E+01  0.15024561485E+03 -0.20505421208E+04  0.20560403816E+04  0.00000000000E+00 0.  1.
<scales pt_clust_3="42.42820" pt_clust_4="139.92253" pt_clust_5="63.36077" pt_clust_6="14000.00000"></scales>
<clustering>
<clus scale="   42.428">  2  3  1 -1</clus>
<clus scale="   63.361">  1  5  2 -1</clus>
<clus scale="  139.923">  1  4  2 -1</clus>
<clus scale="   63.361">  1  3  2 -1</clus>
</clustering>
</event>
<event>
 6    0  0.2839294E+002  0.1031388E+03  0.7546771E-02  0.1273831E+00
         21   -1    0    0  503  502  0.00000000000E+00  0.00000000000E+00  0.10770108528E+04  0.10770108528E+04  0.00000000000E+00 0. -1.
          2   -1    0    0  505    0 -0.00000000000E+00 -0.00000000000E+00 -0.27592753977E+03  0.27592753977E+03  0.00000000000E+00 0. -1.
         21    1    1    2  503  501 -0.10064961710E+03  0.33045305071E+02  0.10248326359E+04  0.10302932928E+04  0.00000000000E+00 0. -1.
         21    1    1    2  504  502  0.35545001004E+02 -0.51331256491E+02 -0.32919270292E+02  0.70583449518E+02  0.00000000000E+00 0.  1.
         21    1    1    2  505  504  0.17153545073E+02 -0.27092124154E+02  0.15363876297E+02  0.35556658935E+02  0.00000000000E+00 0. -1.
          2    1    1    2  501    0  0.47951071019E+02  0.45378075574E+02 -0.20619392888E+03  0.21650499131E+03  0.00000000000E+00 0. -1.
<scales pt_clust_3="103.13879" pt_clust_4="14000.00000" pt_clust_5="32.06598" pt_clust_6="66.04149"></scales>
<clustering>
<clus scale="   32.066">  2  5  1 -1</clus>
<clus scale="   66.041">  2  6  1 -1</clus>
<clus scale="  103.139">  1  3  2 -1</clus>
<clus scale="  103.139">  1  3  2 -1</clus>
</clustering>
</event>
<event>
 6    0  0.2839294E+002  0.2012154E+03  0.7546771E-02  0.1148718E+00
          2   -1    0    0  503    0 -0.00000000000E+00  0.00000000000E+00  0.10020807701E+04  0.10020807701E+04  0.00000000000E+00 0. -1.
         21   -1    0    0  501  502  0.00000000000E+00 -0.00000000000E+00 -0.69417231756E+03  0.69417231756E+03  0.00000000000E+00 0.  1.
         21    1    1    2  503  505 -0.31092001612E+02 -0.30691359748E+02  0.29292058642E+03  0.29616066936E+03  0.00000000000E+00 0. -1.
         21    1    1    2  504  502  0.10578679066E+03 -0.10652946683E+03 -0.58048888817E+03  0.59958879382E+03  0.00000000000E+00 0.  1.
         21    1    1    2  505  504  0.12207315913E+02 -0.41741014120E+02 -0.82868335156E+02  0.93586814205E+02  0.00000000000E+00 0.  1.
          2    1    1    2  501    0 -0.86902104964E+02  0.17896184070E+03  0.67834508942E+03  0.70691681025E+03  0.00000000000E+00 0. -1.
<scales pt_clust_3="43.68835" pt_clust_4="36.27619" pt_clust_5="36.27619" pt_clust_6="189.59104"></scales>
<clustering>
<clus scale="   36.276">  4  5 -1 -1</clus>
<clus scale="   43.688">  1  3  2 -1</clus>
<clus scale="  189.591">  1  6  2 -1</clus>
<clus scale="  201.215">  2  3  1 -1</clus>
</clustering>
</event>
<event>
 6    0  0.2839294E+002  0.8454542E+02  0.7546771E-02  0.1316626E+00
         21   -1    0    0  504  502  0.00000000000E+00  0.00000000000E+00  0.40998773973E+03  0.40998773973E+03  0.00000000000E+00 0.  1.
          3   -1    0    0  505    0 -0.00000000000E+00 -0.00000000000E+00 -0.89906583762E+02  0.89906583762E+02  0.00000000000E+00 0.  1.
         21    1    1    2  503  502 -0.81820732795E+02  0.36957284573E+02  0.21155796160E+03  0.22982002592E+03  0.00000000000E+00 0.  1.
         21    1    1    2  504  501  0.46634938185E+02 -0.71171964657E+02  0.12148212463E+03  0.14831780951E+03  0.00000000000E+00 0.  1.
         21    1    1    2  505  503 -0.65370974502E+01  0.60529241854E+02  0.18038852790E+02  0.63497424928E+02  0.00000000000E+00 0.  1.
          3    1    1    2  501    0  0.41722892060E+02 -0.26314561770E+02 -0.30997783053E+02  0.58259063134E+02  0.00000000000E+00 0.  1.
<scales pt_clust_3="14000.00000" pt_clust_4="84.54542" pt_clust_5="49.46427" pt_clust_6="49.32804"></scales>
<clustering>
<clus scale="   49.328">  2  6  1 -1</clus>
<clus scale="   49.464">  2  5  1 -1</clus>
<clus scale="   84.545">  2  4  1 -1</clus>
<clus scale="   84.545">  1  3  2 -1</clus>
</clustering>
</event>
<event>
 6    0  0.2839294E+002  0.1103151E+03  0.7546771E-02  0.1259987E+00
         21   -1    0    0  503  502  0.00000000000E+00  0.00000000000E+00  0.10480963533E+03  0.10480963533E+03  0.00000000000E+00 0. -1.
          1   -1    0    0  505    0 -0.00000000000E+00 -0.00000000000E+00 -0.10997743440E+04  0.10997743440E+04  0.00000000000E+00 0.  1.
         21    1    1    2  503  504 -0.77836349818E+02  0.69930495992E+02 -0.16454445212E+03  0.19499653419E+03  0.00000000000E+00 0.  1.
         21    1    1    2  504  501 -0.14643125656E+02 -0.59366479658E+02 -0.38343163824E+03  0.38827647526E+03  0.00000000000E+00 0. -1.
         21    1    1    2  505  502  0.10001988503E+03 -0.50579728815E+02  0.49949050949E+02  0.12270775876E+03  0.00000000000E+00 0. -1.
          1    1    1    2  501    0 -0.75404095602E+01  0.40015712480E+02 -0.49693766924E+03  0.49860321111E+03  0.00000000000E+00 0.  1.
<scales pt_clust_3="110.31510" pt_clust_4="38.93909" pt_clust_5="14000.00000" pt_clust_6="40.71996"></scales>
<clustering>
<clus scale="   40.720">  2  6  1 -1</clus>
<clus scale="   38.939">  2  4  1 -1</clus>
<clus scale="  110.315">  2  3  1 -1</clus>
<clus scale="  110.315">  1  3  2 -1</clus>
</clustering>
</event>
<event>
 6    0  0.2839294E+002  0.1564918E+03  0.7546771E-02  0.1192715E+00
          1   -1    0    0  505    0 -0.00000000000E+00  0.00000000000E+00  0.14350789395E+04  0.14350789395E+04  0.00000000000E+00 0. -1.
         21   -1    0    0  503  502  0.00000000000E+00 -0.00000000000E+00 -0.10461640492E+03  0.10461640492E+03  0.00000000000E+00 0. -1.
         21    1    1    2  503  501 -0.13354237959E+03  0.89255093635E+02  0.65492497458E+02  0.17346269371E+03  0.00000000000E+00 0. -1.
         21    1    1    2  504  502 -0.84630161790E+01 -0.29750956760E+02 -0.19614521737E+02  0.36626104542E+02  0.00000000000E+00 0. -1.
         21    1    1    2  505  504  0.16685023589E+03 -0.12987976077E+02  0.29929688616E+03  0.34290860999E+03  0.00000000000E+00 0.  1.
          1    1    1    2  501    0 -0.24844840121E+02 -0.46516160798E+02  0.98528767268E+03  0.98669793616E+03  0.00000000000E+00 0. -1.
<scales pt_clust_3="156.49185" pt_clust_4="30.93125" pt_clust_5="14000.00000" pt_clust_6="53.01406"></scales>
<clustering>
<clus scale="   30.931">  2  4  1 -1</clus>
<clus scale="   53.014">  1  6  2 -1</clus>
<clus scale="  156.492">  2  3  1 -1</clus>
<clus scale="   30.931">  2  3  1 -1</clus>
</clustering>
</event>
<event>
 6    0  0.2839294E+002  0.1212123E+03  0.7546771E-02  0.1241110E+00
         21   -1    0    0  505  502  0.00000000000E+00  0.00000000000E+00  0.21123403322E+03  0.21123403322E+03  0.00000000000E+00 0. -1.
          2   -1    0    0  503    0 -0.00000000000E+00 -0.00000000000E+00 -0.13304400974E+03  0.13304400974E+03  0.00000000000E+00 0.  1.
         21    1    1    2  503  504 -0.47811341492E+02 -0.84088916774E+02  0.44453158158E+02  0.10645634584E+03  0.00000000000E+00 0. -1.
         21    1    1    2  504  502 -0.56623223854E+02  0.87263234213E+01  0.76696347549E+02  0.95732272132E+02  0.00000000000E+00 0. -1.
         21    1    1    2  505  501  0.45498370849E+02  0.57382103306E+02 -0.16711245011E+02  0.75113735358E+02  0.00000000000E+00 0.  1.
          2    1    1    2  501    0  0.58936194498E+02  0.17980490047E+02 -0.26248237215E+02  0.66975689628E+02  0.00000000000E+00 0.  1.
<scales pt_clust_3="113.73049" pt_clust_4="57.29169" pt_clust_5="38.45820" pt_clust_6="38.45820"></scales>
<clustering>
<clus scale="   38.458">  5  6 -1 -1</clus>
<clus scale="   57.292">  1  4  2 -1</clus>
<clus scale="  113.730">  1  3  2 -1</clus>
<clus scale="   57.292">  1  3  2 -1</clus>
</clustering>
</event>
<event>
 6    0  0.2839294E+002  0.1183293E+03  0.7546771E-02  0.1245879E+00
         21   -1    0    0  504  502  0.00000000000E+00  0.00000000000E+00  0.13874282022E+03  0.13874282022E+03  0.00000000000E+00 0.  1.
          2   -1    0    0  503    0 -0.00000000000E+00 -0.00000000000E+00 -0.13736922379E+04  0.13736922379E+04  0.00000000000E+00 0. -1.
         21    1    1    2  503  505 -0.84828532918E+02 -0.71445684753E+02 -0.44395916009E+03  0.45760255867E+03  0.00000000000E+00 0.  1.
         21    1    1    2  504  501  0.56896902681E+02  0.42068430945E+02 -0.20176033386E+02  0.73580450801E+02  0.00000000000E+00 0.  1.
         21    1    1    2  505  502 -0.31063737579E+01  0.72888054020E+02  0.91645652585E+02  0.11713771218E+03  0.00000000000E+00 0.  1.
          2    1    1    2  501    0  0.31038003995E+02 -0.43510800212E+02 -0.86245987677E+03  0.86411433645E+03  0.00000000000E+00 0. -1.
<scales pt_clust_3="14000.00000" pt_clust_4="70.84677" pt_clust_5="118.32929" pt_clust_6="53.44668"></scales>
<clustering>
<clus scale="   53.447">  2  6  1 -1</clus>
<clus scale="   70.847">  1  4  2 -1</clus>
<clus scale="  118.329">  1  5  2 -1</clus>
<clus scale="   70.847">  1  3  2 -1</clus>
</clustering>
</event>
<event>
 6    0  0.2839294E+002  0.1970020E+03  0.7546771E-02  0.1152293E+00
         21   -1    0    0  504  502  0.00000000000E+00  0.00000000000E+00  0.35429190034E+03  0.35429190034E+03  0.00000000000E+00 0.  1.
          3   -1    0    0  503    0 -0.00000000000E+00 -0.00000000000E+00 -0.14146198518E+03  0.14146198518E+03  0.00000000000E+00 0.  1.
         21    1    1    2  503  505 -0.32165645826E+02  0.76562465710E+02  0.54968113034E+02  0.99588821549E+02  0.00000000000E+00 0.  1.
         21    1    1    2  504  501  0.30829286703E+02 -0.27720574415E+02 -0.12855878498E+02  0.43406782609E+02  0.00000000000E+00 0.  1.
         21    1    1    2  505  502 -0.73068138630E+01  0.10397611652E+03  0.17033466170E+03  0.19969556658E+03  0.00000000000E+00 0.  1.
          3    1    1    2  501    0  0.86431729862E+01 -0.15281800781E+03  0.38301891224E+00  0.15306271478E+03  0.00000000000E+00 0.  1.
<scales pt_clust_3="60.91628" pt_clust_4="34.09801" pt_clust_5="60.91628" pt_clust_6="196.07318"></scales>
<clustering>
<clus scale="   34.098">  4  6 -1 -1</clus>
<clus scale="   60.916">  3  5 -1 -1</clus>
<clus scale="  196.073">  2  4  1 -1</clus>
<clus scale="  197.002">  1  3  2 -1</clus>
</clustering>
</event>
<event>
 6    0  0.2839294E+002  0.1247798E+03  0.7546771E-02  0.1235414E+00
          1   -1    0    0  503    0 -0.00000000000E+00  0.00000000000E+00  0.14543734768E+04  0.14543734768E+04  0.00000000000E+00 0. -1.
         21   -1    0    0  504  502  0.00000000000E+00 -0.00000000000E+00 -0.29955955395E+03  0.29955955395E+03  0.00000000000E+00 0. -1.
         21    1    1    2  503  502 -0.32253957725E+02  0.26530464846E+00  0.93406149197E+02  0.98818504761E+02  0.00000000000E+00 0. -1.
         21    1    1    2  504  505 -0.67445599328E+01  0.39321068487E+02 -0.13915390913E+03  0.14475995973E+03  0.00000000000E+00 0. -1.
         21    1    1    2  505  501  0.71984769295E+02 -0.14477273839E+03 -0.10975094403E+03  0.19541295378E+03  0.00000000000E+00 0. -1.
          1    1    1    2  501    0 -0.32986251637E+02  0.10518636525E+03  0.13103126268E+04  0.13149416124E+04  0.00000000000E+00 0. -1.
<scales pt_clust_3="32.25505" pt_clust_4="39.90715" pt_clust_5="14000.00000" pt_clust_6="124.77977"></scales>
<clustering>
<clus scale="   32.255">  1  3  2 -1</clus>
<clus scale="   39.907">  2  4  1 -1</clus>
<clus scale="  124.780">  1  6  2 -1</clus>
<clus scale="   39.907">  2  3  1 -1</clus>
</clustering>
</event>
<event>
 6    0  0.2839294E+002  0.1186749E+03  0.7546771E-02  0.1245299E+00
          2   -1    0    0  503    0 -0.00000000000E+00  0.00000000000E+00  0.41883779286E+03  0.41883779286E+03  0.00000000000E+00 0. -1.
         21   -1    0    0  504  502  0.00000000000E+00 -0.00000000000E+00 -0.32772845644E+03  0.32772845644E+03  0.00000000000E+00 0.  1.
         21    1    1    2  503  505  0.31192808457E+02  0.15698496731E+01  0.18821381613E+02  0.36465053589E+02  0.00000000000E+00 0.  1.
         21    1    1    2  504  501  0.43043632633E+01 -0.32495361188E+02 -0.27757712804E+03  0.27950588196E+03  0.00000000000E+00 0.  1.
         21    1    1    2  505  502 -0.83971422075E+02 -0.76074148113E+02  0.87586239648E+02  0.14321251730E+03  0.00000000000E+00 0. -1.
          2    1    1    2  501    0  0.48474250355E+02  0.10699965963E+03  0.26227884319E+03  0.28738279645E+03  0.00000000000E+00 0. -1.
<scales pt_clust_3="31.23229" pt_clust_4="32.78555" pt_clust_5="14000.00000" pt_clust_6="118.67488"></scales>
<clustering>
<clus scale="   31.232">  1  3  2 -1</clus>
<clus scale="   32.786">  2  4  1 -1</clus>
<clus scale="  118.675">  1  6  2 -1</clus>
<clus scale="   32.786">  2  3  1 -1</clus>
</clustering>
</event>
<event>
 6    0  0.2839294E+002  0.8391965E+02  0.7546771E-02  0.1318282E+00
         21   -1    0    0  504  502  0.00000000000E+00  0.00000000000E+00  0.67099462461E+02  0.67099462461E+02  0.00000000000E+00 0. -1.
          1   -1    0    0  503    0 -0.00000000000E+00 -0.00000000000E+00 -0.54583282313E+03  0.54583282313E+03  0.00000000000E+00 0. -1.
         21    1    1    2  503  502  0.46015510733E+02  0.30850801966E+02 -0.19454996881E+03  0.20228418024E+03  0.00000000000E+00 0. -1.
         21    1    1    2  504  505  0.80417941310E+02 -0.94013659368E+01 -0.40990462594E+02  0.90750476526E+02  0.00000000000E+00 0. -1.
         21    1    1    2  505  501 -0.81979926083E+02 -0.53084674081E+02 -0.33545312876E+02  0.10326654308E+03  0.00000000000E+00 0. -1.
          1    1    1    2  501    0 -0.44453525961E+02  0.31635238051E+02 -0.20964761640E+03  0.21663108576E+03  0.00000000000E+00 0. -1.
<scales pt_clust_3="53.40659" pt_clust_4="83.91965" pt_clust_5="14000.00000" pt_clust_6="54.56101"></scales>
<clustering>
<clus scale="   54.561">  2  6  1 -1</clus>
<clus scale="   53.407">  2  3  1 -1</clus>
<clus scale="   83.920">  1  4  2 -1</clus>
<clus scale="   83.920">  1  3  2 -1</clus>
</clustering>
</event>
<event>
 6    0  0.2839294E+002  0.1305770E+03  0.7546771E-02  0.1226602E+00
          1   -1    0    0  505    0 -0.00000000000E+00  0.00000000000E+00  0.32431689306E+03  0.32431689306E+03  0.00000000000E+00 0.  1.
         21   -1    0    0  503  502  0.00000000000E+00 -0.00000000000E+00 -0.11465355007E+04  0.11465355007E+04  0.00000000000E+00 0.  1.
         21    1    1    2  503  501 -0.95774981270E+02  0.75892373815E+02 -0.70384867488E+03  0.71437767082E+03  0.00000000000E+00 0.  1.
         21    1    1    2  504  502  0.55216005213E+02 -0.26514461071E+02 -0.13893343188E+03  0.15183649882E+03  0.00000000000E+00 0. -1.
         21    1    1    2  505  504  0.79004961876E+02 -0.84529460673E+01 -0.28401866752E+03  0.29492344735E+03  0.00000000000E+00 0. -1.
          1    1    1    2  501    0 -0.38445985819E+02 -0.40924966677E+02  0.30458216664E+03  0.30971477678E+03  0.00000000000E+00 0.  1.
<scales pt_clust_3="124.82939" pt_clust_4="33.64017" pt_clust_5="33.64017" pt_clust_6="56.15111"></scales>
<clustering>
<clus scale="   33.640">  4  5 -1 -1</clus>
<clus scale="   56.151">  1  6  2 -1</clus>
<clus scale="  124.829">  2  3  1 -1</clus>
<clus scale="  124.829">  2  3  1 -1</clus>
</clustering>
</event>
<event>
 6    0  0.2839294E+002  0.7163326E+02  0.7546771E-02  0.1354626E+00
         -2   -1    0    0    0  501 -0.00000000000E+00  0.00000000000E+00  0.70771320146E+02  0.70771320146E+02  0.00000000000E+00 0.  1.
         21   -1    0    0  505  502  0.00000000000E+00 -0.00000000000E+00 -0.94356447099E+03  0.94356447099E+03  0.00000000000E+00 0. -1.
         21    1    1    2  503  501 -0.35587546376E+01  0.56592715494E+02  0.16943829257E+02  0.59181868266E+02  0.00000000000E+00 0. -1.
         21    1    1    2  504  502 -0.27900762371E+02  0.55608269501E+02 -0.35064114640E+03  0.35611788178E+03  0.00000000000E+00 0. -1.
         21    1    1    2  505  503  0.61441922960E+02 -0.11821365398E+03 -0.55050562890E+03  0.56639740936E+03  0.00000000000E+00 0. -1.
         -2    1    1    2    0  504 -0.29982405952E+02  0.60126689894E+01  0.11409795188E+02  0.32638631731E+02  0.00000000000E+00 0.  1.
<scales pt_clust_3="71.63326" pt_clust_4="63.28690" pt_clust_5="14000.00000" pt_clust_6="30.57935"></scales>
<clustering>
<clus scale="   30.579">  1  6  2 -1</clus>
<clus scale="   63.287">  2  4  1 -1</clus>
<clus scale="   71.633">  1  3  2 -1</clus>
<clus scale="   63.287">  2  3  1 -1</clus>
</clustering>
</event>
<event>
 6    0  0.2839294E+002  0.7398162E+02  0.7546771E-02  0.1347054E+00
         21   -1    0    0  505  502  0.00000000000E+00  0.00000000000E+00  0.10155285912E+04  0.10155285912E+04  0.00000000000E+00 0.  1.
         -4   -1    0    0    0  501 -0.00000000000E+00 -0.00000000000E+00 -0.14335114237E+03  0.14335114237E+03  0.00000000000E+00 0. -1.
         21    1    1    2  503  502  0.23757094574E+02 -0.27282926784E+02  0.10072372556E+03  0.10702348586E+03  0.00000000000E+00 0. -1.
         21    1    1    2  504  501 -0.67969263616E+02  0.39243640235E+02 -0.54696190187E+02  0.95663772225E+02  0.00000000000E+00 0. -1.
         21    1    1    2  505  504  0.33536421716E+02  0.75910854431E+02  0.85808610255E+03  0.86208984961E+03  0.00000000000E+00 0.  1.
         -4    1    1    2    0  503  0.10675747326E+02 -0.87871567882E+02 -0.31936189097E+02  0.94102625877E+02  0.00000000000E+00 0. -1.
<scales pt_clust_3="36.17676" pt_clust_4="73.98162" pt_clust_5="75.14996" pt_clust_6="14000.00000"></scales>
<clustering>
<clus scale="   36.177">  1  3  2 -1</clus>
<clus scale="   75.150">  1  5  2 -1</clus>
<clus scale="   73.982">  2  4  1 -1</clus>
<clus scale="   36.177">  1  3  2 -1</clus>
</clustering>
</event>
<event>
 6    0  0.2839294E+002  0.2851045E+03  0.7546771E-02  0.1092933E+00
         21   -1    0    0  505  502  0.00000000000E+00  0.00000000000E+00  0.63999911060E+02  0.63999911060E+02  0.00000000000E+00 0.  1.
          1   -1    0    0  502    0 -0.00000000000E+00 -0.00000000000E+00 -0.34749214510E+04  0.34749214510E+04  0.00000000000E+00 0. -1.
         21    1    1    2  503  504 -0.29491230943E+02 -0.13143762655E+03 -0.18281944600E+03  0.22708705866E+03  0.00000000000E+00 0.  1.
         21    1    1    2  504  501 -0.52609126558E+02  0.63682780724E+02 -0.71705992674E+03  0.72180201946E+03  0.00000000000E+00 0. -1.
         21    1    1    2  505  503  0.68669908495E+02 -0.12745881383E+03 -0.11205512569E+03  0.18307828038E+03  0.00000000000E+00 0.  1.
          1    1    1    2  501    0  0.13430449006E+02  0.19521365966E+03 -0.23989870415E+04  0.24069540036E+04  0.00000000000E+00 0. -1.
<scales pt_clust_3="108.79783" pt_clust_4="67.53142" pt_clust_5="108.79783" pt_clust_6="281.71891"></scales>
<clustering>
<clus scale="   67.531">  4  6 -1 -1</clus>
<clus scale="  108.798">  3  5 -1 -1</clus>
<clus scale="  281.719">  2  4  1 -1</clus>
<clus scale="  285.105">  1  3  2 -1</clus>
</clustering>
</event>
<event>
 6    0  0.2839294E+002  0.1006968E+03  0.7546771E-02  0.1278838E+00
          2   -1    0    0  505    0 -0.00000000000E+00  0.00000000000E+00  0.22911299619E+04  0.22911299619E+04  0.00000000000E+00 0.  1.
         21   -1    0    0  501  502  0.00000000000E+00 -0.00000000000E+00 -0.47637836902E+02  0.47637836902E+02  0.00000000000E+00 0.  1.
         21    1    1    2  503  502  0.28658356501E+02 -0.25477703321E+02  0.41774690387E+02  0.56705727406E+02  0.00000000000E+00 0.  1.
         21    1    1    2  504  503  0.75320430429E+02  0.38331966655E+02  0.15242834196E+02  0.85876952100E+02  0.00000000000E+00 0.  1.
         21    1    1    2  505  504 -0.30794977457E+02  0.68503116263E+02  0.44650428359E+03  0.45277707853E+03  0.00000000000E+00 0.  1.
          2    1    1    2  501    0 -0.73183809473E+02 -0.81357379597E+02  0.17399703168E+04  0.17434080407E+04  0.00000000000E+00 0.  1.
<scales pt_clust_3="38.34599" pt_clust_4="14000.00000" pt_clust_5="72.38537" pt_clust_6="100.69676"></scales>
<clustering>
<clus scale="   38.346">  2  3  1 -1</clus>
<clus scale="   72.385">  1  5  2 -1</clus>
<clus scale="  100.697">  1  6  2 -1</clus>
<clus scale="   38.346">  2  3  1 -1</clus>
</clustering>
</event>
<event>
 6    0  0.2839294E+002  0.8246070E+02  0.7546771E-02  0.1322210E+00
         -1   -1    0    0    0  501 -0.00000000000E+00  0.00000000000E+00  0.68085223141E+02  0.68085223141E+02  0.00000000000E+00 0. -1.
         21   -1    0    0  505  502  0.00000000000E+00 -0.00000000000E+00 -0.11210917352E+04  0.11210917352E+04  0.00000000000E+00 0.  1.
         21    1    1    2  503  502  0.73016259320E+02 -0.31778200438E+02 -0.84038026649E+03  0.84414466796E+03  0.00000000000E+00 0.  1.
         21    1    1    2  504  503 -0.12980722496E+03  0.81333513916E+02 -0.81509094072E+02  0.17351884207E+03  0.00000000000E+00 0. -1.
         21    1    1    2  505  501  0.70956169050E+02 -0.18640677567E+02 -0.10735562781E+03  0.13002877993E+03  0.00000000000E+00 0.  1.
         -1    1    1    2    0  504 -0.14165203414E+02 -0.30914635911E+02 -0.23761523643E+02  0.41484668338E+02  0.00000000000E+00 0. -1.
<scales pt_clust_3="14000.00000" pt_clust_4="82.46070" pt_clust_5="72.52894" pt_clust_6="34.00541"></scales>
<clustering>
<clus scale="   34.005">  1  6  2 -1</clus>
<clus scale="   72.529">  1  5  2 -1</clus>
<clus scale="   82.461">  1  4  2 -1</clus>
<clus scale="   82.461">  2  3  1 -1</clus>
</clustering>
</event>
<event>
 6    0  0.2839294E+002  0.1291271E+03  0.7546771E-02  0.1228757E+00
          1   -1    0    0  503    0 -0.00000000000E+00  0.00000000000E+00  0.59512887239E+03  0.59512887239E+03  0.00000000000E+00 0. -1.
         21   -1    0    0  505  502  0.00000000000E+00 -0.00000000000E+00 -0.49433232686E+03  0.49433232686E+03  0.00000000000E+00 0.  1.
         21    1    1    2  503  502 -0.13501707711E+03  0.76151805141E+02 -0.62872476636E+02  0.16727718570E+03  0.00000000000E+00 0.  1.
         21    1    1    2  504  501  0.50411090000E+02 -0.54825024557E+02  0.28626554613E+03  0.29579557842E+03  0.00000000000E+00 0. -1.
         21    1    1    2  505  504  0.33457051591E+02 -0.12204519581E+02 -0.37095144960E+03  0.37265708441E+03  0.00000000000E+00 0.  1.
          1    1    1    2  501    0  0.51148935514E+02 -0.91222610018E+01  0.24835492564E+03  0.25373135073E+03  0.00000000000E+00 0. -1.
<scales pt_clust_3="122.13400" pt_clust_4="35.01070" pt_clust_5="35.61355" pt_clust_6="35.01070"></scales>
<clustering>
<clus scale="   35.011">  4  6 -1 -1</clus>
<clus scale="   35.614">  2  5  1 -1</clus>
<clus scale="  122.134">  2  3  1 -1</clus>
<clus scale="   35.614">  2  3  1 -1</clus>
</clustering>
</event>
<event>
 6    0  0.2839294E+002  0.1273562E+03  0.7546771E-02  0.1231432E+00
          1   -1    0    0  504    0 -0.00000000000E+00  0.00000000000E+00  0.46458566369E+02  0.46458566369E+02  0.00000000000E+00 0.  1.
         21   -1    0    0  505  502  0.00000000000E+00 -0.00000000000E+00 -0.15312965061E+04  0.15312965061E+04  0.00000000000E+00 0.  1.
         21    1    1    2  503  501 -0.17765677788E+02  0.45519067423E+02 -0.22789750659E+03  0.23307697938E+03  0.00000000000E+00 0. -1.
         21    1    1    2  504  502  0.12728132859E+03  0.50636267028E+02 -0.86958257747E+03  0.88030587138E+03  0.00000000000E+00 0.  1.
         21    1    1    2  505  503 -0.46562241041E+02  0.17251462227E+02 -0.30872001349E+03  0.31268786668E+03  0.00000000000E+00 0.  1.
          1    1    1    2  501    0 -0.62953409762E+02 -0.11340679668E+03 -0.78637842148E+02  0.15168435500E+03  0.00000000000E+00 0.  1.
<scales pt_clust_3="42.35095" pt_clust_4="127.35623" pt_clust_5="99.50329" pt_clust_6="14000.00000"></scales>
<clustering>
<clus scale="   42.351">  3  5 -1 -1</clus>
<clus scale="   99.503">  2  3  1 -1</clus>
<clus scale="  127.356">  2  4  1 -1</clus>
<clus scale="   99.503">  2  3  1 -1</clus>
</clustering>
</event>
<event>
 6    0  0.2839294E+002  0.8487608E+02  0.7546771E-02  0.1315757E+00
          3   -1    0    0  503    0 -0.00000000000E+00  0.00000000000E+00  0.26626606584E+04  0.26626606584E+04  0.00000000000E+00 0.  1.
         21   -1    0    0  501  502  0.00000000000E+00 -0.00000000000E+00 -0.14077680001E+02  0.14077680001E+02  0.00000000000E+00 0.  1.
         21    1    1    2  503  504  0.33822846981E+02 -0.13828238612E+00  0.26704269312E+03  0.26917615802E+03  0.00000000000E+00 0.  1.
         21    1    1    2  504  505  0.39602372091E+02 -0.99284860640E+02  0.56109684566E+03  0.57118779892E+03  0.00000000000E+00 0. -1.
         21    1    1    2  505  502  0.10113796756E+02  0.47424694244E+02  0.82853716383E+02  0.96000670974E+02  0.00000000000E+00 0.  1.
          3    1    1    2  501    0 -0.83539015828E+02  0.51998448783E+02  0.17375897232E+04  0.17403737104E+04  0.00000000000E+00 0.  1.
<scales pt_clust_3="33.82313" pt_clust_4="84.87608" pt_clust_5="48.76522" pt_clust_6="14000.00000"></scales>
<clustering>
<clus scale="   33.823">  1  3  2 -1</clus>
<clus scale="   48.765">  2  5  1 -1</clus>
<clus scale="   84.876">  2  4  1 -1</clus>
<clus scale="   48.765">  2  3  1 -1</clus>
</clustering>
</event>
<event>
 6    0  0.2839294E+002  0.1064856E+03  0.7546771E-02  0.1267220E+00
          2   -1    0    0  505    0 -0.00000000000E+00  0.00000000000E+00  0.16274411005E+03  0.16274411005E+03  0.00000000000E+00 0.  1.
         21   -1    0    0  503  502  0.00000000000E+00 -0.00000000000E+00 -0.24517517102E+04  0.24517517102E+04  0.00000000000E+00 0.  1.
         21    1    1    2  503  501 -0.25375655978E+02 -0.51357907233E+02 -0.16969650492E+04  0.16979316643E+04  0.00000000000E+00 0.  1.
         21    1    1    2  504  502  0.33705203639E+02 -0.64240632789E+01 -0.66636433933E+03  0.66724713718E+03  0.00000000000E+00 0.  1.
         21    1    1    2  505  504  0.99595778299E+02  0.55428240770E+02 -0.69507511736E+01  0.11419247730E+03  0.00000000000E+00 0.  1.
          2    1    1    2  501    0 -0.10792532596E+03  0.23537297417E+01  0.81272539526E+02  0.13512454147E+03  0.00000000000E+00 0.  1.
<scales pt_clust_3="57.85370" pt_clust_4="34.31194" pt_clust_5="14000.00000" pt_clust_6="106.48556"></scales>
<clustering>
<clus scale="   34.312">  2  4  1 -1</clus>
<clus scale="   57.854">  2  3  1 -1</clus>
<clus scale="  106.486">  1  6  2 -1</clus>
<clus scale="   34.312">  2  3  1 -1</clus>
</clustering>
</event>
<event>
 6    0  0.2839294E+002  0.1286193E+03  0.7546771E-02  0.1229519E+00
          1   -1    0    0  502    0 -0.00000000000E+00  0.00000000000E+00  0.92973748228E+03  0.92973748228E+03  0.00000000000E+00 0.  1.
         21   -1    0    0  503  502  0.00000000000E+00 -0.00000000000E+00 -0.76968960401E+02  0.76968960401E+02  0.00000000000E+00 0. -1.
         21    1    1    2  503  505 -0.25832056044E+02 -0.32399210300E+02 -0.30354092224E+02  0.51365113279E+02  0.00000000000E+00 0. -1.
         21    1    1    2  504  501  0.27890730683E+02  0.50101087038E+02  0.29563340910E+03  0.30114302973E+03  0.00000000000E+00 0.  1.
         21    1    1    2  505  504 -0.65941935751E+02 -0.56640426373E+02  0.30373551606E+02  0.92081645443E+02  0.00000000000E+00 0. -1.
          1    1    1    2  501    0  0.63883261112E+02  0.38938549634E+02  0.55711565340E+03  0.56211665423E+03  0.00000000000E+00 0.  1.
<scales pt_clust_3="41.43675" pt_clust_4="35.94525" pt_clust_5="121.88981" pt_clust_6="35.94525"></scales>
<clustering>
<clus scale="   35.945">  4  6 -1 -1</clus>
<clus scale="   41.437">  2  3  1 -1</clus>
<clus scale="  121.890">  2  5  1 -1</clus>
<clus scale="   41.437">  2  3  1 -1</clus>
</clustering>
</event>
<event>
 6    0  0.2839294E+002  0.1086660E+03  0.7546771E-02  0.1263060E+00
         21   -1    0    0  504  502  0.00000000000E+00  0.00000000000E+00  0.60005558212E+02  0.60005558212E+02  0.00000000000E+00 0. -1.
          2   -1    0    0  503    0 -0.00000000000E+00 -0.00000000000E+00 -0.14758466012E+04  0.14758466012E+04  0.00000000000E+00 0.  1.
         21    1    1    2  503  502  0.56908245164E+02 -0.79184467296E+02 -0.93457014521E+02  0.13506643473E+03  0.00000000000E+00 0. -1.
         21    1    1    2  504  505 -0.13008810309E+03  0.33945066086E+02 -0.84568675066E+02  0.15883023289E+03  0.00000000000E+00 0. -1.
         21    1    1    2  505  501  0.50757368944E+02  0.14850059259E+01 -0.52650814083E+03  0.52895116798E+03  0.00000000000E+00 0.  1.
          2    1    1    2  501    0  0.22422488982E+02  0.43754395284E+02 -0.71130721254E+03  0.71300432379E+03  0.00000000000E+00 0.  1.
<scales pt_clust_3="108.66604" pt_clust_4="14000.00000" pt_clust_5="73.45403" pt_clust_6="49.16518"></scales>
<clustering>
<clus scale="   49.165">  2  6  1 -1</clus>
<clus scale="   73.454">  2  5  1 -1</clus>
<clus scale="  108.666">  1  3  2 -1</clus>
<clus scale="  108.666">  1  3  2 -1</clus>
</clustering>
</event>
<event>
 6    0  0.2839294E+002  0.1176977E+03  0.7546771E-02  0.1246944E+00
          2   -1    0    0  505    0 -0.00000000000E+00  0.00000000000E+00  0.81288459425E+03  0.81288459425E+03  0.00000000000E+00 0. -1.
         21   -1    0    0  503  502  0.00000000000E+00 -0.00000000000E+00 -0.13313741457E+03  0.13313741457E+03  0.00000000000E+00 0. -1.
         21    1    1    2  503  501 -0.12065594742E+03 -0.39178332553E+01 -0.87865227925E+02  0.14931009793E+03  0.00000000000E+00 0. -1.
         21    1    1    2  504  502  0.50794249048E+02 -0.47785245099E+02  0.10346765820E+03  0.12477596595E+03  0.00000000000E+00 0.  1.
         21    1    1    2  505  504  0.23240172208E+01  0.30359206656E+02  0.16427270911E+03  0.16707066004E+03  0.00000000000E+00 0. -1.
          2    1    1    2  501    0  0.67537681154E+02  0.21343871698E+02  0.49987204029E+03  0.50486528490E+03  0.00000000000E+00 0. -1.
<scales pt_clust_3="14000.00000" pt_clust_4="66.50063" pt_clust_5="30.44803" pt_clust_6="117.69767"></scales>
<clustering>
<clus scale="   30.448">  1  5  2 -1</clus>
<clus scale="   66.501">  1  4  2 -1</clus>
<clus scale="  117.698">  1  6  2 -1</clus>
<clus scale="  117.698">  2  3  1 -1</clus>
</clustering>
</event>
<event>
 6    0  0.2839294E+002  0.1169120E+03  0.7546771E-02  0.1248280E+00
         21   -1    0    0  504  502  0.00000000000E+00  0.00000000000E+00  0.24655461706E+03  0.24655461706E+03  0.00000000000E+00 0.  1.
         -4   -1    0    0    0  501 -0.00000000000E+00 -0.00000000000E+00 -0.54007349390E+03  0.54007349390E+03  0.00000000000E+00 0.  1.
         21    1    1    2  503  501 -0.25413694934E+02  0.95220970795E+02 -0.18551126949E+03  0.21006503821E+03  0.00000000000E+00 0.  1.
         21    1    1    2  504  503 -0.10146139059E+03  0.27047366808E+02  0.14891222434E+03  0.18221093379E+03  0.00000000000E+00 0.  1.
         21    1    1    2  505  502 -0.15862633736E+02 -0.39152403746E+02  0.37680595830E+02  0.56607077033E+02  0.00000000000E+00 0. -1.
         -4    1    1    2    0  505  0.14273771926E+03 -0.83115933857E+02 -0.29460042753E+03  0.33774506193E+03  0.00000000000E+00 0.  1.
<scales pt_clust_3="96.48959" pt_clust_4="14000.00000" pt_clust_5="42.24374" pt_clust_6="116.91197"></scales>
<clustering>
<clus scale="   42.244">  1  5  2 -1</clus>
<clus scale="   96.490">  2  3  1 -1</clus>
<clus scale="  116.912">  2  6  1 -1</clus>
<clus scale="   42.244">  1  3  2 -1</clus>
</clustering>
</event>
<event>
 6    0  0.2839294E+002  0.9036306E+02  0.7546771E-02  0.1301975E+00
         21   -1    0    0  505  502  0.00000000000E+00  0.00000000000E+00  0.97581098986E+02  0.97581098986E+02  0.00000000000E+00 0. -1.
          2   -1    0    0  504    0 -0.00000000000E+00 -0.00000000000E+00 -0.81069814044E+03  0.81069814044E+03  0.00000000000E+00 0.  1.
         21    1    1    2  503  502 -0.24411560281E+02 -0.44272915746E+02  0.21441627465E+02  0.54915924214E+02  0.00000000000E+00 0. -1.
         21    1    1    2  504  503  0.98886823534E+00 -0.47277622616E+02 -0.21645525566E+03  0.22156044133E+03  0.00000000000E+00 0. -1.
         21    1    1    2  505  501  0.81420052882E+02  0.11498311628E+03 -0.35677190242E+02  0.14533823978E+03  0.00000000000E+00 0. -1.
          2    1    1    2  501    0 -0.57997360837E+02 -0.23432577913E+02 -0.48242622302E+03  0.48646463410E+03  0.00000000000E+00 0.  1.
<scales pt_clust_3="51.71900" pt_clust_4="47.28796" pt_clust_5="90.36306" pt_clust_6="14000.00000"></scales>
<clustering>
<clus scale="   47.288">  2  4  1 -1</clus>
<clus scale="   51.719">  1  3  2 -1</clus>
<clus scale="   90.363">  1  5  2 -1</clus>
<clus scale="   51.719">  1  3  2 -1</clus>
</clustering>
</event>
<event>
 6    0  0.2839294E+002  0.1176653E+03  0.7546771E-02  0.1246999E+00
         21   -1    0    0  501  502  0.00000000000E+00  0.00000000000E+00  0.19609395578E+03  0.19609395578E+03  0.00000000000E+00 0.  1.
          3   -1    0    0  505    0 -0.00000000000E+00 -0.00000000000E+00 -0.10248788353E+04  0.10248788353E+04  0.00000000000E+00 0.  1.
         21    1    1    2  503  504 -0.11367086827E+03 -0.33015347500E+02  0.11911286775E+03  0.16792544396E+03  0.00000000000E+00 0.  1.
         21    1    1    2  504  502  0.20557129418E+02 -0.45629185057E+02  0.32182500959E+02  0.59500684592E+02  0.00000000000E+00 0.  1.
         21    1    1    2  505  503  0.16929262940E+02  0.79478003997E+02 -0.63352148932E+03  0.63871185248E+03  0.00000000000E+00 0.  1.
          3    1    1    2  501    0  0.76184475917E+02 -0.83347143916E+00 -0.34655875886E+03  0.35483481000E+03  0.00000000000E+00 0.  1.
<scales pt_clust_3="14000.00000" pt_clust_4="50.04616" pt_clust_5="117.66529" pt_clust_6="76.77908"></scales>
<clustering>
<clus scale="   50.046">  1  4  2 -1</clus>
<clus scale="   76.779">  2  6  1 -1</clus>
<clus scale="  117.665">  2  5  1 -1</clus>
<clus scale="   50.046">  1  3  2 -1</clus>
</clustering>
</event>
<event>
 6    0  0.2839294E+002  0.1377179E+03  0.7546771E-02  0.1216433E+00
         21   -1    0    0  503  502  0.00000000000E+00  0.00000000000E+00  0.83850776363E+02  0.83850776363E+02  0.00000000000E+00 0.  1.
          1   -1    0    0  504    0 -0.00000000000E+00 -0.00000000000E+00 -0.40631303741E+03  0.40631303741E+03  0.00000000000E+00 0.  1.
         21    1    1    2  503  505  0.21583327194E+02 -0.22849513906E+02  0.31705682193E+02  0.44645163029E+02  0.00000000000E+00 0.  1.
         21    1    1    2  504  502 -0.12870803678E+03  0.66338083097E+02 -0.18651645885E+03  0.23612473276E+03  0.00000000000E+00 0.  1.
         21    1    1    2  505  501  0.55047384391E+02 -0.14867984264E+02 -0.43379949555E+02  0.71645596569E+02  0.00000000000E+00 0. -1.
          1    1    1    2  501    0  0.52077325196E+02 -0.28620584927E+02 -0.12427153483E+03  0.13774832141E+03  0.00000000000E+00 0.  1.
<scales pt_clust_3="31.43152" pt_clust_4="128.81923" pt_clust_5="48.08247" pt_clust_6="48.08247"></scales>
<clustering>
<clus scale="   31.432">  1  3  2 -1</clus>
<clus scale="   48.082">  5  6 -1 -1</clus>
<clus scale="  128.819">  1  4  2 -1</clus>
<clus scale="   31.432">  1  3  2 -1</clus>
</clustering>
</event>
<event>
 6    0  0.2839294E+002  0.2809225E+03  0.7546771E-02  0.1095186E+00
          2   -1    0    0  504    0 -0.00000000000E+00  0.00000000000E+00  0.15954616439E+04  0.15954616439E+04  0.00000000000E+00 0. -1.
         21   -1    0    0  505  502  0.00000000000E+00 -0.00000000000E+00 -0.17548924581E+03  0.17548924581E+03  0.00000000000E+00 0.  1.
         21    1    1    2  503  502  0.41248688406E+02  0.38707851440E+02 -0.44436196557E+02  0.71932799353E+02  0.00000000000E+00 0.  1.
         21    1    1    2  504  503  0.17535045013E+03  0.11365550126E+03  0.10768673590E+01  0.20896533916E+03  0.00000000000E+00 0.  1.
         21    1    1    2  505  501 -0.13076407897E+03 -0.10059421115E+03  0.11298584854E+04  0.11418400224E+04  0.00000000000E+00 0. -1.
          2    1    1    2  501    0 -0.85835059568E+02 -0.51769141551E+02  0.33347324192E+03  0.34821272886E+03  0.00000000000E+00 0. -1.
<scales pt_clust_3="43.19953" pt_clust_4="277.53150" pt_clust_5="73.06981" pt_clust_6="73.06981"></scales>
<clustering>
<clus scale="   43.200">  3  4 -1 -1</clus>
<clus scale="   73.070">  5  6 -1 -1</clus>
<clus scale="  277.531">  2  3  1 -1</clus>
<clus scale="  277.531">  2  3  1 -1</clus>
</clustering>
</event>
<event>
 6    0  0.2839294E+002  0.1151588E+03  0.7546771E-02  0.1251304E+00
         21   -1    0    0  505  502  0.00000000000E+00  0.00000000000E+00  0.19104817117E+04  0.19104817117E+04  0.00000000000E+00 0. -1.
          4   -1    0    0  504    0 -0.00000000000E+00 -0.00000000000E+00 -0.57240962379E+02  0.57240962379E+02  0.00000000000E+00 0. -1.
         21    1    1    2  503  501 -0.30423858227E+02  0.50537087565E+02  0.81651761840E+02  0.10073042530E+03  0.00000000000E+00 0. -1.
         21    1    1    2  504  502  0.64103585373E+02 -0.69293793474E+02  0.15120431231E+04  0.15149868995E+04  0.00000000000E+00 0. -1.
         21    1    1    2  505  503 -0.25573424167E+02  0.75789479713E+02  0.27974871426E+03  0.29095942739E+03  0.00000000000E+00 0. -1.
          4    1    1    2  501    0 -0.81063029787E+01 -0.57032773803E+02 -0.20202849899E+02  0.61045921893E+02  0.00000000000E+00 0. -1.
<scales pt_clust_3="52.35283" pt_clust_4="97.69858" pt_clust_5="52.35283" pt_clust_6="57.60598"></scales>
<clustering>
<clus scale="   52.353">  3  5 -1 -1</clus>
<clus scale="   57.606">  2  6  1 -1</clus>
<clus scale="   97.699">  1  4  2 -1</clus>
<clus scale="   97.699">  1  3  2 -1</clus>
</clustering>
</event>
<event>
 6    0  0.2839294E+002  0.1284000E+03  0.7546771E-02  0.1229849E+00
          4   -1    0    0  504    0 -0.00000000000E+00  0.00000000000E+00  0.20501016358E+03  0.20501016358E+03  0.00000000000E+00 0.  1.
         21   -1    0    0  503  502  0.00000000000E+00 -0.00000000000E+00 -0.45864004247E+03  0.45864004247E+03  0.00000000000E+00 0.  1.
         21    1    1    2  503  501  0.81654095861E+00 -0.54194581552E+02  0.27207915539E+02  0.60646434988E+02  0.00000000000E+00 0.  1.
         21    1    1    2  504  505  0.66960389462E+02  0.12283701767E+03  0.20169541110E+02  0.14134863655E+03  0.00000000000E+00 0.  1.
         21    1    1    2  505  502 -0.26843551163E+02 -0.21973297244E+02 -0.36839969466E+03  0.37002937323E+03  0.00000000000E+00 0.  1.
          4    1    1    2  501    0 -0.40933379258E+02 -0.46669138874E+02  0.67392359119E+02  0.91625761270E+02  0.00000000000E+00 0.  1.
<scales pt_clust_3="46.37564" pt_clust_4="118.45593" pt_clust_5="34.69009" pt_clust_6="46.37564"></scales>
<clustering>
<clus scale="   34.690">  2  5  1 -1</clus>
<clus scale="   46.376">  3  6 -1 -1</clus>
<clus scale="  118.456">  2  4  1 -1</clus>
<clus scale="   34.690">  2  3  1 -1</clus>
</clustering>
</event>
<event>
 6    0  0.2839294E+002  0.2180707E+03  0.7546771E-02  0.1135330E+00
         -3   -1    0    0    0  501 -0.00000000000E+00  0.00000000000E+00  0.52709063858E+02  0.52709063858E+02  0.00000000000E+00 0. -1.
         21   -1    0    0  504  502  0.00000000000E+00 -0.00000000000E+00 -0.17440780329E+04  0.17440780329E+04  0.00000000000E+00 0.  1.
         21    1    1    2  503  502  0.16559214217E+03 -0.18222445362E+03 -0.11474469639E+04  0.11735676564E+04  0.00000000000E+00 0.  1.
         21    1    1    2  504  501 -0.14104815198E+02  0.58673666302E+02 -0.28163473625E+03  0.28802720287E+03  0.00000000000E+00 0. -1.
         21    1    1    2  505  503  0.13880749145E+00  0.31123495548E+02 -0.40201389951E+02  0.50841351247E+02  0.00000000000E+00 0. -1.
         -3    1    1    2    0  505 -0.15162613447E+03  0.92427291771E+02 -0.22208587896E+03  0.28435088632E+03  0.00000000000E+00 0. -1.
<scales pt_clust_3="205.44784" pt_clust_4="60.34521" pt_clust_5="30.61041" pt_clust_6="30.61041"></scales>
<clustering>
<clus scale="   30.610">  5  6 -1 -1</clus>
<clus scale="   60.345">  2  4  1 -1</clus>
<clus scale="  205.448">  2  3  1 -1</clus>
<clus scale="   60.345">  2  3  1 -1</clus>
</clustering>
</event>
<event>
 6    0  0.2839294E+002  0.1334726E+03  0.7546771E-02  0.1222392E+00
          2   -1    0    0  504    0 -0.00000000000E+00  0.00000000000E+00  0.25035391390E+03  0.25035391390E+03  0.00000000000E+00 0. -1.
         21   -1    0    0  505  502  0.00000000000E+00 -0.00000000000E+00 -0.76489756517E+03  0.76489756517E+03  0.00000000000E+00 0.  1.
         21    1    1    2  503  501  0.14841454849E+03  0.45247734986E+02 -0.21131402174E+03  0.26215997312E+03  0.00000000000E+00 0.  1.
         21    1    1    2  504  502 -0.41453503543E+02 -0.32490811466E+02  0.41221786491E+02  0.66882594651E+02  0.00000000000E+00 0. -1.
         21    1    1    2  505  503 -0.11392767897E+02 -0.39347365917E+02 -0.50002500974E+03  0.50170013029E+03  0.00000000000E+00 0.  1.
          2    1    1    2  501    0 -0.95568277053E+02  0.26590442398E+02  0.15557359372E+03  0.18450878101E+03  0.00000000000E+00 0. -1.
<scales pt_clust_3="133.47264" pt_clust_4="54.29690" pt_clust_5="40.96352" pt_clust_6="14000.00000"></scales>
<clustering>
<clus scale="   40.964">  2  5  1 -1</clus>
<clus scale="   54.297">  1  4  2 -1</clus>
<clus scale="  133.473">  2  3  1 -1</clus>
<clus scale="   40.964">  2  3  1 -1</clus>
</clustering>
</event>
<event>
 6    0  0.2839294E+002  0.1761252E+03  0.7546771E-02  0.1171607E+00
         -4   -1    0    0    0  501 -0.00000000000E+00  0.00000000000E+00  0.17241207140E+03  0.17241207140E+03  0.00000000000E+00 0.  1.
         21   -1    0    0  504  502  0.00000000000E+00 -0.00000000000E+00 -0.70567045261E+03  0.70567045261E+03  0.00000000000E+00 0.  1.
         21    1    1    2  503  505  0.68881976725E+02  0.20889291818E+02  0.26024185440E+01  0.72026813149E+02  0.00000000000E+00 0. -1.
         21    1    1    2  504  501 -0.13921513802E+03 -0.13693687408E+03 -0.30251859888E+03  0.36006952774E+03  0.00000000000E+00 0.  1.
         21    1    1    2  505  502  0.17966661640E+01  0.63951450332E+02 -0.31851956405E+03  0.32488109932E+03  0.00000000000E+00 0.  1.
         -4    1    1    2    0  503  0.68536495136E+02  0.52096131927E+02  0.85177363179E+02  0.12110508381E+03  0.00000000000E+00 0.  1.
<scales pt_clust_3="67.29462" pt_clust_4="160.11289" pt_clust_5="63.97668" pt_clust_6="67.29462"></scales>
<clustering>
<clus scale="   63.977">  2  5  1 -1</clus>
<clus scale="   67.295">  3  6 -1 -1</clus>
<clus scale="  160.113">  2  4  1 -1</clus>
<clus scale="   63.977">  2  3  1 -1</clus>
</clustering>
</event>
<event>
 6    0  0.2839294E+002  0.1754309E+03  0.7546771E-02  0.1172300E+00
         21   -1    0    0  505  502  0.00000000000E+00  0.00000000000E+00  0.75996065347E+02  0.75996065347E+02  0.00000000000E+00 0. -1.
          2   -1    0    0  504    0 -0.00000000000E+00 -0.00000000000E+00 -0.96841328944E+03  0.96841328944E+03  0.00000000000E+00 0. -1.
         21    1    1    2  503  502  0.13425505012E+03 -0.10724532247E+03 -0.64163394317E+02  0.18342006119E+03  0.00000000000E+00 0. -1.
         21    1    1    2  504  503 -0.70240152198E+02 -0.26207352908E+02 -0.29761651381E+03  0.30691382116E+03  0.00000000000E+00 0. -1.
         21    1    1    2  505  501 -0.37526249545E+02  0.10000745985E+03 -0.27712651465E+03  0.29699969116E+03  0.00000000000E+00 0. -1.
          2    1    1    2  501    0 -0.26488648382E+02  0.33445215527E+02 -0.25351080132E+03  0.25707578128E+03  0.00000000000E+00 0. -1.
<scales pt_clust_3="165.10557" pt_clust_4="74.97002" pt_clust_5="37.47540" pt_clust_6="37.47540"></scales>
<clustering>
<clus scale="   37.475">  5  6 -1 -1</clus>
<clus scale="   74.970">  2  4  1 -1</clus>
<clus scale="  165.106">  1  3  2 -1</clus>
<clus scale="  165.106">  1  3  2 -1</clus>
</clustering>
</event>
<event>
 6    0  0.2839294E+002  0.1385918E+03  0.7546771E-02  0.1215236E+00
         21   -1    0    0  503  502  0.00000000000E+00  0.00000000000E+00  0.98629362142E+03  0.98629362142E+03  0.00000000000E+00 0.  1.
         -1   -1    0    0    0  501 -0.00000000000E+00 -0.00000000000E+00 -0.15327312789E+04  0.15327312789E+04  0.00000000000E+00 0.  1.
         21    1    1    2  503  505  0.13954755584E+03 -0.14203682228E+02  0.45694506018E+03  0.47798959502E+03  0.00000000000E+00 0.  1.
         21    1    1    2  504  502 -0.81920151023E+01 -0.30261924419E+02  0.50425083416E+03  0.50522450152E+03  0.00000000000E+00 0.  1.
         21    1    1    2  505  501  0.11028013753E+02  0.46989514721E+02 -0.44143319741E+02  0.65408441800E+02  0.00000000000E+00 0. -1.
         -1    1    1    2    0  504 -0.14238355449E+03 -0.25239080739E+01 -0.14634902321E+04  0.14704023620E+04  0.00000000000E+00 0.  1.
<scales pt_clust_3="138.59178" pt_clust_4="31.35113" pt_clust_5="47.57444" pt_clust_6="14000.00000"></scales>
<clustering>
<clus scale="   31.351">  1  4  2 -1</clus>
<clus scale="   47.574">  2  5  1 -1</clus>
<clus scale="  138.592">  1  3  2 -1</clus>
<clus scale="   31.351">  1  3  2 -1</clus>
</clustering>
</event>
<event>
 6    0  0.2839294E+002  0.1321909E+03  0.7546771E-02  0.1224241E+00
          2   -1    0    0  503    0 -0.00000000000E+00  0.00000000000E+00  0.15526969542E+04  0.15526969542E+04  0.00000000000E+00 0.  1.
         21   -1    0    0  505  502  0.00000000000E+00 -0.00000000000E+00 -0.15795231154E+03  0.15795231154E+03  0.00000000000E+00 0. -1.
         21    1    1    2  503  504 -0.37496978989E+02 -0.35595920177E+02  0.30360298518E+03  0.30797380664E+03  0.00000000000E+00 0. -1.
         21    1    1    2  504  502 -0.44827564825E+02  0.58752407642E+00  0.18812497740E+03  0.19339302696E+03  0.00000000000E+00 0. -1.
         21    1    1    2  505  501 -0.14718132445E+02  0.13207386838E+03 -0.11882241798E+03  0.17826636572E+03  0.00000000000E+00 0. -1.
          2    1    1    2  501    0  0.97042676259E+02 -0.97065472280E+02  0.10218390981E+04  0.10310160664E+04  0.00000000000E+00 0.  1.
<scales pt_clust_3="97.83820" pt_clust_4="36.88958" pt_clust_5="132.19087" pt_clust_6="14000.00000"></scales>
<clustering>
<clus scale="   36.890">  3  4 -1 -1</clus>
<clus scale="   97.838">  1  3  2 -1</clus>
<clus scale="  132.191">  2  5  1 -1</clus>
<clus scale="  132.191">  2  3  1 -1</clus>
</clustering>
</event>
<event>
 6    0  0.2839294E+002  0.5769734E+02  0.7546771E-02  0.1407757E+00
         21   -1    0    0  503  502  0.00000000000E+00  0.00000000000E+00  0.49964870793E+03  0.49964870793E+03  0.00000000000E+00 0. -1.
          2   -1    0    0  504    0 -0.00000000000E+00 -0.00000000000E+00 -0.29656410299E+04  0.29656410299E+04  0.00000000000E+00 0.  1.
         21    1    1    2  503  501 -0.75227831988E+02  0.87121896484E+02 -0.17356207959E+04  0.17394335281E+04  0.00000000000E+00 0.  1.
         21    1    1    2  504  505  0.20052664040E+01 -0.40862370831E+02 -0.28211571607E+03  0.28506671447E+03  0.00000000000E+00 0.  1.
         21    1    1    2  505  502  0.18374651655E+02 -0.54643517748E+02  0.49377351109E+03  0.49712757126E+03  0.00000000000E+00 0. -1.
          2    1    1    2  501    0  0.54847913929E+02  0.83839920954E+01 -0.94202932108E+03  0.94366192398E+03  0.00000000000E+00 0.  1.
<scales pt_clust_3="14000.00000" pt_clust_4="40.91154" pt_clust_5="57.69734" pt_clust_6="55.87385"></scales>
<clustering>
<clus scale="   40.912">  2  4  1 -1</clus>
<clus scale="   55.874">  2  6  1 -1</clus>
<clus scale="   57.697">  1  5  2 -1</clus>
<clus scale="   57.697">  1  3  2 -1</clus>
</clustering>
</event>
<event>
 6    0  0.2839294E+002  0.2342265E+03  0.7546771E-02  0.1123700E+00
         21   -1    0    0  505  502  0.00000000000E+00  0.00000000000E+00  0.18534180921E+03  0.18534180921E+03  0.00000000000E+00 0. -1.
          1   -1    0    0  504    0 -0.00000000000E+00 -0.00000000000E+00 -0.93212066031E+03  0.93212066031E+03  0.00000000000E+00 0. -1.
         21    1    1    2  503  502 -0.26942108805E+03 -0.90922930054E+02 -0.16038525256E+03  0.32646306243E+03  0.00000000000E+00 0. -1.
         21    1    1    2  504  503 -0.51826881615E+02  0.11370912353E+02 -0.10566857231E+03  0.11824199964E+03  0.00000000000E+00 0. -1.
         21    1    1    2  505  501  0.10399556898E+03 -0.29975670657E+02  0.25418047534E+02  0.11117417119E+03  0.00000000000E+00 0. -1.
          1    1    1    2  501    0  0.21725240068E+03  0.10952768836E+03 -0.50614307378E+03  0.56158323626E+03  0.00000000000E+00 0. -1.
<scales pt_clust_3="234.22651" pt_clust_4="53.05962" pt_clust_5="105.46148" pt_clust_6="14000.00000"></scales>
<clustering>
<clus scale="   53.060">  2  4  1 -1</clus>
<clus scale="  105.461">  1  5  2 -1</clus>
<clus scale="  234.227">  1  3  2 -1</clus>
<clus scale="  105.461">  1  3  2 -1</clus>
</clustering>
</event>
<event>
 6    0  0.2839294E+002  0.1421246E+03  0.7546771E-02  0.1210498E+00
         21   -1    0    0  501  502  0.00000000000E+00  0.00000000000E+00  0.10188841634E+03  0.10188841634E+03  0.00000000000E+00 0.  1.
          2   -1    0    0  504    0 -0.00000000000E+00 -0.00000000000E+00 -0.12793570141E+04  0.12793570141E+04  0.00000000000E+00 0.  1.
         21    1    1    2  503  502 -0.26269120471E+01  0.12303841694E+03  0.42988687397E+02  0.13035865892E+03  0.00000000000E+00 0.  1.
         21    1    1    2  504  505 -0.97990788063E+01 -0.13081174621E+03 -0.38949874319E+03  0.41099514089E+03  0.00000000000E+00 0.  1.
         21    1    1    2  505  503  0.33710242366E+02 -0.37577024898E+02 -0.17816861270E+03  0.18518225561E+03  0.00000000000E+00 0. -1.
          2    1    1    2  501    0 -0.21284251513E+02  0.45350354163E+02 -0.65278992923E+03  0.65470937498E+03  0.00000000000E+00 0.  1.
<scales pt_clust_3="126.27215" pt_clust_4="40.46439" pt_clust_5="40.46439" pt_clust_6="50.09665"></scales>
<clustering>
<clus scale="   40.464">  4  5 -1 -1</clus>
<clus scale="   50.097">  2  6  1 -1</clus>
<clus scale="  126.272">  1  3  2 -1</clus>
<clus scale="  126.272">  1  3  2 -1</clus>
</clustering>
</event>
<event>
 6    0  0.2839294E+002  0.8813696E+02  0.7546771E-02  0.1307427E+00
         21   -1    0    0  504  502  0.00000000000E+00  0.00000000000E+00  0.61633126173E+03  0.61633126173E+03  0.00000000000E+00 0.  1.
          2   -1    0    0  505    0 -0.00000000000E+00 -0.00000000000E+00 -0.89778968290E+03  0.89778968290E+03  0.00000000000E+00 0.  1.
         21    1    1    2  503  501  0.24000824900E+02  0.24460030974E+02 -0.20210915355E+03  0.20499376249E+03  0.00000000000E+00 0.  1.
         21    1    1    2  504  503  0.52533349491E+02  0.50923987826E+02  0.11147662924E+03  0.13334183219E+03  0.00000000000E+00 0.  1.
         21    1    1    2  505  502 -0.11409070017E+03 -0.10062066143E+03  0.47995203312E+03  0.50348302799E+03  0.00000000000E+00 0.  1.
          2    1    1    2  501    0  0.37556525781E+02  0.25236642633E+02 -0.67077792999E+03  0.67230232196E+03  0.00000000000E+00 0.  1.
<scales pt_clust_3="33.22395" pt_clust_4="73.16424" pt_clust_5="79.43948" pt_clust_6="33.22395"></scales>
<clustering>
<clus scale="   33.224">  3  6 -1 -1</clus>
<clus scale="   73.164">  1  4  2 -1</clus>
<clus scale="   79.439">  1  5  2 -1</clus>
<clus scale="   73.164">  1  3  2 -1</clus>
</clustering>
</event>
<event>
 6    0  0.2839294E+002  0.1257296E+03  0.7546771E-02  0.1233933E+00
         21   -1    0    0  503  502  0.00000000000E+00  0.00000000000E+00  0.25313219926E+02  0.25313219926E+02  0.00000000000E+00 0. -1.
          2   -1    0    0  504    0 -0.00000000000E+00 -0.00000000000E+00 -0.16245484733E+04  0.16245484733E+04  0.00000000000E+00 0.  1.
         21    1    1    2  503  505 -0.53723934920E+02 -0.74626933804E+02 -0.12067377118E+03  0.15171552156E+03  0.00000000000E+00 0. -1.
         21    1    1    2  504  502  0.55987838023E+02  0.75562489615E+02 -0.72886705825E+03  0.73490918925E+03  0.00000000000E+00 0.  1.
         21    1    1    2  505  501  0.78643987430E+01 -0.39081044645E+02 -0.57778628303E+02  0.70196486427E+02  0.00000000000E+00 0. -1.
          2    1    1    2  501    0 -0.10128301846E+02  0.38145488835E+02 -0.69191579564E+03  0.69304049598E+03  0.00000000000E+00 0.  1.
<scales pt_clust_3="32.03431" pt_clust_4="115.93466" pt_clust_5="32.03431" pt_clust_6="39.46721"></scales>
<clustering>
<clus scale="   32.034">  3  5 -1 -1</clus>
<clus scale="   39.467">  2  6  1 -1</clus>
<clus scale="  115.935">  2  4  1 -1</clus>
<clus scale="  125.730">  1  3  2 -1</clus>
</clustering>
</event>
<event>
 6    0  0.2839294E+002  0.7664795E+02  0.7546771E-02  0.1338843E+00
         21   -1    0    0  501  502  0.00000000000E+00  0.00000000000E+00  0.12965410128E+03  0.12965410128E+03  0.00000000000E+00 0.  1.
          3   -1    0    0  504    0 -0.00000000000E+00 -0.00000000000E+00 -0.45081944836E+03  0.45081944836E+03  0.00000000000E+00 0. -1.
         21    1    1    2  503  505  0.82155300757E+02 -0.58934761762E+00 -0.63148284479E+02  0.10362213376E+03  0.00000000000E+00 0. -1.
         21    1    1    2  504  503 -0.48898150836E+02  0.27967172824E+00 -0.10529469987E+03  0.11609513854E+03  0.00000000000E+00 0. -1.
         21    1    1    2  505  502  0.33636222651E+00  0.56100259986E+02  0.91868669150E+02  0.10764387898E+03  0.00000000000E+00 0.  1.
          3    1    1    2  501    0 -0.33593512148E+02 -0.55790584097E+02 -0.24459103188E+03  0.25311239837E+03  0.00000000000E+00 0. -1.
<scales pt_clust_3="76.64795" pt_clust_4="48.89895" pt_clust_5="56.11241" pt_clust_6="14000.00000"></scales>
<clustering>
<clus scale="   48.899">  2  4  1 -1</clus>
<clus scale="   56.112">  1  5  2 -1</clus>
<clus scale="   76.648">  1  3  2 -1</clus>
<clus scale="   56.112">  1  3  2 -1</clus>
</clustering>
</event>
<event>
 6    0  0.2839294E+002  0.1228407E+03  0.7546771E-02  0.1238483E+00
          2   -1    0    0  503    0 -0.00000000000E+00  0.00000000000E+00  0.16771809679E+04  0.16771809679E+04  0.00000000000E+00 0. -1.
         21   -1    0    0  505  502  0.00000000000E+00 -0.00000000000E+00 -0.62483705006E+02  0.62483705006E+02  0.00000000000E+00 0. -1.
         21    1    1    2  503  504  0.15595356192E+01 -0.52971314925E+02  0.18551793583E+03  0.19293858316E+03  0.00000000000E+00 0. -1.
         21    1    1    2  504  502 -0.16789862774E+02  0.38034385667E+02  0.58618954759E+01  0.41986614576E+02  0.00000000000E+00 0. -1.
         21    1    1    2  505  501  0.10780447279E+03  0.51102413815E+02  0.52533610573E+02  0.13035735994E+03  0.00000000000E+00 0. -1.
          2    1    1    2  501    0 -0.92574145632E+02 -0.36165484556E+02  0.13707838211E+04  0.13743821153E+04  0.00000000000E+00 0. -1.
<scales pt_clust_3="49.79471" pt_clust_4="41.57540" pt_clust_5="122.84069" pt_clust_6="14000.00000"></scales>
<clustering>
<clus scale="   41.575">  2  4  1 -1</clus>
<clus scale="   49.795">  1  3  2 -1</clus>
<clus scale="  122.841">  2  5  1 -1</clus>
<clus scale="   41.575">  2  3  1 -1</clus>
</clustering>
</event>
<event>
 6    0  0.2839294E+002  0.9687399E+02  0.7546771E-02  0.1287010E+00
         21   -1    0    0  505  502  0.00000000000E+00  0.00000000000E+00  0.27034254981E+03  0.27034254981E+03  0.00000000000E+00 0. -1.
          2   -1    0    0  503    0 -0.00000000000E+00 -0.00000000000E+00 -0.31633577136E+03  0.31633577136E+03  0.00000000000E+00 0.  1.
         21    1    1    2  503  502  0.45539560295E+02  0.23021070356E+01 -0.38447983079E+02  0.59643932228E+02  0.00000000000E+00 0. -1.
         21    1    1    2  504  501 -0.78084147470E+02 -0.46506918385E+02  0.15534923570E+03  0.17998170067E+03  0.00000000000E+00 0. -1.
         21    1    1    2  505  504  0.35613017181E+02 -0.45823453682E+02  0.73748090283E+02  0.93844854524E+02  0.00000000000E+00 0.  1.
          2    1    1    2  501    0 -0.30684300065E+01  0.90028265031E+02 -0.23664256445E+03  0.25320783376E+03  0.00000000000E+00 0.  1.
<scales pt_clust_3="45.59771" pt_clust_4="14000.00000" pt_clust_5="59.03407" pt_clust_6="96.87399"></scales>
<clustering>
<clus scale="   45.598">  2  3  1 -1</clus>
<clus scale="   59.034">  1  5  2 -1</clus>
<clus scale="   96.874">  2  6  1 -1</clus>
<clus scale="   59.034">  1  3  2 -1</clus>
</clustering>
</event>
<event>
 6    0  0.2839294E+002  0.9090564E+02  0.7546771E-02  0.1300673E+00
         21   -1    0    0  501  502  0.00000000000E+00  0.00000000000E+00  0.44190965564E+02  0.44190965564E+02  0.00000000000E+00 0.  1.
          2   -1    0    0  504    0 -0.00000000000E+00 -0.00000000000E+00 -0.12415658914E+04  0.12415658914E+04  0.00000000000E+00 0.  1.
         21    1    1    2  503  502  0.73612334518E+02  0.42619796539E+02 -0.27852656310E+02  0.89504152494E+02  0.00000000000E+00 0.  1.
         21    1    1    2  504  505  0.25761189038E+02  0.22216359766E+02 -0.19459855463E+03  0.19754949497E+03  0.00000000000E+00 0. -1.
         21    1    1    2  505  503 -0.14063220437E+03 -0.35522564678E+02 -0.48646101893E+03  0.50762544504E+03  0.00000000000E+00 0. -1.
          2    1    1    2  501    0  0.41258680812E+02 -0.29313591627E+02 -0.48846269602E+03  0.49107776451E+03  0.00000000000E+00 0.  1.
<scales pt_clust_3="14000.00000" pt_clust_4="34.01772" pt_clust_5="90.90564" pt_clust_6="56.57900"></scales>
<clustering>
<clus scale="   34.018">  2  4  1 -1</clus>
<clus scale="   56.579">  2  6  1 -1</clus>
<clus scale="   90.906">  2  5  1 -1</clus>
<clus scale="   90.906">  1  3  2 -1</clus>
</clustering>
</event>
<event>
 6    0  0.2839294E+002  0.1291154E+03  0.7546771E-02  0.1228774E+00
         21   -1    0    0  504  502  0.00000000000E+00  0.00000000000E+00  0.92240694135E+02  0.92240694135E+02  0.00000000000E+00 0. -1.
         -2   -1    0    0    0  501 -0.00000000000E+00 -0.00000000000E+00 -0.67876762964E+03  0.67876762964E+03  0.00000000000E+00 0. -1.
         21    1    1    2  503  501  0.18220062899E+03 -0.17721088318E+02 -0.14486997691E+03  0.23344895885E+03  0.00000000000E+00 0. -1.
         21    1    1    2  504  505 -0.47058519664E+02  0.89670960135E+01 -0.44221563455E+02  0.65195550142E+02  0.00000000000E+00 0. -1.
         21    1    1    2  505  503 -0.21582192220E+02  0.50661200133E+02  0.18862891556E+01  0.55099059036E+02  0.00000000000E+00 0.  1.
         -2    1    1    2    0  502 -0.11355991711E+03 -0.41907207828E+02 -0.39932168430E+03  0.41726475575E+03  0.00000000000E+00 0. -1.
<scales pt_clust_3="14000.00000" pt_clust_4="47.90525" pt_clust_5="65.84589" pt_clust_6="129.11543"></scales>
<clustering>
<clus scale="   47.905">  1  4  2 -1</clus>
<clus scale="   65.846">  1  5  2 -1</clus>
<clus scale="  129.115">  2  6  1 -1</clus>
<clus scale="   47.905">  1  3  2 -1</clus>
</clustering>
</event>
<event>
 6    0  0.2839294E+002  0.1234837E+03  0.7546771E-02  0.1237458E+00
         21   -1    0    0  504  502  0.00000000000E+00  0.00000000000E+00  0.56601818865E+03  0.56601818865E+03  0.00000000000E+00 0.  1.
          2   -1    0    0  505    0 -0.00000000000E+00 -0.00000000000E+00 -0.11943715983E+03  0.11943715983E+03  0.00000000000E+00 0. -1.
         21    1    1    2  503  502 -0.64658630474E+02  0.18248073444E+02  0.23619458051E+03  0.24556386245E+03  0.00000000000E+00 0.  1.
         21    1    1    2  504  501  0.36425372491E+02 -0.12473176547E+02  0.17178899666E+03  0.17605069516E+03  0.00000000000E+00 0.  1.
         21    1    1    2  505  503 -0.51970571039E+02  0.97674663751E+02  0.67749233763E+02  0.12973526455E+03  0.00000000000E+00 0.  1.
          2    1    1    2  501    0  0.80203829022E+02 -0.10344956065E+03 -0.29151782115E+02  0.13410552632E+03  0.00000000000E+00 0. -1.
<scales pt_clust_3="43.58622" pt_clust_4="38.50179" pt_clust_5="123.48370" pt_clust_6="14000.00000"></scales>
<clustering>
<clus scale="   38.502">  1  4  2 -1</clus>
<clus scale="   43.586">  1  3  2 -1</clus>
<clus scale="  123.484">  1  5  2 -1</clus>
<clus scale="   38.502">  1  3  2 -1</clus>
</clustering>
</event>
<event>
 6    0  0.2839294E+002  0.1592360E+03  0.7546771E-02  0.1189562E+00
         21   -1    0    0  505  502  0.00000000000E+00  0.00000000000E+00  0.19536013181E+02  0.19536013181E+02  0.00000000000E+00 0.  1.
          1   -1    0    0  502    0 -0.00000000000E+00 -0.00000000000E+00 -0.25933629322E+04  0.25933629322E+04  0.00000000000E+00 0.  1.
         21    1    1    2  503  501 -0.18130806905E+03 -0.21469897770E+02 -0.93317517448E+03  0.95086775036E+03  0.00000000000E+00 0.  1.
         21    1    1    2  504  503  0.46941497125E+02 -0.15257236962E+02 -0.30226161476E+03  0.30626519748E+03  0.00000000000E+00 0. -1.
         21    1    1    2  505  504  0.84573565319E+02 -0.12636005816E+02 -0.23370758918E+03  0.24886059116E+03  0.00000000000E+00 0.  1.
          1    1    1    2  501    0  0.49793006604E+02  0.49363140547E+02 -0.11046825406E+04  0.11069054064E+04  0.00000000000E+00 0.  1.
<scales pt_clust_3="150.09564" pt_clust_4="40.39821" pt_clust_5="40.39821" pt_clust_6="70.11464"></scales>
<clustering>
<clus scale="   40.398">  4  5 -1 -1</clus>
<clus scale="   70.115">  2  6  1 -1</clus>
<clus scale="  150.096">  2  3  1 -1</clus>
<clus scale="  159.236">  1  3  2 -1</clus>
</clustering>
</event>
<event>
 6    0  0.2839294E+002  0.8496348E+02  0.7546771E-02  0.1315528E+00
          1   -1    0    0  502    0 -0.00000000000E+00  0.00000000000E+00  0.10858357524E+04  0.10858357524E+04  0.00000000000E+00 0.  1.
         21   -1    0    0  503  502  0.00000000000E+00 -0.00000000000E+00 -0.14436186882E+03  0.14436186882E+03  0.00000000000E+00 0. -1.
         21    1    1    2  503  505 -0.13852353423E+02 -0.36495537055E+02 -0.78970070671E+02  0.88091338859E+02  0.00000000000E+00 0. -1.
         21    1    1    2  504  501 -0.27628907870E+02 -0.53296265066E+02  0.16502902525E+03  0.17560873439E+03  0.00000000000E+00 0.  1.
         21    1    1    2  505  504 -0.45174516549E+02  0.35537625355E+02 -0.36927280774E+02  0.68317522106E+02  0.00000000000E+00 0. -1.
          1    1    1    2  501    0  0.86655777842E+02  0.54254176765E+02  0.89234220973E+03  0.89818002582E+03  0.00000000000E+00 0.  1.
<scales pt_clust_3="39.03603" pt_clust_4="14000.00000" pt_clust_5="57.29508" pt_clust_6="84.96348"></scales>
<clustering>
<clus scale="   39.036">  2  3  1 -1</clus>
<clus scale="   57.295">  2  5  1 -1</clus>
<clus scale="   84.963">  1  6  2 -1</clus>
<clus scale="   39.036">  2  3  1 -1</clus>
</clustering>
</event>
<event>
 6    0  0.2839294E+002  0.2539338E+03  0.7546771E-02  0.1110844E+00
         21   -1    0    0  505  502  0.00000000000E+00  0.00000000000E+00  0.81123424297E+03  0.81123424297E+03  0.00000000000E+00 0. -1.
          1   -1    0    0  503    0 -0.00000000000E+00 -0.00000000000E+00 -0.17550530567E+03  0.17550530567E+03  0.00000000000E+00 0. -1.
         21    1    1    2  503  502 -0.22123130656E+03  0.16119117026E+03  0.62117665381E+03  0.67881243330E+03  0.00000000000E+00 0. -1.
         21    1    1    2  504  501  0.14289191125E+03 -0.12295089968E+03 -0.92882965387E+01  0.18873604448E+03  0.00000000000E+00 0. -1.
         21    1    1    2  505  504  0.22547056388E+02 -0.20335760217E+02  0.47190873151E+02  0.56114983776E+02  0.00000000000E+00 0. -1.
          1    1    1    2  501    0  0.55792338919E+02 -0.17904510366E+02 -0.23350293119E+02  0.63076087087E+02  0.00000000000E+00 0. -1.
<scales pt_clust_3="247.89914" pt_clust_4="30.58086" pt_clust_5="30.36302" pt_clust_6="30.58086"></scales>
<clustering>
<clus scale="   30.363">  1  5  2 -1</clus>
<clus scale="   30.581">  4  6 -1 -1</clus>
<clus scale="  247.899">  1  3  2 -1</clus>
<clus scale="   30.363">  1  3  2 -1</clus>
</clustering>
</event>
<event>
 6    0  0.2839294E+002  0.8159576E+02  0.7546771E-02  0.1324583E+00
          1   -1    0    0  505    0 -0.00000000000E+00  0.00000000000E+00  0.54234928513E+03  0.54234928513E+03  0.00000000000E+00 0.  1.
         21   -1    0    0  501  502  0.00000000000E+00 -0.00000000000E+00 -0.40849763528E+03  0.40849763528E+03  0.00000000000E+00 0. -1.
         21    1    1    2  503  502  0.20473094392E+02 -0.38191774506E+02 -0.28238812302E+03  0.28569356181E+03  0.00000000000E+00 0. -1.
         21    1    1    2  504  503  0.37399377749E+02 -0.25202841322E+02 -0.95746967816E+02  0.10583656510E+03  0.00000000000E+00 0. -1.
         21    1    1    2  505  504 -0.49292870473E+02  0.12036608573E+03  0.17834279758E+03  0.22073498844E+03  0.00000000000E+00 0.  1.
          1    1    1    2  501    0 -0.85796016680E+01 -0.56971469906E+02  0.33364394310E+03  0.33858180506E+03  0.00000000000E+00 0.  1.
<scales pt_clust_3="43.33312" pt_clust_4="81.59576" pt_clust_5="14000.00000" pt_clust_6="58.30485"></scales>
<clustering>
<clus scale="   43.333">  2  3  1 -1</clus>
<clus scale="   58.305">  1  6  2 -1</clus>
<clus scale="   81.596">  2  4  1 -1</clus>
<clus scale="   43.333">  2  3  1 -1</clus>
</clustering>
</event>
<event>
 6    0  0.2839294E+002  0.1277329E+03  0.7546771E-02  0.1230859E+00
          2   -1    0    0  505    0 -0.00000000000E+00  0.00000000000E+00  0.10644275858E+04  0.10644275858E+04  0.00000000000E+00 0.  1.
         21   -1    0    0  501  502  0.00000000000E+00 -0.00000000000E+00 -0.17274952511E+03  0.17274952511E+03  0.00000000000E+00 0.  1.
         21    1    1    2  503  504  0.53113024171E+02  0.83648687929E+01 -0.87492288542E+02  0.10269306170E+03  0.00000000000E+00 0. -1.
         21    1    1    2  504  502  0.70416162454E+02 -0.46935718294E+01 -0.51213740743E+02  0.87196976967E+02  0.00000000000E+00 0.  1.
         21    1    1    2  505  503 -0.53681222246E+02 -0.68585708461E+02  0.37365197660E+03  0.38366844103E+03  0.00000000000E+00 0.  1.
          2    1    1    2  501    0 -0.69847964379E+02  0.64914411498E+02  0.65673211335E+03  0.66361863118E+03  0.00000000000E+00 0.  1.
<scales pt_clust_3="34.31923" pt_clust_4="34.31923" pt_clust_5="87.09577" pt_clust_6="121.53095"></scales>
<clustering>
<clus scale="   34.319">  3  4 -1 -1</clus>
<clus scale="   87.096">  1  5  2 -1</clus>
<clus scale="  121.531">  1  6  2 -1</clus>
<clus scale="  127.733">  2  3  1 -1</clus>
</clustering>
</event>
<event>
 6    0  0.2839294E+002  0.7178707E+02  0.7546771E-02  0.1354119E+00
         21   -1    0    0  504  502  0.00000000000E+00  0.00000000000E+00  0.11909064436E+04  0.11909064436E+04  0.00000000000E+00 0.  1.
          2   -1    0    0  503    0 -0.00000000000E+00 -0.00000000000E+00 -0.25775398669E+04  0.25775398669E+04  0.00000000000E+00 0. -1.
         21    1    1    2  503  505  0.31662908351E+01 -0.73846256036E+02 -0.19126279180E+04  0.19140556020E+04  0.00000000000E+00 0. -1.
         21    1    1    2  504  501 -0.13207740736E+02 -0.69205569291E+02  0.11680120664E+04  0.11701350531E+04  0.00000000000E+00 0.  1.
         21    1    1    2  505  502  0.47709912941E+02  0.81877772652E+02 -0.10102741322E+03  0.13851622169E+03  0.00000000000E+00 0. -1.
          2    1    1    2  501    0 -0.37668463041E+02  0.61174052674E+02 -0.54099015855E+03  0.54573943368E+03  0.00000000000E+00 0. -1.
<scales pt_clust_3="14000.00000" pt_clust_4="70.45463" pt_clust_5="42.74761" pt_clust_6="71.78707"></scales>
<clustering>
<clus scale="   70.455">  1  4  2 -1</clus>
<clus scale="   42.748">  1  5  2 -1</clus>
<clus scale="   71.787">  1  6  2 -1</clus>
<clus scale="   70.455">  1  3  2 -1</clus>
</clustering>
</event>
<event>
 6    0  0.2839294E+002  0.1119962E+03  0.7546771E-02  0.1256917E+00
         21   -1    0    0  501  502  0.00000000000E+00  0.00000000000E+00  0.11370616530E+03  0.11370616530E+03  0.00000000000E+00 0. -1.
          1   -1    0    0  503    0 -0.00000000000E+00 -0.00000000000E+00 -0.24583567500E+04  0.24583567500E+04  0.00000000000E+00 0.  1.
         21    1    1    2  503  504  0.29552294279E+02 -0.16380882103E+02 -0.79170009854E+03  0.79242079568E+03  0.00000000000E+00 0. -1.
         21    1    1    2  504  505  0.74322682806E+02  0.14318290965E+03 -0.23225879782E+03  0.28278853577E+03  0.00000000000E+00 0. -1.
         21    1    1    2  505  502 -0.47338398417E+02 -0.94678052195E+02  0.55230698162E+02  0.11939550893E+03  0.00000000000E+00 0. -1.
          1    1    1    2  501    0 -0.56536578667E+02 -0.32123975354E+02 -0.13759223865E+04  0.13774580750E+04  0.00000000000E+00 0.  1.
<scales pt_clust_3="33.78863" pt_clust_4="111.99625" pt_clust_5="14000.00000" pt_clust_6="55.82442"></scales>
<clustering>
<clus scale="   33.789">  2  3  1 -1</clus>
<clus scale="   55.824">  2  6  1 -1</clus>
<clus scale="  111.996">  2  4  1 -1</clus>
<clus scale="  111.996">  1  3  2 -1</clus>
</clustering>
</event>
<event>
 6    0  0.2839294E+002  0.7064168E+02  0.7546771E-02  0.1357924E+00
         21   -1    0    0  503  502  0.00000000000E+00  0.00000000000E+00  0.55605919430E+03  0.55605919430E+03  0.00000000000E+00 0.  1.
          1   -1    0    0  505    0 -0.00000000000E+00 -0.00000000000E+00 -0.26775591068E+03  0.26775591068E+03  0.00000000000E+00 0.  1.
         21    1    1    2  503  501 -0.15453273746E+02 -0.84876633070E+02 -0.16209569612E+03  0.18362423917E+03  0.00000000000E+00 0.  1.
         21    1    1    2  504  502  0.23483673727E+02  0.66397345677E+02  0.48570551209E+03  0.49078501905E+03  0.00000000000E+00 0.  1.
         21    1    1    2  505  504  0.43148722284E+02  0.33630885857E+02  0.32097638091E+02  0.63427967722E+02  0.00000000000E+00 0.  1.
          1    1    1    2  501    0 -0.51179122265E+02 -0.15151598464E+02 -0.67404170439E+02  0.85977879041E+02  0.00000000000E+00 0.  1.
<scales pt_clust_3="70.64168" pt_clust_4="14000.00000" pt_clust_5="50.65895" pt_clust_6="53.37484"></scales>
<clustering>
<clus scale="   53.375">  2  6  1 -1</clus>
<clus scale="   50.659">  2  5  1 -1</clus>
<clus scale="   70.642">  2  3  1 -1</clus>
<clus scale="   70.642">  1  3  2 -1</clus>
</clustering>
</event>
<event>
 6    0  0.2839294E+002  0.2415799E+03  0.7546771E-02  0.1118745E+00
         21   -1    0    0  503  502  0.00000000000E+00  0.00000000000E+00  0.56979561935E+03  0.56979561935E+03  0.00000000000E+00 0.  1.
          1   -1    0    0  505    0 -0.00000000000E+00 -0.00000000000E+00 -0.91404178659E+03  0.91404178659E+03  0.00000000000E+00 0. -1.
         21    1    1    2  503  504 -0.33249141066E+02 -0.89674655530E+00  0.41150439931E+03  0.41284643657E+03  0.00000000000E+00 0.  1.
         21    1    1    2  504  501 -0.13197010344E+03  0.18702336140E+03  0.29790182505E+02  0.23082742663E+03  0.00000000000E+00 0.  1.
         21    1    1    2  505  502 -0.19681001027E+02 -0.44204314066E+02 -0.27105360232E+03  0.27533873413E+03  0.00000000000E+00 0.  1.
          1    1    1    2  501    0  0.18490024554E+03 -0.14192230078E+03 -0.51448714674E+03  0.56482480861E+03  0.00000000000E+00 0. -1.
<scales pt_clust_3="33.26123" pt_clust_4="14000.00000" pt_clust_5="48.58431" pt_clust_6="241.57989"></scales>
<clustering>
<clus scale="   33.261">  1  3  2 -1</clus>
<clus scale="   48.584">  2  5  1 -1</clus>
<clus scale="  241.580">  2  6  1 -1</clus>
<clus scale="   33.261">  1  3  2 -1</clus>
</clustering>
</event>
<event>
 6    0  0.2839294E+002  0.1196311E+03  0.7546771E-02  0.1243707E+00
         21   -1    0    0  504  502  0.00000000000E+00  0.00000000000E+00  0.12503671026E+03  0.12503671026E+03  0.00000000000E+00 0.  1.
          1   -1    0    0  505    0 -0.00000000000E+00 -0.00000000000E+00 -0.84933250403E+03  0.84933250403E+03  0.00000000000E+00 0.  1.
         21    1    1    2  503  501  0.34177935967E+02 -0.42223760503E+02 -0.26648180658E+03  0.27196236963E+03  0.00000000000E+00 0.  1.
         21    1    1    2  504  503 -0.11044927365E+03  0.61353273728E+02  0.62877316197E+02  0.14112697523E+03  0.00000000000E+00 0.  1.
         21    1    1    2  505  502  0.27569004303E+02  0.16459793310E+02  0.46879361099E+01  0.32449214768E+02  0.00000000000E+00 0.  1.
          1    1    1    2  501    0  0.48702333379E+02 -0.35589306535E+02 -0.52537923949E+03  0.52883065466E+03  0.00000000000E+00 0.  1.
<scales pt_clust_3="34.21713" pt_clust_4="114.06168" pt_clust_5="32.10880" pt_clust_6="34.21713"></scales>
<clustering>
<clus scale="   32.109">  1  5  2 -1</clus>
<clus scale="   34.217">  3  6 -1 -1</clus>
<clus scale="  114.062">  1  4  2 -1</clus>
<clus scale="   32.109">  1  3  2 -1</clus>
</clustering>
</event>
<event>
 6    0  0.2839294E+002  0.1945932E+03  0.7546771E-02  0.1154383E+00
          2   -1    0    0  503    0 -0.00000000000E+00  0.00000000000E+00  0.17031264558E+03  0.17031264558E+03  0.00000000000E+00 0.  1.
         21   -1    0    0  504  502  0.00000000000E+00 -0.00000000000E+00 -0.80954317849E+03  0.80954317849E+03  0.00000000000E+00 0.  1.
         21    1    1    2  503  505 -0.17559421819E+02 -0.63620720440E+02 -0.43526350707E+02  0.79059930242E+02  0.00000000000E+00 0.  1.
         21    1    1    2  504  501 -0.21164671200E+02  0.21299469831E+02 -0.85609517800E+02  0.90722655715E+02  0.00000000000E+00 0. -1.
         21    1    1    2  505  502  0.20484992611E+03  0.50975287730E+02 -0.58919785734E+03  0.62587226115E+03  0.00000000000E+00 0.  1.
          2    1    1    2  501    0 -0.16612583309E+03 -0.86540371205E+01  0.79103192934E+02  0.18420097696E+03  0.00000000000E+00 0.  1.
<scales pt_clust_3="64.77127" pt_clust_4="30.02683" pt_clust_5="194.59323" pt_clust_6="14000.00000"></scales>
<clustering>
<clus scale="   30.027">  2  4  1 -1</clus>
<clus scale="   64.771">  1  3  2 -1</clus>
<clus scale="  194.593">  2  5  1 -1</clus>
<clus scale="   30.027">  2  3  1 -1</clus>
</clustering>
</event>
<event>
 6    0  0.2839294E+002  0.1594739E+03  0.7546771E-02  0.1189292E+00
          3   -1    0    0  504    0 -0.00000000000E+00  0.00000000000E+00  0.59165219950E+03  0.59165219950E+03  0.00000000000E+00 0.  1.
         21   -1    0    0  505  502  0.00000000000E+00 -0.00000000000E+00 -0.75290675539E+02  0.75290675539E+02  0.00000000000E+00 0.  1.
         21    1    1    2  503  501  0.86370150468E+02 -0.17934716576E+02  0.12048155305E+03  0.14932267603E+03  0.00000000000E+00 0. -1.
         21    1    1    2  504  502 -0.37321305823E+02  0.44896059728E+02  0.11898406595E+03  0.13253582156E+03  0.00000000000E+00 0.  1.
         21    1    1    2  505  503 -0.13257231138E+03 -0.51272372441E+02  0.65534260525E+02  0.15652160625E+03  0.00000000000E+00 0.  1.
          3    1    1    2  501    0  0.83523466733E+02  0.24311029289E+02  0.21136164444E+03  0.22856277120E+03  0.00000000000E+00 0.  1.
<scales pt_clust_3="59.72786" pt_clust_4="58.38267" pt_clust_5="147.16973" pt_clust_6="59.72786"></scales>
<clustering>
<clus scale="   58.383">  1  4  2 -1</clus>
<clus scale="   59.728">  3  6 -1 -1</clus>
<clus scale="  147.170">  2  5  1 -1</clus>
<clus scale="  147.170">  2  3  1 -1</clus>
</clustering>
</event>
<event>
 6    0  0.2839294E+002  0.7678775E+02  0.7546771E-02  0.1338423E+00
         21   -1    0    0  503  502  0.00000000000E+00  0.00000000000E+00  0.72635874713E+03  0.72635874713E+03  0.00000000000E+00 0.  1.
         -1   -1    0    0    0  501 -0.00000000000E+00 -0.00000000000E+00 -0.69126352281E+03  0.69126352281E+03  0.00000000000E+00 0.  1.
         21    1    1    2  503  504  0.62750602482E+02  0.64952091876E+01  0.53282878020E+02  0.82576576246E+02  0.00000000000E+00 0. -1.
         21    1    1    2  504  501  0.14788456307E+02 -0.39702549796E+02 -0.16257261061E+02  0.45379394415E+02  0.00000000000E+00 0. -1.
         21    1    1    2  505  502 -0.96612135749E+02 -0.73448682756E+02  0.63352274791E+03  0.64504239077E+03  0.00000000000E+00 0.  1.
         -1    1    1    2    0  505  0.19073076960E+02  0.10665602336E+03 -0.63545314055E+03  0.64462390850E+03  0.00000000000E+00 0.  1.
<scales pt_clust_3="63.32796" pt_clust_4="42.36733" pt_clust_5="14000.00000" pt_clust_6="76.78775"></scales>
<clustering>
<clus scale="   42.367">  2  4  1 -1</clus>
<clus scale="   63.328">  1  3  2 -1</clus>
<clus scale="   76.788">  2  6  1 -1</clus>
<clus scale="   63.328">  1  3  2 -1</clus>
</clustering>
</event>
<event>
 6    0  0.2839294E+002  0.1384677E+03  0.7546771E-02  0.1215406E+00
          2   -1    0    0  503    0 -0.00000000000E+00  0.00000000000E+00  0.29504309041E+04  0.29504309041E+04  0.00000000000E+00 0. -1.
         21   -1    0    0  504  502  0.00000000000E+00 -0.00000000000E+00 -0.21459031999E+03  0.21459031999E+03  0.00000000000E+00 0.  1.
         21    1    1    2  503  502  0.10735172082E+03 -0.58881077586E+02 -0.18094650032E+03  0.21847885307E+03  0.00000000000E+00 0.  1.
         21    1    1    2  504  505 -0.14729723350E+02 -0.30023261540E+02  0.79058492189E+01  0.34363693564E+02  0.00000000000E+00 0. -1.
         21    1    1    2  505  501 -0.78285693222E+02  0.51101241091E+02  0.16481422503E+04  0.16507915870E+04  0.00000000000E+00 0. -1.
          2    1    1    2  501    0 -0.14336304250E+02  0.37803098036E+02  0.12607389849E+04  0.12613870904E+04  0.00000000000E+00 0. -1.
<scales pt_clust_3="128.30246" pt_clust_4="33.44190" pt_clust_5="34.23481" pt_clust_6="34.23481"></scales>
<clustering>
<clus scale="   33.442">  2  4  1 -1</clus>
<clus scale="   34.235">  5  6 -1 -1</clus>
<clus scale="  128.302">  2  3  1 -1</clus>
<clus scale="   33.442">  2  3  1 -1</clus>
</clustering>
</event>
<event>
 6    0  0.2839294E+002  0.7103650E+02  0.7546771E-02  0.1356603E+00
         21   -1    0    0  501  502  0.00000000000E+00  0.00000000000E+00  0.32643964985E+02  0.32643964985E+02  0.00000000000E+00 0. -1.
         -1   -1    0    0    0  501 -0.00000000000E+00 -0.00000000000E+00 -0.21241990741E+04  0.21241990741E+04  0.00000000000E+00 0.  1.
         21    1    1    2  503  505 -0.95517917314E+01  0.48445536094E+02 -0.90552614908E+03  0.90687144257E+03  0.00000000000E+00 0. -1.
         21    1    1    2  504  502 -0.12621304578E+02  0.65971406593E+02 -0.26076277590E+02  0.72052037238E+02  0.00000000000E+00 0. -1.
         21    1    1    2  505  504  0.55884817913E+02 -0.84762233350E+02 -0.29842084532E+03  0.31521857496E+03  0.00000000000E+00 0. -1.
         -1    1    1    2    0  503 -0.33711721603E+02 -0.29654709338E+02 -0.86153183709E+03  0.86270098428E+03  0.00000000000E+00 0.  1.
<scales pt_clust_3="43.32256" pt_clust_4="71.03650" pt_clust_5="14000.00000" pt_clust_6="44.89857"></scales>
<clustering>
<clus scale="   44.899">  2  6  1 -1</clus>
<clus scale="   43.323">  2  3  1 -1</clus>
<clus scale="   71.036">  1  4  2 -1</clus>
<clus scale="   71.036">  1  3  2 -1</clus>
</clustering>
</event>
<event>
 6    0  0.2839294E+002  0.1144566E+03  0.7546771E-02  0.1252533E+00
          1   -1    0    0  505    0 -0.00000000000E+00  0.00000000000E+00  0.25743225879E+03  0.25743225879E+03  0.00000000000E+00 0.  1.
         21   -1    0    0  504  502  0.00000000000E+00 -0.00000000000E+00 -0.36766038736E+03  0.36766038736E+03  0.00000000000E+00 0.  1.
         21    1    1    2  503  502  0.99705756968E+02 -0.22314051897E+02 -0.13385219137E+03  0.16839110433E+03  0.00000000000E+00 0.  1.
         21    1    1    2  504  501 -0.20463722725E+02  0.11796259868E+03 -0.16575502461E+03  0.20447167731E+03  0.00000000000E+00 0.  1.
         21    1    1    2  505  503 -0.51614388904E+02  0.58441220302E+01  0.26433472163E+02  0.58283165278E+02  0.00000000000E+00 0.  1.
          1    1    1    2  501    0 -0.27627645339E+02 -0.10149266882E+03  0.16294561525E+03  0.19394669923E+03  0.00000000000E+00 0.  1.
<scales pt_clust_3="98.02636" pt_clust_4="14000.00000" pt_clust_5="51.94419" pt_clust_6="114.45664"></scales>
<clustering>
<clus scale="   51.944">  1  5  2 -1</clus>
<clus scale="   98.026">  2  3  1 -1</clus>
<clus scale="  114.457">  1  6  2 -1</clus>
<clus scale="   98.026">  2  3  1 -1</clus>
</clustering>
</event>
<event>
 6    0  0.2839294E+002  0.2504409E+03  0.7546771E-02  0.1113026E+00
          1   -1    0    0  505    0 -0.00000000000E+00  0.00000000000E+00  0.76924471164E+03  0.76924471164E+03  0.00000000000E+00 0.  1.
         21   -1    0    0  503  502  0.00000000000E+00 -0.00000000000E+00 -0.80437906769E+03  0.80437906769E+03  0.00000000000E+00 0.  1.
         21    1    1    2  503  501 -0.78943261051E+02  0.23016457178E+03 -0.52043774741E+03  0.57451128579E+03  0.00000000000E+00 0.  1.
         21    1    1    2  504  502 -0.18593440419E+02 -0.28807226782E+03 -0.16494189782E+03  0.33247131781E+03  0.00000000000E+00 0.  1.
         21    1    1    2  505  504  0.33717552459E+02 -0.14054237487E+01  0.51381630502E+02  0.61472925039E+02  0.00000000000E+00 0.  1.
          1    1    1    2  501    0  0.63819149010E+02  0.59313119790E+02  0.59886365868E+03  0.60516825069E+03  0.00000000000E+00 0.  1.
<scales pt_clust_3="14000.00000" pt_clust_4="250.44095" pt_clust_5="33.74683" pt_clust_6="109.07395"></scales>
<clustering>
<clus scale="   33.747">  1  5  2 -1</clus>
<clus scale="  109.074">  1  6  2 -1</clus>
<clus scale="  250.441">  1  4  2 -1</clus>
<clus scale="  250.441">  2  3  1 -1</clus>
</clustering>
</event>
<event>
 6    0  0.2839294E+002  0.2242230E+03  0.7546771E-02  0.1130773E+00
         21   -1    0    0  505  502  0.00000000000E+00  0.00000000000E+00  0.10906561990E+03  0.10906561990E+03  0.00000000000E+00 0.  1.
          1   -1    0    0  502    0 -0.00000000000E+00 -0.00000000000E+00 -0.17974276864E+04  0.17974276864E+04  0.00000000000E+00 0. -1.
         21    1    1    2  503  501 -0.91830467883E+02  0.13399101500E+03 -0.85782425931E+03  0.87306866098E+03  0.00000000000E+00 0. -1.
         21    1    1    2  504  503  0.72723957307E+02 -0.12477706325E+03 -0.60582126298E+02  0.15661508071E+03  0.00000000000E+00 0.  1.
         21    1    1    2  505  504  0.42746095704E+02 -0.56019680244E+02  0.28952855292E+02  0.76182026109E+02  0.00000000000E+00 0. -1.
          1    1    1    2  501    0 -0.23639585128E+02  0.46805728494E+02 -0.79890853623E+03  0.80062753854E+03  0.00000000000E+00 0. -1.
<scales pt_clust_3="207.61186" pt_clust_4="59.83804" pt_clust_5="59.83804" pt_clust_6="52.43669"></scales>
<clustering>
<clus scale="   52.437">  2  6  1 -1</clus>
<clus scale="   59.838">  4  5 -1 -1</clus>
<clus scale="  207.612">  2  3  1 -1</clus>
<clus scale="  224.223">  1  3  2 -1</clus>
</clustering>
</event>
<event>
 6    0  0.2839294E+002  0.1529178E+03  0.7546771E-02  0.1196933E+00
          2   -1    0    0  503    0 -0.00000000000E+00  0.00000000000E+00  0.49344467676E+04  0.49344467676E+04  0.00000000000E+00 0.  1.
         21   -1    0    0  504  502  0.00000000000E+00 -0.00000000000E+00 -0.25443895284E+02  0.25443895284E+02  0.00000000000E+00 0.  1.
         21    1    1    2  503  505  0.40370402911E+02 -0.14774509404E+02  0.40608870733E+03  0.40835780117E+03  0.00000000000E+00 0. -1.
         21    1    1    2  504  501  0.87865254382E+01 -0.36723968085E+02  0.11473555121E+03  0.12078948453E+03  0.00000000000E+00 0.  1.
         21    1    1    2  505  502  0.29683820141E+02  0.18128495022E+03  0.40548264521E+03  0.44515338696E+03  0.00000000000E+00 0.  1.
          2    1    1    2  501    0 -0.78840748490E+02 -0.12978647273E+03  0.39826959686E+04  0.39855899902E+04  0.00000000000E+00 0.  1.
<scales pt_clust_3="44.07419" pt_clust_4="37.76047" pt_clust_5="14000.00000" pt_clust_6="152.91781"></scales>
<clustering>
<clus scale="   37.760">  2  4  1 -1</clus>
<clus scale="   44.074">  1  3  2 -1</clus>
<clus scale="  152.918">  1  6  2 -1</clus>
<clus scale="   37.760">  2  3  1 -1</clus>
</clustering>
</event>
<event>
 6    0  0.2839294E+002  0.1307772E+03  0.7546771E-02  0.1226307E+00
         21   -1    0    0  505  502  0.00000000000E+00  0.00000000000E+00  0.89766178540E+02  0.89766178540E+02  0.00000000000E+00 0. -1.
          2   -1    0    0  503    0 -0.00000000000E+00 -0.00000000000E+00 -0.17705886972E+04  0.17705886972E+04  0.00000000000E+00 0. -1.
         21    1    1    2  503  502  0.33838012272E+02  0.86085737763E+01  0.56957737307E+02  0.66807952043E+02  0.00000000000E+00 0. -1.
         21    1    1    2  504  501 -0.51067044140E+02 -0.12413784423E+02 -0.54347717415E+03  0.54601225614E+03  0.00000000000E+00 0.  1.
         21    1    1    2  505  504  0.77691984947E+02 -0.46899043685E+02 -0.56292173540E+02  0.10679126193E+03  0.00000000000E+00 0. -1.
          2    1    1    2  501    0 -0.60462953079E+02  0.50704254333E+02 -0.11380109083E+04  0.11407434056E+04  0.00000000000E+00 0. -1.
<scales pt_clust_3="34.91588" pt_clust_4="50.09932" pt_clust_5="115.17505" pt_clust_6="50.09932"></scales>
<clustering>
<clus scale="   34.916">  1  3  2 -1</clus>
<clus scale="   50.099">  4  6 -1 -1</clus>
<clus scale="  115.175">  1  5  2 -1</clus>
<clus scale="   34.916">  1  3  2 -1</clus>
</clustering>
</event>
<event>
 6    0  0.2839294E+002  0.1270924E+03  0.7546771E-02  0.1231835E+00
         21   -1    0    0  503  502  0.00000000000E+00  0.00000000000E+00  0.59466350195E+03  0.59466350195E+03  0.00000000000E+00 0. -1.
          3   -1    0    0  505    0 -0.00000000000E+00 -0.00000000000E+00 -0.54388566531E+02  0.54388566531E+02  0.00000000000E+00 0. -1.
         21    1    1    2  503  501 -0.22384379921E+02 -0.36564435386E+02  0.44171350099E+02  0.61555881677E+02  0.00000000000E+00 0.  1.
         21    1    1    2  504  502 -0.38956827392E+02  0.39247287102E+02  0.29040537009E+03  0.29562351551E+03  0.00000000000E+00 0. -1.
         21    1    1    2  505  504  0.36936688156E+02  0.92050035098E+02  0.14842366766E+03  0.17851362137E+03  0.00000000000E+00 0. -1.
          3    1    1    2  501    0  0.24404519158E+02 -0.94732886814E+02  0.57274547565E+02  0.11335904992E+03  0.00000000000E+00 0. -1.
<scales pt_clust_3="36.62561" pt_clust_4="55.29904" pt_clust_5="114.41849" pt_clust_6="36.62561"></scales>
<clustering>
<clus scale="   36.626">  3  6 -1 -1</clus>
<clus scale="   55.299">  1  4  2 -1</clus>
<clus scale="  114.418">  1  5  2 -1</clus>
<clus scale="   55.299">  1  3  2 -1</clus>
</clustering>
</event>
<event>
 6    0  0.2839294E+002  0.8603086E+02  0.7546771E-02  0.1312759E+00
         21   -1    0    0  501  502  0.00000000000E+00  0.00000000000E+00  0.43765509545E+03  0.43765509545E+03  0.00000000000E+00 0. -1.
          2   -1    0    0  505    0 -0.00000000000E+00 -0.00000000000E+00 -0.11826184994E+04  0.11826184994E+04  0.00000000000E+00 0.  1.
         21    1    1    2  503  502 -0.51924347522E+02 -0.57642567004E+02  0.28220845914E+03  0.29267801046E+03  0.00000000000E+00 0. -1.
         21    1    1    2  504  503  0.79963104520E+02  0.12362022730E+03  0.10944580334E+03  0.18345147192E+03  0.00000000000E+00 0. -1.
         21    1    1    2  505  504 -0.12631833312E+01 -0.30568778283E+02 -0.67554828187E+02  0.74159966621E+02  0.00000000000E+00 0. -1.
          2    1    1    2  501    0 -0.26775573667E+02 -0.35408882008E+02 -0.10690628383E+04  0.10699841459E+04  0.00000000000E+00 0.  1.
<scales pt_clust_3="14000.00000" pt_clust_4="86.03086" pt_clust_5="30.59487" pt_clust_6="70.60196"></scales>
<clustering>
<clus scale="   30.595">  2  5  1 -1</clus>
<clus scale="   70.602">  2  6  1 -1</clus>
<clus scale="   86.031">  2  4  1 -1</clus>
<clus scale="   86.031">  1  3  2 -1</clus>
</clustering>
</event>
<event>
 6    0  0.2839294E+002  0.1668929E+03  0.7546771E-02  0.1181127E+00
         -1   -1    0    0    0  501 -0.00000000000E+00  0.00000000000E+00  0.19070150498E+03  0.19070150498E+03  0.00000000000E+00 0.  1.
         21   -1    0    0  503  502  0.00000000000E+00 -0.00000000000E+00 -0.56205408958E+03  0.56205408958E+03  0.00000000000E+00 0. -1.
         21    1    1    2  503  501  0.16027088918E+03  0.89558871309E+02 -0.30217474019E+03  0.35357760528E+03  0.00000000000E+00 0. -1.
         21    1    1    2  504  502 -0.65510890729E+02  0.27520597274E+02 -0.18481816068E+03  0.19800710238E+03  0.00000000000E+00 0. -1.
         21    1    1    2  505  504 -0.23675963375E+02 -0.59904055379E+02  0.16596002938E+02  0.66516722755E+02  0.00000000000E+00 0.  1.
         -1    1    1    2    0  505 -0.71084035073E+02 -0.57175413204E+02  0.99044313332E+02  0.13465416414E+03  0.00000000000E+00 0.  1.
<scales pt_clust_3="153.11196" pt_clust_4="71.05674" pt_clust_5="55.80191" pt_clust_6="55.80191"></scales>
<clustering>
<clus scale="   55.802">  5  6 -1 -1</clus>
<clus scale="   71.057">  2  4  1 -1</clus>
<clus scale="  153.112">  2  3  1 -1</clus>
<clus scale="   71.057">  2  3  1 -1</clus>
</clustering>
</event>
<event>
 6    0  0.2839294E+002  0.6789545E+02  0.7546771E-02  0.1367399E+00
         21   -1    0    0  503  502  0.00000000000E+00  0.00000000000E+00  0.10152949790E+04  0.10152949790E+04  0.00000000000E+00 0. -1.
          3   -1    0    0  504    0 -0.00000000000E+00 -0.00000000000E+00 -0.15859008251E+03  0.15859008251E+03  0.00000000000E+00 0.  1.
         21    1    1    2  503  505 -0.63975276109E+02  0.16189542209E+02  0.88549798317E+03  0.88795361107E+03  0.00000000000E+00 0. -1.
         21    1    1    2  504  502 -0.39091044540E+02  0.43533092487E+02 -0.32614456911E+02  0.66984645288E+02  0.00000000000E+00 0. -1.
         21    1    1    2  505  501  0.12645433260E+03 -0.27793120454E+02  0.65935111563E+02  0.14529485440E+03  0.00000000000E+00 0. -1.
          3    1    1    2  501    0 -0.23388011955E+02 -0.31929514242E+02 -0.62113741342E+02  0.73651950731E+02  0.00000000000E+00 0.  1.
<scales pt_clust_3="14000.00000" pt_clust_4="58.07791" pt_clust_5="67.89545" pt_clust_6="39.57895"></scales>
<clustering>
<clus scale="   39.579">  2  6  1 -1</clus>
<clus scale="   58.078">  2  4  1 -1</clus>
<clus scale="   67.895">  2  5  1 -1</clus>
<clus scale="   67.895">  1  3  2 -1</clus>
</clustering>
</event>
<event>
 6    0  0.2839294E+002  0.1700038E+03  0.7546771E-02  0.1177844E+00
         21   -1    0    0  504  502  0.00000000000E+00  0.00000000000E+00  0.24506544534E+03  0.24506544534E+03  0.00000000000E+00 0. -1.
          2   -1    0    0  505    0 -0.00000000000E+00 -0.00000000000E+00 -0.30989243198E+04  0.30989243198E+04  0.00000000000E+00 0.  1.
         21    1    1    2  503  501  0.90750185277E+02  0.51754564717E+02  0.42449490672E+02  0.11276564351E+03  0.00000000000E+00 0. -1.
         21    1    1    2  504  503 -0.15379758164E+02  0.39437944851E+02  0.15472648685E+03  0.16041251257E+03  0.00000000000E+00 0. -1.
         21    1    1    2  505  502 -0.14327583640E+02  0.70663380492E+02 -0.17090416720E+03  0.18549077433E+03  0.00000000000E+00 0.  1.
          2    1    1    2  501    0 -0.61042843473E+02 -0.16185589006E+03 -0.28801306848E+04  0.28853208347E+04  0.00000000000E+00 0.  1.
<scales pt_clust_3="14000.00000" pt_clust_4="42.33070" pt_clust_5="75.58025" pt_clust_6="170.00384"></scales>
<clustering>
<clus scale="   42.331">  1  4  2 -1</clus>
<clus scale="   75.580">  1  5  2 -1</clus>
<clus scale="  170.004">  2  6  1 -1</clus>
<clus scale="   42.331">  1  3  2 -1</clus>
</clustering>
</event>
<event>
 6    0  0.2839294E+002  0.9995263E+02  0.7546771E-02  0.1280396E+00
         21   -1    0    0  505  502  0.00000000000E+00  0.00000000000E+00  0.99844640639E+02  0.99844640639E+02  0.00000000000E+00 0.  1.
          1   -1    0    0  503    0 -0.00000000000E+00 -0.00000000000E+00 -0.34688585950E+03  0.34688585950E+03  0.00000000000E+00 0.  1.
         21    1    1    2  503  504  0.35161549883E+02  0.45692126250E+02 -0.68266096435E+02  0.89355273565E+02  0.00000000000E+00 0. -1.
         21    1    1    2  504  502  0.83169868198E+02 -0.90676243466E+02 -0.34062263580E+01  0.12308944099E+03  0.00000000000E+00 0.  1.
         21    1    1    2  505  501 -0.32662620174E+02  0.75793818837E+01  0.22125204423E+01  0.33603408057E+02  0.00000000000E+00 0.  1.
          1    1    1    2  501    0 -0.85668797907E+02  0.37404735332E+02 -0.17758141651E+03  0.20068237753E+03  0.00000000000E+00 0.  1.
<scales pt_clust_3="56.00236" pt_clust_4="99.95263" pt_clust_5="33.53049" pt_clust_6="14000.00000"></scales>
<clustering>
<clus scale="   33.530">  1  5  2 -1</clus>
<clus scale="   56.002">  2  3  1 -1</clus>
<clus scale="   99.953">  1  4  2 -1</clus>
<clus scale="   33.530">  1  3  2 -1</clus>
</clustering>
</event>
<event>
 6    0  0.2839294E+002  0.1759931E+03  0.7546771E-02  0.1171738E+00
          2   -1    0    0  504    0 -0.00000000000E+00  0.00000000000E+00  0.79663592911E+03  0.79663592911E+03  0.00000000000E+00 0. -1.
         21   -1    0    0  503  502  0.00000000000E+00 -0.00000000000E+00 -0.76457437391E+02  0.76457437391E+02  0.00000000000E+00 0. -1.
         21    1    1    2  503  501 -0.26247716959E+02  0.49947139993E+02  0.20007686684E+03  0.20788076410E+03  0.00000000000E+00 0.  1.
         21    1    1    2  504  505  0.22593296234E+02 -0.14445119206E+03  0.21216723434E+03  0.25766555698E+03  0.00000000000E+00 0. -1.
         21    1    1    2  505  502 -0.38456074672E+02 -0.27052136554E+02 -0.23106528324E+02  0.52388924617E+02  0.00000000000E+00 0. -1.
          2    1    1    2  501    0  0.42110495398E+02  0.12155618862E+03  0.33104091886E+03  0.35515812081E+03  0.00000000000E+00 0. -1.
<scales pt_clust_3="50.17294" pt_clust_4="160.34936" pt_clust_5="47.01795" pt_clust_6="50.17294"></scales>
<clustering>
<clus scale="   47.018">  2  5  1 -1</clus>
<clus scale="   50.173">  3  6 -1 -1</clus>
<clus scale="  160.349">  2  4  1 -1</clus>
<clus scale="   47.018">  2  3  1 -1</clus>
</clustering>
</event>
<event>
 6    0  0.2839294E+002  0.1189611E+03  0.7546771E-02  0.1244821E+00
         21   -1    0    0  505  502  0.00000000000E+00  0.00000000000E+00  0.15621625099E+04  0.15621625099E+04  0.00000000000E+00 0.  1.
          3   -1    0    0  504    0 -0.00000000000E+00 -0.00000000000E+00 -0.20621375560E+02  0.20621375560E+02  0.00000000000E+00 0. -1.
         21    1    1    2  503  502 -0.36338520048E+02 -0.11283533303E+01  0.35636478409E+03  0.35821448960E+03  0.00000000000E+00 0. -1.
         21    1    1    2  504  503 -0.49879504489E+02 -0.59575514877E+01  0.19525713244E+03  0.20161548839E+03  0.00000000000E+00 0. -1.
         21    1    1    2  505  501  0.15212437687E+03  0.38780515519E+02  0.85685247226E+03  0.87111532740E+03  0.00000000000E+00 0.  1.
          3    1    1    2  501    0 -0.65906352337E+02 -0.31694610701E+02  0.13306674554E+03  0.15183858006E+03  0.00000000000E+00 0. -1.
<scales pt_clust_3="34.44237" pt_clust_4="34.44237" pt_clust_5="111.85987" pt_clust_6="73.13136"></scales>
<clustering>
<clus scale="   34.442">  3  4 -1 -1</clus>
<clus scale="   73.131">  2  6  1 -1</clus>
<clus scale="  111.860">  2  5  1 -1</clus>
<clus scale="  118.961">  1  3  2 -1</clus>
</clustering>
</event>
<event>
 6    0  0.2839294E+002  0.9073632E+02  0.7546771E-02  0.1301078E+00
         21   -1    0    0  505  502  0.00000000000E+00  0.00000000000E+00  0.27371225837E+03  0.27371225837E+03  0.00000000000E+00 0. -1.
         -2   -1    0    0    0  501 -0.00000000000E+00 -0.00000000000E+00 -0.19436451809E+03  0.19436451809E+03  0.00000000000E+00 0.  1.
         21    1    1    2  503  501  0.27954089264E+02 -0.27356061741E+02 -0.10541055455E+02  0.40508012426E+02  0.00000000000E+00 0.  1.
         21    1    1    2  504  502 -0.12071896809E+03  0.28089364495E+02  0.20570407185E+03  0.24015879503E+03  0.00000000000E+00 0. -1.
         21    1    1    2  505  503  0.33305218659E+02  0.15719066467E+01  0.20175014412E+02  0.38971010854E+02  0.00000000000E+00 0.  1.
         -2    1    1    2    0  504  0.59459660167E+02 -0.23052094008E+01 -0.13599029053E+03  0.14843895815E+03  0.00000000000E+00 0.  1.
<scales pt_clust_3="40.53360" pt_clust_4="90.73632" pt_clust_5="33.34229" pt_clust_6="14000.00000"></scales>
<clustering>
<clus scale="   33.342">  1  5  2 -1</clus>
<clus scale="   40.534">  2  3  1 -1</clus>
<clus scale="   90.736">  1  4  2 -1</clus>
<clus scale="   33.342">  1  3  2 -1</clus>
</clustering>
</event>
<event>
 6    0  0.2839294E+002  0.1291655E+03  0.7546771E-02  0.1228699E+00
         21   -1    0    0  503  502  0.00000000000E+00  0.00000000000E+00  0.54731150322E+02  0.54731150322E+02  0.00000000000E+00 0. -1.
          2   -1    0    0  502    0 -0.00000000000E+00 -0.00000000000E+00 -0.85316197251E+03  0.85316197251E+03  0.00000000000E+00 0. -1.
         21    1    1    2  503  504 -0.32254760878E+01 -0.32032101343E+02  0.18207557534E+02  0.36986137454E+02  0.00000000000E+00 0. -1.
         21    1    1    2  504  505 -0.11193932704E+03  0.60970520828E+02 -0.17421592871E+03  0.21586803183E+03  0.00000000000E+00 0. -1.
         21    1    1    2  505  501  0.55159335198E+02  0.43745853894E+01 -0.20826196680E+03  0.21548720628E+03  0.00000000000E+00 0. -1.
          2    1    1    2  501    0  0.60005467930E+02 -0.33313004875E+02 -0.43416048421E+03  0.43955174727E+03  0.00000000000E+00 0. -1.
<scales pt_clust_3="32.19409" pt_clust_4="120.06111" pt_clust_5="42.13232" pt_clust_6="42.13232"></scales>
<clustering>
<clus scale="   32.194">  1  3  2 -1</clus>
<clus scale="   42.132">  5  6 -1 -1</clus>
<clus scale="  120.061">  1  4  2 -1</clus>
<clus scale="   32.194">  1  3  2 -1</clus>
</clustering>
</event>
<event>
 6    0  0.2839294E+002  0.7385102E+02  0.7546771E-02  0.1347466E+00
         21   -1    0    0  503  502  0.00000000000E+00  0.00000000000E+00  0.49899973096E+03  0.49899973096E+03  0.00000000000E+00 0. -1.
          2   -1    0    0  505    0 -0.00000000000E+00 -0.00000000000E+00 -0.84914514173E+03  0.84914514173E+03  0.00000000000E+00 0.  1.
         21    1    1    2  503  501 -0.74171577490E+02  0.41334133805E+00  0.47313110660E+03  0.47890984308E+03  0.00000000000E+00 0. -1.
         21    1    1    2  504  502  0.64914316706E+02 -0.31437365159E+02 -0.59575601383E+02  0.93549071196E+02  0.00000000000E+00 0.  1.
         21    1    1    2  505  504 -0.18355637443E+02 -0.38081571815E+02 -0.11136273763E+03  0.11911672792E+03  0.00000000000E+00 0. -1.
          2    1    1    2  501    0  0.27612898227E+02  0.69105595635E+02 -0.65233817836E+03  0.65656923050E+03  0.00000000000E+00 0.  1.
<scales pt_clust_3="73.85102" pt_clust_4="14000.00000" pt_clust_5="42.27453" pt_clust_6="36.90158"></scales>
<clustering>
<clus scale="   42.275">  2  5  1 -1</clus>
<clus scale="   36.902">  2  6  1 -1</clus>
<clus scale="   73.851">  1  3  2 -1</clus>
<clus scale="   73.851">  1  3  2 -1</clus>
</clustering>
</event>
<event>
 6    0  0.2839294E+002  0.8519231E+02  0.7546771E-02  0.1314930E+00
          2   -1    0    0  503    0 -0.00000000000E+00  0.00000000000E+00  0.28248363292E+04  0.28248363292E+04  0.00000000000E+00 0. -1.
         21   -1    0    0  504  502  0.00000000000E+00 -0.00000000000E+00 -0.13922652935E+03  0.13922652935E+03  0.00000000000E+00 0. -1.
         21    1    1    2  503  505  0.17780726577E+02 -0.36774601818E+02  0.99653161738E+03  0.99736843243E+03  0.00000000000E+00 0. -1.
         21    1    1    2  504  501  0.48165810389E+02  0.71051290126E+02 -0.11141758192E+03  0.14064888439E+03  0.00000000000E+00 0. -1.
         21    1    1    2  505  502 -0.20492643760E+02 -0.80850378789E+02  0.13110915918E+03  0.15539093867E+03  0.00000000000E+00 0. -1.
          2    1    1    2  501    0 -0.45453893206E+02  0.46573690481E+02  0.16693866052E+04  0.16706546030E+04  0.00000000000E+00 0. -1.
<scales pt_clust_3="40.84759" pt_clust_4="14000.00000" pt_clust_5="85.19231" pt_clust_6="31.96104"></scales>
<clustering>
<clus scale="   40.848">  1  3  2 -1</clus>
<clus scale="   31.961">  1  6  2 -1</clus>
<clus scale="   85.192">  1  5  2 -1</clus>
<clus scale="   85.192">  2  3  1 -1</clus>
</clustering>
</event>
<event>
 6    0  0.2839294E+002  0.1229566E+03  0.7546771E-02  0.1238298E+00
         -4   -1    0    0    0  501 -0.00000000000E+00  0.00000000000E+00  0.14525717720E+03  0.14525717720E+03  0.00000000000E+00 0.  1.
         21   -1    0    0  505  502  0.00000000000E+00 -0.00000000000E+00 -0.17060589765E+04  0.17060589765E+04  0.00000000000E+00 0.  1.
         21    1    1    2  503  502  0.13784594669E+03  0.37466449346E+02 -0.14215824464E+04  0.14287413663E+04  0.00000000000E+00 0.  1.
         21    1    1    2  504  503 -0.79344824870E+02 -0.71263942094E+01  0.47819853152E+02  0.92914611787E+02  0.00000000000E+00 0.  1.
         21    1    1    2  505  501 -0.25141824803E+02 -0.40075076071E+02 -0.25177804162E+03  0.25618412387E+03  0.00000000000E+00 0. -1.
         -4    1    1    2    0  504 -0.33359297018E+02  0.97350209346E+01  0.64738835648E+02  0.73476051685E+02  0.00000000000E+00 0.  1.
<scales pt_clust_3="113.18553" pt_clust_4="31.72554" pt_clust_5="47.30881" pt_clust_6="31.72554"></scales>
<clustering>
<clus scale="   31.726">  4  6 -1 -1</clus>
<clus scale="   47.309">  2  5  1 -1</clus>
<clus scale="  113.186">  2  3  1 -1</clus>
<clus scale="   47.309">  2  3  1 -1</clus>
</clustering>
</event>
<event>
 6    0  0.2839294E+002  0.1776750E+03  0.7546771E-02  0.1170072E+00
          1   -1    0    0  505    0 -0.00000000000E+00  0.00000000000E+00  0.23488936303E+04  0.23488936303E+04  0.00000000000E+00 0.  1.
         21   -1    0    0  503  502  0.00000000000E+00 -0.00000000000E+00 -0.62146019090E+02  0.62146019090E+02  0.00000000000E+00 0.  1.
         21    1    1    2  503  504  0.19205884616E+03  0.80063161278E+02  0.15665379104E+03  0.26045560165E+03  0.00000000000E+00 0.  1.
         21    1    1    2  504  501 -0.42552964587E+02 -0.15263419548E+02  0.27024298682E+03  0.27399817280E+03  0.00000000000E+00 0.  1.
         21    1    1    2  505  502 -0.65323386589E+02  0.16364584894E+02  0.17236293913E+03  0.18505114769E+03  0.00000000000E+00 0.  1.
          1    1    1    2  501    0 -0.84182494989E+02 -0.81164326625E+02  0.16874878942E+04  0.16915347272E+04  0.00000000000E+00 0.  1.
<scales pt_clust_3="162.23202" pt_clust_4="45.04798" pt_clust_5="67.34200" pt_clust_6="45.04798"></scales>
<clustering>
<clus scale="   45.048">  4  6 -1 -1</clus>
<clus scale="   67.342">  2  5  1 -1</clus>
<clus scale="  162.232">  2  3  1 -1</clus>
<clus scale="   67.342">  2  3  1 -1</clus>
</clustering>
</event>
<event>
 6    0  0.2839294E+002  0.2893933E+03  0.7546771E-02  0.1090666E+00
          4   -1    0    0  503    0 -0.00000000000E+00  0.00000000000E+00  0.30650228327E+03  0.30650228327E+03  0.00000000000E+00 0.  1.
         21   -1    0    0  504  502  0.00000000000E+00 -0.00000000000E+00 -0.14752675769E+04  0.14752675769E+04  0.00000000000E+00 0.  1.
         21    1    1    2  503  502 -0.39910552298E+03 -0.78620151686E+02 -0.11495774003E+04  0.12194238582E+04  0.00000000000E+00 0.  1.
         21    1    1    2  504  505  0.12992331368E+03  0.81449318068E+02 -0.18140563951E+03  0.23753329219E+03  0.00000000000E+00 0. -1.
         21    1    1    2  505  501  0.23381430270E+03 -0.83976666191E+01  0.10304660734E+03  0.25565260069E+03  0.00000000000E+00 0. -1.
          4    1    1    2  501    0  0.35367906590E+02  0.55685002370E+01  0.59171138852E+02  0.69160109055E+02  0.00000000000E+00 0.  1.
<scales pt_clust_3="277.53709" pt_clust_4="153.34295" pt_clust_5="32.07194" pt_clust_6="32.07194"></scales>
<clustering>
<clus scale="   32.072">  5  6 -1 -1</clus>
<clus scale="  153.343">  2  4  1 -1</clus>
<clus scale="  277.537">  2  3  1 -1</clus>
<clus scale="  153.343">  2  3  1 -1</clus>
</clustering>
</event>
<event>
 6    0  0.2839294E+002  0.9817750E+02  0.7546771E-02  0.1284176E+00
         21   -1    0    0  504  502  0.00000000000E+00  0.00000000000E+00  0.13864058124E+03  0.13864058124E+03  0.00000000000E+00 0.  1.
          1   -1    0    0  503    0 -0.00000000000E+00 -0.00000000000E+00 -0.14271682945E+04  0.14271682945E+04  0.00000000000E+00 0. -1.
         21    1    1    2  503  505 -0.32616069720E+02  0.12577893909E+02 -0.69936891462E+02  0.78186828856E+02  0.00000000000E+00 0. -1.
         21    1    1    2  504  501 -0.34552399610E+02  0.50635829654E+02  0.11321843807E+03  0.12874886517E+03  0.00000000000E+00 0.  1.
         21    1    1    2  505  502 -0.21886964190E+02  0.30826070930E+02 -0.24249338274E+02  0.44914543938E+02  0.00000000000E+00 0. -1.
          1    1    1    2  501    0  0.89055433520E+02 -0.94039794493E+02 -0.13075599216E+04  0.13139586377E+04  0.00000000000E+00 0. -1.
<scales pt_clust_3="34.95728" pt_clust_4="98.17750" pt_clust_5="38.55375" pt_clust_6="14000.00000"></scales>
<clustering>
<clus scale="   34.957">  2  3  1 -1</clus>
<clus scale="   38.554">  1  5  2 -1</clus>
<clus scale="   98.178">  1  4  2 -1</clus>
<clus scale="   38.554">  1  3  2 -1</clus>
</clustering>
</event>
<event>
 6    0  0.2839294E+002  0.8651320E+02  0.7546771E-02  0.1311522E+00
          2   -1    0    0  504    0 -0.00000000000E+00  0.00000000000E+00  0.95591518846E+03  0.95591518846E+03  0.00000000000E+00 0.  1.
         21   -1    0    0  503  502  0.00000000000E+00 -0.00000000000E+00 -0.51440056799E+03  0.51440056799E+03  0.00000000000E+00 0. -1.
         21    1    1    2  503  505 -0.10042133548E+02 -0.63644006170E+02 -0.46479063105E+03  0.46923526581E+03  0.00000000000E+00 0. -1.
         21    1    1    2  504  502  0.22761377193E+02  0.25224692643E+02 -0.31359034946E+02  0.46235857117E+02  0.00000000000E+00 0. -1.
         21    1    1    2  505  501  0.47472450984E+02 -0.44270837560E+02  0.20380766934E+03  0.21389508349E+03  0.00000000000E+00 0.  1.
          2    1    1    2  501    0 -0.60191694629E+02  0.82690151087E+02  0.73385661713E+03  0.74094955004E+03  0.00000000000E+00 0.  1.
<scales pt_clust_3="40.77682" pt_clust_4="33.97595" pt_clust_5="86.51320" pt_clust_6="14000.00000"></scales>
<clustering>
<clus scale="   33.976">  2  4  1 -1</clus>
<clus scale="   40.777">  2  3  1 -1</clus>
<clus scale="   86.513">  2  5  1 -1</clus>
<clus scale="   33.976">  2  3  1 -1</clus>
</clustering>
</event>
<event>
 6    0  0.2839294E+002  0.1092567E+03  0.7546771E-02  0.1261953E+00
          1   -1    0    0  503    0 -0.00000000000E+00  0.00000000000E+00  0.69295986106E+03  0.69295986106E+03  0.00000000000E+00 0.  1.
         21   -1    0    0  505  502  0.00000000000E+00 -0.00000000000E+00 -0.26472779766E+03  0.26472779766E+03  0.00000000000E+00 0. -1.
         21    1    1    2  503  502 -0.17189436262E+02  0.29890151170E+02 -0.11053589483E+03  0.11578895414E+03  0.00000000000E+00 0. -1.
         21    1    1    2  504  501 -0.79717861718E+02  0.25740873238E+02  0.34243753880E+02  0.90499528793E+02  0.00000000000E+00 0.  1.
         21    1    1    2  505  504 -0.15058819340E+02 -0.33822602672E+02 -0.11533483083E+03  0.12113158009E+03  0.00000000000E+00 0. -1.
          1    1    1    2  501    0  0.11196611732E+03 -0.21808421736E+02  0.61985903519E+03  0.63026759570E+03  0.00000000000E+00 0.  1.
<scales pt_clust_3="34.48040" pt_clust_4="14000.00000" pt_clust_5="30.34466" pt_clust_6="109.25666"></scales>
<clustering>
<clus scale="   34.480">  2  3  1 -1</clus>
<clus scale="   30.345">  2  5  1 -1</clus>
<clus scale="  109.257">  1  6  2 -1</clus>
<clus scale="   34.480">  2  3  1 -1</clus>
</clustering>
</event>
<event>
 6    0  0.2839294E+002  0.1120109E+03  0.7546771E-02  0.1256891E+00
          2   -1    0    0  504    0 -0.00000000000E+00  0.00000000000E+00  0.16962179635E+04  0.16962179635E+04  0.00000000000E+00 0.  1.
         21   -1    0    0  501  502  0.00000000000E+00 -0.00000000000E+00 -0.23440736360E+03  0.23440736360E+03  0.00000000000E+00 0. -1.
         21    1    1    2  503  505  0.21184680396E+02 -0.12834557287E+03  0.27250155291E+03  0.30195773395E+03  0.00000000000E+00 0.  1.
         21    1    1    2  504  503  0.85989595682E+01 -0.32749221330E+02  0.41192872084E+03  0.41331794620E+03  0.00000000000E+00 0.  1.
         21    1    1    2  505  502 -0.35374563381E+02  0.29120440320E+02 -0.21215013773E+03  0.21704156450E+03  0.00000000000E+00 0. -1.
          2    1    1    2  501    0  0.55909234164E+01  0.13197435388E+03  0.98953046385E+03  0.99830808240E+03  0.00000000000E+00 0.  1.
<scales pt_clust_3="112.01085" pt_clust_4="33.85932" pt_clust_5="45.76648" pt_clust_6="14000.00000"></scales>
<clustering>
<clus scale="   33.859">  1  4  2 -1</clus>
<clus scale="   45.766">  2  5  1 -1</clus>
<clus scale="  112.011">  2  3  1 -1</clus>
<clus scale="   45.766">  2  3  1 -1</clus>
</clustering>
</event>
<event>
 6    0  0.2839294E+002  0.1513402E+03  0.7546771E-02  0.1198836E+00
         21   -1    0    0  505  502  0.00000000000E+00  0.00000000000E+00  0.39270938823E+03  0.39270938823E+03  0.00000000000E+00 0.  1.
          2   -1    0    0  502    0 -0.00000000000E+00 -0.00000000000E+00 -0.39767203328E+03  0.39767203328E+03  0.00000000000E+00 0.  1.
         21    1    1    2  503  501 -0.26943766269E+02 -0.59060296252E+02 -0.95136976090E+02  0.11517434330E+03  0.00000000000E+00 0.  1.
         21    1    1    2  504  503  0.17281107169E+02  0.60812851035E+02  0.14337023769E+03  0.15669034613E+03  0.00000000000E+00 0.  1.
         21    1    1    2  505  504  0.59973430955E+02  0.52327163148E+02  0.22081678893E+03  0.23472323851E+03  0.00000000000E+00 0.  1.
          2    1    1    2  501    0 -0.50310771855E+02 -0.54079717931E+02 -0.27401269557E+03  0.28379349357E+03  0.00000000000E+00 0.  1.
<scales pt_clust_3="60.28308" pt_clust_4="37.84851" pt_clust_5="143.43083" pt_clust_6="60.28308"></scales>
<clustering>
<clus scale="   37.849">  4  5 -1 -1</clus>
<clus scale="   60.283">  3  6 -1 -1</clus>
<clus scale="  143.431">  1  4  2 -1</clus>
<clus scale="  143.431">  1  3  2 -1</clus>
</clustering>
</event>
<event>
 6    0  0.2839294E+002  0.1113163E+03  0.7546771E-02  0.1258152E+00
          2   -1    0    0  505    0 -0.00000000000E+00  0.00000000000E+00  0.59757915891E+03  0.59757915891E+03  0.00000000000E+00 0.  1.
         21   -1    0    0  504  502  0.00000000000E+00 -0.00000000000E+00 -0.15096333623E+03  0.15096333623E+03  0.00000000000E+00 0. -1.
         21    1    1    2  503  502 -0.99989480025E+02  0.22490102203E+01 -0.24159576479E+02  0.10289139565E+03  0.00000000000E+00 0. -1.
         21    1    1    2  504  501 -0.10445274936E+02  0.57052230006E+02 -0.63887294876E+02  0.86288163520E+02  0.00000000000E+00 0. -1.
         21    1    1    2  505  503  0.44897053315E+02 -0.50172593488E+02  0.10566587663E+03  0.12529290489E+03  0.00000000000E+00 0.  1.
          2    1    1    2  501    0  0.65537701645E+02 -0.91286467381E+01  0.42899681742E+03  0.43407003108E+03  0.00000000000E+00 0.  1.
<scales pt_clust_3="111.31632" pt_clust_4="58.00052" pt_clust_5="61.05373" pt_clust_6="14000.00000"></scales>
<clustering>
<clus scale="   58.001">  2  4  1 -1</clus>
<clus scale="   61.054">  1  5  2 -1</clus>
<clus scale="  111.316">  2  3  1 -1</clus>
<clus scale="   58.001">  2  3  1 -1</clus>
</clustering>
</event>
<event>
 6    0  0.2839294E+002  0.9734724E+02  0.7546771E-02  0.1285975E+00
         21   -1    0    0  503  502  0.00000000000E+00  0.00000000000E+00  0.39162848658E+03  0.39162848658E+03  0.00000000000E+00 0. -1.
          2   -1    0    0  504    0 -0.00000000000E+00 -0.00000000000E+00 -0.97912175548E+03  0.97912175548E+03  0.00000000000E+00 0. -1.
         21    1    1    2  503  505  0.46942915234E+02  0.85265338879E+02  0.36378941650E+03  0.37658538854E+03  0.00000000000E+00 0. -1.
         21    1    1    2  504  502 -0.69563462120E+02 -0.51049133621E+01 -0.66339574705E+02  0.96260451768E+02  0.00000000000E+00 0. -1.
         21    1    1    2  505  501 -0.16646150066E+02 -0.10322715173E+03 -0.54669197927E+03  0.55660134689E+03  0.00000000000E+00 0. -1.
          2    1    1    2  501    0  0.39266696952E+02  0.23066726217E+02 -0.33825113142E+03  0.34130305486E+03  0.00000000000E+00 0. -1.
<scales pt_clust_3="14000.00000" pt_clust_4="64.60676" pt_clust_5="97.34724" pt_clust_6="45.54061"></scales>
<clustering>
<clus scale="   45.541">  2  6  1 -1</clus>
<clus scale="   64.607">  2  4  1 -1</clus>
<clus scale="   97.347">  2  5  1 -1</clus>
<clus scale="   97.347">  1  3  2 -1</clus>
</clustering>
</event>
<event>
 6    0  0.2839294E+002  0.1359972E+03  0.7546771E-02  0.1218819E+00
          1   -1    0    0  504    0 -0.00000000000E+00  0.00000000000E+00  0.15149007669E+03  0.15149007669E+03  0.00000000000E+00 0.  1.
         21   -1    0    0  505  502  0.00000000000E+00 -0.00000000000E+00 -0.14352497517E+04  0.14352497517E+04  0.00000000000E+00 0. -1.
         21    1    1    2  503  502 -0.68080695044E+02  0.12180509753E+03 -0.71782897643E+03  0.73126595861E+03  0.00000000000E+00 0. -1.
         21    1    1    2  504  503  0.36788187053E+02  0.62035792087E+00 -0.40933978884E+01  0.37020419458E+02  0.00000000000E+00 0. -1.
         21    1    1    2  505  501 -0.62811598917E+02 -0.70115394447E+02 -0.66363742420E+03  0.67028061012E+03  0.00000000000E+00 0. -1.
          1    1    1    2  501    0  0.94104106908E+02 -0.52310061007E+02  0.10180012352E+03  0.14817284019E+03  0.00000000000E+00 0.  1.
<scales pt_clust_3="135.99716" pt_clust_4="36.79342" pt_clust_5="93.52251" pt_clust_6="14000.00000"></scales>
<clustering>
<clus scale="   36.793">  1  4  2 -1</clus>
<clus scale="   93.523">  2  5  1 -1</clus>
<clus scale="  135.997">  2  3  1 -1</clus>
<clus scale="   93.523">  2  3  1 -1</clus>
</clustering>
</event>
<event>
 6    0  0.2839294E+002  0.1533629E+03  0.7546771E-02  0.1196401E+00
         21   -1    0    0  504  502  0.00000000000E+00  0.00000000000E+00  0.17265907993E+03  0.17265907993E+03  0.00000000000E+00 0. -1.
          2   -1    0    0  505    0 -0.00000000000E+00 -0.00000000000E+00 -0.29842503141E+04  0.29842503141E+04  0.00000000000E+00 0.  1.
         21    1    1    2  503  502  0.14470006353E+02 -0.26685630358E+02  0.93882286400E+01  0.31774876687E+02  0.00000000000E+00 0. -1.
         21    1    1    2  504  501  0.24489138192E+02  0.95244288755E+02  0.12108821414E+03  0.15599214094E+03  0.00000000000E+00 0. -1.
         21    1    1    2  505  503  0.11021952984E+03 -0.11396810823E+03 -0.56098561409E+03  0.58295963297E+03  0.00000000000E+00 0. -1.
          2    1    1    2  501    0 -0.14917867439E+03  0.45409449832E+02 -0.23810820629E+04  0.23861827434E+04  0.00000000000E+00 0.  1.
<scales pt_clust_3="30.35628" pt_clust_4="80.31661" pt_clust_5="153.36287" pt_clust_6="14000.00000"></scales>
<clustering>
<clus scale="   30.356">  1  3  2 -1</clus>
<clus scale="   80.317">  1  4  2 -1</clus>
<clus scale="  153.363">  1  5  2 -1</clus>
<clus scale="   30.356">  1  3  2 -1</clus>
</clustering>
</event>
<event>
 6    0  0.2839294E+002  0.7373875E+02  0.7546771E-02  0.1347822E+00
         21   -1    0    0  504  502  0.00000000000E+00  0.00000000000E+00  0.92017951938E+02  0.92017951938E+02  0.00000000000E+00 0.  1.
          2   -1    0    0  505    0 -0.00000000000E+00 -0.00000000000E+00 -0.27229043597E+03  0.27229043597E+03  0.00000000000E+00 0. -1.
         21    1    1    2  503  502 -0.32395422830E+02 -0.46854231622E+02  0.10308128163E+01  0.56972317982E+02  0.00000000000E+00 0.  1.
         21    1    1    2  504  501 -0.41806019689E+02  0.23286362338E+02  0.20227103486E+02  0.51953187280E+02  0.00000000000E+00 0. -1.
         21    1    1    2  505  503 -0.40382903602E+02  0.76844384839E+01 -0.49405939081E+02  0.64271115710E+02  0.00000000000E+00 0.  1.
          2    1    1    2  501    0  0.11458434612E+03  0.15883430801E+02 -0.15212446126E+03  0.19111176694E+03  0.00000000000E+00 0. -1.
<scales pt_clust_3="73.73875" pt_clust_4="50.73568" pt_clust_5="41.10754" pt_clust_6="14000.00000"></scales>
<clustering>
<clus scale="   41.108">  2  5  1 -1</clus>
<clus scale="   50.736">  1  4  2 -1</clus>
<clus scale="   73.739">  1  3  2 -1</clus>
<clus scale="   50.736">  1  3  2 -1</clus>
</clustering>
</event>
<event>
 6    0  0.2839294E+002  0.1638507E+03  0.7546771E-02  0.1184417E+00
          2   -1    0    0  505    0 -0.00000000000E+00  0.00000000000E+00  0.29510324113E+04  0.29510324113E+04  0.00000000000E+00 0.  1.
         21   -1    0    0  501  502  0.00000000000E+00 -0.00000000000E+00 -0.15048550975E+03  0.15048550975E+03  0.00000000000E+00 0.  1.
         21    1    1    2  503  504  0.55733196142E+02  0.12741326464E+03  0.55251433981E+03  0.56974768525E+03  0.00000000000E+00 0. -1.
         21    1    1    2  504  502  0.29147614340E+02  0.15717122140E+02 -0.13391157350E+03  0.13794535464E+03  0.00000000000E+00 0.  1.
         21    1    1    2  505  503 -0.12363456652E+02  0.39583399808E+02  0.38337033973E+03  0.38560668820E+03  0.00000000000E+00 0.  1.
          2    1    1    2  501    0 -0.72517353831E+02 -0.18271378658E+03  0.19985737956E+04  0.20082181930E+04  0.00000000000E+00 0.  1.
<scales pt_clust_3="14000.00000" pt_clust_4="33.11512" pt_clust_5="42.02840" pt_clust_6="163.85069"></scales>
<clustering>
<clus scale="   33.115">  2  4  1 -1</clus>
<clus scale="   42.028">  1  5  2 -1</clus>
<clus scale="  163.851">  1  6  2 -1</clus>
<clus scale="   33.115">  2  3  1 -1</clus>
</clustering>
</event>
<event>
 6    0  0.2839294E+002  0.1558430E+03  0.7546771E-02  0.1193472E+00
          2   -1    0    0  504    0 -0.00000000000E+00  0.00000000000E+00  0.90521454454E+03  0.90521454454E+03  0.00000000000E+00 0. -1.
         21   -1    0    0  505  502  0.00000000000E+00 -0.00000000000E+00 -0.12787353304E+04  0.12787353304E+04  0.00000000000E+00 0.  1.
         21    1    1    2  503  502 -0.27154576115E+02 -0.13362646540E+03 -0.10570696412E+04  0.10658281426E+04  0.00000000000E+00 0.  1.
         21    1    1    2  504  503  0.20940675515E+02 -0.26020720367E+02  0.11150017890E+03  0.11639535933E+03  0.00000000000E+00 0. -1.
         21    1    1    2  505  501  0.33950894657E+02 -0.22082442460E+02 -0.20206500287E+03  0.20608387345E+03  0.00000000000E+00 0.  1.
          2    1    1    2  501    0 -0.27736994057E+02  0.18172962823E+03  0.77411367929E+03  0.79564249955E+03  0.00000000000E+00 0. -1.
<scales pt_clust_3="14000.00000" pt_clust_4="33.40045" pt_clust_5="40.58120" pt_clust_6="155.84298"></scales>
<clustering>
<clus scale="   33.400">  1  4  2 -1</clus>
<clus scale="   40.581">  2  5  1 -1</clus>
<clus scale="  155.843">  1  6  2 -1</clus>
<clus scale="   40.581">  2  3  1 -1</clus>
</clustering>
</event>
<event>
 6    0  0.2839294E+002  0.1328619E+03  0.7546771E-02  0.1223270E+00
         21   -1    0    0  505  502  0.00000000000E+00  0.00000000000E+00  0.41668603889E+03  0.41668603889E+03  0.00000000000E+00 0.  1.
          1   -1    0    0  504    0 -0.00000000000E+00 -0.00000000000E+00 -0.34421165912E+03  0.34421165912E+03  0.00000000000E+00 0.  1.
         21    1    1    2  503  501  0.34841746196E+02  0.27902970710E+02 -0.60024331822E+02  0.74802696898E+02  0.00000000000E+00 0. -1.
         21    1    1    2  504  502 -0.39667428183E+02  0.33810577887E+02  0.40996416881E+02  0.66312640068E+02  0.00000000000E+00 0.  1.
         21    1    1    2  505  503 -0.70443270208E+02 -0.91865229138E+02  0.33959036623E+03  0.35878000429E+03  0.00000000000E+00 0.  1.
          1    1    1    2  501    0  0.75268952195E+02  0.30151680541E+02 -0.24808807152E+03  0.26100235676E+03  0.00000000000E+00 0.  1.
<scales pt_clust_3="35.86911" pt_clust_4="52.12159" pt_clust_5="123.75462" pt_clust_6="35.86911"></scales>
<clustering>
<clus scale="   35.869">  3  6 -1 -1</clus>
<clus scale="   52.122">  1  4  2 -1</clus>
<clus scale="  123.755">  1  5  2 -1</clus>
<clus scale="   52.122">  1  3  2 -1</clus>
</clustering>
</event>
<event>
 6    0  0.2839294E+002  0.8718532E+02  0.7546771E-02  0.1309815E+00
          2   -1    0    0  504    0 -0.00000000000E+00  0.00000000000E+00  0.24614041280E+03  0.24614041280E+03  0.00000000000E+00 0. -1.
         21   -1    0    0  503  502  0.00000000000E+00 -0.00000000000E+00 -0.88721559624E+03  0.88721559624E+03  0.00000000000E+00 0.  1.
         21    1    1    2  503  505 -0.12699287891E+02  0.35257931872E+02 -0.67083953095E+03  0.67188545896E+03  0.00000000000E+00 0.  1.
         21    1    1    2  504  502 -0.12478135961E+02  0.63914625174E+02  0.21480949268E+02  0.68572694053E+02  0.00000000000E+00 0.  1.
         21    1    1    2  505  501  0.92055458748E+02 -0.68612373196E+02 -0.16708999938E+03  0.20273365072E+03  0.00000000000E+00 0. -1.
          2    1    1    2  501    0 -0.66878034896E+02 -0.30560183851E+02  0.17537339762E+03  0.19016420531E+03  0.00000000000E+00 0. -1.
<scales pt_clust_3="37.47524" pt_clust_4="69.16431" pt_clust_5="14000.00000" pt_clust_6="87.18532"></scales>
<clustering>
<clus scale="   37.475">  2  3  1 -1</clus>
<clus scale="   69.164">  1  4  2 -1</clus>
<clus scale="   87.185">  1  6  2 -1</clus>
<clus scale="   37.475">  2  3  1 -1</clus>
</clustering>
</event>
<event>
 6    0  0.2839294E+002  0.1490119E+03  0.7546771E-02  0.1201692E+00
          1   -1    0    0  505    0 -0.00000000000E+00  0.00000000000E+00  0.27277301994E+04  0.27277301994E+04  0.00000000000E+00 0. -1.
         21   -1    0    0  501  502  0.00000000000E+00 -0.00000000000E+00 -0.12579438607E+04  0.12579438607E+04  0.00000000000E+00 0.  1.
         21    1    1    2  503  504  0.49266090015E+02  0.24130490789E+02 -0.50678977580E+03  0.50975023792E+03  0.00000000000E+00 0.  1.
         21    1    1    2  504  502  0.87061335449E+02 -0.36628431524E+02 -0.72965505941E+03  0.73574304200E+03  0.00000000000E+00 0.  1.
         21    1    1    2  505  503 -0.87383437186E+02 -0.98243598059E+02  0.26380409915E+03  0.29475459688E+03  0.00000000000E+00 0. -1.
          1    1    1    2  501    0 -0.48943988277E+02  0.11074153879E+03  0.24424270748E+04  0.24454261833E+04  0.00000000000E+00 0. -1.
<scales pt_clust_3="46.45901" pt_clust_4="46.45901" pt_clust_5="135.97143" pt_clust_6="121.07519"></scales>
<clustering>
<clus scale="   46.459">  3  4 -1 -1</clus>
<clus scale="  121.075">  1  6  2 -1</clus>
<clus scale="  135.971">  1  5  2 -1</clus>
<clus scale="  149.012">  2  3  1 -1</clus>
</clustering>
</event>
<event>
 6    0  0.2839294E+002  0.1414869E+03  0.7546771E-02  0.1211342E+00
         21   -1    0    0  503  502  0.00000000000E+00  0.00000000000E+00  0.32952616239E+03  0.32952616239E+03  0.00000000000E+00 0.  1.
         -3   -1    0    0    0  501 -0.00000000000E+00 -0.00000000000E+00 -0.46598249589E+03  0.46598249589E+03  0.00000000000E+00 0.  1.
         21    1    1    2  503  504 -0.87160625181E+01 -0.61945958344E+02 -0.34390293086E+01  0.62650605931E+02  0.00000000000E+00 0.  1.
         21    1    1    2  504  501  0.31021357477E+02 -0.41431252221E+02 -0.21514976897E+02  0.56051471981E+02  0.00000000000E+00 0.  1.
         21    1    1    2  505  502 -0.72615982787E+02  0.12100584020E+03  0.26303139389E+03  0.29849792042E+03  0.00000000000E+00 0.  1.
         -3    1    1    2    0  505  0.50310687828E+02 -0.17628629639E+02 -0.37453372118E+03  0.37830865995E+03  0.00000000000E+00 0.  1.
<scales pt_clust_3="43.46265" pt_clust_4="43.46265" pt_clust_5="133.17444" pt_clust_6="53.30979"></scales>
<clustering>
<clus scale="   43.463">  3  4 -1 -1</clus>
<clus scale="   53.310">  2  6  1 -1</clus>
<clus scale="  133.174">  1  5  2 -1</clus>
<clus scale="  133.174">  1  3  2 -1</clus>
</clustering>
</event>
<event>
 6    0  0.2839294E+002  0.1372325E+03  0.7546771E-02  0.1217102E+00
         21   -1    0    0  505  502  0.00000000000E+00  0.00000000000E+00  0.20498712282E+04  0.20498712282E+04  0.00000000000E+00 0.  1.
          1   -1    0    0  504    0 -0.00000000000E+00 -0.00000000000E+00 -0.54275177270E+03  0.54275177270E+03  0.00000000000E+00 0. -1.
         21    1    1    2  503  502 -0.33808598211E+02  0.61202414950E+01  0.90893640235E+03  0.90958554418E+03  0.00000000000E+00 0.  1.
         21    1    1    2  504  503 -0.41414676745E+02  0.10738943711E+03 -0.25616402111E+03  0.28083388749E+03  0.00000000000E+00 0.  1.
         21    1    1    2  505  501  0.55442551165E+01  0.84418193988E+02  0.10862033410E+04  0.10894929409E+04  0.00000000000E+00 0.  1.
          1    1    1    2  501    0  0.69679019840E+02 -0.19792787260E+03 -0.23185626682E+03  0.31271062825E+03  0.00000000000E+00 0. -1.
<scales pt_clust_3="34.35809" pt_clust_4="137.23252" pt_clust_5="94.12193" pt_clust_6="14000.00000"></scales>
<clustering>
<clus scale="   34.358">  1  3  2 -1</clus>
<clus scale="   94.122">  1  5  2 -1</clus>
<clus scale="  137.233">  2  4  1 -1</clus>
<clus scale="   34.358">  1  3  2 -1</clus>
</clustering>
</event>
<event>
 6    0  0.2839294E+002  0.1665131E+03  0.7546771E-02  0.1181534E+00
         -1   -1    0    0    0  501 -0.00000000000E+00  0.00000000000E+00  0.19996725974E+03  0.19996725974E+03  0.00000000000E+00 0. -1.
         21   -1    0    0  503  502  0.00000000000E+00 -0.00000000000E+00 -0.29748215527E+03  0.29748215527E+03  0.00000000000E+00 0.  1.
         21    1    1    2  503  501 -0.87901181518E+02 -0.82595657653E+02 -0.75890791712E+01  0.12085633826E+03  0.00000000000E+00 0.  1.
         21    1    1    2  504  502 -0.43251010258E+02 -0.36602326784E+02 -0.16139420383E+03  0.17105107204E+03  0.00000000000E+00 0.  1.
         21    1    1    2  505  504  0.26224109442E+02  0.66956921278E+02  0.82887376902E+01  0.72385332737E+02  0.00000000000E+00 0. -1.
         -1    1    1    2    0  505  0.10492808233E+03  0.52241063159E+02  0.63179649787E+02  0.13315667197E+03  0.00000000000E+00 0. -1.
<scales pt_clust_3="148.31013" pt_clust_4="56.66022" pt_clust_5="57.93525" pt_clust_6="57.93525"></scales>
<clustering>
<clus scale="   56.660">  2  4  1 -1</clus>
<clus scale="   57.935">  5  6 -1 -1</clus>
<clus scale="  148.310">  2  3  1 -1</clus>
<clus scale="   56.660">  2  3  1 -1</clus>
</clustering>
</event>
<event>
 6    0  0.2839294E+002  0.9223247E+02  0.7546771E-02  0.1297534E+00
          1   -1    0    0  505    0 -0.00000000000E+00  0.00000000000E+00  0.14029019313E+04  0.14029019313E+04  0.00000000000E+00 0. -1.
         21   -1    0    0  503  502  0.00000000000E+00 -0.00000000000E+00 -0.35019081800E+02  0.35019081800E+02  0.00000000000E+00 0. -1.
         21    1    1    2  503  501 -0.88173322162E+02  0.16719769573E+02  0.99564599304E+02  0.13404176539E+03  0.00000000000E+00 0. -1.
         21    1    1    2  504  502  0.78851610153E+02 -0.71188540822E+02  0.19690017700E+03  0.22372989177E+03  0.00000000000E+00 0. -1.
         21    1    1    2  505  504 -0.50384117611E+02  0.16050656088E+01  0.26147158608E+03  0.26628654842E+03  0.00000000000E+00 0. -1.
          1    1    1    2  501    0  0.59705829620E+02  0.52863705641E+02  0.80994648709E+03  0.81386280749E+03  0.00000000000E+00 0. -1.
<scales pt_clust_3="92.23247" pt_clust_4="14000.00000" pt_clust_5="50.40968" pt_clust_6="59.01597"></scales>
<clustering>
<clus scale="   50.410">  1  5  2 -1</clus>
<clus scale="   59.016">  1  6  2 -1</clus>
<clus scale="   92.232">  2  3  1 -1</clus>
<clus scale="   92.232">  2  3  1 -1</clus>
</clustering>
</event>
<event>
 6    0  0.2839294E+002  0.1082233E+03  0.7546771E-02  0.1263896E+00
         21   -1    0    0  505  502  0.00000000000E+00  0.00000000000E+00  0.11323359206E+04  0.11323359206E+04  0.00000000000E+00 0. -1.
          2   -1    0    0  503    0 -0.00000000000E+00 -0.00000000000E+00 -0.15869442146E+03  0.15869442146E+03  0.00000000000E+00 0.  1.
         21    1    1    2  503  504  0.35225360126E+02 -0.86227041991E+01  0.42667220842E+01  0.36515502749E+02  0.00000000000E+00 0.  1.
         21    1    1    2  504  502 -0.35586982969E+02 -0.60518565660E+02  0.36906238354E+03  0.37568067968E+03  0.00000000000E+00 0. -1.
         21    1    1    2  505  501  0.12608345327E+03  0.52083497640E+01  0.69667735907E+03  0.70801377581E+03  0.00000000000E+00 0. -1.
          2    1    1    2  501    0 -0.12572183042E+03  0.63932920095E+02 -0.96364965598E+02  0.17082038377E+03  0.00000000000E+00 0.  1.
<scales pt_clust_3="36.26537" pt_clust_4="69.96907" pt_clust_5="108.22331" pt_clust_6="14000.00000"></scales>
<clustering>
<clus scale="   36.265">  2  3  1 -1</clus>
<clus scale="   69.969">  1  4  2 -1</clus>
<clus scale="  108.223">  1  5  2 -1</clus>
<clus scale="   69.969">  1  3  2 -1</clus>
</clustering>
</event>
<event>
 6    0  0.2839294E+002  0.6296835E+02  0.7546771E-02  0.1385781E+00
         21   -1    0    0  504  502  0.00000000000E+00  0.00000000000E+00  0.95225749222E+02  0.95225749222E+02  0.00000000000E+00 0. -1.
         -1   -1    0    0    0  501 -0.00000000000E+00 -0.00000000000E+00 -0.17526662680E+04  0.17526662680E+04  0.00000000000E+00 0. -1.
         21    1    1    2  503  502 -0.47647081723E+02 -0.33168904708E+02 -0.52553070378E+02  0.78308657519E+02  0.00000000000E+00 0. -1.
         21    1    1    2  504  505  0.24485886033E+02 -0.24893289773E+02  0.74081172475E+02  0.81897830287E+02  0.00000000000E+00 0. -1.
         21    1    1    2  505  501 -0.58059997597E+02 -0.16766830398E+02 -0.65287521503E+03  0.65566617750E+03  0.00000000000E+00 0. -1.
         -1    1    1    2    0  503  0.81221193286E+02  0.74829024879E+02 -0.10260934058E+04  0.10320193519E+04  0.00000000000E+00 0. -1.
<scales pt_clust_3="62.96835" pt_clust_4="34.91754" pt_clust_5="59.13938" pt_clust_6="14000.00000"></scales>
<clustering>
<clus scale="   34.918">  1  4  2 -1</clus>
<clus scale="   59.139">  2  5  1 -1</clus>
<clus scale="   62.968">  1  3  2 -1</clus>
<clus scale="   34.918">  1  3  2 -1</clus>
</clustering>
</event>
<event>
 6    0  0.2839294E+002  0.1663829E+03  0.7546771E-02  0.1181673E+00
         21   -1    0    0  504  502  0.00000000000E+00  0.00000000000E+00  0.12432515765E+03  0.12432515765E+03  0.00000000000E+00 0.  1.
          1   -1    0    0  503    0 -0.00000000000E+00 -0.00000000000E+00 -0.25989945713E+04  0.25989945713E+04  0.00000000000E+00 0.  1.
         21    1    1    2  503  505  0.43379728515E+01 -0.32283523698E+02 -0.82913905034E+02  0.89082880279E+02  0.00000000000E+00 0. -1.
         21    1    1    2  504  501 -0.18941963777E+02  0.16750804038E+03  0.58750500431E+02  0.17851992293E+03  0.00000000000E+00 0.  1.
         21    1    1    2  505  502  0.19649796303E+02 -0.44236253636E+02 -0.36175066804E+03  0.36497466550E+03  0.00000000000E+00 0.  1.
          1    1    1    2  501    0 -0.50458053776E+01 -0.90988263042E+02 -0.20887553410E+04  0.20907422602E+04  0.00000000000E+00 0.  1.
<scales pt_clust_3="32.57367" pt_clust_4="14000.00000" pt_clust_5="52.94131" pt_clust_6="166.38288"></scales>
<clustering>
<clus scale="   32.574">  2  3  1 -1</clus>
<clus scale="   52.941">  2  5  1 -1</clus>
<clus scale="  166.383">  2  6  1 -1</clus>
<clus scale="  166.383">  1  3  2 -1</clus>
</clustering>
</event>
<event>
 6    0  0.2839294E+002  0.1117155E+03  0.7546771E-02  0.1257426E+00
         21   -1    0    0  504  502  0.00000000000E+00  0.00000000000E+00  0.48887138889E+02  0.48887138889E+02  0.00000000000E+00 0. -1.
          2   -1    0    0  503    0 -0.00000000000E+00 -0.00000000000E+00 -0.19979453984E+04  0.19979453984E+04  0.00000000000E+00 0. -1.
         21    1    1    2  503  505  0.13839380697E+02  0.33109350424E+02 -0.19400857025E+03  0.19729947510E+03  0.00000000000E+00 0. -1.
         21    1    1    2  504  501  0.27714734608E+02 -0.19424554052E+02 -0.15848708416E+02  0.37371130207E+02  0.00000000000E+00 0.  1.
         21    1    1    2  505  502 -0.71572564072E+02 -0.86453916205E+02 -0.52993008926E+02  0.12411756745E+03  0.00000000000E+00 0. -1.
          2    1    1    2  501    0  0.30018448767E+02  0.72769119833E+02 -0.16862079720E+04  0.16880443646E+04  0.00000000000E+00 0. -1.
<scales pt_clust_3="35.60176" pt_clust_4="33.84405" pt_clust_5="14000.00000" pt_clust_6="111.71552"></scales>
<clustering>
<clus scale="   33.844">  1  4  2 -1</clus>
<clus scale="   35.602">  2  3  1 -1</clus>
<clus scale="  111.716">  2  6  1 -1</clus>
<clus scale="   33.844">  1  3  2 -1</clus>
</clustering>
</event>
<event>
 6    0  0.2839294E+002  0.1336727E+03  0.7546771E-02  0.1222106E+00
          2   -1    0    0  504    0 -0.00000000000E+00  0.00000000000E+00  0.26436538681E+03  0.26436538681E+03  0.00000000000E+00 0. -1.
         21   -1    0    0  501  502  0.00000000000E+00 -0.00000000000E+00 -0.21674745460E+03  0.21674745460E+03  0.00000000000E+00 0. -1.
         21    1    1    2  503  502  0.57428995698E+02 -0.11743819268E+03 -0.15730189315E+03  0.20453289279E+03  0.00000000000E+00 0. -1.
         21    1    1    2  504  505 -0.10875970203E+02  0.42852318728E+02  0.54457622319E+02  0.70144426555E+02  0.00000000000E+00 0. -1.
         21    1    1    2  505  503 -0.16915273297E+02  0.53253438704E+02  0.45916594000E+01  0.56063700739E+02  0.00000000000E+00 0. -1.
          2    1    1    2  501    0 -0.29637752197E+02  0.21332435244E+02  0.14587054364E+03  0.15037182133E+03  0.00000000000E+00 0. -1.
<scales pt_clust_3="124.23924" pt_clust_4="48.05161" pt_clust_5="48.05161" pt_clust_6="36.51670"></scales>
<clustering>
<clus scale="   36.517">  1  6  2 -1</clus>
<clus scale="   48.052">  4  5 -1 -1</clus>
<clus scale="  124.239">  2  3  1 -1</clus>
<clus scale="  124.239">  2  3  1 -1</clus>
</clustering>
</event>
<event>
 6    0  0.2839294E+002  0.1323182E+03  0.7546771E-02  0.1224056E+00
          3   -1    0    0  503    0 -0.00000000000E+00  0.00000000000E+00  0.21596676872E+03  0.21596676872E+03  0.00000000000E+00 0.  1.
         21   -1    0    0  504  502  0.00000000000E+00 -0.00000000000E+00 -0.22422375277E+03  0.22422375277E+03  0.00000000000E+00 0.  1.
         21    1    1    2  503  502  0.12309107744E+03  0.27233089083E+02 -0.14787289544E+03  0.19431790368E+03  0.00000000000E+00 0.  1.
         21    1    1    2  504  505 -0.53571564955E+02 -0.10127565043E+01  0.13106531366E+01  0.53597164656E+02  0.00000000000E+00 0.  1.
         21    1    1    2  505  501 -0.56774931702E+02  0.35488521564E+02  0.48957631370E+02  0.82943822566E+02  0.00000000000E+00 0. -1.
          3    1    1    2  501    0 -0.12744580784E+02 -0.61708854142E+02  0.89347626878E+02  0.10933163059E+03  0.00000000000E+00 0.  1.
<scales pt_clust_3="121.47634" pt_clust_4="46.92579" pt_clust_5="46.92579" pt_clust_6="63.01117"></scales>
<clustering>
<clus scale="   46.926">  4  5 -1 -1</clus>
<clus scale="   63.011">  1  6  2 -1</clus>
<clus scale="  121.476">  2  3  1 -1</clus>
<clus scale="  121.476">  2  3  1 -1</clus>
</clustering>
</event>
<event>
 6    0  0.2839294E+002  0.8522636E+02  0.7546771E-02  0.1314842E+00
          1   -1    0    0  503    0 -0.00000000000E+00  0.00000000000E+00  0.78104646975E+03  0.78104646975E+03  0.00000000000E+00 0.  1.
         21   -1    0    0  504  502  0.00000000000E+00 -0.00000000000E+00 -0.51844765627E+02  0.51844765627E+02  0.00000000000E+00 0.  1.
         21    1    1    2  503  505  0.25048313736E+02 -0.56807085150E+02  0.20609678171E+03  0.21524485215E+03  0.00000000000E+00 0.  1.
         21    1    1    2  504  501 -0.11614515813E+03 -0.20100559424E+02  0.36037494152E+03  0.37916200854E+03  0.00000000000E+00 0.  1.
         21    1    1    2  505  502  0.60025638156E+02  0.72876378399E+01  0.18963841300E+01  0.60496141811E+02  0.00000000000E+00 0.  1.
          1    1    1    2  501    0  0.31071206242E+02  0.69620006733E+02  0.16083359676E+03  0.17798823288E+03  0.00000000000E+00 0.  1.
<scales pt_clust_3="66.68636" pt_clust_4="14000.00000" pt_clust_5="60.46641" pt_clust_6="85.22636"></scales>
<clustering>
<clus scale="   60.466">  2  5  1 -1</clus>
<clus scale="   66.686">  1  3  2 -1</clus>
<clus scale="   85.226">  1  6  2 -1</clus>
<clus scale="   60.466">  2  3  1 -1</clus>
</clustering>
</event>
<event>
 6    0  0.2839294E+002  0.1204074E+03  0.7546771E-02  0.1242426E+00
         -1   -1    0    0    0  501 -0.00000000000E+00  0.00000000000E+00  0.80560966729E+02  0.80560966729E+02  0.00000000000E+00 0. -1.
         21   -1    0    0  503  502  0.00000000000E+00 -0.00000000000E+00 -0.25870025010E+04  0.25870025010E+04  0.00000000000E+00 0.  1.
         21    1    1    2  503  501 -0.34222031832E+01  0.46601767789E+02 -0.16879213759E+04  0.16885680346E+04  0.00000000000E+00 0.  1.
         21    1    1    2  504  505  0.32066382877E+02 -0.24592733938E+02  0.31975344237E+02  0.51531331367E+02  0.00000000000E+00 0. -1.
         21    1    1    2  505  502 -0.86348296867E+02  0.24439652938E+02 -0.84863305785E+03  0.85336474727E+03  0.00000000000E+00 0.  1.
         -1    1    1    2    0  504  0.57704117173E+02 -0.46448686789E+02 -0.18624448046E+01  0.74099354544E+02  0.00000000000E+00 0. -1.
<scales pt_clust_3="46.72725" pt_clust_4="31.07984" pt_clust_5="112.81531" pt_clust_6="31.07984"></scales>
<clustering>
<clus scale="   31.080">  4  6 -1 -1</clus>
<clus scale="   46.727">  2  3  1 -1</clus>
<clus scale="  112.815">  2  5  1 -1</clus>
<clus scale="   46.727">  2  3  1 -1</clus>
</clustering>
</event>
<event>
 6    0  0.2839294E+002  0.1398018E+03  0.7546771E-02  0.1213596E+00
         21   -1    0    0  505  502  0.00000000000E+00  0.00000000000E+00  0.11995898199E+03  0.11995898199E+03  0.00000000000E+00 0.  1.
          2   -1    0    0  503    0 -0.00000000000E+00 -0.00000000000E+00 -0.13636745518E+04  0.13636745518E+04  0.00000000000E+00 0.  1.
         21    1    1    2  503  504  0.18801967008E+02 -0.31015445399E+02 -0.89709244080E+02  0.96763734374E+02  0.00000000000E+00 0. -1.
         21    1    1    2  504  502 -0.15203322920E+02  0.93594660891E+02  0.75390086076E+02  0.12113945127E+03  0.00000000000E+00 0.  1.
         21    1    1    2  505  501  0.74389858149E+02  0.41121202709E+02 -0.11086998732E+03  0.13970310804E+03  0.00000000000E+00 0. -1.
          2    1    1    2  501    0 -0.77988502237E+02 -0.10370041820E+03 -0.11185264245E+04  0.11260272402E+04  0.00000000000E+00 0.  1.
<scales pt_clust_3="36.26943" pt_clust_4="14000.00000" pt_clust_5="85.21686" pt_clust_6="139.80181"></scales>
<clustering>
<clus scale="   36.269">  2  3  1 -1</clus>
<clus scale="   85.217">  1  5  2 -1</clus>
<clus scale="  139.802">  2  6  1 -1</clus>
<clus scale="   85.217">  1  3  2 -1</clus>
</clustering>
</event>
<event>
 6    0  0.2839294E+002  0.1009303E+03  0.7546771E-02  0.1278352E+00
         21   -1    0    0  504  502  0.00000000000E+00  0.00000000000E+00  0.17672829792E+02  0.17672829792E+02  0.00000000000E+00 0. -1.
          2   -1    0    0  503    0 -0.00000000000E+00 -0.00000000000E+00 -0.35577700155E+04  0.35577700155E+04  0.00000000000E+00 0.  1.
         21    1    1    2  503  505  0.31561902447E+02  0.45595312256E+02 -0.52978333941E+03  0.53267764446E+03  0.00000000000E+00 0. -1.
         21    1    1    2  504  501 -0.10521708228E+03 -0.75956967343E+02 -0.44598077630E+03  0.46447706953E+03  0.00000000000E+00 0. -1.
         21    1    1    2  505  502  0.89730751491E+01  0.37656423255E+02 -0.50585027757E+02  0.63697467165E+02  0.00000000000E+00 0. -1.
          2    1    1    2  501    0  0.64682104685E+02 -0.72947681679E+01 -0.25137480422E+04  0.25145906641E+04  0.00000000000E+00 0.  1.
<scales pt_clust_3="60.17675" pt_clust_4="14000.00000" pt_clust_5="38.71075" pt_clust_6="100.93034"></scales>
<clustering>
<clus scale="   38.711">  1  5  2 -1</clus>
<clus scale="   60.177">  2  3  1 -1</clus>
<clus scale="  100.930">  2  6  1 -1</clus>
<clus scale="   38.711">  1  3  2 -1</clus>
</clustering>
</event>
<event>
 6    0  0.2839294E+002  0.1624489E+03  0.7546771E-02  0.1185959E+00
          2   -1    0    0  505    0 -0.00000000000E+00  0.00000000000E+00  0.14506982721E+04  0.14506982721E+04  0.00000000000E+00 0.  1.
         21   -1    0    0  503  502  0.00000000000E+00 -0.00000000000E+00 -0.41362598952E+02  0.41362598952E+02  0.00000000000E+00 0.  1.
         21    1    1    2  503  504 -0.10731727802E+03 -0.15496521808E+03  0.28608242015E+03  0.34259942805E+03  0.00000000000E+00 0.  1.
         21    1    1    2  504  501  0.39958952689E+02  0.45866103464E+02  0.31157752146E+03  0.31746018526E+03  0.00000000000E+00 0.  1.
         21    1    1    2  505  502  0.25072132892E+02  0.28430411682E+02  0.40524456931E+02  0.55489924903E+02  0.00000000000E+00 0.  1.
          2    1    1    2  501    0  0.42286192444E+02  0.80668702935E+02  0.77115127462E+03  0.77651133286E+03  0.00000000000E+00 0.  1.
<scales pt_clust_3="157.13984" pt_clust_4="33.66323" pt_clust_5="37.90647" pt_clust_6="33.66323"></scales>
<clustering>
<clus scale="   33.663">  4  6 -1 -1</clus>
<clus scale="   37.906">  2  5  1 -1</clus>
<clus scale="  157.140">  2  3  1 -1</clus>
<clus scale="   37.906">  2  3  1 -1</clus>
</clustering>
</event>
<event>
 6    0  0.2839294E+002  0.5727588E+02  0.7546771E-02  0.1409633E+00
         21   -1    0    0  505  502  0.00000000000E+00  0.00000000000E+00  0.59331919004E+02  0.59331919004E+02  0.00000000000E+00 0.  1.
          2   -1    0    0  504    0 -0.00000000000E+00 -0.00000000000E+00 -0.13247425071E+04  0.13247425071E+04  0.00000000000E+00 0. -1.
         21    1    1    2  503  501  0.85912057343E+02 -0.31458551626E+02 -0.42001149363E+02  0.10067084293E+03  0.00000000000E+00 0.  1.
         21    1    1    2  504  502  0.32404377844E+02 -0.73759621999E+01 -0.43320096176E+03  0.43447384478E+03  0.00000000000E+00 0.  1.
         21    1    1    2  505  503 -0.43564327279E+02  0.94780210963E+00  0.97016216691E+01  0.44641577068E+02  0.00000000000E+00 0.  1.
          2    1    1    2  501    0 -0.74752107909E+02  0.37886711717E+02 -0.79991009869E+03  0.80428816138E+03  0.00000000000E+00 0. -1.
<scales pt_clust_3="57.27588" pt_clust_4="33.23324" pt_clust_5="42.93641" pt_clust_6="14000.00000"></scales>
<clustering>
<clus scale="   33.233">  2  4  1 -1</clus>
<clus scale="   42.936">  1  5  2 -1</clus>
<clus scale="   57.276">  1  3  2 -1</clus>
<clus scale="   42.936">  1  3  2 -1</clus>
</clustering>
</event>
<event>
 6    0  0.2839294E+002  0.1948509E+03  0.7546771E-02  0.1154157E+00
          2   -1    0    0  505    0 -0.00000000000E+00  0.00000000000E+00  0.12269680058E+03  0.12269680058E+03  0.00000000000E+00 0.  1.
         21   -1    0    0  503  502  0.00000000000E+00 -0.00000000000E+00 -0.47105121628E+03  0.47105121628E+03  0.00000000000E+00 0.  1.
         21    1    1    2  503  501  0.33745360165E+02 -0.32247683581E+02 -0.26753213355E+02  0.53799599012E+02  0.00000000000E+00 0.  1.
         21    1    1    2  504  502 -0.53476493221E+02  0.31055290124E+02 -0.93808384049E+02  0.11235737310E+03  0.00000000000E+00 0.  1.
         21    1    1    2  505  504 -0.71140216510E+02  0.10509282269E+03 -0.25688816060E+03  0.28652566873E+03  0.00000000000E+00 0.  1.
          2    1    1    2  501    0  0.90871349567E+02 -0.10390042923E+03  0.29095342304E+02  0.14106537601E+03  0.00000000000E+00 0.  1.
<scales pt_clust_3="36.32106" pt_clust_4="31.63657" pt_clust_5="190.05161" pt_clust_6="36.32106"></scales>
<clustering>
<clus scale="   31.637">  4  5 -1 -1</clus>
<clus scale="   36.321">  3  6 -1 -1</clus>
<clus scale="  190.052">  2  4  1 -1</clus>
<clus scale="  190.052">  2  3  1 -1</clus>
</clustering>
</event>
<event>
 6    0  0.2839294E+002  0.2288816E+03  0.7546771E-02  0.1127429E+00
          2   -1    0    0  503    0 -0.00000000000E+00  0.00000000000E+00  0.42045019634E+03  0.42045019634E+03  0.00000000000E+00 0.  1.
         21   -1    0    0  505  502  0.00000000000E+00 -0.00000000000E+00 -0.43094276416E+03  0.43094276416E+03  0.00000000000E+00 0.  1.
         21    1    1    2  503  504  0.24564544544E+03 -0.25310565786E+02 -0.27128115337E+03  0.36684570841E+03  0.00000000000E+00 0.  1.
         21    1    1    2  504  502 -0.30182310741E+02  0.31050636143E+02 -0.70928116335E+02  0.83101814501E+02  0.00000000000E+00 0. -1.
         21    1    1    2  505  501 -0.46680908166E+02  0.83433238847E+01  0.32075936146E+02  0.57250187077E+02  0.00000000000E+00 0. -1.
          2    1    1    2  501    0 -0.16878222653E+03 -0.14083394242E+02  0.29964076574E+03  0.34419525051E+03  0.00000000000E+00 0.  1.
<scales pt_clust_3="218.45276" pt_clust_4="43.30259" pt_clust_5="36.14101" pt_clust_6="36.14101"></scales>
<clustering>
<clus scale="   36.141">  5  6 -1 -1</clus>
<clus scale="   43.303">  2  4  1 -1</clus>
<clus scale="  218.453">  2  3  1 -1</clus>
<clus scale="   43.303">  2  3  1 -1</clus>
</clustering>
</event>
<event>
 6    0  0.2839294E+002  0.1177490E+03  0.7546771E-02  0.1246857E+00
         21   -1    0    0  505  502  0.00000000000E+00  0.00000000000E+00  0.85133428937E+02  0.85133428937E+02  0.00000000000E+00 0.  1.
          2   -1    0    0  502    0 -0.00000000000E+00 -0.00000000000E+00 -0.10353065772E+04  0.10353065772E+04  0.00000000000E+00 0.  1.
         21    1    1    2  503  501 -0.71113807355E+02 -0.53442562461E+01 -0.41481186269E+03  0.42089739379E+03  0.00000000000E+00 0.  1.
         21    1    1    2  504  503  0.10146203471E+03  0.54465106686E+02 -0.60715268401E+02  0.13018193481E+03  0.00000000000E+00 0.  1.
         21    1    1    2  505  504  0.48337260096E+01 -0.37623776229E+02  0.38987016321E+02  0.54395780043E+02  0.00000000000E+00 0.  1.
          2    1    1    2  501    0 -0.35181953361E+02 -0.11497074211E+02 -0.51363303351E+03  0.51496489752E+03  0.00000000000E+00 0.  1.
<scales pt_clust_3="34.14142" pt_clust_4="107.79115" pt_clust_5="37.93301" pt_clust_6="34.14142"></scales>
<clustering>
<clus scale="   34.141">  3  6 -1 -1</clus>
<clus scale="   37.933">  1  5  2 -1</clus>
<clus scale="  107.791">  1  4  2 -1</clus>
<clus scale="   37.933">  1  3  2 -1</clus>
</clustering>
</event>
<event>
 6    0  0.2839294E+002  0.5919169E+02  0.7546771E-02  0.1401255E+00
          2   -1    0    0  504    0 -0.00000000000E+00  0.00000000000E+00  0.25434492902E+03  0.25434492902E+03  0.00000000000E+00 0.  1.
         21   -1    0    0  503  502  0.00000000000E+00 -0.00000000000E+00 -0.31521830970E+03  0.31521830970E+03  0.00000000000E+00 0.  1.
         21    1    1    2  503  501  0.82941725184E+02  0.48294284658E+02 -0.23223175479E+03  0.25128321798E+03  0.00000000000E+00 0.  1.
         21    1    1    2  504  505  0.25484069661E+01  0.40262646292E+02  0.61497434182E+01  0.40809244157E+02  0.00000000000E+00 0. -1.
         21    1    1    2  505  502 -0.36709412592E+02 -0.20446621848E+02 -0.38635839294E+02  0.57082163552E+02  0.00000000000E+00 0.  1.
          2    1    1    2  501    0 -0.48780719558E+02 -0.68110309103E+02  0.20384446999E+03  0.22038861303E+03  0.00000000000E+00 0.  1.
<scales pt_clust_3="59.19169" pt_clust_4="40.34322" pt_clust_5="41.17027" pt_clust_6="14000.00000"></scales>
<clustering>
<clus scale="   40.343">  1  4  2 -1</clus>
<clus scale="   41.170">  2  5  1 -1</clus>
<clus scale="   59.192">  2  3  1 -1</clus>
<clus scale="   41.170">  2  3  1 -1</clus>
</clustering>
</event>
<event>
 6    0  0.2839294E+002  0.2162976E+03  0.7546771E-02  0.1136674E+00
          1   -1    0    0  504    0 -0.00000000000E+00  0.00000000000E+00  0.44337108467E+03  0.44337108467E+03  0.00000000000E+00 0. -1.
         21   -1    0    0  503  502  0.00000000000E+00 -0.00000000000E+00 -0.61636918785E+03  0.61636918785E+03  0.00000000000E+00 0. -1.
         21    1    1    2  503  501  0.16996961904E+02  0.53079525528E+02 -0.13686605030E+03  0.14777905288E+03  0.00000000000E+00 0. -1.
         21    1    1    2  504  505 -0.55268069084E+02  0.76870432395E+02  0.51137870040E+02  0.10760438926E+03  0.00000000000E+00 0. -1.
         21    1    1    2  505  502  0.15821005979E+03 -0.19203036475E+03 -0.39583116048E+03  0.46753437479E+03  0.00000000000E+00 0. -1.
          1    1    1    2  501    0 -0.11993895261E+03  0.62080406831E+02  0.30856123755E+03  0.33682245559E+03  0.00000000000E+00 0. -1.
<scales pt_clust_3="55.73448" pt_clust_4="96.68903" pt_clust_5="216.29760" pt_clust_6="14000.00000"></scales>
<clustering>
<clus scale="   55.734">  2  3  1 -1</clus>
<clus scale="   96.689">  1  4  2 -1</clus>
<clus scale="  216.298">  2  5  1 -1</clus>
<clus scale="   55.734">  2  3  1 -1</clus>
</clustering>
</event>
<event>
 6    0  0.2839294E+002  0.1072103E+03  0.7546771E-02  0.1265825E+00
          2   -1    0    0  505    0 -0.00000000000E+00  0.00000000000E+00  0.20872528325E+03  0.20872528325E+03  0.00000000000E+00 0. -1.
         21   -1    0    0  503  502  0.00000000000E+00 -0.00000000000E+00 -0.12522522641E+04  0.12522522641E+04  0.00000000000E+00 0. -1.
         21    1    1    2  503  504  0.99269650766E+02  0.37749637750E+02 -0.11515351743E+04  0.11564223953E+04  0.00000000000E+00 0. -1.
         21    1    1    2  504  501 -0.10974649452E+03 -0.12411785806E+03  0.27330467272E+02  0.16791810561E+03  0.00000000000E+00 0. -1.
         21    1    1    2  505  502  0.30980284473E+02  0.36971843765E+02  0.12211226193E+02  0.49757504987E+02  0.00000000000E+00 0. -1.
          2    1    1    2  501    0 -0.20503440718E+02  0.49396376545E+02  0.68466500004E+02  0.86879541434E+02  0.00000000000E+00 0. -1.
<scales pt_clust_3="14000.00000" pt_clust_4="107.21026" pt_clust_5="48.23583" pt_clust_6="65.92210"></scales>
<clustering>
<clus scale="   48.236">  1  5  2 -1</clus>
<clus scale="   65.922">  1  6  2 -1</clus>
<clus scale="  107.210">  1  4  2 -1</clus>
<clus scale="  107.210">  2  3  1 -1</clus>
</clustering>
</event>
<event>
 6    0  0.2839294E+002  0.1345345E+03  0.7546771E-02  0.1220878E+00
         21   -1    0    0  505  502  0.00000000000E+00  0.00000000000E+00  0.29874683261E+02  0.29874683261E+02  0.00000000000E+00 0. -1.
          1   -1    0    0  503    0 -0.00000000000E+00 -0.00000000000E+00 -0.30218969832E+04  0.30218969832E+04  0.00000000000E+00 0. -1.
         21    1    1    2  503  502 -0.10205181950E+03  0.14835308858E+03 -0.40973229354E+03  0.44755308637E+03  0.00000000000E+00 0. -1.
         21    1    1    2  504  501  0.49648280133E+02  0.12227714084E+00 -0.53002251753E+03  0.53234278032E+03  0.00000000000E+00 0. -1.
         21    1    1    2  505  504 -0.13252707133E+02 -0.11419833207E+03 -0.35834785022E+03  0.37633771410E+03  0.00000000000E+00 0.  1.
          1    1    1    2  501    0  0.65656246500E+02 -0.34277033652E+02 -0.16939196387E+04  0.16955380857E+04  0.00000000000E+00 0. -1.
<scales pt_clust_3="122.58372" pt_clust_4="45.38473" pt_clust_5="114.96475" pt_clust_6="45.38473"></scales>
<clustering>
<clus scale="   45.385">  4  6 -1 -1</clus>
<clus scale="  114.965">  1  5  2 -1</clus>
<clus scale="  122.584">  1  3  2 -1</clus>
<clus scale="  114.965">  1  3  2 -1</clus>
</clustering>
</event>
<event>
 6    0  0.2839294E+002  0.1074907E+03  0.7546771E-02  0.1265289E+00
         21   -1    0    0  505  502  0.00000000000E+00  0.00000000000E+00  0.33305202162E+03  0.33305202162E+03  0.00000000000E+00 0.  1.
          2   -1    0    0  503    0 -0.00000000000E+00 -0.00000000000E+00 -0.41055168368E+03  0.41055168368E+03  0.00000000000E+00 0.  1.
         21    1    1    2  503  504 -0.77445656202E+02 -0.75847290523E+02 -0.11946132712E+03  0.16131227424E+03  0.00000000000E+00 0.  1.
         21    1    1    2  504  502 -0.19054889791E+02 -0.32490298500E+02  0.28733198421E+03  0.28979023012E+03  0.00000000000E+00 0.  1.
         21    1    1    2  505  501  0.40305874769E+02  0.15851182056E+02 -0.34089872016E+02  0.55117537023E+02  0.00000000000E+00 0. -1.
          2    1    1    2  501    0  0.56194671225E+02  0.92486406966E+02 -0.21128044714E+03  0.23738366391E+03  0.00000000000E+00 0.  1.
<scales pt_clust_3="14000.00000" pt_clust_4="37.66574" pt_clust_5="36.72400" pt_clust_6="107.49068"></scales>
<clustering>
<clus scale="   37.666">  1  4  2 -1</clus>
<clus scale="   36.724">  1  5  2 -1</clus>
<clus scale="  107.491">  2  6  1 -1</clus>
<clus scale="   37.666">  1  3  2 -1</clus>
</clustering>
</event>
<event>
 6    0  0.2839294E+002  0.1615264E+03  0.7546771E-02  0.1186984E+00
          1   -1    0    0  504    0 -0.00000000000E+00  0.00000000000E+00  0.18106012800E+04  0.18106012800E+04  0.00000000000E+00 0.  1.
         21   -1    0    0  505  502  0.00000000000E+00 -0.00000000000E+00 -0.41515186557E+03  0.41515186557E+03  0.00000000000E+00 0.  1.
         21    1    1    2  503  501 -0.32142644735E+01 -0.90025071656E+02  0.95043449073E+03  0.95469396468E+03  0.00000000000E+00 0.  1.
         21    1    1    2  504  502  0.97324456087E+02  0.62846902865E+02 -0.32082628817E+03  0.34110304914E+03  0.00000000000E+00 0.  1.
         21    1    1    2  505  503 -0.59472202326E+02  0.90486569090E+02 -0.44019472653E+02  0.11688659465E+03  0.00000000000E+00 0. -1.
          1    1    1    2  501    0 -0.34637989288E+02 -0.63308400299E+02  0.80986068451E+03  0.81306953710E+03  0.00000000000E+00 0.  1.
<scales pt_clust_3="33.54606" pt_clust_4="157.11793" pt_clust_5="108.28094" pt_clust_6="33.54606"></scales>
<clustering>
<clus scale="   33.546">  3  6 -1 -1</clus>
<clus scale="  108.281">  2  5  1 -1</clus>
<clus scale="  157.118">  2  4  1 -1</clus>
<clus scale="  108.281">  2  3  1 -1</clus>
</clustering>
</event>
<event>
 6    0  0.2839294E+002  0.2352850E+03  0.7546771E-02  0.1122974E+00
         -3   -1    0    0    0  501 -0.00000000000E+00  0.00000000000E+00  0.21762325977E+04  0.21762325977E+04  0.00000000000E+00 0. -1.
         21   -1    0    0  504  502  0.00000000000E+00 -0.00000000000E+00 -0.11994589786E+03  0.11994589786E+03  0.00000000000E+00 0.  1.
         21    1    1    2  503  505  0.32765299473E+02  0.25685903876E+03  0.10871438007E+03  0.28083615700E+03  0.00000000000E+00 0.  1.
         21    1    1    2  504  501  0.46550940929E+02 -0.77061300193E+01  0.21096661464E+03  0.21617883114E+03  0.00000000000E+00 0. -1.
         21    1    1    2  505  502 -0.29279611065E+02 -0.23565376091E+02 -0.87405044376E+01  0.38587808856E+02  0.00000000000E+00 0. -1.
         -3    1    1    2    0  503 -0.50036629337E+02 -0.22558753265E+03  0.17453462096E+04  0.17605756986E+04  0.00000000000E+00 0. -1.
<scales pt_clust_3="14000.00000" pt_clust_4="46.51295" pt_clust_5="37.58487" pt_clust_6="235.28495"></scales>
<clustering>
<clus scale="   37.585">  2  5  1 -1</clus>
<clus scale="   46.513">  1  4  2 -1</clus>
<clus scale="  235.285">  1  6  2 -1</clus>
<clus scale="   37.585">  2  3  1 -1</clus>
</clustering>
</event>
<event>
 6    0  0.2839294E+002  0.7717866E+02  0.7546771E-02  0.1337254E+00
          2   -1    0    0  503    0 -0.00000000000E+00  0.00000000000E+00  0.87262038836E+03  0.87262038836E+03  0.00000000000E+00 0. -1.
         21   -1    0    0  501  502  0.00000000000E+00 -0.00000000000E+00 -0.40602535960E+02  0.40602535960E+02  0.00000000000E+00 0. -1.
         21    1    1    2  503  505  0.34487096181E+02 -0.22710314152E+02  0.11232414605E+03  0.11967385662E+03  0.00000000000E+00 0. -1.
         21    1    1    2  504  502 -0.51072928049E+02  0.62004055483E+02  0.32124364877E+02  0.86515441943E+02  0.00000000000E+00 0. -1.
         21    1    1    2  505  504 -0.56177873657E+02 -0.38804996560E+02  0.15311275366E+03  0.16764634377E+03  0.00000000000E+00 0. -1.
          2    1    1    2  501    0  0.72763705526E+02 -0.48874477159E+00  0.53445658781E+03  0.53938728199E+03  0.00000000000E+00 0. -1.
<scales pt_clust_3="41.29308" pt_clust_4="77.17866" pt_clust_5="65.50311" pt_clust_6="14000.00000"></scales>
<clustering>
<clus scale="   41.293">  1  3  2 -1</clus>
<clus scale="   65.503">  1  5  2 -1</clus>
<clus scale="   77.179">  2  4  1 -1</clus>
<clus scale="   77.179">  2  3  1 -1</clus>
</clustering>
</event>
<event>
 6    0  0.2839294E+002  0.3709314E+03  0.7546771E-02  0.1054337E+00
          2   -1    0    0  503    0 -0.00000000000E+00  0.00000000000E+00  0.40606780821E+03  0.40606780821E+03  0.00000000000E+00 0. -1.
         21   -1    0    0  504  502  0.00000000000E+00 -0.00000000000E+00 -0.12979544581E+04  0.12979544581E+04  0.00000000000E+00 0. -1.
         21    1    1    2  503  502  0.86471794247E+02 -0.34944166659E+02 -0.56566556064E+02  0.10907905963E+03  0.00000000000E+00 0.  1.
         21    1    1    2  504  505 -0.31151193789E+03  0.20038228375E+03 -0.11257091618E+04  0.11850796868E+04  0.00000000000E+00 0. -1.
         21    1    1    2  505  501  0.43149006699E+02 -0.67295334766E+01  0.22048144339E+02  0.48920793827E+02  0.00000000000E+00 0.  1.
          2    1    1    2  501    0  0.18189113695E+03 -0.15870858361E+03  0.26834092363E+03  0.36094272607E+03  0.00000000000E+00 0. -1.
<scales pt_clust_3="93.26557" pt_clust_4="363.23636" pt_clust_5="31.96919" pt_clust_6="31.96919"></scales>
<clustering>
<clus scale="   31.969">  5  6 -1 -1</clus>
<clus scale="   93.266">  1  3  2 -1</clus>
<clus scale="  363.236">  2  4  1 -1</clus>
<clus scale="  363.236">  2  3  1 -1</clus>
</clustering>
</event>
<event>
 6    0  0.2839294E+002  0.1241564E+03  0.7546771E-02  0.1236394E+00
          1   -1    0    0  504    0 -0.00000000000E+00  0.00000000000E+00  0.10726362692E+04  0.10726362692E+04  0.00000000000E+00 0. -1.
         21   -1    0    0  503  502  0.00000000000E+00 -0.00000000000E+00 -0.48064108216E+03  0.48064108216E+03  0.00000000000E+00 0. -1.
         21    1    1    2  503  501 -0.66189607039E+02 -0.27032469687E+02 -0.51519605119E+02  0.88125411824E+02  0.00000000000E+00 0. -1.
         21    1    1    2  504  505  0.15840755945E+02 -0.48388883944E+02  0.12335708705E+03  0.13345180615E+03  0.00000000000E+00 0. -1.
         21    1    1    2  505  502 -0.45403653315E+02 -0.42533838688E+02 -0.39710073122E+03  0.40194478464E+03  0.00000000000E+00 0. -1.
          1    1    1    2  501    0  0.95752504410E+02  0.11795519232E+03  0.91725843631E+03  0.92975534873E+03  0.00000000000E+00 0. -1.
<scales pt_clust_3="14000.00000" pt_clust_4="50.91575" pt_clust_5="62.26962" pt_clust_6="124.15638"></scales>
<clustering>
<clus scale="   50.916">  1  4  2 -1</clus>
<clus scale="   62.270">  2  5  1 -1</clus>
<clus scale="  124.156">  1  6  2 -1</clus>
<clus scale="   62.270">  2  3  1 -1</clus>
</clustering>
</event>
<event>
 6    0  0.2839294E+002  0.9119072E+02  0.7546771E-02  0.1299994E+00
          2   -1    0    0  505    0 -0.00000000000E+00  0.00000000000E+00  0.20083049087E+04  0.20083049087E+04  0.00000000000E+00 0.  1.
         21   -1    0    0  504  502  0.00000000000E+00 -0.00000000000E+00 -0.24579864334E+02  0.24579864334E+02  0.00000000000E+00 0.  1.
         21    1    1    2  503  502  0.38641790587E+02 -0.90284759209E+02  0.11273362915E+03  0.14951052427E+03  0.00000000000E+00 0.  1.
         21    1    1    2  504  501  0.42384954442E+02  0.25540866267E+02  0.14685616140E+03  0.15496952072E+03  0.00000000000E+00 0.  1.
         21    1    1    2  505  503 -0.20190408519E+02  0.54088591490E+02  0.68115153415E+03  0.68359391513E+03  0.00000000000E+00 0.  1.
          2    1    1    2  501    0 -0.60836336511E+02  0.10655301452E+02  0.10429837197E+04  0.10448108129E+04  0.00000000000E+00 0.  1.
<scales pt_clust_3="91.19072" pt_clust_4="49.48556" pt_clust_5="58.34775" pt_clust_6="14000.00000"></scales>
<clustering>
<clus scale="   49.486">  2  4  1 -1</clus>
<clus scale="   58.348">  1  5  2 -1</clus>
<clus scale="   91.191">  2  3  1 -1</clus>
<clus scale="   49.486">  2  3  1 -1</clus>
</clustering>
</event>
<event>
 6    0  0.2839294E+002  0.1296905E+03  0.7546771E-02  0.1227916E+00
          2   -1    0    0  505    0 -0.00000000000E+00  0.00000000000E+00  0.17431247483E+04  0.17431247483E+04  0.00000000000E+00 0. -1.
         21   -1    0    0  504  502  0.00000000000E+00 -0.00000000000E+00 -0.57544275114E+03  0.57544275114E+03  0.00000000000E+00 0.  1.
         21    1    1    2  503  501 -0.51339414127E+01 -0.42669181850E+02  0.10532618206E+02  0.44248756824E+02  0.00000000000E+00 0. -1.
         21    1    1    2  504  503 -0.36932340605E+02 -0.16926504515E+02 -0.46512752833E+03  0.46689840645E+03  0.00000000000E+00 0.  1.
         21    1    1    2  505  502  0.74573044665E+01 -0.67342772225E+02 -0.77281386045E+02  0.10277681154E+03  0.00000000000E+00 0.  1.
          2    1    1    2  501    0  0.34608977551E+02  0.12693845859E+03  0.16995582934E+04  0.17046435247E+04  0.00000000000E+00 0. -1.
<scales pt_clust_3="46.55249" pt_clust_4="40.62640" pt_clust_5="14000.00000" pt_clust_6="129.69050"></scales>
<clustering>
<clus scale="   40.626">  2  4  1 -1</clus>
<clus scale="   46.552">  2  3  1 -1</clus>
<clus scale="  129.691">  1  6  2 -1</clus>
<clus scale="   40.626">  2  3  1 -1</clus>
</clustering>
</event>
<event>
 6    0  0.2839294E+002  0.4613470E+03  0.7546771E-02  0.1024391E+00
         21   -1    0    0  504  502  0.00000000000E+00  0.00000000000E+00  0.25174060435E+03  0.25174060435E+03  0.00000000000E+00 0.  1.
          2   -1    0    0  503    0 -0.00000000000E+00 -0.00000000000E+00 -0.18418688655E+04  0.18418688655E+04  0.00000000000E+00 0.  1.
         21    1    1    2  503  505  0.31047234686E+02  0.40959280051E+02 -0.10857555689E+03  0.12012595455E+03  0.00000000000E+00 0. -1.
         21    1    1    2  504  501 -0.46189025434E+03  0.67859210134E+02 -0.70070535080E+02  0.47207770477E+03  0.00000000000E+00 0.  1.
         21    1    1    2  505  502 -0.35607278478E+00 -0.61186579207E+02 -0.78033066019E+02  0.99161906271E+02  0.00000000000E+00 0.  1.
          2    1    1    2  501    0  0.43119909244E+03 -0.47631910978E+02 -0.13334491032E+04  0.14022439042E+04  0.00000000000E+00 0.  1.
<scales pt_clust_3="51.39643" pt_clust_4="461.34699" pt_clust_5="59.09887" pt_clust_6="14000.00000"></scales>
<clustering>
<clus scale="   51.396">  2  3  1 -1</clus>
<clus scale="   59.099">  2  5  1 -1</clus>
<clus scale="  461.347">  1  4  2 -1</clus>
<clus scale="  461.347">  1  3  2 -1</clus>
</clustering>
</event>
<event>
 6    0  0.2839294E+002  0.8380882E+02  0.7546771E-02  0.1318577E+00
         -1   -1    0    0    0  501 -0.00000000000E+00  0.00000000000E+00  0.63304646690E+03  0.63304646690E+03  0.00000000000E+00 0.  1.
         21   -1    0    0  505  502  0.00000000000E+00 -0.00000000000E+00 -0.15230846188E+04  0.15230846188E+04  0.00000000000E+00 0. -1.
         21    1    1    2  503  502  0.11676133999E+03  0.64281533295E+02 -0.11108299316E+04  0.11187977757E+04  0.00000000000E+00 0. -1.
         21    1    1    2  504  503 -0.78091485078E+02 -0.90242784047E+02  0.77893528200E+02  0.14251119903E+03  0.00000000000E+00 0. -1.
         21    1    1    2  505  501 -0.38965087989E+02 -0.39775145782E+02 -0.37179830303E+03  0.37594456831E+03  0.00000000000E+00 0. -1.
         -1    1    1    2    0  504  0.29523307302E+00  0.65736396534E+02  0.51469655454E+03  0.51887754263E+03  0.00000000000E+00 0.  1.
<scales pt_clust_3="83.80882" pt_clust_4="14000.00000" pt_clust_5="55.68070" pt_clust_6="65.66443"></scales>
<clustering>
<clus scale="   55.681">  2  5  1 -1</clus>
<clus scale="   65.664">  1  6  2 -1</clus>
<clus scale="   83.809">  2  3  1 -1</clus>
<clus scale="   55.681">  2  3  1 -1</clus>
</clustering>
</event>
<event>
 6    0  0.2839294E+002  0.8183359E+02  0.7546771E-02  0.1323927E+00
         21   -1    0    0  503  502  0.00000000000E+00  0.00000000000E+00  0.95901440381E+02  0.95901440381E+02  0.00000000000E+00 0. -1.
         -1   -1    0    0    0  501 -0.00000000000E+00 -0.00000000000E+00 -0.51876376033E+03  0.51876376033E+03  0.00000000000E+00 0. -1.
         21    1    1    2  503  504 -0.41091389134E+02 -0.49717469128E+02  0.21528414712E+02  0.67998541437E+02  0.00000000000E+00 0. -1.
         21    1    1    2  504  501 -0.55077341428E+02 -0.18745896057E+02 -0.87394320362E+02  0.10498899652E+03  0.00000000000E+00 0. -1.
         21    1    1    2  505  502 -0.35249391150E+02  0.17743610738E+02  0.16292420484E+02  0.42694241576E+02  0.00000000000E+00 0. -1.
         -1    1    1    2    0  505  0.13141812171E+03  0.50719754447E+02 -0.37328883478E+03  0.39898342118E+03  0.00000000000E+00 0. -1.
<scales pt_clust_3="14000.00000" pt_clust_4="61.95568" pt_clust_5="39.46334" pt_clust_6="81.83359"></scales>
<clustering>
<clus scale="   39.463">  1  5  2 -1</clus>
<clus scale="   61.956">  2  4  1 -1</clus>
<clus scale="   81.834">  2  6  1 -1</clus>
<clus scale="   39.463">  1  3  2 -1</clus>
</clustering>
</event>
<event>
 6    0  0.2839294E+002  0.8959523E+02  0.7546771E-02  0.1303835E+00
          2   -1    0    0  503    0 -0.00000000000E+00  0.00000000000E+00  0.49177742355E+03  0.49177742355E+03  0.00000000000E+00 0. -1.
         21   -1    0    0  505  502  0.00000000000E+00 -0.00000000000E+00 -0.84204550303E+02  0.84204550303E+02  0.00000000000E+00 0.  1.
         21    1    1    2  503  504  0.19046464874E+02 -0.46542695306E+02  0.54385902357E+02  0.74073049659E+02  0.00000000000E+00 0.  1.
         21    1    1    2  504  502  0.56909109511E+02  0.76485410936E+02  0.83052424413E+02  0.12643721775E+03  0.00000000000E+00 0.  1.
         21    1    1    2  505  501 -0.11908065595E+03  0.15645964854E+02  0.25322577119E+02  0.12274457931E+03  0.00000000000E+00 0.  1.
          2    1    1    2  501    0  0.43125081566E+02 -0.45588680484E+02  0.24481196936E+03  0.25272712713E+03  0.00000000000E+00 0. -1.
<scales pt_clust_3="50.28907" pt_clust_4="89.59523" pt_clust_5="14000.00000" pt_clust_6="89.52080"></scales>
<clustering>
<clus scale="   50.289">  1  3  2 -1</clus>
<clus scale="   89.595">  2  4  1 -1</clus>
<clus scale="   89.521">  1  6  2 -1</clus>
<clus scale="   89.595">  2  3  1 -1</clus>
</clustering>
</event>
<event>
 6    0  0.2839294E+002  0.9528987E+02  0.7546771E-02  0.1290525E+00
         21   -1    0    0  505  502  0.00000000000E+00  0.00000000000E+00  0.19460244833E+02  0.19460244833E+02  0.00000000000E+00 0. -1.
          2   -1    0    0  504    0 -0.00000000000E+00 -0.00000000000E+00 -0.27847544562E+04  0.27847544562E+04  0.00000000000E+00 0.  1.
         21    1    1    2  503  502  0.56673786167E+02  0.93471033237E+02 -0.21797186615E+03  0.24384521018E+03  0.00000000000E+00 0. -1.
         21    1    1    2  504  503  0.29105123577E+02 -0.11506997173E+02 -0.74434338545E+03  0.74500107025E+03  0.00000000000E+00 0.  1.
         21    1    1    2  505  501 -0.32907047532E+02 -0.21808885098E+01 -0.50730902718E+02  0.60508301435E+02  0.00000000000E+00 0. -1.
          2    1    1    2  501    0 -0.52871862213E+02 -0.79783147555E+02 -0.17522480570E+04  0.17548601192E+04  0.00000000000E+00 0.  1.
<scales pt_clust_3="14000.00000" pt_clust_4="31.29727" pt_clust_5="32.21029" pt_clust_6="95.28987"></scales>
<clustering>
<clus scale="   31.297">  2  4  1 -1</clus>
<clus scale="   32.210">  1  5  2 -1</clus>
<clus scale="   95.290">  2  6  1 -1</clus>
<clus scale="   32.210">  1  3  2 -1</clus>
</clustering>
</event>
<event>
 6    0  0.2839294E+002  0.7754687E+02  0.7546771E-02  0.1336161E+00
         21   -1    0    0  505  502  0.00000000000E+00  0.00000000000E+00  0.13547888055E+03  0.13547888055E+03  0.00000000000E+00 0.  1.
          2   -1    0    0  503    0 -0.00000000000E+00 -0.00000000000E+00 -0.49556097785E+03  0.49556097785E+03  0.00000000000E+00 0.  1.
         21    1    1    2  503  504  0.10265758785E+03  0.37045054228E+02  0.40448553062E+02  0.11639158831E+03  0.00000000000E+00 0.  1.
         21    1    1    2  504  502 -0.17127289490E+01  0.62196425803E+02  0.12084424962E+02  0.63382664426E+02  0.00000000000E+00 0.  1.
         21    1    1    2  505  501 -0.59608189769E+02 -0.34280152131E+02 -0.62957142547E+02  0.93230182427E+02  0.00000000000E+00 0.  1.
          2    1    1    2  501    0 -0.41336669128E+02 -0.64961327900E+02 -0.34965793278E+03  0.35803542323E+03  0.00000000000E+00 0.  1.
<scales pt_clust_3="14000.00000" pt_clust_4="62.22000" pt_clust_5="64.74859" pt_clust_6="77.54687"></scales>
<clustering>
<clus scale="   62.220">  1  4  2 -1</clus>
<clus scale="   64.749">  1  5  2 -1</clus>
<clus scale="   77.547">  2  6  1 -1</clus>
<clus scale="   62.220">  1  3  2 -1</clus>
</clustering>
</event>
<event>
 6    0  0.2839294E+002  0.1717083E+03  0.7546771E-02  0.1176078E+00
          2   -1    0    0  504    0 -0.00000000000E+00  0.00000000000E+00  0.23621345085E+03  0.23621345085E+03  0.00000000000E+00 0.  1.
         21   -1    0    0  505  502  0.00000000000E+00 -0.00000000000E+00 -0.77411044771E+03  0.77411044771E+03  0.00000000000E+00 0.  1.
         21    1    1    2  503  501  0.26323442628E+02  0.66200198925E+02  0.10604493590E+03  0.12775334986E+03  0.00000000000E+00 0. -1.
         21    1    1    2  504  502  0.46018521767E+02  0.47278851577E+02 -0.69350918311E+02  0.95721178548E+02  0.00000000000E+00 0.  1.
         21    1    1    2  505  503 -0.74435232164E+02 -0.20540678811E+03 -0.63851674991E+03  0.67486012796E+03  0.00000000000E+00 0.  1.
          2    1    1    2  501    0  0.20932677687E+01  0.91927737609E+02  0.63925735468E+02  0.11198924219E+03  0.00000000000E+00 0.  1.
<scales pt_clust_3="46.36415" pt_clust_4="65.97722" pt_clust_5="163.42954" pt_clust_6="46.36415"></scales>
<clustering>
<clus scale="   46.364">  3  6 -1 -1</clus>
<clus scale="   65.977">  2  4  1 -1</clus>
<clus scale="  163.430">  2  5  1 -1</clus>
<clus scale="   65.977">  2  3  1 -1</clus>
</clustering>
</event>
<event>
 6    0  0.2839294E+002  0.2016164E+03  0.7546771E-02  0.1148382E+00
         21   -1    0    0  505  502  0.00000000000E+00  0.00000000000E+00  0.80176417977E+02  0.80176417977E+02  0.00000000000E+00 0.  1.
          2   -1    0    0  503    0 -0.00000000000E+00 -0.00000000000E+00 -0.28771684266E+04  0.28771684266E+04  0.00000000000E+00 0. -1.
         21    1    1    2  503  502  0.26986023841E+02  0.12366752879E+03 -0.14212809029E+03  0.19032156265E+03  0.00000000000E+00 0.  1.
         21    1    1    2  504  501 -0.11252161127E+03 -0.52842439675E+02 -0.11689580175E+04  0.11755493537E+04  0.00000000000E+00 0. -1.
         21    1    1    2  505  504  0.14731784500E+03 -0.41831088541E+02 -0.60855287462E+02  0.16479002833E+03  0.00000000000E+00 0.  1.
          2    1    1    2  501    0 -0.61782257573E+02 -0.28994000572E+02 -0.14250506134E+04  0.14266838999E+04  0.00000000000E+00 0. -1.
<scales pt_clust_3="126.57766" pt_clust_4="55.73416" pt_clust_5="187.05901" pt_clust_6="55.73416"></scales>
<clustering>
<clus scale="   55.734">  4  6 -1 -1</clus>
<clus scale="  126.578">  1  3  2 -1</clus>
<clus scale="  187.059">  1  5  2 -1</clus>
<clus scale="  126.578">  1  3  2 -1</clus>
</clustering>
</event>
<event>
 6    0  0.2839294E+002  0.2298555E+03  0.7546771E-02  0.1126742E+00
         21   -1    0    0  505  502  0.00000000000E+00  0.00000000000E+00  0.56270991070E+03  0.56270991070E+03  0.00000000000E+00 0.  1.
          1   -1    0    0  503    0 -0.00000000000E+00 -0.00000000000E+00 -0.16750409010E+03  0.16750409010E+03  0.00000000000E+00 0.  1.
         21    1    1    2  503  504  0.50788667081E+02  0.10045914316E+02  0.35621263016E+02  0.62843324842E+02  0.00000000000E+00 0.  1.
         21    1    1    2  504  502  0.10415850050E+03 -0.22242295959E+03  0.21333024854E+03  0.32531640155E+03  0.00000000000E+00 0.  1.
         21    1    1    2  505  501 -0.14508320310E+03  0.16495651311E+03  0.17917958023E+03  0.28348740538E+03  0.00000000000E+00 0.  1.
          1    1    1    2  501    0 -0.98639644802E+01  0.47420532162E+02 -0.32925271183E+02  0.58566869032E+02  0.00000000000E+00 0.  1.
<scales pt_clust_3="52.00218" pt_clust_4="229.85551" pt_clust_5="14000.00000" pt_clust_6="48.43557"></scales>
<clustering>
<clus scale="   48.436">  2  6  1 -1</clus>
<clus scale="   52.002">  2  3  1 -1</clus>
<clus scale="  229.856">  2  4  1 -1</clus>
<clus scale="  229.856">  1  3  2 -1</clus>
</clustering>
</event>
<event>
 6    0  0.2839294E+002  0.1664737E+03  0.7546771E-02  0.1181576E+00
          1   -1    0    0  503    0 -0.00000000000E+00  0.00000000000E+00  0.18872039721E+03  0.18872039721E+03  0.00000000000E+00 0.  1.
         21   -1    0    0  505  502  0.00000000000E+00 -0.00000000000E+00 -0.19389107646E+04  0.19389107646E+04  0.00000000000E+00 0. -1.
         21    1    1    2  503  504 -0.26331461475E+02 -0.19083126486E+02  0.53271293830E+02  0.62412677608E+02  0.00000000000E+00 0.  1.
         21    1    1    2  504  502 -0.54829610972E+02 -0.36709753038E+02 -0.10968721753E+03  0.12800460107E+03  0.00000000000E+00 0. -1.
         21    1    1    2  505  501  0.16195837968E+03 -0.46519475637E+02 -0.17754138352E+04  0.17833925155E+04  0.00000000000E+00 0. -1.
          1    1    1    2  501    0 -0.80797307229E+02  0.10231235516E+03  0.81639391498E+02  0.15382136756E+03  0.00000000000E+00 0.  1.
<scales pt_clust_3="32.51940" pt_clust_4="68.25818" pt_clust_5="166.47372" pt_clust_6="14000.00000"></scales>
<clustering>
<clus scale="   32.519">  1  3  2 -1</clus>
<clus scale="   68.258">  1  4  2 -1</clus>
<clus scale="  166.474">  2  5  1 -1</clus>
<clus scale="  166.474">  2  3  1 -1</clus>
</clustering>
</event>
<event>
 6    0  0.2839294E+002  0.9179579E+02  0.7546771E-02  0.1298560E+00
         21   -1    0    0  503  502  0.00000000000E+00  0.00000000000E+00  0.25088405829E+03  0.25088405829E+03  0.00000000000E+00 0. -1.
          2   -1    0    0  505    0 -0.00000000000E+00 -0.00000000000E+00 -0.15336413498E+04  0.15336413498E+04  0.00000000000E+00 0.  1.
         21    1    1    2  503  501 -0.31789793846E+01 -0.15322390271E+03  0.15259445318E+03  0.21627005667E+03  0.00000000000E+00 0. -1.
         21    1    1    2  504  502  0.23126955197E+02  0.65269207435E+02  0.41492897210E+02  0.80725374046E+02  0.00000000000E+00 0.  1.
         21    1    1    2  505  504 -0.84198902432E+02  0.72638739471E+02 -0.98975872706E+03  0.99598603376E+03  0.00000000000E+00 0.  1.
          2    1    1    2  501    0  0.64250926619E+02  0.15315955799E+02 -0.48708591485E+03  0.49154394363E+03  0.00000000000E+00 0.  1.
<scales pt_clust_3="14000.00000" pt_clust_4="69.92740" pt_clust_5="91.79579" pt_clust_6="66.05119"></scales>
<clustering>
<clus scale="   66.051">  2  6  1 -1</clus>
<clus scale="   69.927">  1  4  2 -1</clus>
<clus scale="   91.796">  2  5  1 -1</clus>
<clus scale="   69.927">  1  3  2 -1</clus>
</clustering>
</event>
<event>
 6    0  0.2839294E+002  0.1096729E+03  0.7546771E-02  0.1261177E+00
         21   -1    0    0  504  502  0.00000000000E+00  0.00000000000E+00  0.22905263765E+02  0.22905263765E+02  0.00000000000E+00 0. -1.
          3   -1    0    0  505    0 -0.00000000000E+00 -0.00000000000E+00 -0.16627718815E+04  0.16627718815E+04  0.00000000000E+00 0. -1.
         21    1    1    2  503  502  0.11438550630E+02 -0.94119704810E+02 -0.36938553523E+03  0.38135945368E+03  0.00000000000E+00 0. -1.
         21    1    1    2  504  501  0.35077650702E+02  0.11720571067E+03 -0.21895627525E+03  0.25081760437E+03  0.00000000000E+00 0. -1.
         21    1    1    2  505  503 -0.15264064195E+02 -0.28777669826E+02 -0.56718551371E+03  0.56812019230E+03  0.00000000000E+00 0. -1.
          3    1    1    2  501    0 -0.31252137137E+02  0.56916639715E+01 -0.48433929355E+03  0.48537989492E+03  0.00000000000E+00 0. -1.
<scales pt_clust_3="109.67294" pt_clust_4="14000.00000" pt_clust_5="39.96761" pt_clust_6="31.76619"></scales>
<clustering>
<clus scale="   31.766">  2  6  1 -1</clus>
<clus scale="   39.968">  2  5  1 -1</clus>
<clus scale="  109.673">  2  3  1 -1</clus>
<clus scale="  109.673">  1  3  2 -1</clus>
</clustering>
</event>
<event>
 6    0  0.2839294E+002  0.2340183E+03  0.7546771E-02  0.1123843E+00
         21   -1    0    0  503  502  0.00000000000E+00  0.00000000000E+00  0.39397310472E+03  0.39397310472E+03  0.00000000000E+00 0. -1.
          3   -1    0    0  502    0 -0.00000000000E+00 -0.00000000000E+00 -0.33483145056E+03  0.33483145056E+03  0.00000000000E+00 0. -1.
         21    1    1    2  503  504 -0.20061359322E+02  0.75695923461E+02  0.14879516374E+02  0.79710294027E+02  0.00000000000E+00 0.  1.
         21    1    1    2  504  505 -0.19848606411E+03  0.16803778316E+02  0.25860237627E+03  0.32642652102E+03  0.00000000000E+00 0. -1.
         21    1    1    2  505  501  0.90702522929E+02 -0.23607471806E+02 -0.63066330552E+02  0.11296735121E+03  0.00000000000E+00 0. -1.
          3    1    1    2  501    0  0.12784490050E+03 -0.68892229970E+02 -0.15127390793E+03  0.20970038902E+03  0.00000000000E+00 0. -1.
<scales pt_clust_3="78.30920" pt_clust_4="230.02387" pt_clust_5="34.58664" pt_clust_6="34.58664"></scales>
<clustering>
<clus scale="   34.587">  5  6 -1 -1</clus>
<clus scale="   78.309">  1  3  2 -1</clus>
<clus scale="  230.024">  1  4  2 -1</clus>
<clus scale="   78.309">  1  3  2 -1</clus>
</clustering>
</event>
<event>
 6    0  0.2839294E+002  0.6205094E+02  0.7546771E-02  0.1389421E+00
         21   -1    0    0  505  502  0.00000000000E+00  0.00000000000E+00  0.16467022343E+04  0.16467022343E+04  0.00000000000E+00 0.  1.
          2   -1    0    0  504    0 -0.00000000000E+00 -0.00000000000E+00 -0.81178848040E+03  0.81178848040E+03  0.00000000000E+00 0.  1.
         21    1    1    2  503  502  0.74052382907E+02  0.89258219848E+02  0.47816707813E+03  0.49203103544E+03  0.00000000000E+00 0.  1.
         21    1    1    2  504  503 -0.53333946992E+02 -0.48927968336E+01 -0.12240597433E+03  0.13361014900E+03  0.00000000000E+00 0. -1.
         21    1    1    2  505  501 -0.31223008134E+02 -0.44388916231E+02  0.11547321613E+04  0.11560067545E+04  0.00000000000E+00 0.  1.
          2    1    1    2  501    0  0.10504572220E+02 -0.39976506784E+02 -0.67557951120E+03  0.67684277575E+03  0.00000000000E+00 0.  1.
<scales pt_clust_3="62.05094" pt_clust_4="14000.00000" pt_clust_5="54.39567" pt_clust_6="41.33361"></scales>
<clustering>
<clus scale="   41.334">  2  6  1 -1</clus>
<clus scale="   54.396">  1  5  2 -1</clus>
<clus scale="   62.051">  1  3  2 -1</clus>
<clus scale="   54.396">  1  3  2 -1</clus>
</clustering>
</event>
<event>
 6    0  0.2839294E+002  0.1700508E+03  0.7546771E-02  0.1177795E+00
         21   -1    0    0  505  502  0.00000000000E+00  0.00000000000E+00  0.34226950337E+03  0.34226950337E+03  0.00000000000E+00 0.  1.
         -1   -1    0    0    0  501 -0.00000000000E+00 -0.00000000000E+00 -0.37379251302E+03  0.37379251302E+03  0.00000000000E+00 0.  1.
         21    1    1    2  503  504  0.21265691402E+02  0.10221983665E+03 -0.34188238792E+01  0.10446441017E+03  0.00000000000E+00 0.  1.
         21    1    1    2  504  501 -0.14273650596E+03 -0.13657831130E+03 -0.14429687837E+03  0.24464041849E+03  0.00000000000E+00 0.  1.
         21    1    1    2  505  503 -0.43068955613E+02  0.29637862259E+02  0.18224188126E+03  0.18959282978E+03  0.00000000000E+00 0.  1.
         -1    1    1    2    0  502  0.16453977018E+03  0.47206123875E+01 -0.66049188660E+02  0.17736435796E+03  0.00000000000E+00 0.  1.
<scales pt_clust_3="112.03812" pt_clust_4="170.05079" pt_clust_5="52.28133" pt_clust_6="14000.00000"></scales>
<clustering>
<clus scale="   52.281">  1  5  2 -1</clus>
<clus scale="  112.038">  1  3  2 -1</clus>
<clus scale="  170.051">  2  4  1 -1</clus>
<clus scale="   52.281">  1  3  2 -1</clus>
</clustering>
</event>
<event>
 6    0  0.2839294E+002  0.8330450E+02  0.7546771E-02  0.1319927E+00
         21   -1    0    0  505  502  0.00000000000E+00  0.00000000000E+00  0.12645034348E+04  0.12645034348E+04  0.00000000000E+00 0. -1.
          1   -1    0    0  503    0 -0.00000000000E+00 -0.00000000000E+00 -0.13105677727E+04  0.13105677727E+04  0.00000000000E+00 0. -1.
         21    1    1    2  503  504 -0.57851111784E+02  0.87236048437E+01 -0.85186043313E+03  0.85386711493E+03  0.00000000000E+00 0. -1.
         21    1    1    2  504  502  0.85429453157E+02  0.17758372080E+02  0.11937551089E+04  0.11969397693E+04  0.00000000000E+00 0. -1.
         21    1    1    2  505  501 -0.54883953185E+02  0.24371885225E+02  0.52666102982E+02  0.79874623692E+02  0.00000000000E+00 0.  1.
          1    1    1    2  501    0  0.27305611812E+02 -0.50853862148E+02 -0.44062511664E+03  0.44438969964E+03  0.00000000000E+00 0. -1.
<scales pt_clust_3="51.60616" pt_clust_4="14000.00000" pt_clust_5="83.30450" pt_clust_6="57.72098"></scales>
<clustering>
<clus scale="   57.721">  2  6  1 -1</clus>
<clus scale="   51.606">  2  3  1 -1</clus>
<clus scale="   83.305">  2  5  1 -1</clus>
<clus scale="   83.305">  1  3  2 -1</clus>
</clustering>
</event>
<event>
 6    0  0.2839294E+002  0.1189624E+03  0.7546771E-02  0.1244819E+00
          2   -1    0    0  505    0 -0.00000000000E+00  0.00000000000E+00  0.21730463253E+04  0.21730463253E+04  0.00000000000E+00 0.  1.
         21   -1    0    0  503  502  0.00000000000E+00 -0.00000000000E+00 -0.89604954835E+02  0.89604954835E+02  0.00000000000E+00 0.  1.
         21    1    1    2  503  501 -0.26847688397E+02 -0.15751469526E+02  0.47969166322E+02  0.57183459865E+02  0.00000000000E+00 0. -1.
         21    1    1    2  504  502  0.15106203277E+03 -0.13603952132E+02 -0.11215573958E+02  0.15208745628E+03  0.00000000000E+00 0.  1.
         21    1    1    2  505  504 -0.72437451053E+02  0.66715769631E+01  0.46262384257E+03  0.46830813998E+03  0.00000000000E+00 0. -1.
          2    1    1    2  501    0 -0.51776893320E+02  0.22683844695E+02  0.15840639356E+04  0.15850722240E+04  0.00000000000E+00 0.  1.
<scales pt_clust_3="31.12727" pt_clust_4="118.96245" pt_clust_5="14000.00000" pt_clust_6="56.63646"></scales>
<clustering>
<clus scale="   31.127">  2  3  1 -1</clus>
<clus scale="   56.636">  1  6  2 -1</clus>
<clus scale="  118.962">  2  4  1 -1</clus>
<clus scale="   31.127">  2  3  1 -1</clus>
</clustering>
</event>
<event>
 6    0  0.2839294E+002  0.1419412E+03  0.7546771E-02  0.1210741E+00
          1   -1    0    0  503    0 -0.00000000000E+00  0.00000000000E+00  0.10768781960E+04  0.10768781960E+04  0.00000000000E+00 0.  1.
         21   -1    0    0  505  502  0.00000000000E+00 -0.00000000000E+00 -0.60147936869E+02  0.60147936869E+02  0.00000000000E+00 0. -1.
         21    1    1    2  503  502 -0.16041633696E+03 -0.71690361741E+02  0.28199303325E+03  0.33225439039E+03  0.00000000000E+00 0. -1.
         21    1    1    2  504  501  0.58360831005E+02  0.21010731228E+02  0.25875220883E+03  0.26608296262E+03  0.00000000000E+00 0.  1.
         21    1    1    2  505  504  0.37237332225E+02  0.35173427587E+02 -0.64899049498E+01  0.51632429593E+02  0.00000000000E+00 0. -1.
          1    1    1    2  501    0  0.64818173733E+02  0.15506202927E+02  0.48247492199E+03  0.48705635026E+03  0.00000000000E+00 0.  1.
<scales pt_clust_3="137.30512" pt_clust_4="34.71138" pt_clust_5="51.22293" pt_clust_6="34.71138"></scales>
<clustering>
<clus scale="   34.711">  4  6 -1 -1</clus>
<clus scale="   51.223">  2  5  1 -1</clus>
<clus scale="  137.305">  2  3  1 -1</clus>
<clus scale="   51.223">  2  3  1 -1</clus>
</clustering>
</event>
<event>
 6    0  0.2839294E+002  0.8084536E+02  0.7546771E-02  0.1326669E+00
         21   -1    0    0  503  502  0.00000000000E+00  0.00000000000E+00  0.21395272462E+02  0.21395272462E+02  0.00000000000E+00 0.  1.
          2   -1    0    0  504    0 -0.00000000000E+00 -0.00000000000E+00 -0.31382059424E+04  0.31382059424E+04  0.00000000000E+00 0.  1.
         21    1    1    2  503  505 -0.10636486584E+03  0.10139946090E+03 -0.37736646022E+03  0.40497009847E+03  0.00000000000E+00 0.  1.
         21    1    1    2  504  502  0.47968186551E+02 -0.40627243329E+02 -0.14537985436E+03  0.15838819992E+03  0.00000000000E+00 0.  1.
         21    1    1    2  505  501  0.26845492736E+02 -0.48258392862E+02 -0.82168319137E+03  0.82353677510E+03  0.00000000000E+00 0.  1.
          2    1    1    2  501    0  0.31551186557E+02 -0.12513824708E+02 -0.17723811640E+04  0.17727061413E+04  0.00000000000E+00 0.  1.
<scales pt_clust_3="14000.00000" pt_clust_4="66.44920" pt_clust_5="80.84536" pt_clust_6="33.94220"></scales>
<clustering>
<clus scale="   33.942">  2  6  1 -1</clus>
<clus scale="   66.449">  1  4  2 -1</clus>
<clus scale="   80.845">  2  5  1 -1</clus>
<clus scale="   66.449">  1  3  2 -1</clus>
</clustering>
</event>
<event>
 6    0  0.2839294E+002  0.1249358E+03  0.7546771E-02  0.1235170E+00
          1   -1    0    0  505    0 -0.00000000000E+00  0.00000000000E+00  0.54936146029E+03  0.54936146029E+03  0.00000000000E+00 0. -1.
         21   -1    0    0  503  502  0.00000000000E+00 -0.00000000000E+00 -0.13124184103E+03  0.13124184103E+03  0.00000000000E+00 0.  1.
         21    1    1    2  503  504 -0.14265774843E+03  0.18917767678E+02 -0.20936029340E+01  0.14392184787E+03  0.00000000000E+00 0.  1.
         21    1    1    2  504  501  0.64864454273E+02 -0.27078008113E+02  0.20025855815E+03  0.21223596789E+03  0.00000000000E+00 0. -1.
         21    1    1    2  505  502  0.33434185905E+02  0.16103908847E+01 -0.44798124575E+02  0.55922357884E+02  0.00000000000E+00 0.  1.
          1    1    1    2  501    0  0.44359108254E+02  0.65498495509E+01  0.26475278862E+03  0.26852312767E+03  0.00000000000E+00 0. -1.
<scales pt_clust_3="114.30829" pt_clust_4="39.98716" pt_clust_5="33.47295" pt_clust_6="39.98716"></scales>
<clustering>
<clus scale="   33.473">  2  5  1 -1</clus>
<clus scale="   39.987">  4  6 -1 -1</clus>
<clus scale="  114.308">  2  3  1 -1</clus>
<clus scale="   33.473">  2  3  1 -1</clus>
</clustering>
</event>
<event>
 6    0  0.2839294E+002  0.1563641E+03  0.7546771E-02  0.1192864E+00
          2   -1    0    0  505    0 -0.00000000000E+00  0.00000000000E+00  0.60844066616E+02  0.60844066616E+02  0.00000000000E+00 0.  1.
         21   -1    0    0  504  502  0.00000000000E+00 -0.00000000000E+00 -0.21076711667E+04  0.21076711667E+04  0.00000000000E+00 0.  1.
         21    1    1    2  503  502  0.63449802164E+02  0.44231294978E+02 -0.12550373189E+04  0.12574183698E+04  0.00000000000E+00 0.  1.
         21    1    1    2  504  501  0.44492772176E+02 -0.98396361402E+01 -0.39820321030E+03  0.40080197344E+03  0.00000000000E+00 0.  1.
         21    1    1    2  505  503 -0.16422924970E+03  0.30570038325E+02 -0.80144150698E+02  0.18528048627E+03  0.00000000000E+00 0.  1.
          2    1    1    2  501    0  0.56286675360E+02 -0.64961697163E+02 -0.31344242015E+03  0.32501440379E+03  0.00000000000E+00 0.  1.
<scales pt_clust_3="156.36412" pt_clust_4="45.56781" pt_clust_5="14000.00000" pt_clust_6="92.92840"></scales>
<clustering>
<clus scale="   45.568">  2  4  1 -1</clus>
<clus scale="   92.928">  2  6  1 -1</clus>
<clus scale="  156.364">  2  3  1 -1</clus>
<clus scale="   45.568">  2  3  1 -1</clus>
</clustering>
</event>
<event>
 6    0  0.2839294E+002  0.8208893E+02  0.7546771E-02  0.1323226E+00
          1   -1    0    0  503    0 -0.00000000000E+00  0.00000000000E+00  0.19266841734E+04  0.19266841734E+04  0.00000000000E+00 0.  1.
         21   -1    0    0  501  502  0.00000000000E+00 -0.00000000000E+00 -0.28004131434E+02  0.28004131434E+02  0.00000000000E+00 0.  1.
         21    1    1    2  503  504 -0.13327248813E+02  0.31928024837E+02  0.50317153543E+03  0.50435960226E+03  0.00000000000E+00 0.  1.
         21    1    1    2  504  505  0.89345845422E+02  0.38931270790E+01  0.10374800014E+04  0.10413273211E+04  0.00000000000E+00 0.  1.
         21    1    1    2  505  502 -0.21960215561E+02  0.34379095813E+02  0.64590806409E+00  0.40799393300E+02  0.00000000000E+00 0.  1.
          1    1    1    2  501    0 -0.54058381048E+02 -0.70200247729E+02  0.35738259711E+03  0.36820198813E+03  0.00000000000E+00 0.  1.
<scales pt_clust_3="34.59789" pt_clust_4="14000.00000" pt_clust_5="41.29072" pt_clust_6="82.08893"></scales>
<clustering>
<clus scale="   34.598">  1  3  2 -1</clus>
<clus scale="   41.291">  2  5  1 -1</clus>
<clus scale="   82.089">  2  6  1 -1</clus>
<clus scale="   41.291">  2  3  1 -1</clus>
</clustering>
</event>
<event>
 6    0  0.2839294E+002  0.9846350E+02  0.7546771E-02  0.1283561E+00
          2   -1    0    0  503    0 -0.00000000000E+00  0.00000000000E+00  0.90423840927E+03  0.90423840927E+03  0.00000000000E+00 0.  1.
         21   -1    0    0  505  502  0.00000000000E+00 -0.00000000000E+00 -0.64526971826E+03  0.64526971826E+03  0.00000000000E+00 0. -1.
         21    1    1    2  503  504  0.59328546262E+02  0.21437701047E+01  0.11211775522E+03  0.12686553191E+03  0.00000000000E+00 0.  1.
         21    1    1    2  504  502 -0.89413631280E+02  0.10591164540E+03 -0.59615269680E+03  0.61205401068E+03  0.00000000000E+00 0. -1.
         21    1    1    2  505  501  0.90898230924E+01 -0.47500446476E+02 -0.14413601906E+02  0.50464534270E+02  0.00000000000E+00 0. -1.
          2    1    1    2  501    0  0.20995261925E+02 -0.60554969031E+02  0.75741723450E+03  0.76012405067E+03  0.00000000000E+00 0.  1.
<scales pt_clust_3="59.45871" pt_clust_4="98.46350" pt_clust_5="48.36235" pt_clust_6="14000.00000"></scales>
<clustering>
<clus scale="   48.362">  2  5  1 -1</clus>
<clus scale="   59.459">  1  3  2 -1</clus>
<clus scale="   98.464">  2  4  1 -1</clus>
<clus scale="   48.362">  2  3  1 -1</clus>
</clustering>
</event>
<event>
 6    0  0.2839294E+002  0.1256994E+03  0.7546771E-02  0.1233980E+00
         21   -1    0    0  505  502  0.00000000000E+00  0.00000000000E+00  0.32770371297E+04  0.32770371297E+04  0.00000000000E+00 0. -1.
         -1   -1    0    0    0  501 -0.00000000000E+00 -0.00000000000E+00 -0.10769145113E+03  0.10769145113E+03  0.00000000000E+00 0. -1.
         21    1    1    2  503  502  0.19698016621E+02  0.77358594295E+02  0.86171730843E+02  0.11746459538E+03  0.00000000000E+00 0. -1.
         21    1    1    2  504  501 -0.38727124897E+02  0.50701167293E+02  0.41797914854E+03  0.42282025399E+03  0.00000000000E+00 0.  1.
         21    1    1    2  505  504 -0.42712285232E+02 -0.10155851517E+02  0.27051328857E+04  0.27054891258E+04  0.00000000000E+00 0. -1.
         -1    1    1    2    0  503  0.61741393509E+02 -0.11790391007E+03 -0.39938086500E+02  0.13895460567E+03  0.00000000000E+00 0. -1.
<scales pt_clust_3="76.51142" pt_clust_4="125.69940" pt_clust_5="43.90308" pt_clust_6="14000.00000"></scales>
<clustering>
<clus scale="   43.903">  1  5  2 -1</clus>
<clus scale="   76.511">  1  3  2 -1</clus>
<clus scale="  125.699">  1  4  2 -1</clus>
<clus scale="   43.903">  1  3  2 -1</clus>
</clustering>
</event>
<event>
 6    0  0.2839294E+002  0.7247573E+02  0.7546771E-02  0.1351871E+00
          2   -1    0    0  503    0 -0.00000000000E+00  0.00000000000E+00  0.12205298329E+04  0.12205298329E+04  0.00000000000E+00 0.  1.
         21   -1    0    0  504  502  0.00000000000E+00 -0.00000000000E+00 -0.11125878889E+03  0.11125878889E+03  0.00000000000E+00 0.  1.
         21    1    1    2  503  505 -0.15207219953E+02 -0.31079447252E+02  0.95716640089E+02  0.10177851822E+03  0.00000000000E+00 0. -1.
         21    1    1    2  504  501 -0.58496448320E+02 -0.81633554341E+01 -0.63452892001E+02  0.86687625076E+02  0.00000000000E+00 0.  1.
         21    1    1    2  505  502  0.63490410563E+02 -0.62378715328E+02  0.33925952024E+02  0.95252856022E+02  0.00000000000E+00 0.  1.
          2    1    1    2  501    0  0.10213257710E+02  0.10162151801E+03  0.10430813439E+04  0.10480696225E+04  0.00000000000E+00 0.  1.
<scales pt_clust_3="34.60046" pt_clust_4="59.26452" pt_clust_5="72.47573" pt_clust_6="14000.00000"></scales>
<clustering>
<clus scale="   34.600">  1  3  2 -1</clus>
<clus scale="   59.265">  2  4  1 -1</clus>
<clus scale="   72.476">  2  5  1 -1</clus>
<clus scale="   59.265">  2  3  1 -1</clus>
</clustering>
</event>
<event>
 6    0  0.2839294E+002  0.1387161E+03  0.7546771E-02  0.1215067E+00
         -2   -1    0    0    0  501 -0.00000000000E+00  0.00000000000E+00  0.22053240874E+03  0.22053240874E+03  0.00000000000E+00 0.  1.
         21   -1    0    0  503  502  0.00000000000E+00 -0.00000000000E+00 -0.59503255692E+03  0.59503255692E+03  0.00000000000E+00 0.  1.
         21    1    1    2  503  505 -0.50448106924E+02  0.12119044371E+03 -0.46523956595E+03  0.48340458093E+03  0.00000000000E+00 0.  1.
         21    1    1    2  504  502 -0.33252933046E+02 -0.10453999995E+02 -0.68084339281E+02  0.76488698037E+02  0.00000000000E+00 0.  1.
         21    1    1    2  505  501  0.20929469536E+02  0.30723146510E+02  0.50724768825E+01  0.37519121101E+02  0.00000000000E+00 0. -1.
         -2    1    1    2    0  504  0.62771570434E+02 -0.14145959022E+03  0.15375128017E+03  0.21815256559E+03  0.00000000000E+00 0.  1.
<scales pt_clust_3="14000.00000" pt_clust_4="34.85748" pt_clust_5="36.33168" pt_clust_6="138.71613"></scales>
<clustering>
<clus scale="   34.857">  2  4  1 -1</clus>
<clus scale="   36.332">  1  5  2 -1</clus>
<clus scale="  138.716">  1  6  2 -1</clus>
<clus scale="   34.857">  2  3  1 -1</clus>
</clustering>
</event>
<event>
 6    0  0.2839294E+002  0.1056053E+03  0.7546771E-02  0.1268932E+00
         -2   -1    0    0    0  501 -0.00000000000E+00  0.00000000000E+00  0.11124781576E+03  0.11124781576E+03  0.00000000000E+00 0.  1.
         21   -1    0    0  503  502  0.00000000000E+00 -0.00000000000E+00 -0.44689202281E+03  0.44689202281E+03  0.00000000000E+00 0.  1.
         21    1    1    2  503  505 -0.14650341209E+02 -0.10952653106E+03 -0.34812934600E+03  0.36524612941E+03  0.00000000000E+00 0.  1.
         21    1    1    2  504  502  0.59760682949E+02  0.65851410882E+02  0.16965171883E+02  0.90529357662E+02  0.00000000000E+00 0.  1.
         21    1    1    2  505  501 -0.89809480793E+01  0.40260998951E+02 -0.35653524071E+02  0.54523199132E+02  0.00000000000E+00 0. -1.
         -2    1    1    2    0  504 -0.36129393661E+02  0.34141212281E+01  0.31173491131E+02  0.47841152362E+02  0.00000000000E+00 0.  1.
<scales pt_clust_3="14000.00000" pt_clust_4="105.60530" pt_clust_5="42.96376" pt_clust_6="36.29035"></scales>
<clustering>
<clus scale="   36.290">  1  6  2 -1</clus>
<clus scale="   42.964">  1  5  2 -1</clus>
<clus scale="  105.605">  1  4  2 -1</clus>
<clus scale="  105.605">  2  3  1 -1</clus>
</clustering>
</event>
<event>
 6    0  0.2839294E+002  0.9064347E+02  0.7546771E-02  0.1301301E+00
         21   -1    0    0  505  502  0.00000000000E+00  0.00000000000E+00  0.20061982058E+03  0.20061982058E+03  0.00000000000E+00 0.  1.
          2   -1    0    0  503    0 -0.00000000000E+00 -0.00000000000E+00 -0.54684003836E+03  0.54684003836E+03  0.00000000000E+00 0.  1.
         21    1    1    2  503  504 -0.22291787993E+02 -0.25081920900E+02 -0.73857098349E+02  0.81122731368E+02  0.00000000000E+00 0.  1.
         21    1    1    2  504  502  0.16006072921E+02 -0.37027471417E+02  0.11200661118E+03  0.11904918714E+03  0.00000000000E+00 0.  1.
         21    1    1    2  505  501 -0.28080415304E+02  0.12546443182E+03  0.25547807193E+02  0.13108212627E+03  0.00000000000E+00 0.  1.
          2    1    1    2  501    0  0.34366130377E+02 -0.63355039500E+02 -0.40991753780E+03  0.41620581416E+03  0.00000000000E+00 0.  1.
<scales pt_clust_3="33.55632" pt_clust_4="40.44593" pt_clust_5="90.64347" pt_clust_6="14000.00000"></scales>
<clustering>
<clus scale="   33.556">  2  3  1 -1</clus>
<clus scale="   40.446">  1  4  2 -1</clus>
<clus scale="   90.643">  1  5  2 -1</clus>
<clus scale="   40.446">  1  3  2 -1</clus>
</clustering>
</event>
<event>
 6    0  0.2839294E+002  0.1763794E+03  0.7546771E-02  0.1171354E+00
         21   -1    0    0  505  502  0.00000000000E+00  0.00000000000E+00  0.32487686660E+03  0.32487686660E+03  0.00000000000E+00 0. -1.
          1   -1    0    0  504    0 -0.00000000000E+00 -0.00000000000E+00 -0.35554573601E+03  0.35554573601E+03  0.00000000000E+00 0.  1.
         21    1    1    2  503  501  0.44693532776E+01  0.96486116351E+02  0.10532194817E+03  0.14290646778E+03  0.00000000000E+00 0. -1.
         21    1    1    2  504  502 -0.33746757215E+02 -0.10535246222E+02 -0.18324299369E+02  0.39819781301E+02  0.00000000000E+00 0. -1.
         21    1    1    2  505  503  0.44601333053E+02  0.58723199861E+02  0.16447810170E+03  0.18025187669E+03  0.00000000000E+00 0. -1.
          1    1    1    2  501    0 -0.15323929116E+02 -0.14467406999E+03 -0.28214461991E+03  0.31744447683E+03  0.00000000000E+00 0.  1.
<scales pt_clust_3="62.57508" pt_clust_4="35.35301" pt_clust_5="62.57508" pt_clust_6="161.14686"></scales>
<clustering>
<clus scale="   35.353">  2  4  1 -1</clus>
<clus scale="   62.575">  3  5 -1 -1</clus>
<clus scale="  161.147">  2  6  1 -1</clus>
<clus scale="  176.379">  1  3  2 -1</clus>
</clustering>
</event>
<event>
 6    0  0.3474953E+002  0.2018811E+03  0.7546771E-02  0.1148162E+00
         21   -1    0    0  504  502  0.00000000000E+00  0.00000000000E+00  0.54500095299E+03  0.54500095299E+03  0.00000000000E+00 0.  1.
          2   -1    0    0  503    0 -0.00000000000E+00 -0.00000000000E+00 -0.27821506989E+04  0.27821506989E+04  0.00000000000E+00 0. -1.
         21    1    1    2  503  502  0.83809011650E+01 -0.31410027058E+02  0.15050309416E+02  0.35823750748E+02  0.00000000000E+00 0.  1.
         21    1    1    2  504  505  0.47631869834E+02 -0.19532698277E+02  0.47645353671E+03  0.47922676675E+03  0.00000000000E+00 0.  1.
         21    1    1    2  505  501  0.15122744528E+03  0.37139140349E+02 -0.12368193383E+03  0.19886245675E+03  0.00000000000E+00 0.  1.
          2    1    1    2  501    0 -0.20724021627E+03  0.13803584985E+02 -0.26049716582E+04  0.26132386776E+04  0.00000000000E+00 0. -1.
<scales pt_clust_3="32.50891" pt_clust_4="73.53241" pt_clust_5="14000.00000" pt_clust_6="201.88112"></scales>
<clustering>
<clus scale="   32.509">  1  3  2 -1</clus>
<clus scale="   73.532">  1  4  2 -1</clus>
<clus scale="  201.881">  2  6  1 -1</clus>
<clus scale="   32.509">  1  3  2 -1</clus>
</clustering>
</event>
<event>
 6    0  0.2839294E+002  0.1047145E+03  0.7546771E-02  0.1270683E+00
         21   -1    0    0  504  502  0.00000000000E+00  0.00000000000E+00  0.44385295003E+03  0.44385295003E+03  0.00000000000E+00 0.  1.
         -4   -1    0    0    0  501 -0.00000000000E+00 -0.00000000000E+00 -0.36236339016E+03  0.36236339016E+03  0.00000000000E+00 0.  1.
         21    1    1    2  503  501  0.97727895802E+02  0.13459388844E+02 -0.81044628767E+02  0.12767195705E+03  0.00000000000E+00 0.  1.
         21    1    1    2  504  505 -0.25815931285E+02 -0.27209103302E+02  0.24824304155E+03  0.25106056099E+03  0.00000000000E+00 0.  1.
         21    1    1    2  505  503  0.76290025837E+02  0.10057225785E+03  0.10975533727E+03  0.16727576379E+03  0.00000000000E+00 0.  1.
         -4    1    1    2    0  502 -0.14820199035E+03 -0.86822543395E+02 -0.19546419018E+03  0.26020805835E+03  0.00000000000E+00 0.  1.
<scales pt_clust_3="95.17610" pt_clust_4="37.50730" pt_clust_5="14000.00000" pt_clust_6="104.71454"></scales>
<clustering>
<clus scale="   37.507">  1  4  2 -1</clus>
<clus scale="   95.176">  2  3  1 -1</clus>
<clus scale="  104.715">  2  6  1 -1</clus>
<clus scale="   37.507">  1  3  2 -1</clus>
</clustering>
</event>
<event>
 6    0  0.2839294E+002  0.1264887E+03  0.7546771E-02  0.1232761E+00
         21   -1    0    0  503  502  0.00000000000E+00  0.00000000000E+00  0.66421288309E+03  0.66421288309E+03  0.00000000000E+00 0.  1.
         -1   -1    0    0    0  501 -0.00000000000E+00 -0.00000000000E+00 -0.10931508338E+04  0.10931508338E+04  0.00000000000E+00 0.  1.
         21    1    1    2  503  504  0.25685773075E+02 -0.27312554191E+02  0.49696494794E+03  0.49837726076E+03  0.00000000000E+00 0.  1.
         21    1    1    2  504  501 -0.46249919823E+02  0.13787142814E+03  0.13033233699E+03  0.19527955307E+03  0.00000000000E+00 0. -1.
         21    1    1    2  505  502 -0.65879093879E+01 -0.45575873566E+02 -0.23580237110E+03  0.24025677726E+03  0.00000000000E+00 0. -1.
         -1    1    1    2    0  505  0.27152056136E+02 -0.64983000387E+02 -0.82043286456E+03  0.82345012584E+03  0.00000000000E+00 0.  1.
<scales pt_clust_3="37.49313" pt_clust_4="113.16371" pt_clust_5="45.74698" pt_clust_6="45.74698"></scales>
<clustering>
<clus scale="   37.493">  1  3  2 -1</clus>
<clus scale="   45.747">  5  6 -1 -1</clus>
<clus scale="  113.164">  1  4  2 -1</clus>
<clus scale="   37.493">  1  3  2 -1</clus>
</clustering>
</event>
<event>
 6    0  0.2839294E+002  0.9896640E+02  0.7546771E-02  0.1282485E+00
         21   -1    0    0  505  502  0.00000000000E+00  0.00000000000E+00  0.13957292821E+04  0.13957292821E+04  0.00000000000E+00 0. -1.
          2   -1    0    0  504    0 -0.00000000000E+00 -0.00000000000E+00 -0.92351364448E+03  0.92351364448E+03  0.00000000000E+00 0. -1.
         21    1    1    2  503  502 -0.13201048093E+02  0.60072713344E+02  0.11796906832E+04  0.11812929808E+04  0.00000000000E+00 0. -1.
         21    1    1    2  504  503 -0.75703168787E+02 -0.38468835794E+02 -0.95749081679E+02  0.12797932542E+03  0.00000000000E+00 0.  1.
         21    1    1    2  505  501  0.22532072320E+02  0.39375793801E+02  0.19399245119E+03  0.19922655079E+03  0.00000000000E+00 0. -1.
          2    1    1    2  501    0  0.66372144561E+02 -0.60979671351E+02 -0.80571841509E+03  0.81074406954E+03  0.00000000000E+00 0. -1.
<scales pt_clust_3="98.96640" pt_clust_4="84.40753" pt_clust_5="45.36681" pt_clust_6="14000.00000"></scales>
<clustering>
<clus scale="   45.367">  1  5  2 -1</clus>
<clus scale="   84.408">  2  4  1 -1</clus>
<clus scale="   98.966">  1  3  2 -1</clus>
<clus scale="   45.367">  1  3  2 -1</clus>
</clustering>
</event>
<event>
 6    0  0.2839294E+002  0.1350789E+03  0.7546771E-02  0.1220108E+00
          4   -1    0    0  504    0 -0.00000000000E+00  0.00000000000E+00  0.17211928110E+03  0.17211928110E+03  0.00000000000E+00 0.  1.
         21   -1    0    0  505  502  0.00000000000E+00 -0.00000000000E+00 -0.11161508616E+04  0.11161508616E+04  0.00000000000E+00 0.  1.
         21    1    1    2  503  501  0.96876903356E+02  0.37645446135E+02 -0.44244846505E+03  0.45449197820E+03  0.00000000000E+00 0.  1.
         21    1    1    2  504  502 -0.39337440440E+02  0.66815879030E+01 -0.61594981428E+01  0.40373472165E+02  0.00000000000E+00 0. -1.
         21    1    1    2  505  503  0.45140398992E+02 -0.51144423863E+02 -0.62456376578E+03  0.62827804771E+03  0.00000000000E+00 0. -1.
          4    1    1    2  501    0 -0.10267986191E+03  0.68173898244E+01  0.12914014842E+03  0.16512664467E+03  0.00000000000E+00 0.  1.
<scales pt_clust_3="135.07891" pt_clust_4="39.90085" pt_clust_5="67.84468" pt_clust_6="14000.00000"></scales>
<clustering>
<clus scale="   39.901">  1  4  2 -1</clus>
<clus scale="   67.845">  2  5  1 -1</clus>
<clus scale="  135.079">  2  3  1 -1</clus>
<clus scale="   67.845">  2  3  1 -1</clus>
</clustering>
</event>
<event>
 6    0  0.2839294E+002  0.7714947E+02  0.7546771E-02  0.1337341E+00
          1   -1    0    0  505    0 -0.00000000000E+00  0.00000000000E+00  0.13546363939E+04  0.13546363939E+04  0.00000000000E+00 0.  1.
         21   -1    0    0  504  502  0.00000000000E+00 -0.00000000000E+00 -0.22593887962E+03  0.22593887962E+03  0.00000000000E+00 0.  1.
         21    1    1    2  503  502 -0.80541806343E+02 -0.76640058582E+02 -0.18080674621E+03  0.21225400025E+03  0.00000000000E+00 0.  1.
         21    1    1    2  504  501  0.74354981733E+02 -0.26185665018E+01  0.22655004126E+02  0.77773835002E+02  0.00000000000E+00 0.  1.
         21    1    1    2  505  503  0.15993378649E+02  0.37689230763E+02  0.30079273860E+03  0.30356636485E+03  0.00000000000E+00 0.  1.
          1    1    1    2  501    0 -0.98065540387E+01  0.41569394321E+02  0.98605651775E+03  0.98698107340E+03  0.00000000000E+00 0.  1.
<scales pt_clust_3="14000.00000" pt_clust_4="75.12253" pt_clust_5="40.94223" pt_clust_6="77.14947"></scales>
<clustering>
<clus scale="   40.942">  1  5  2 -1</clus>
<clus scale="   75.123">  2  4  1 -1</clus>
<clus scale="   77.149">  1  6  2 -1</clus>
<clus scale="   75.123">  2  3  1 -1</clus>
</clustering>
</event>
<event>
 6    0  0.2839294E+002  0.9304847E+02  0.7546771E-02  0.1295633E+00
         21   -1    0    0  503  502  0.00000000000E+00  0.00000000000E+00  0.18424718344E+03  0.18424718344E+03  0.00000000000E+00 0. -1.
          2   -1    0    0  505    0 -0.00000000000E+00 -0.00000000000E+00 -0.46590082819E+03  0.46590082819E+03  0.00000000000E+00 0.  1.
         21    1    1    2  503  501  0.24829514894E+02  0.11230778641E+03  0.13799445000E+03  0.17964412578E+03  0.00000000000E+00 0. -1.
         21    1    1    2  504  502  0.23514986436E+02 -0.27468745712E+02 -0.10011503470E+02  0.37519551967E+02  0.00000000000E+00 0. -1.
         21    1    1    2  505  504 -0.63873372037E+02 -0.18072727507E+02 -0.14265551390E+03  0.15734365822E+03  0.00000000000E+00 0. -1.
          2    1    1    2  501    0  0.15528870707E+02 -0.66766313194E+02 -0.26698107737E+03  0.27564067566E+03  0.00000000000E+00 0.  1.
<scales pt_clust_3="14000.00000" pt_clust_4="36.15918" pt_clust_5="65.74366" pt_clust_6="93.04847"></scales>
<clustering>
<clus scale="   36.159">  1  4  2 -1</clus>
<clus scale="   65.744">  2  5  1 -1</clus>
<clus scale="   93.048">  2  6  1 -1</clus>
<clus scale="   36.159">  1  3  2 -1</clus>
</clustering>
</event>
<event>
 6    0  0.2839294E+002  0.1419634E+03  0.7546771E-02  0.1210711E+00
         21   -1    0    0  503  502  0.00000000000E+00  0.00000000000E+00  0.42580229962E+03  0.42580229962E+03  0.00000000000E+00 0. -1.
          2   -1    0    0  504    0 -0.00000000000E+00 -0.00000000000E+00 -0.28047386988E+04  0.28047386988E+04  0.00000000000E+00 0. -1.
         21    1    1    2  503  505  0.17758157119E+01 -0.62468430432E+02  0.31659571367E+02  0.70055597786E+02  0.00000000000E+00 0. -1.
         21    1    1    2  504  502  0.11333088496E+03  0.14637872189E+03  0.34714892694E+03  0.39342470332E+03  0.00000000000E+00 0. -1.
         21    1    1    2  505  501 -0.77187404676E+02 -0.95770446541E+02 -0.84524001353E+03  0.85414316970E+03  0.00000000000E+00 0.  1.
          2    1    1    2  501    0 -0.37919295993E+02  0.11860155082E+02 -0.19125048840E+04  0.19129175276E+04  0.00000000000E+00 0. -1.
<scales pt_clust_3="62.22058" pt_clust_4="141.96337" pt_clust_5="14000.00000" pt_clust_6="39.73080"></scales>
<clustering>
<clus scale="   39.731">  2  6  1 -1</clus>
<clus scale="   62.221">  1  3  2 -1</clus>
<clus scale="  141.963">  1  4  2 -1</clus>
<clus scale="   62.221">  1  3  2 -1</clus>
</clustering>
</event>
<event>
 6    0  0.2839294E+002  0.9849985E+02  0.7546771E-02  0.1283483E+00
          2   -1    0    0  504    0 -0.00000000000E+00  0.00000000000E+00  0.82144237319E+03  0.82144237319E+03  0.00000000000E+00 0. -1.
         21   -1    0    0  505  502  0.00000000000E+00 -0.00000000000E+00 -0.11955302377E+03  0.11955302377E+03  0.00000000000E+00 0. -1.
         21    1    1    2  503  501  0.80613014227E+01  0.72769311507E+02  0.31659721996E+03  0.32495254571E+03  0.00000000000E+00 0. -1.
         21    1    1    2  504  502  0.15243588845E+01  0.48254863263E+02  0.30606654428E+02  0.57163124423E+02  0.00000000000E+00 0. -1.
         21    1    1    2  505  503  0.13578705627E+02 -0.14877156396E+03 -0.46197920063E+02  0.15637009723E+03  0.00000000000E+00 0. -1.
          2    1    1    2  501    0 -0.23164365934E+02  0.27747389194E+02  0.40088339509E+03  0.40250962959E+03  0.00000000000E+00 0. -1.
<scales pt_clust_3="98.49985" pt_clust_4="51.16376" pt_clust_5="14000.00000" pt_clust_6="36.14561"></scales>
<clustering>
<clus scale="   36.146">  1  6  2 -1</clus>
<clus scale="   51.164">  2  4  1 -1</clus>
<clus scale="   98.500">  1  3  2 -1</clus>
<clus scale="   51.164">  2  3  1 -1</clus>
</clustering>
</event>
<event>
 6    0  0.2839294E+002  0.1139408E+03  0.7546771E-02  0.1253441E+00
          2   -1    0    0  503    0 -0.00000000000E+00  0.00000000000E+00  0.19455973764E+04  0.19455973764E+04  0.00000000000E+00 0.  1.
         21   -1    0    0  501  502  0.00000000000E+00 -0.00000000000E+00 -0.56160246348E+03  0.56160246348E+03  0.00000000000E+00 0. -1.
         21    1    1    2  503  505 -0.36626397176E+02  0.90433415612E+01  0.23300474360E+03  0.23603916103E+03  0.00000000000E+00 0.  1.
         21    1    1    2  504  502 -0.58359081307E+01  0.54702692193E+02 -0.54597820576E+03  0.54874278449E+03  0.00000000000E+00 0. -1.
         21    1    1    2  505  504  0.29943619523E+02 -0.15708727624E+03  0.58484327414E+03  0.60631236835E+03  0.00000000000E+00 0.  1.
          2    1    1    2  501    0  0.12518685784E+02  0.93341242490E+02  0.11121251010E+04  0.11161055260E+04  0.00000000000E+00 0.  1.
<scales pt_clust_3="37.72632" pt_clust_4="55.02352" pt_clust_5="113.94081" pt_clust_6="14000.00000"></scales>
<clustering>
<clus scale="   37.726">  1  3  2 -1</clus>
<clus scale="   55.024">  2  4  1 -1</clus>
<clus scale="  113.941">  2  5  1 -1</clus>
<clus scale="   55.024">  2  3  1 -1</clus>
</clustering>
</event>
<event>
 6    0  0.3888289E+002  0.3082016E+03  0.7546771E-02  0.1081211E+00
          2   -1    0    0  505    0 -0.00000000000E+00  0.00000000000E+00  0.12653509988E+04  0.12653509988E+04  0.00000000000E+00 0.  1.
         21   -1    0    0  504  502  0.00000000000E+00 -0.00000000000E+00 -0.23715569839E+04  0.23715569839E+04  0.00000000000E+00 0.  1.
         21    1    1    2  503  501 -0.37166650692E+02  0.21967724884E+03 -0.95588636834E+02  0.24243894298E+03  0.00000000000E+00 0.  1.
         21    1    1    2  504  503 -0.31847638636E+02  0.50118204801E+02 -0.78243005091E+02  0.98224611909E+02  0.00000000000E+00 0.  1.
         21    1    1    2  505  502 -0.19831454369E+03 -0.12886772736E+03 -0.20882074994E+04  0.21015580196E+04  0.00000000000E+00 0.  1.
          2    1    1    2  501    0  0.26732883302E+03 -0.14092772628E+03  0.11558331561E+04  0.11946864082E+04  0.00000000000E+00 0.  1.
<scales pt_clust_3="46.98138" pt_clust_4="46.98138" pt_clust_5="236.50698" pt_clust_6="294.45975"></scales>
<clustering>
<clus scale="   46.981">  3  4 -1 -1</clus>
<clus scale="  236.507">  2  5  1 -1</clus>
<clus scale="  294.460">  1  6  2 -1</clus>
<clus scale="  236.507">  2  3  1 -1</clus>
</clustering>
</event>
<event>
 6    0  0.2839294E+002  0.7821205E+02  0.7546771E-02  0.1334203E+00
          2   -1    0    0  505    0 -0.00000000000E+00  0.00000000000E+00  0.67290186360E+03  0.67290186360E+03  0.00000000000E+00 0.  1.
         21   -1    0    0  504  502  0.00000000000E+00 -0.00000000000E+00 -0.90241799591E+02  0.90241799591E+02  0.00000000000E+00 0.  1.
         21    1    1    2  503  502  0.53353997772E+02  0.61343816389E+02 -0.48760670320E+02  0.94801454933E+02  0.00000000000E+00 0.  1.
         21    1    1    2  504  501 -0.39826510539E+02 -0.51308306103E+02  0.88886581235E+02  0.11008868035E+03  0.00000000000E+00 0.  1.
         21    1    1    2  505  503 -0.60889413480E+02  0.78598841466E+01  0.14435389563E+03  0.15686728670E+03  0.00000000000E+00 0.  1.
          2    1    1    2  501    0  0.47361926247E+02 -0.17895394433E+02  0.39818025746E+03  0.40138624121E+03  0.00000000000E+00 0.  1.
<scales pt_clust_3="78.21205" pt_clust_4="14000.00000" pt_clust_5="34.82975" pt_clust_6="50.63000"></scales>
<clustering>
<clus scale="   50.630">  1  6  2 -1</clus>
<clus scale="   34.830">  1  5  2 -1</clus>
<clus scale="   78.212">  2  3  1 -1</clus>
<clus scale="   78.212">  2  3  1 -1</clus>
</clustering>
</event>
<event>
 6    0  0.2839294E+002  0.9463800E+02  0.7546771E-02  0.1291993E+00
          2   -1    0    0  503    0 -0.00000000000E+00  0.00000000000E+00  0.36042810987E+04  0.36042810987E+04  0.00000000000E+00 0.  1.
         21   -1    0    0  505  502  0.00000000000E+00 -0.00000000000E+00 -0.42706928439E+02  0.42706928439E+02  0.00000000000E+00 0. -1.
         21    1    1    2  503  502  0.46456511022E+02  0.35863756460E+02  0.33847033879E+03  0.34352086790E+03  0.00000000000E+00 0. -1.
         21    1    1    2  504  501 -0.18250519895E+02 -0.67518540609E+02  0.67890464469E+03  0.68249787646E+03  0.00000000000E+00 0. -1.
         21    1    1    2  505  504 -0.59935855517E+02  0.79351438812E+02  0.26898615301E+02  0.10301695551E+03  0.00000000000E+00 0. -1.
          2    1    1    2  501    0  0.31729864389E+02 -0.47696654663E+02  0.25173005715E+04  0.25179523273E+04  0.00000000000E+00 0.  1.
<scales pt_clust_3="60.15925" pt_clust_4="94.63800" pt_clust_5="14000.00000" pt_clust_6="57.28661"></scales>
<clustering>
<clus scale="   57.287">  1  6  2 -1</clus>
<clus scale="   60.159">  1  3  2 -1</clus>
<clus scale="   94.638">  1  4  2 -1</clus>
<clus scale="   94.638">  2  3  1 -1</clus>
</clustering>
</event>
<event>
 6    0  0.2839294E+002  0.1550932E+03  0.7546771E-02  0.1194351E+00
          2   -1    0    0  504    0 -0.00000000000E+00  0.00000000000E+00  0.43755272268E+03  0.43755272268E+03  0.00000000000E+00 0. -1.
         21   -1    0    0  505  502  0.00000000000E+00 -0.00000000000E+00 -0.30000410984E+03  0.30000410984E+03  0.00000000000E+00 0.  1.
         21    1    1    2  503  502 -0.42191884860E+01 -0.51641723354E+02 -0.37129046257E+02  0.63743511186E+02  0.00000000000E+00 0. -1.
         21    1    1    2  504  503 -0.64536457816E+02 -0.31588606450E+02  0.81560104849E+02  0.10869611377E+03  0.00000000000E+00 0. -1.
         21    1    1    2  505  501  0.58331416193E+02  0.19873484086E+03 -0.17617641941E+03  0.27191215832E+03  0.00000000000E+00 0.  1.
          2    1    1    2  501    0  0.10424230109E+02 -0.11550451105E+03  0.26929397367E+03  0.29320504924E+03  0.00000000000E+00 0. -1.
<scales pt_clust_3="51.81379" pt_clust_4="73.33287" pt_clust_5="14000.00000" pt_clust_6="155.09319"></scales>
<clustering>
<clus scale="   51.814">  2  3  1 -1</clus>
<clus scale="   73.333">  1  4  2 -1</clus>
<clus scale="  155.093">  1  6  2 -1</clus>
<clus scale="   51.814">  2  3  1 -1</clus>
</clustering>
</event>
<event>
 6    0  0.2839294E+002  0.5222897E+02  0.7546771E-02  0.1433677E+00
         21   -1    0    0  503  502  0.00000000000E+00  0.00000000000E+00  0.23815213355E+03  0.23815213355E+03  0.00000000000E+00 0. -1.
         -1   -1    0    0    0  501 -0.00000000000E+00 -0.00000000000E+00 -0.16302998892E+04  0.16302998892E+04  0.00000000000E+00 0. -1.
         21    1    1    2  503  504 -0.45519680748E+02 -0.19410565695E+02  0.17609098322E+03  0.18291212581E+03  0.00000000000E+00 0. -1.
         21    1    1    2  504  501  0.86268557593E+02  0.40030083551E+01  0.14352450780E+02  0.87545879106E+02  0.00000000000E+00 0. -1.
         21    1    1    2  505  502 -0.79515320126E+02 -0.97582250706E+01 -0.21212338746E+03  0.22674708510E+03  0.00000000000E+00 0. -1.
         -1    1    1    2    0  505  0.38766443281E+02  0.25165782411E+02 -0.13704678022E+04  0.13712469327E+04  0.00000000000E+00 0. -1.
<scales pt_clust_3="14000.00000" pt_clust_4="52.22897" pt_clust_5="48.12761" pt_clust_6="46.21854"></scales>
<clustering>
<clus scale="   46.219">  2  6  1 -1</clus>
<clus scale="   48.128">  2  5  1 -1</clus>
<clus scale="   52.229">  2  4  1 -1</clus>
<clus scale="   52.229">  1  3  2 -1</clus>
</clustering>
</event>
<event>
 6    0  0.2839294E+002  0.2136755E+03  0.7546771E-02  0.1138688E+00
          2   -1    0    0  504    0 -0.00000000000E+00  0.00000000000E+00  0.66935423931E+03  0.66935423931E+03  0.00000000000E+00 0.  1.
         21   -1    0    0  503  502  0.00000000000E+00 -0.00000000000E+00 -0.51368891141E+03  0.51368891141E+03  0.00000000000E+00 0.  1.
         21    1    1    2  503  501 -0.11996197696E+03 -0.72866226264E+02 -0.30130495937E+03  0.33239290213E+03  0.00000000000E+00 0.  1.
         21    1    1    2  504  505  0.10131759482E+02  0.57072747647E+02  0.75032012213E+02  0.94814312901E+02  0.00000000000E+00 0.  1.
         21    1    1    2  505  502  0.29911703641E+03  0.11598384473E+03  0.33099501466E+01  0.32083361650E+03  0.00000000000E+00 0.  1.
          2    1    1    2  501    0 -0.18928681893E+03 -0.10019036611E+03  0.37862832490E+03  0.43500231919E+03  0.00000000000E+00 0.  1.
<scales pt_clust_3="139.34444" pt_clust_4="57.96508" pt_clust_5="14000.00000" pt_clust_6="213.67554"></scales>
<clustering>
<clus scale="   57.965">  1  4  2 -1</clus>
<clus scale="  139.344">  2  3  1 -1</clus>
<clus scale="  213.676">  1  6  2 -1</clus>
<clus scale="  139.344">  2  3  1 -1</clus>
</clustering>
</event>
<event>
 6    0  0.2839294E+002  0.1941763E+03  0.7546771E-02  0.1154748E+00
          2   -1    0    0  504    0 -0.00000000000E+00  0.00000000000E+00  0.93272001419E+02  0.93272001419E+02  0.00000000000E+00 0. -1.
         21   -1    0    0  503  502  0.00000000000E+00 -0.00000000000E+00 -0.25911425712E+04  0.25911425712E+04  0.00000000000E+00 0.  1.
         21    1    1    2  503  501  0.15294572300E+03  0.88669456135E+02 -0.13932948622E+04  0.14044661761E+04  0.00000000000E+00 0.  1.
         21    1    1    2  504  505 -0.13812148168E+02 -0.55365459047E+02 -0.95835685127E+02  0.11153738403E+03  0.00000000000E+00 0.  1.
         21    1    1    2  505  502 -0.25407571855E+03 -0.34456244171E+02 -0.10211008628E+04  0.10528003969E+04  0.00000000000E+00 0.  1.
          2    1    1    2  501    0  0.11494214372E+03  0.11522470831E+01  0.12360840414E+02  0.11561061566E+03  0.00000000000E+00 0. -1.
<scales pt_clust_3="194.17634" pt_clust_4="57.06233" pt_clust_5="14000.00000" pt_clust_6="112.09824"></scales>
<clustering>
<clus scale="   57.062">  1  4  2 -1</clus>
<clus scale="  112.098">  1  6  2 -1</clus>
<clus scale="  194.176">  2  3  1 -1</clus>
<clus scale="  194.176">  2  3  1 -1</clus>
</clustering>
</event>
<event>
 6    0  0.2839294E+002  0.1032432E+03  0.7546771E-02  0.1273620E+00
          2   -1    0    0  504    0 -0.00000000000E+00  0.00000000000E+00  0.16629328978E+04  0.16629328978E+04  0.00000000000E+00 0.  1.
         21   -1    0    0  505  502  0.00000000000E+00 -0.00000000000E+00 -0.25572566229E+03  0.25572566229E+03  0.00000000000E+00 0. -1.
         21    1    1    2  503  502  0.63977136393E+02 -0.27645623017E+02 -0.22565665479E+03  0.23617425834E+03  0.00000000000E+00 0. -1.
         21    1    1    2  504  503 -0.14753518769E+03 -0.14951943900E+02  0.21555266516E+03  0.26163551687E+03  0.00000000000E+00 0.  1.
         21    1    1    2  505  501  0.31706958257E+02  0.28524148826E+02  0.44009415363E+03  0.44215588012E+03  0.00000000000E+00 0.  1.
          2    1    1    2  501    0  0.51851093038E+02  0.14073418090E+02  0.97721707154E+03  0.97869290477E+03  0.00000000000E+00 0.  1.
<scales pt_clust_3="69.69472" pt_clust_4="97.03353" pt_clust_5="31.42027" pt_clust_6="31.42027"></scales>
<clustering>
<clus scale="   31.420">  5  6 -1 -1</clus>
<clus scale="   69.695">  2  3  1 -1</clus>
<clus scale="   97.034">  2  4  1 -1</clus>
<clus scale="   69.695">  2  3  1 -1</clus>
</clustering>
</event>
<event>
 6    0  0.2839294E+002  0.2678998E+03  0.7546771E-02  0.1102488E+00
         21   -1    0    0  505  502  0.00000000000E+00  0.00000000000E+00  0.17745186901E+04  0.17745186901E+04  0.00000000000E+00 0. -1.
          2   -1    0    0  504    0 -0.00000000000E+00 -0.00000000000E+00 -0.18395823474E+04  0.18395823474E+04  0.00000000000E+00 0.  1.
         21    1    1    2  503  501 -0.52074391302E+01 -0.22293645188E+03 -0.21015949785E+03  0.30642257347E+03  0.00000000000E+00 0. -1.
         21    1    1    2  504  502  0.58779485119E+02 -0.48521446208E+02  0.16097454588E+04  0.16115488825E+04  0.00000000000E+00 0. -1.
         21    1    1    2  505  503  0.67252527526E+02  0.13110617057E+02  0.91359315919E+02  0.11419857855E+03  0.00000000000E+00 0. -1.
          2    1    1    2  501    0 -0.12082457352E+03  0.25834728103E+03 -0.15560089341E+04  0.15819310030E+04  0.00000000000E+00 0.  1.
<scales pt_clust_3="14000.00000" pt_clust_4="128.68061" pt_clust_5="68.51854" pt_clust_6="267.89981"></scales>
<clustering>
<clus scale="   68.519">  1  5  2 -1</clus>
<clus scale="  128.681">  1  4  2 -1</clus>
<clus scale="  267.900">  2  6  1 -1</clus>
<clus scale="   68.519">  1  3  2 -1</clus>
</clustering>
</event>
<event>
 6    0  0.2839294E+002  0.2504090E+03  0.7546771E-02  0.1113047E+00
          1   -1    0    0  502    0 -0.00000000000E+00  0.00000000000E+00  0.69118763631E+03  0.69118763631E+03  0.00000000000E+00 0. -1.
         21   -1    0    0  504  502  0.00000000000E+00 -0.00000000000E+00 -0.26734785913E+03  0.26734785913E+03  0.00000000000E+00 0. -1.
         21    1    1    2  503  505 -0.13006803865E+02  0.24004388069E+03 -0.10637985030E+03  0.26288193957E+03  0.00000000000E+00 0. -1.
         21    1    1    2  504  503 -0.46844553801E+02 -0.48220965355E+01 -0.46767491381E+02  0.66369142573E+02  0.00000000000E+00 0. -1.
         21    1    1    2  505  501  0.19884777663E+02 -0.41279802851E+02  0.58751787605E+02  0.74506369210E+02  0.00000000000E+00 0.  1.
          1    1    1    2  501    0  0.39966580003E+02 -0.19394198131E+03  0.51823533126E+03  0.55477804408E+03  0.00000000000E+00 0. -1.
<scales pt_clust_3="241.93261" pt_clust_4="47.09209" pt_clust_5="31.07504" pt_clust_6="31.07504"></scales>
<clustering>
<clus scale="   31.075">  5  6 -1 -1</clus>
<clus scale="   47.092">  2  4  1 -1</clus>
<clus scale="  241.933">  2  3  1 -1</clus>
<clus scale="   47.092">  2  3  1 -1</clus>
</clustering>
</event>
<event>
 6    0  0.2839294E+002  0.1206574E+03  0.7546771E-02  0.1242016E+00
          2   -1    0    0  502    0 -0.00000000000E+00  0.00000000000E+00  0.52538346382E+03  0.52538346382E+03  0.00000000000E+00 0. -1.
         21   -1    0    0  505  502  0.00000000000E+00 -0.00000000000E+00 -0.61281638143E+03  0.61281638143E+03  0.00000000000E+00 0.  1.
         21    1    1    2  503  501 -0.55813060714E+02 -0.43273892693E+02 -0.16716301454E+02  0.72575218011E+02  0.00000000000E+00 0. -1.
         21    1    1    2  504  503 -0.64088167905E+02 -0.91282033066E+01 -0.31505296683E+02  0.71994451732E+02  0.00000000000E+00 0. -1.
         21    1    1    2  505  504  0.11088917921E+03 -0.34230326791E+02 -0.50581968774E+03  0.51896211986E+03  0.00000000000E+00 0.  1.
          2    1    1    2  501    0  0.90120494125E+01  0.86632422790E+02  0.46660836828E+03  0.47466805565E+03  0.00000000000E+00 0. -1.
<scales pt_clust_3="36.49170" pt_clust_4="36.49170" pt_clust_5="114.47896" pt_clust_6="87.09991"></scales>
<clustering>
<clus scale="   36.492">  3  4 -1 -1</clus>
<clus scale="   87.100">  1  6  2 -1</clus>
<clus scale="  114.479">  2  5  1 -1</clus>
<clus scale="  114.479">  2  3  1 -1</clus>
</clustering>
</event>
<event>
 6    0  0.2839294E+002  0.1181741E+03  0.7546771E-02  0.1246140E+00
         21   -1    0    0  503  502  0.00000000000E+00  0.00000000000E+00  0.80096609325E+03  0.80096609325E+03  0.00000000000E+00 0.  1.
         -3   -1    0    0    0  501 -0.00000000000E+00 -0.00000000000E+00 -0.19449935515E+04  0.19449935515E+04  0.00000000000E+00 0. -1.
         21    1    1    2  503  505 -0.28209240521E+02 -0.11772969005E+02  0.49174976034E+03  0.49269888456E+03  0.00000000000E+00 0.  1.
         21    1    1    2  504  501  0.48361167283E+02  0.49045835835E+02 -0.76979837511E+02  0.10329662094E+03  0.00000000000E+00 0. -1.
         21    1    1    2  505  504  0.14088102016E+03  0.39599680784E+02  0.27286509692E+03  0.30963035651E+03  0.00000000000E+00 0.  1.
         -3    1    1    2    0  502 -0.16103294693E+03 -0.76872547614E+02 -0.18316624780E+04  0.18403337827E+04  0.00000000000E+00 0. -1.
<scales pt_clust_3="30.56737" pt_clust_4="67.67932" pt_clust_5="118.17405" pt_clust_6="14000.00000"></scales>
<clustering>
<clus scale="   30.567">  1  3  2 -1</clus>
<clus scale="   67.679">  2  4  1 -1</clus>
<clus scale="  118.174">  1  5  2 -1</clus>
<clus scale="   30.567">  1  3  2 -1</clus>
</clustering>
</event>
<event>
 6    0  0.2839294E+002  0.6126702E+02  0.7546771E-02  0.1392590E+00
         21   -1    0    0  504  502  0.00000000000E+00  0.00000000000E+00  0.10319205739E+03  0.10319205739E+03  0.00000000000E+00 0. -1.
         -1   -1    0    0    0  501 -0.00000000000E+00 -0.00000000000E+00 -0.10282712858E+04  0.10282712858E+04  0.00000000000E+00 0. -1.
         21    1    1    2  503  502  0.45544596275E+02  0.24127197309E+02 -0.44205942476E+02  0.67901378852E+02  0.00000000000E+00 0. -1.
         21    1    1    2  504  505 -0.46047597483E+02  0.38203482622E+02  0.74318367785E+02  0.95410204426E+02  0.00000000000E+00 0. -1.
         21    1    1    2  505  501  0.54914609823E+02  0.64150437477E+01 -0.18783474249E+03  0.19580259867E+03  0.00000000000E+00 0.  1.
         -1    1    1    2    0  503 -0.54411608615E+02 -0.68745723678E+02 -0.76735691122E+03  0.77234916124E+03  0.00000000000E+00 0. -1.
<scales pt_clust_3="51.54058" pt_clust_4="14000.00000" pt_clust_5="57.38890" pt_clust_6="61.26702"></scales>
<clustering>
<clus scale="   51.541">  1  3  2 -1</clus>
<clus scale="   57.389">  2  5  1 -1</clus>
<clus scale="   61.267">  2  6  1 -1</clus>
<clus scale="   51.541">  1  3  2 -1</clus>
</clustering>
</event>
<event>
 6    0  0.2839294E+002  0.1143937E+03  0.7546771E-02  0.1252643E+00
          2   -1    0    0  505    0 -0.00000000000E+00  0.00000000000E+00  0.31101471392E+04  0.31101471392E+04  0.00000000000E+00 0.  1.
         21   -1    0    0  503  502  0.00000000000E+00 -0.00000000000E+00 -0.21467110305E+03  0.21467110305E+03  0.00000000000E+00 0.  1.
         21    1    1    2  503  501 -0.35179565704E+01  0.87946964160E+02 -0.14984386913E+03  0.17378213268E+03  0.00000000000E+00 0.  1.
         21    1    1    2  504  502 -0.62976268593E+02  0.67336177175E+01 -0.31005297315E+02  0.70517235305E+02  0.00000000000E+00 0.  1.
         21    1    1    2  505  504  0.32838998220E+02 -0.34549588911E+02  0.33988042051E+03  0.34320660562E+03  0.00000000000E+00 0.  1.
          2    1    1    2  501    0  0.33655226944E+02 -0.60130992966E+02  0.27364447821E+04  0.27373122686E+04  0.00000000000E+00 0.  1.
<scales pt_clust_3="14000.00000" pt_clust_4="63.07641" pt_clust_5="47.66628" pt_clust_6="114.39371"></scales>
<clustering>
<clus scale="   47.666">  1  5  2 -1</clus>
<clus scale="   63.076">  2  4  1 -1</clus>
<clus scale="  114.394">  1  6  2 -1</clus>
<clus scale="   63.076">  2  3  1 -1</clus>
</clustering>
</event>
<event>
 6    0  0.2839294E+002  0.9032130E+02  0.7546771E-02  0.1302075E+00
         21   -1    0    0  504  502  0.00000000000E+00  0.00000000000E+00  0.34668846520E+02  0.34668846520E+02  0.00000000000E+00 0.  1.
          2   -1    0    0  503    0 -0.00000000000E+00 -0.00000000000E+00 -0.25006458251E+04  0.25006458251E+04  0.00000000000E+00 0.  1.
         21    1    1    2  503  505  0.36954253146E+02 -0.16930760856E+02 -0.31744073828E+03  0.32003263866E+03  0.00000000000E+00 0. -1.
         21    1    1    2  504  501  0.70475463576E+02 -0.18513575402E+02 -0.28694912821E+02  0.78313098918E+02  0.00000000000E+00 0.  1.
         21    1    1    2  505  502  0.26948509334E+01  0.74014134422E+02 -0.19495540825E+03  0.20854967159E+03  0.00000000000E+00 0.  1.
          2    1    1    2  501    0 -0.11012456766E+03 -0.38569798163E+02 -0.19248859192E+04  0.19284192624E+04  0.00000000000E+00 0.  1.
<scales pt_clust_3="40.64809" pt_clust_4="90.32130" pt_clust_5="72.70596" pt_clust_6="14000.00000"></scales>
<clustering>
<clus scale="   40.648">  2  3  1 -1</clus>
<clus scale="   72.706">  1  5  2 -1</clus>
<clus scale="   90.321">  1  4  2 -1</clus>
<clus scale="   72.706">  1  3  2 -1</clus>
</clustering>
</event>
<event>
 6    0  0.2839294E+002  0.1205988E+03  0.7546771E-02  0.1242112E+00
         21   -1    0    0  505  502  0.00000000000E+00  0.00000000000E+00  0.15406362419E+03  0.15406362419E+03  0.00000000000E+00 0. -1.
          2   -1    0    0  503    0 -0.00000000000E+00 -0.00000000000E+00 -0.18509920905E+04  0.18509920905E+04  0.00000000000E+00 0.  1.
         21    1    1    2  503  504  0.20203171144E+02 -0.14371720286E+03 -0.59165823584E+03  0.60919805528E+03  0.00000000000E+00 0.  1.
         21    1    1    2  504  502 -0.27390754551E+02  0.36919613631E+02  0.13903674456E+03  0.14643950165E+03  0.00000000000E+00 0. -1.
         21    1    1    2  505  501  0.15473450790E+02  0.45712028565E+02 -0.69222613273E+03  0.69390635973E+03  0.00000000000E+00 0.  1.
          2    1    1    2  501    0 -0.82858673826E+01  0.61085560662E+02 -0.55208084229E+03  0.55551179802E+03  0.00000000000E+00 0.  1.
<scales pt_clust_3="115.13288" pt_clust_4="45.97077" pt_clust_5="31.76043" pt_clust_6="31.76043"></scales>
<clustering>
<clus scale="   31.760">  5  6 -1 -1</clus>
<clus scale="   45.971">  1  4  2 -1</clus>
<clus scale="  115.133">  1  3  2 -1</clus>
<clus scale="   45.971">  1  3  2 -1</clus>
</clustering>
</event>
<event>
 6    0  0.2839294E+002  0.8205268E+02  0.7546771E-02  0.1323325E+00
         21   -1    0    0  503  502  0.00000000000E+00  0.00000000000E+00  0.36012384713E+04  0.36012384713E+04  0.00000000000E+00 0. -1.
         -3   -1    0    0    0  501 -0.00000000000E+00 -0.00000000000E+00 -0.67939059688E+03  0.67939059688E+03  0.00000000000E+00 0.  1.
         21    1    1    2  503  504  0.11702008197E+03  0.19792994238E+01  0.30076996677E+04  0.30099758983E+04  0.00000000000E+00 0. -1.
         21    1    1    2  504  501 -0.38711236563E+02 -0.34694239075E+02  0.21781922061E+02  0.56362240817E+02  0.00000000000E+00 0. -1.
         21    1    1    2  505  502 -0.36013402556E+02  0.22822098065E+02  0.55179170158E+03  0.55343644193E+03  0.00000000000E+00 0. -1.
         -3    1    1    2    0  505 -0.42295442848E+02  0.98928415868E+01 -0.65942541688E+03  0.66085448718E+03  0.00000000000E+00 0.  1.
<scales pt_clust_3="14000.00000" pt_clust_4="82.05268" pt_clust_5="42.63582" pt_clust_6="43.44644"></scales>
<clustering>
<clus scale="   42.636">  1  5  2 -1</clus>
<clus scale="   43.446">  2  6  1 -1</clus>
<clus scale="   82.053">  2  4  1 -1</clus>
<clus scale="   42.636">  1  3  2 -1</clus>
</clustering>
</event>
<event>
 6    0  0.2839294E+002  0.1776741E+03  0.7546771E-02  0.1170073E+00
         21   -1    0    0  504  502  0.00000000000E+00  0.00000000000E+00  0.82047034607E+02  0.82047034607E+02  0.00000000000E+00 0.  1.
          2   -1    0    0  505    0 -0.00000000000E+00 -0.00000000000E+00 -0.21478026002E+04  0.21478026002E+04  0.00000000000E+00 0.  1.
         21    1    1    2  503  502  0.42152629042E+02 -0.29815885485E+02 -0.98243685113E+02  0.11098492162E+03  0.00000000000E+00 0. -1.
         21    1    1    2  504  501 -0.60681521321E+02 -0.14802604441E+03 -0.23202880399E+02  0.16165497367E+03  0.00000000000E+00 0.  1.
         21    1    1    2  505  503  0.30544281427E+02 -0.11187498522E+02 -0.40189961136E+03  0.40321385252E+03  0.00000000000E+00 0. -1.
          2    1    1    2  501    0 -0.12015389148E+02  0.18902942842E+03 -0.15424093887E+04  0.15539958870E+04  0.00000000000E+00 0.  1.
<scales pt_clust_3="53.51614" pt_clust_4="14000.00000" pt_clust_5="32.52865" pt_clust_6="177.67406"></scales>
<clustering>
<clus scale="   32.529">  2  5  1 -1</clus>
<clus scale="   53.516">  1  3  2 -1</clus>
<clus scale="  177.674">  2  6  1 -1</clus>
<clus scale="   53.516">  1  3  2 -1</clus>
</clustering>
</event>
<event>
 6    0  0.2839294E+002  0.8555207E+02  0.7546771E-02  0.1313995E+00
         21   -1    0    0  503  502  0.00000000000E+00  0.00000000000E+00  0.10843446820E+04  0.10843446820E+04  0.00000000000E+00 0.  1.
          2   -1    0    0  505    0 -0.00000000000E+00 -0.00000000000E+00 -0.23063552293E+04  0.23063552293E+04  0.00000000000E+00 0. -1.
         21    1    1    2  503  501 -0.74143134977E+02 -0.66286178561E+00  0.94355037623E+03  0.94645916781E+03  0.00000000000E+00 0.  1.
         21    1    1    2  504  502  0.31052453507E+02  0.79454540238E+02  0.11105358520E+03  0.14003634392E+03  0.00000000000E+00 0. -1.
         21    1    1    2  505  504 -0.21405633083E+02 -0.95093143325E+02 -0.16570844631E+03  0.19225034776E+03  0.00000000000E+00 0. -1.
          2    1    1    2  501    0  0.64496314553E+02  0.16301464874E+02 -0.21109060624E+04  0.21119540517E+04  0.00000000000E+00 0. -1.
<scales pt_clust_3="73.66390" pt_clust_4="85.55207" pt_clust_5="14000.00000" pt_clust_6="66.52452"></scales>
<clustering>
<clus scale="   66.525">  2  6  1 -1</clus>
<clus scale="   73.664">  1  3  2 -1</clus>
<clus scale="   85.552">  1  4  2 -1</clus>
<clus scale="   73.664">  1  3  2 -1</clus>
</clustering>
</event>
<event>
 6    0  0.2839294E+002  0.1460978E+03  0.7546771E-02  0.1205352E+00
         21   -1    0    0  503  502  0.00000000000E+00  0.00000000000E+00  0.40625740279E+03  0.40625740279E+03  0.00000000000E+00 0. -1.
          2   -1    0    0  505    0 -0.00000000000E+00 -0.00000000000E+00 -0.35757311540E+03  0.35757311540E+03  0.00000000000E+00 0. -1.
         21    1    1    2  503  504  0.10862506144E+02 -0.30097796091E+02  0.58784989286E+02  0.66929413075E+02  0.00000000000E+00 0.  1.
         21    1    1    2  504  501 -0.52042433523E+02 -0.52380188249E+02 -0.19088900734E+03  0.20467220654E+03  0.00000000000E+00 0. -1.
         21    1    1    2  505  502  0.11171211437E+03  0.84935870399E+02  0.31263204521E+03  0.34268424864E+03  0.00000000000E+00 0. -1.
          2    1    1    2  501    0 -0.70532186987E+02 -0.24578860590E+01 -0.13184373977E+03  0.14954464992E+03  0.00000000000E+00 0. -1.
<scales pt_clust_3="31.99799" pt_clust_4="55.80014" pt_clust_5="134.39923" pt_clust_6="55.80014"></scales>
<clustering>
<clus scale="   31.998">  1  3  2 -1</clus>
<clus scale="   55.800">  4  6 -1 -1</clus>
<clus scale="  134.399">  1  5  2 -1</clus>
<clus scale="   31.998">  1  3  2 -1</clus>
</clustering>
</event>
<event>
 6    0  0.2839294E+002  0.1062002E+03  0.7546771E-02  0.1267773E+00
         21   -1    0    0  501  502  0.00000000000E+00  0.00000000000E+00  0.49309370558E+03  0.49309370558E+03  0.00000000000E+00 0.  1.
         -3   -1    0    0    0  501 -0.00000000000E+00 -0.00000000000E+00 -0.61241994488E+03  0.61241994488E+03  0.00000000000E+00 0. -1.
         21    1    1    2  503  504 -0.47737187383E+02  0.83663944076E+01  0.31571093965E+02  0.57840898928E+02  0.00000000000E+00 0.  1.
         21    1    1    2  504  502 -0.38745218519E+02  0.82572599123E+01  0.40694553922E+03  0.40886922872E+03  0.00000000000E+00 0.  1.
         21    1    1    2  505  503 -0.12033581769E+02 -0.76927028187E+02 -0.95150511767E+01  0.78441767922E+02  0.00000000000E+00 0.  1.
         -3    1    1    2    0  505  0.98515987671E+02  0.60303373867E+02 -0.54832782131E+03  0.56036175490E+03  0.00000000000E+00 0. -1.
<scales pt_clust_3="69.24533" pt_clust_4="39.61533" pt_clust_5="106.20015" pt_clust_6="14000.00000"></scales>
<clustering>
<clus scale="   39.615">  1  4  2 -1</clus>
<clus scale="   69.245">  1  3  2 -1</clus>
<clus scale="  106.200">  1  5  2 -1</clus>
<clus scale="   39.615">  1  3  2 -1</clus>
</clustering>
</event>
<event>
 6    0  0.2839294E+002  0.9935725E+02  0.7546771E-02  0.1281653E+00
         21   -1    0    0  503  502  0.00000000000E+00  0.00000000000E+00  0.63033335212E+02  0.63033335212E+02  0.00000000000E+00 0.  1.
          1   -1    0    0  505    0 -0.00000000000E+00 -0.00000000000E+00 -0.12685188634E+04  0.12685188634E+04  0.00000000000E+00 0.  1.
         21    1    1    2  503  501 -0.76720691314E+02 -0.59484304627E+02 -0.26722493785E+01  0.97116362625E+02  0.00000000000E+00 0.  1.
         21    1    1    2  504  502  0.77266665413E+02  0.79162647155E+02 -0.21487011458E+03  0.24167339205E+03  0.00000000000E+00 0.  1.
         21    1    1    2  505  504 -0.36176304271E+02 -0.41954655537E+02 -0.52402672295E+03  0.52694679473E+03  0.00000000000E+00 0.  1.
          1    1    1    2  501    0  0.35630330173E+02  0.22276313009E+02 -0.46391644127E+03  0.46581564919E+03  0.00000000000E+00 0.  1.
<scales pt_clust_3="14000.00000" pt_clust_4="99.35725" pt_clust_5="30.26555" pt_clust_6="42.02088"></scales>
<clustering>
<clus scale="   42.021">  2  6  1 -1</clus>
<clus scale="   30.266">  2  5  1 -1</clus>
<clus scale="   99.357">  2  4  1 -1</clus>
<clus scale="   99.357">  1  3  2 -1</clus>
</clustering>
</event>
<event>
 6    0  0.2839294E+002  0.1088396E+03  0.7546771E-02  0.1262734E+00
         21   -1    0    0  501  502  0.00000000000E+00  0.00000000000E+00  0.47998047860E+02  0.47998047860E+02  0.00000000000E+00 0.  1.
          2   -1    0    0  503    0 -0.00000000000E+00 -0.00000000000E+00 -0.16189220905E+04  0.16189220905E+04  0.00000000000E+00 0. -1.
         21    1    1    2  503  504 -0.24207560460E+02  0.30940665545E+02 -0.16149447146E+03  0.16620407661E+03  0.00000000000E+00 0. -1.
         21    1    1    2  504  505  0.38227561793E+02  0.12723929211E+02 -0.15574334212E+03  0.16087023798E+03  0.00000000000E+00 0. -1.
         21    1    1    2  505  502 -0.45783248093E+02 -0.10158412435E+03 -0.31384225227E+02  0.11576013873E+03  0.00000000000E+00 0.  1.
          2    1    1    2  501    0  0.31763246759E+02  0.57919529590E+02 -0.12223020038E+04  0.12240856850E+04  0.00000000000E+00 0. -1.
<scales pt_clust_3="39.28525" pt_clust_4="39.06170" pt_clust_5="108.83962" pt_clust_6="14000.00000"></scales>
<clustering>
<clus scale="   39.285">  2  3  1 -1</clus>
<clus scale="   39.062">  2  4  1 -1</clus>
<clus scale="  108.840">  1  5  2 -1</clus>
<clus scale="  108.840">  1  3  2 -1</clus>
</clustering>
</event>
<event>
 6    0  0.2839294E+002  0.3420623E+03  0.7546771E-02  0.1065921E+00
          2   -1    0    0  505    0 -0.00000000000E+00  0.00000000000E+00  0.22595309617E+04  0.22595309617E+04  0.00000000000E+00 0. -1.
         21   -1    0    0  504  502  0.00000000000E+00 -0.00000000000E+00 -0.17890815257E+03  0.17890815257E+03  0.00000000000E+00 0.  1.
         21    1    1    2  503  501  0.20592194280E+03  0.42329174902E+02  0.12170448339E+04  0.12350683112E+04  0.00000000000E+00 0. -1.
         21    1    1    2  504  503 -0.11657279350E+02 -0.29622665720E+02 -0.22204289356E+02  0.38812690605E+02  0.00000000000E+00 0.  1.
         21    1    1    2  505  502 -0.25531957745E+03 -0.13141097084E+03  0.19242402624E+02  0.28779715069E+03  0.00000000000E+00 0.  1.
          2    1    1    2  501    0  0.61054913994E+02  0.11870446166E+03  0.86653986194E+03  0.87676096176E+03  0.00000000000E+00 0. -1.
<scales pt_clust_3="116.08003" pt_clust_4="31.83386" pt_clust_5="309.38229" pt_clust_6="116.08003"></scales>
<clustering>
<clus scale="   31.834">  2  4  1 -1</clus>
<clus scale="  116.080">  3  6 -1 -1</clus>
<clus scale="  309.382">  2  5  1 -1</clus>
<clus scale="   31.834">  2  3  1 -1</clus>
</clustering>
</event>
<event>
 6    0  0.2839294E+002  0.3786217E+03  0.7546771E-02  0.1051444E+00
         21   -1    0    0  501  502  0.00000000000E+00  0.00000000000E+00  0.44667841026E+03  0.44667841026E+03  0.00000000000E+00 0.  1.
         -4   -1    0    0    0  501 -0.00000000000E+00 -0.00000000000E+00 -0.38426166373E+03  0.38426166373E+03  0.00000000000E+00 0.  1.
         21    1    1    2  503  504  0.11743891605E+03 -0.59679531083E+02 -0.66030102391E+01  0.13189823796E+03  0.00000000000E+00 0.  1.
         21    1    1    2  504  505 -0.34044624021E+03  0.29620916124E+02  0.18352479623E+03  0.38789482077E+03  0.00000000000E+00 0.  1.
         21    1    1    2  505  502 -0.85363386059E+01 -0.30020599948E+02  0.19653826648E+02  0.36883307877E+02  0.00000000000E+00 0. -1.
         -4    1    1    2    0  503  0.23154366277E+03  0.60079214907E+02 -0.13415886611E+03  0.27426370738E+03  0.00000000000E+00 0.  1.
<scales pt_clust_3="114.47604" pt_clust_4="346.39537" pt_clust_5="31.21066" pt_clust_6="114.47604"></scales>
<clustering>
<clus scale="   31.211">  1  5  2 -1</clus>
<clus scale="  114.476">  3  6 -1 -1</clus>
<clus scale="  346.395">  1  4  2 -1</clus>
<clus scale="   31.211">  1  3  2 -1</clus>
</clustering>
</event>
<event>
 6    0  0.2839294E+002  0.1215343E+03  0.7546771E-02  0.1240587E+00
         21   -1    0    0  503  502  0.00000000000E+00  0.00000000000E+00  0.92402166276E+02  0.92402166276E+02  0.00000000000E+00 0. -1.
          2   -1    0    0  504    0 -0.00000000000E+00 -0.00000000000E+00 -0.26919586243E+04  0.26919586243E+04  0.00000000000E+00 0.  1.
         21    1    1    2  503  505  0.28865740871E+02  0.14638644719E+02  0.44061938095E+02  0.54671521873E+02  0.00000000000E+00 0. -1.
         21    1    1    2  504  502 -0.38265018688E+02  0.15256004573E+02  0.23876278782E+02  0.47613380674E+02  0.00000000000E+00 0. -1.
         21    1    1    2  505  501  0.11920172558E+03 -0.68788390482E+02 -0.87075118489E+03  0.88156027589E+03  0.00000000000E+00 0.  1.
          2    1    1    2  501    0 -0.10980244777E+03  0.38893741190E+02 -0.17967434900E+04  0.18005156121E+04  0.00000000000E+00 0.  1.
<scales pt_clust_3="32.36543" pt_clust_4="30.91528" pt_clust_5="14000.00000" pt_clust_6="121.53432"></scales>
<clustering>
<clus scale="   32.365">  1  3  2 -1</clus>
<clus scale="   30.915">  1  4  2 -1</clus>
<clus scale="  121.534">  2  6  1 -1</clus>
<clus scale="   32.365">  1  3  2 -1</clus>
</clustering>
</event>
<event>
 6    0  0.2839294E+002  0.1094859E+03  0.7546771E-02  0.1261525E+00
         21   -1    0    0  501  502  0.00000000000E+00  0.00000000000E+00  0.22651669096E+02  0.22651669096E+02  0.00000000000E+00 0. -1.
          2   -1    0    0  505    0 -0.00000000000E+00 -0.00000000000E+00 -0.21456350668E+04  0.21456350668E+04  0.00000000000E+00 0.  1.
         21    1    1    2  503  502 -0.33125372812E+02 -0.19640458697E+02 -0.25969559975E+02  0.46448422870E+02  0.00000000000E+00 0. -1.
         21    1    1    2  504  503 -0.44573276820E+02  0.92845074745E+02 -0.29705717050E+03  0.31440411488E+03  0.00000000000E+00 0. -1.
         21    1    1    2  505  504 -0.63512404141E+01  0.29987013947E+02 -0.28545080895E+03  0.28709183825E+03  0.00000000000E+00 0. -1.
          2    1    1    2  501    0  0.84049890046E+02 -0.10319162999E+03 -0.15145058583E+04  0.15203423599E+04  0.00000000000E+00 0.  1.
<scales pt_clust_3="38.32297" pt_clust_4="109.48595" pt_clust_5="30.65223" pt_clust_6="14000.00000"></scales>
<clustering>
<clus scale="   30.652">  2  5  1 -1</clus>
<clus scale="   38.323">  1  3  2 -1</clus>
<clus scale="  109.486">  1  4  2 -1</clus>
<clus scale="   38.323">  1  3  2 -1</clus>
</clustering>
</event>
<event>
 6    0  0.2839294E+002  0.1342223E+03  0.7546771E-02  0.1221322E+00
          1   -1    0    0  505    0 -0.00000000000E+00  0.00000000000E+00  0.26721635702E+04  0.26721635702E+04  0.00000000000E+00 0. -1.
         21   -1    0    0  503  502  0.00000000000E+00 -0.00000000000E+00 -0.12507419486E+03  0.12507419486E+03  0.00000000000E+00 0. -1.
         21    1    1    2  503  504 -0.44415552371E+02 -0.83544211384E+01 -0.85262297902E+02  0.96499725847E+02  0.00000000000E+00 0. -1.
         21    1    1    2  504  501 -0.63484232893E+02 -0.12863593692E+03  0.15650000916E+03  0.21229626695E+03  0.00000000000E+00 0. -1.
         21    1    1    2  505  502  0.93679768578E+00  0.55358213302E+02  0.17259004188E+03  0.18125322597E+03  0.00000000000E+00 0. -1.
          1    1    1    2  501    0  0.10696298758E+03  0.81632144761E+02  0.23032616222E+04  0.23071885463E+04  0.00000000000E+00 0. -1.
<scales pt_clust_3="45.19444" pt_clust_4="134.22228" pt_clust_5="54.50202" pt_clust_6="14000.00000"></scales>
<clustering>
<clus scale="   45.194">  2  3  1 -1</clus>
<clus scale="   54.502">  2  5  1 -1</clus>
<clus scale="  134.222">  2  4  1 -1</clus>
<clus scale="   45.194">  2  3  1 -1</clus>
</clustering>
</event>
<event>
 6    0  0.2839294E+002  0.1188234E+03  0.7546771E-02  0.1245051E+00
          2   -1    0    0  503    0 -0.00000000000E+00  0.00000000000E+00  0.10237185062E+04  0.10237185062E+04  0.00000000000E+00 0.  1.
         21   -1    0    0  505  502  0.00000000000E+00 -0.00000000000E+00 -0.41211409498E+02  0.41211409498E+02  0.00000000000E+00 0. -1.
         21    1    1    2  503  504 -0.19445244359E+02 -0.30185004169E+02  0.12287111839E+03  0.12801001421E+03  0.00000000000E+00 0. -1.
         21    1    1    2  504  502 -0.10698813615E+03  0.22959559522E+02  0.57314460908E+02  0.12352550376E+03  0.00000000000E+00 0. -1.
         21    1    1    2  505  501  0.52960042916E+02  0.18546488147E+02  0.43681352877E+03  0.44040299419E+03  0.00000000000E+00 0.  1.
          2    1    1    2  501    0  0.73473337587E+02 -0.11321043501E+02  0.36550798865E+03  0.37299140356E+03  0.00000000000E+00 0.  1.
<scales pt_clust_3="35.90616" pt_clust_4="110.75184" pt_clust_5="34.07147" pt_clust_6="34.07147"></scales>
<clustering>
<clus scale="   35.906">  1  3  2 -1</clus>
<clus scale="   34.071">  5  6 -1 -1</clus>
<clus scale="  110.752">  2  4  1 -1</clus>
<clus scale="  110.752">  2  3  1 -1</clus>
</clustering>
</event>
<event>
 6    0  0.2839294E+002  0.8900943E+02  0.7546771E-02  0.1305268E+00
         -2   -1    0    0    0  501 -0.00000000000E+00  0.00000000000E+00  0.18218498920E+03  0.18218498920E+03  0.00000000000E+00 0.  1.
         21   -1    0    0  504  502  0.00000000000E+00 -0.00000000000E+00 -0.16795934321E+03  0.16795934321E+03  0.00000000000E+00 0.  1.
         21    1    1    2  503  501  0.70060956904E+02  0.62232242824E+02  0.78780405415E+02  0.12242443386E+03  0.00000000000E+00 0.  1.
         21    1    1    2  504  505  0.34928132730E+02 -0.48644064053E+02 -0.57819822035E+02  0.83242724870E+02  0.00000000000E+00 0.  1.
         21    1    1    2  505  503 -0.56930817267E+02 -0.53724623986E+02 -0.19282790390E+02  0.80618107038E+02  0.00000000000E+00 0.  1.
         -2    1    1    2    0  502 -0.48058272366E+02  0.40136445214E+02  0.12547852999E+02  0.63859066640E+02  0.00000000000E+00 0.  1.
<scales pt_clust_3="89.00943" pt_clust_4="59.88505" pt_clust_5="14000.00000" pt_clust_6="47.50707"></scales>
<clustering>
<clus scale="   59.885">  2  4  1 -1</clus>
<clus scale="   47.507">  2  6  1 -1</clus>
<clus scale="   89.009">  1  3  2 -1</clus>
<clus scale="   59.885">  2  3  1 -1</clus>
</clustering>
</event>
<event>
 6    0  0.2839294E+002  0.7539995E+02  0.7546771E-02  0.1342637E+00
         21   -1    0    0  503  502  0.00000000000E+00  0.00000000000E+00  0.43371939216E+03  0.43371939216E+03  0.00000000000E+00 0.  1.
          1   -1    0    0  504    0 -0.00000000000E+00 -0.00000000000E+00 -0.26315417203E+04  0.26315417203E+04  0.00000000000E+00 0.  1.
         21    1    1    2  503  501 -0.33360154780E+02 -0.60706793327E+02  0.39769800313E+03  0.40368541759E+03  0.00000000000E+00 0.  1.
         21    1    1    2  504  505 -0.26170243053E+02  0.66659947355E+02 -0.40977343158E+03  0.41598400862E+03  0.00000000000E+00 0.  1.
         21    1    1    2  505  502 -0.38918225589E+02  0.38537199370E+02  0.23586873679E+01  0.54820684275E+02  0.00000000000E+00 0. -1.
          1    1    1    2  501    0  0.98448623422E+02 -0.44490353398E+02 -0.21881055871E+04  0.21907710020E+04  0.00000000000E+00 0.  1.
<scales pt_clust_3="75.39995" pt_clust_4="71.99723" pt_clust_5="54.76992" pt_clust_6="14000.00000"></scales>
<clustering>
<clus scale="   54.770">  1  5  2 -1</clus>
<clus scale="   71.997">  2  4  1 -1</clus>
<clus scale="   75.400">  1  3  2 -1</clus>
<clus scale="   54.770">  1  3  2 -1</clus>
</clustering>
</event>
<event>
 6    0  0.2839294E+002  0.1270534E+03  0.7546771E-02  0.1231895E+00
          1   -1    0    0  504    0 -0.00000000000E+00  0.00000000000E+00  0.97869372443E+03  0.97869372443E+03  0.00000000000E+00 0.  1.
         21   -1    0    0  505  502  0.00000000000E+00 -0.00000000000E+00 -0.71899915390E+03  0.71899915390E+03  0.00000000000E+00 0. -1.
         21    1    1    2  503  502  0.52983230396E+02  0.12745869631E+03 -0.12093504279E+01  0.13803769231E+03  0.00000000000E+00 0. -1.
         21    1    1    2  504  503 -0.31689303905E+02 -0.20216774536E+02  0.30856975968E+03  0.31085081075E+03  0.00000000000E+00 0. -1.
         21    1    1    2  505  501 -0.39534839035E+02  0.95130017165E+00 -0.64261089635E+03  0.64382658580E+03  0.00000000000E+00 0. -1.
          1    1    1    2  501    0  0.18240912545E+02 -0.10819322195E+03  0.59494505763E+03  0.60497778948E+03  0.00000000000E+00 0.  1.
<scales pt_clust_3="14000.00000" pt_clust_4="37.58896" pt_clust_5="39.57463" pt_clust_6="127.05337"></scales>
<clustering>
<clus scale="   37.589">  1  4  2 -1</clus>
<clus scale="   39.575">  2  5  1 -1</clus>
<clus scale="  127.053">  1  6  2 -1</clus>
<clus scale="   39.575">  2  3  1 -1</clus>
</clustering>
</event>
<event>
 6    0  0.2839294E+002  0.6241676E+02  0.7546771E-02  0.1387961E+00
         21   -1    0    0  503  502  0.00000000000E+00  0.00000000000E+00  0.66767720223E+03  0.66767720223E+03  0.00000000000E+00 0. -1.
          2   -1    0    0  505    0 -0.00000000000E+00 -0.00000000000E+00 -0.73564118295E+03  0.73564118295E+03  0.00000000000E+00 0.  1.
         21    1    1    2  503  501 -0.24678307009E+02 -0.57058459528E+02  0.64278259248E+03  0.64578181133E+03  0.00000000000E+00 0. -1.
         21    1    1    2  504  502 -0.17423770926E+02  0.10020263392E+03 -0.11847391020E+03  0.15614167617E+03  0.00000000000E+00 0. -1.
         21    1    1    2  505  504  0.35698047245E+02  0.19756187696E+02 -0.25582515707E+03  0.25905823384E+03  0.00000000000E+00 0. -1.
          2    1    1    2  501    0  0.64040306907E+01 -0.62900362093E+02 -0.33644750594E+03  0.34233666385E+03  0.00000000000E+00 0.  1.
<scales pt_clust_3="14000.00000" pt_clust_4="62.41676" pt_clust_5="40.80021" pt_clust_6="58.28006"></scales>
<clustering>
<clus scale="   40.800">  2  5  1 -1</clus>
<clus scale="   58.280">  2  6  1 -1</clus>
<clus scale="   62.417">  2  4  1 -1</clus>
<clus scale="   62.417">  1  3  2 -1</clus>
</clustering>
</event>
<event>
 6    0  0.2839294E+002  0.9296392E+02  0.7546771E-02  0.1295829E+00
          1   -1    0    0  504    0 -0.00000000000E+00  0.00000000000E+00  0.15977266986E+04  0.15977266986E+04  0.00000000000E+00 0.  1.
         21   -1    0    0  503  502  0.00000000000E+00 -0.00000000000E+00 -0.40829668864E+03  0.40829668864E+03  0.00000000000E+00 0.  1.
         21    1    1    2  503  505  0.16886581182E+02  0.52605151776E+02 -0.38302657776E+03  0.38699072068E+03  0.00000000000E+00 0.  1.
         21    1    1    2  504  502 -0.39423203405E+02  0.28715248146E+02  0.22663477077E+03  0.23182336760E+03  0.00000000000E+00 0.  1.
         21    1    1    2  505  501 -0.44665707513E+02  0.43813154718E+02  0.41279695119E+02  0.74957529196E+02  0.00000000000E+00 0.  1.
          1    1    1    2  501    0  0.67202329737E+02 -0.12513355464E+03  0.13045421218E+04  0.13122517698E+04  0.00000000000E+00 0.  1.
<scales pt_clust_3="55.27125" pt_clust_4="48.77248" pt_clust_5="14000.00000" pt_clust_6="92.96392"></scales>
<clustering>
<clus scale="   48.772">  1  4  2 -1</clus>
<clus scale="   55.271">  2  3  1 -1</clus>
<clus scale="   92.964">  1  6  2 -1</clus>
<clus scale="   55.271">  2  3  1 -1</clus>
</clustering>
</event>
<event>
 6    0  0.2839294E+002  0.1666373E+03  0.7546771E-02  0.1181401E+00
         21   -1    0    0  504  502  0.00000000000E+00  0.00000000000E+00  0.93008064227E+02  0.93008064227E+02  0.00000000000E+00 0. -1.
          2   -1    0    0  503    0 -0.00000000000E+00 -0.00000000000E+00 -0.22887711203E+04  0.22887711203E+04  0.00000000000E+00 0.  1.
         21    1    1    2  503  505  0.34243372293E+02 -0.29339674235E+01 -0.15810702299E+03  0.16179940491E+03  0.00000000000E+00 0.  1.
         21    1    1    2  504  501 -0.19905592862E+03  0.31454531522E+02 -0.24083215674E+03  0.31402671541E+03  0.00000000000E+00 0. -1.
         21    1    1    2  505  502  0.32125075128E+02 -0.30765125611E+02  0.42693961795E+02  0.61654584417E+02  0.00000000000E+00 0. -1.
          2    1    1    2  501    0  0.13268748120E+03  0.22445615127E+01 -0.18395178381E+04  0.18442984798E+04  0.00000000000E+00 0.  1.
<scales pt_clust_3="34.36883" pt_clust_4="14000.00000" pt_clust_5="44.59976" pt_clust_6="166.63729"></scales>
<clustering>
<clus scale="   34.369">  2  3  1 -1</clus>
<clus scale="   44.600">  1  5  2 -1</clus>
<clus scale="  166.637">  2  6  1 -1</clus>
<clus scale="   44.600">  1  3  2 -1</clus>
</clustering>
</event>
<event>
 6    0  0.2839294E+002  0.1581075E+03  0.7546771E-02  0.1190850E+00
          2   -1    0    0  505    0 -0.00000000000E+00  0.00000000000E+00  0.17794481688E+03  0.17794481688E+03  0.00000000000E+00 0.  1.
         21   -1    0    0  503  502  0.00000000000E+00 -0.00000000000E+00 -0.10543104222E+04  0.10543104222E+04  0.00000000000E+00 0. -1.
         21    1    1    2  503  501  0.54981521417E+02  0.14313542271E+03 -0.65468354774E+02  0.16672379077E+03  0.00000000000E+00 0. -1.
         21    1    1    2  504  502 -0.15476538658E+02 -0.15866220229E+03 -0.92234124128E+03  0.93601633696E+03  0.00000000000E+00 0. -1.
         21    1    1    2  505  504 -0.11451848024E+02  0.28680773464E+02  0.33114631341E+02  0.45280353339E+02  0.00000000000E+00 0.  1.
          2    1    1    2  501    0 -0.28053134735E+02 -0.13153993886E+02  0.78329359361E+02  0.84234758036E+02  0.00000000000E+00 0.  1.
<scales pt_clust_3="158.10748" pt_clust_4="14000.00000" pt_clust_5="30.88255" pt_clust_6="34.95284"></scales>
<clustering>
<clus scale="   30.883">  1  5  2 -1</clus>
<clus scale="   34.953">  1  6  2 -1</clus>
<clus scale="  158.107">  1  3  2 -1</clus>
<clus scale="  158.107">  2  3  1 -1</clus>
</clustering>
</event>
<event>
 6    0  0.2839294E+002  0.9910597E+02  0.7546771E-02  0.1282187E+00
          2   -1    0    0  503    0 -0.00000000000E+00  0.00000000000E+00  0.12263393943E+04  0.12263393943E+04  0.00000000000E+00 0.  1.
         21   -1    0    0  501  502  0.00000000000E+00 -0.00000000000E+00 -0.60288309830E+03  0.60288309830E+03  0.00000000000E+00 0.  1.
         21    1    1    2  503  505  0.26806574916E+02 -0.54174898671E+02  0.11832968286E+03  0.13287372182E+03  0.00000000000E+00 0. -1.
         21    1    1    2  504  502  0.75215419486E+02 -0.64076068087E+02 -0.55738452323E+03  0.56607473762E+03  0.00000000000E+00 0.  1.
         21    1    1    2  505  504 -0.37977474744E+02 -0.68269273417E+02  0.37850257183E+02  0.86807973422E+02  0.00000000000E+00 0. -1.
          2    1    1    2  501    0 -0.64044519657E+02  0.18652024017E+03  0.10246608792E+04  0.10434660597E+04  0.00000000000E+00 0.  1.
<scales pt_clust_3="60.44429" pt_clust_4="99.10597" pt_clust_5="80.11401" pt_clust_6="14000.00000"></scales>
<clustering>
<clus scale="   60.444">  1  3  2 -1</clus>
<clus scale="   80.114">  1  5  2 -1</clus>
<clus scale="   99.106">  2  4  1 -1</clus>
<clus scale="   99.106">  2  3  1 -1</clus>
</clustering>
</event>
<event>
 6    0  0.2839294E+002  0.1620526E+03  0.7546771E-02  0.1186399E+00
          1   -1    0    0  503    0 -0.00000000000E+00  0.00000000000E+00  0.22566007502E+04  0.22566007502E+04  0.00000000000E+00 0.  1.
         21   -1    0    0  505  502  0.00000000000E+00 -0.00000000000E+00 -0.14216049283E+03  0.14216049283E+03  0.00000000000E+00 0. -1.
         21    1    1    2  503  504  0.49135124337E+02 -0.13856054366E+02  0.15950315892E+03  0.16747390362E+03  0.00000000000E+00 0.  1.
         21    1    1    2  504  502 -0.68724933226E+01  0.36488723497E+02 -0.87311837550E+02  0.94878949632E+02  0.00000000000E+00 0. -1.
         21    1    1    2  505  501  0.12223780089E+03 -0.69373745277E+01  0.42138192771E+02  0.12948295032E+03  0.00000000000E+00 0. -1.
          1    1    1    2  501    0 -0.16450043191E+03 -0.15695294603E+02  0.20001107432E+04  0.20069254394E+04  0.00000000000E+00 0.  1.
<scales pt_clust_3="49.82993" pt_clust_4="37.13029" pt_clust_5="162.05257" pt_clust_6="14000.00000"></scales>
<clustering>
<clus scale="   37.130">  2  4  1 -1</clus>
<clus scale="   49.830">  2  3  1 -1</clus>
<clus scale="  162.053">  2  5  1 -1</clus>
<clus scale="   37.130">  2  3  1 -1</clus>
</clustering>
</event>
<event>
 6    0  0.2839294E+002  0.1335272E+03  0.7546771E-02  0.1222314E+00
         21   -1    0    0  503  502  0.00000000000E+00  0.00000000000E+00  0.29179923823E+03  0.29179923823E+03  0.00000000000E+00 0. -1.
         -2   -1    0    0    0  501 -0.00000000000E+00 -0.00000000000E+00 -0.10532285630E+04  0.10532285630E+04  0.00000000000E+00 0. -1.
         21    1    1    2  503  501 -0.65801635834E+02 -0.45209981998E+02  0.25035345102E+03  0.26277490022E+03  0.00000000000E+00 0. -1.
         21    1    1    2  504  502 -0.20804894398E+02 -0.39619903851E+02  0.14650778229E+02  0.47087426292E+02  0.00000000000E+00 0.  1.
         21    1    1    2  505  504  0.58683582272E+02  0.23635722323E+02 -0.37861062756E+03  0.38385989306E+03  0.00000000000E+00 0.  1.
         -2    1    1    2    0  505  0.27922947960E+02  0.61194163526E+02 -0.64782292645E+03  0.65130558167E+03  0.00000000000E+00 0. -1.
<scales pt_clust_3="120.51801" pt_clust_4="44.75020" pt_clust_5="55.72585" pt_clust_6="55.72585"></scales>
<clustering>
<clus scale="   44.750">  1  4  2 -1</clus>
<clus scale="   55.726">  5  6 -1 -1</clus>
<clus scale="  120.518">  1  3  2 -1</clus>
<clus scale="   44.750">  1  3  2 -1</clus>
</clustering>
</event>
<event>
 6    0  0.2839294E+002  0.6372009E+02  0.7546771E-02  0.1382852E+00
         21   -1    0    0  504  502  0.00000000000E+00  0.00000000000E+00  0.17495476676E+04  0.17495476676E+04  0.00000000000E+00 0. -1.
          3   -1    0    0  503    0 -0.00000000000E+00 -0.00000000000E+00 -0.38730216360E+03  0.38730216360E+03  0.00000000000E+00 0. -1.
         21    1    1    2  503  505 -0.28890257571E+02  0.31021676390E+02 -0.72100938634E+02  0.83639325323E+02  0.00000000000E+00 0. -1.
         21    1    1    2  504  501  0.34591087437E+02 -0.84605732166E+02  0.56447073621E+03  0.57182329901E+03  0.00000000000E+00 0. -1.
         21    1    1    2  505  502 -0.58118938965E+02  0.25144623808E+02  0.11718605112E+04  0.11735702454E+04  0.00000000000E+00 0. -1.
          3    1    1    2  501    0  0.52418109099E+02  0.28439431967E+02 -0.30198480478E+03  0.30781696147E+03  0.00000000000E+00 0. -1.
<scales pt_clust_3="42.39094" pt_clust_4="63.72009" pt_clust_5="63.43236" pt_clust_6="14000.00000"></scales>
<clustering>
<clus scale="   42.391">  2  3  1 -1</clus>
<clus scale="   63.432">  1  5  2 -1</clus>
<clus scale="   63.720">  1  4  2 -1</clus>
<clus scale="   63.432">  1  3  2 -1</clus>
</clustering>
</event>
<event>
 6    0  0.2839294E+002  0.6770117E+02  0.7546771E-02  0.1368090E+00
         -2   -1    0    0    0  501 -0.00000000000E+00  0.00000000000E+00  0.39641633049E+02  0.39641633049E+02  0.00000000000E+00 0.  1.
         21   -1    0    0  501  502  0.00000000000E+00 -0.00000000000E+00 -0.76728776477E+03  0.76728776477E+03  0.00000000000E+00 0.  1.
         21    1    1    2  503  504 -0.80686246617E+02 -0.51318352063E+01 -0.64622120834E+02  0.10350180978E+03  0.00000000000E+00 0.  1.
         21    1    1    2  504  505  0.69617702021E+02 -0.65764361979E+02 -0.43471068632E+03  0.44513476223E+03  0.00000000000E+00 0.  1.
         21    1    1    2  505  502 -0.31231504703E+02  0.21054952406E+02 -0.15740511190E+03  0.16184896404E+03  0.00000000000E+00 0.  1.
         -2    1    1    2    0  503  0.42300049298E+02  0.49841244779E+02 -0.70908212659E+02  0.96443861776E+02  0.00000000000E+00 0.  1.
<scales pt_clust_3="14000.00000" pt_clust_4="67.70117" pt_clust_5="37.66587" pt_clust_6="65.00401"></scales>
<clustering>
<clus scale="   37.666">  2  5  1 -1</clus>
<clus scale="   65.004">  1  6  2 -1</clus>
<clus scale="   67.701">  2  4  1 -1</clus>
<clus scale="   37.666">  2  3  1 -1</clus>
</clustering>
</event>
<event>
 6    0  0.2839294E+002  0.1746645E+03  0.7546771E-02  0.1173069E+00
         21   -1    0    0  503  502  0.00000000000E+00  0.00000000000E+00  0.41347861321E+03  0.41347861321E+03  0.00000000000E+00 0. -1.
          2   -1    0    0  505    0 -0.00000000000E+00 -0.00000000000E+00 -0.38209199686E+04  0.38209199686E+04  0.00000000000E+00 0.  1.
         21    1    1    2  503  501 -0.39561062535E+02  0.91843038946E+02 -0.22248025538E+04  0.22270488601E+04  0.00000000000E+00 0.  1.
         21    1    1    2  504  502  0.87428689950E+02 -0.13804653958E+03  0.38383882527E+03  0.41717246637E+03  0.00000000000E+00 0. -1.
         21    1    1    2  505  504 -0.70723370117E+02 -0.25047481119E+02 -0.11841773872E+03  0.14018534957E+03  0.00000000000E+00 0.  1.
          2    1    1    2  501    0  0.22855742702E+02  0.71250981749E+02 -0.14480598881E+04  0.14499919058E+04  0.00000000000E+00 0.  1.
<scales pt_clust_3="53.54441" pt_clust_4="163.32828" pt_clust_5="75.02780" pt_clust_6="53.54441"></scales>
<clustering>
<clus scale="   53.544">  3  6 -1 -1</clus>
<clus scale="   75.028">  2  5  1 -1</clus>
<clus scale="  163.328">  1  4  2 -1</clus>
<clus scale="  163.328">  1  3  2 -1</clus>
</clustering>
</event>
<event>
 6    0  0.2839294E+002  0.1426514E+03  0.7546771E-02  0.1209805E+00
         21   -1    0    0  503  502  0.00000000000E+00  0.00000000000E+00  0.10842710290E+03  0.10842710290E+03  0.00000000000E+00 0. -1.
          1   -1    0    0  505    0 -0.00000000000E+00 -0.00000000000E+00 -0.11084085102E+04  0.11084085102E+04  0.00000000000E+00 0.  1.
         21    1    1    2  503  501  0.29958122375E+02  0.19335471315E+02 -0.38783119144E+02  0.52682823365E+02  0.00000000000E+00 0. -1.
         21    1    1    2  504  502 -0.59605084508E+02 -0.73136542003E+02  0.53334085589E+02  0.10838009301E+03  0.00000000000E+00 0. -1.
         21    1    1    2  505  504  0.51476412970E+02 -0.11212095685E+03 -0.37895590890E+03  0.39853294839E+03  0.00000000000E+00 0. -1.
          1    1    1    2  501    0 -0.21829450837E+02  0.16592202754E+03 -0.63557646487E+03  0.65723974838E+03  0.00000000000E+00 0.  1.
<scales pt_clust_3="35.65599" pt_clust_4="67.89483" pt_clust_5="142.65142" pt_clust_6="14000.00000"></scales>
<clustering>
<clus scale="   35.656">  1  3  2 -1</clus>
<clus scale="   67.895">  1  4  2 -1</clus>
<clus scale="  142.651">  2  5  1 -1</clus>
<clus scale="   35.656">  1  3  2 -1</clus>
</clustering>
</event>
<event>
 6    0  0.2839294E+002  0.7758829E+02  0.7546771E-02  0.1336038E+00
         21   -1    0    0  504  502  0.00000000000E+00  0.00000000000E+00  0.85878220788E+02  0.85878220788E+02  0.00000000000E+00 0. -1.
          2   -1    0    0  503    0 -0.00000000000E+00 -0.00000000000E+00 -0.87884631210E+03  0.87884631210E+03  0.00000000000E+00 0.  1.
         21    1    1    2  503  502  0.60850762356E+02 -0.13520903593E+02  0.27009943819E+02  0.67935021737E+02  0.00000000000E+00 0. -1.
         21    1    1    2  504  505 -0.22228094154E+02  0.44611623553E+02  0.41678068124E+01  0.50016554653E+02  0.00000000000E+00 0. -1.
         21    1    1    2  505  501 -0.16938025230E+02  0.52121015448E+02 -0.75986122655E+02  0.93687714169E+02  0.00000000000E+00 0. -1.
          2    1    1    2  501    0 -0.21684642971E+02 -0.83211735408E+02 -0.74815971929E+03  0.75308524233E+03  0.00000000000E+00 0.  1.
<scales pt_clust_3="48.44517" pt_clust_4="49.84260" pt_clust_5="77.58829" pt_clust_6="14000.00000"></scales>
<clustering>
<clus scale="   49.843">  1  4  2 -1</clus>
<clus scale="   48.445">  1  3  2 -1</clus>
<clus scale="   77.588">  1  5  2 -1</clus>
<clus scale="   49.843">  1  3  2 -1</clus>
</clustering>
</event>
<event>
 6    0  0.2839294E+002  0.1121807E+03  0.7546771E-02  0.1256584E+00
         21   -1    0    0  505  502  0.00000000000E+00  0.00000000000E+00  0.11301010410E+03  0.11301010410E+03  0.00000000000E+00 0. -1.
          2   -1    0    0  503    0 -0.00000000000E+00 -0.00000000000E+00 -0.65976205316E+03  0.65976205316E+03  0.00000000000E+00 0. -1.
         21    1    1    2  503  504 -0.60685091793E+02 -0.75707079783E+02  0.75462525072E+01  0.97320029912E+02  0.00000000000E+00 0. -1.
         21    1    1    2  504  502  0.45899194374E+02 -0.28168995331E+02  0.42046204370E+02  0.68323580439E+02  0.00000000000E+00 0. -1.
         21    1    1    2  505  501  0.22603426140E+02  0.69920653323E+02 -0.30593716967E+03  0.31463846621E+03  0.00000000000E+00 0. -1.
          2    1    1    2  501    0 -0.78175287211E+01  0.33955421791E+02 -0.29040723627E+03  0.29249008069E+03  0.00000000000E+00 0. -1.
<scales pt_clust_3="103.02886" pt_clust_4="53.85377" pt_clust_5="30.55992" pt_clust_6="30.55992"></scales>
<clustering>
<clus scale="   30.560">  5  6 -1 -1</clus>
<clus scale="   53.854">  1  4  2 -1</clus>
<clus scale="  103.029">  1  3  2 -1</clus>
<clus scale="   53.854">  1  3  2 -1</clus>
</clustering>
</event>
<event>
 6    0  0.2839294E+002  0.1186484E+03  0.7546771E-02  0.1245344E+00
         21   -1    0    0  501  502  0.00000000000E+00  0.00000000000E+00  0.53949667840E+03  0.53949667840E+03  0.00000000000E+00 0.  1.
          2   -1    0    0  505    0 -0.00000000000E+00 -0.00000000000E+00 -0.20282426828E+03  0.20282426828E+03  0.00000000000E+00 0. -1.
         21    1    1    2  503  504  0.13501899812E+02 -0.65702045292E+02  0.96206580935E+02  0.11728071568E+03  0.00000000000E+00 0.  1.
         21    1    1    2  504  502 -0.20885097813E+01  0.51850215985E+02  0.33965023156E+03  0.34359145299E+03  0.00000000000E+00 0.  1.
         21    1    1    2  505  503  0.10057263611E+03  0.57388475519E+02  0.13682321651E+02  0.11659973492E+03  0.00000000000E+00 0.  1.
          2    1    1    2  501    0 -0.11198602614E+03 -0.43536646212E+02 -0.11286672402E+03  0.16484904309E+03  0.00000000000E+00 0. -1.
<scales pt_clust_3="39.70917" pt_clust_4="51.89226" pt_clust_5="14000.00000" pt_clust_6="118.64841"></scales>
<clustering>
<clus scale="   51.892">  1  4  2 -1</clus>
<clus scale="   39.709">  1  3  2 -1</clus>
<clus scale="  118.648">  2  6  1 -1</clus>
<clus scale="   51.892">  1  3  2 -1</clus>
</clustering>
</event>
<event>
 6    0  0.2839294E+002  0.2251944E+03  0.7546771E-02  0.1130069E+00
          2   -1    0    0  505    0 -0.00000000000E+00  0.00000000000E+00  0.32035638416E+04  0.32035638416E+04  0.00000000000E+00 0.  1.
         21   -1    0    0  501  502  0.00000000000E+00 -0.00000000000E+00 -0.48490142973E+02  0.48490142973E+02  0.00000000000E+00 0.  1.
         21    1    1    2  503  502 -0.22772544420E+03  0.43218222418E+02  0.29324371318E+03  0.37378947016E+03  0.00000000000E+00 0.  1.
         21    1    1    2  504  503  0.80454932329E+01 -0.45653653726E+02  0.17996270869E+03  0.18583746280E+03  0.00000000000E+00 0. -1.
         21    1    1    2  505  504  0.36397504056E+02 -0.19764296147E+02  0.23641304559E+03  0.24001361176E+03  0.00000000000E+00 0. -1.
          2    1    1    2  501    0  0.18328244691E+03  0.22199727455E+02  0.24454542312E+04  0.24524134399E+04  0.00000000000E+00 0.  1.
<scales pt_clust_3="14000.00000" pt_clust_4="89.33291" pt_clust_5="39.26572" pt_clust_6="225.19444"></scales>
<clustering>
<clus scale="   39.266">  4  5 -1 -1</clus>
<clus scale="   89.333">  1  4  2 -1</clus>
<clus scale="  225.194">  1  6  2 -1</clus>
<clus scale="  225.194">  2  3  1 -1</clus>
</clustering>
</event>
<event>
 6    0  0.2839294E+002  0.1604693E+03  0.7546771E-02  0.1188168E+00
         21   -1    0    0  503  502  0.00000000000E+00  0.00000000000E+00  0.12058096477E+03  0.12058096477E+03  0.00000000000E+00 0.  1.
         -4   -1    0    0    0  501 -0.00000000000E+00 -0.00000000000E+00 -0.32022382832E+03  0.32022382832E+03  0.00000000000E+00 0.  1.
         21    1    1    2  503  501  0.30830196243E+02  0.10419369628E+02 -0.19770337008E+02  0.38077952797E+02  0.00000000000E+00 0.  1.
         21    1    1    2  504  505  0.13747514211E+02 -0.54743667514E+02 -0.78080608202E+02  0.96345444402E+02  0.00000000000E+00 0.  1.
         21    1    1    2  505  502  0.26708319867E+02  0.13656777249E+03  0.16703068984E+02  0.14015378463E+03  0.00000000000E+00 0.  1.
         -4    1    1    2    0  504 -0.71286030320E+02 -0.92243474604E+02 -0.11849498732E+03  0.16622761126E+03  0.00000000000E+00 0.  1.
<scales pt_clust_3="32.54327" pt_clust_4="54.17539" pt_clust_5="142.70122" pt_clust_6="54.17539"></scales>
<clustering>
<clus scale="   32.543">  2  3  1 -1</clus>
<clus scale="   54.175">  4  6 -1 -1</clus>
<clus scale="  142.701">  1  5  2 -1</clus>
<clus scale="  142.701">  1  3  2 -1</clus>
</clustering>
</event>
<event>
 6    0  0.2839294E+002  0.9879760E+02  0.7546771E-02  0.1282845E+00
         21   -1    0    0  505  502  0.00000000000E+00  0.00000000000E+00  0.47043554819E+03  0.47043554819E+03  0.00000000000E+00 0.  1.
          1   -1    0    0  503    0 -0.00000000000E+00 -0.00000000000E+00 -0.73874771213E+03  0.73874771213E+03  0.00000000000E+00 0. -1.
         21    1    1    2  503  504 -0.27950305122E+02 -0.20446076710E+02 -0.10558547214E+03  0.11111954614E+03  0.00000000000E+00 0.  1.
         21    1    1    2  504  502  0.66824730475E+01 -0.55891925790E+02 -0.73537456204E+01  0.56768304442E+02  0.00000000000E+00 0.  1.
         21    1    1    2  505  501 -0.39879188275E+02  0.10025523897E+03  0.43454252598E+03  0.44773727729E+03  0.00000000000E+00 0.  1.
          1    1    1    2  501    0  0.61147020349E+02 -0.23917236468E+02 -0.58991547215E+03  0.59355813244E+03  0.00000000000E+00 0. -1.
<scales pt_clust_3="34.63036" pt_clust_4="98.79760" pt_clust_5="14000.00000" pt_clust_6="55.47240"></scales>
<clustering>
<clus scale="   34.630">  2  3  1 -1</clus>
<clus scale="   55.472">  2  6  1 -1</clus>
<clus scale="   98.798">  2  4  1 -1</clus>
<clus scale="   98.798">  1  3  2 -1</clus>
</clustering>
</event>
<event>
 6    0  0.2839294E+002  0.1419708E+03  0.7546771E-02  0.1210702E+00
         -3   -1    0    0    0  501 -0.00000000000E+00  0.00000000000E+00  0.11713818243E+04  0.11713818243E+04  0.00000000000E+00 0. -1.
         21   -1    0    0  503  502  0.00000000000E+00 -0.00000000000E+00 -0.19622888169E+03  0.19622888169E+03  0.00000000000E+00 0.  1.
         21    1    1    2  503  504 -0.12869823514E+03  0.71047479116E+02 -0.12676265746E+03  0.19411272844E+03  0.00000000000E+00 0.  1.
         21    1    1    2  504  501  0.80482208496E+02 -0.44969218935E+02  0.46703837870E+03  0.47605090454E+03  0.00000000000E+00 0. -1.
         21    1    1    2  505  502  0.48975065770E+02  0.62210683969E+02  0.27695455618E+02  0.83879464287E+02  0.00000000000E+00 0. -1.
         -3    1    1    2    0  505 -0.75903912468E+00 -0.88288944150E+02  0.60718176571E+03  0.61356760867E+03  0.00000000000E+00 0. -1.
<scales pt_clust_3="14000.00000" pt_clust_4="141.97075" pt_clust_5="79.17529" pt_clust_6="87.10773"></scales>
<clustering>
<clus scale="   79.175">  2  5  1 -1</clus>
<clus scale="   87.108">  1  6  2 -1</clus>
<clus scale="  141.971">  1  4  2 -1</clus>
<clus scale="   79.175">  2  3  1 -1</clus>
</clustering>
</event>
<event>
 6    0  0.2839294E+002  0.1386504E+03  0.7546771E-02  0.1215157E+00
         21   -1    0    0  505  502  0.00000000000E+00  0.00000000000E+00  0.23836505860E+03  0.23836505860E+03  0.00000000000E+00 0.  1.
          1   -1    0    0  504    0 -0.00000000000E+00 -0.00000000000E+00 -0.26734592942E+04  0.26734592942E+04  0.00000000000E+00 0.  1.
         21    1    1    2  503  501  0.65064512853E+02 -0.67394869973E+02 -0.28786765441E+03  0.30272635463E+03  0.00000000000E+00 0. -1.
         21    1    1    2  504  502  0.21801588140E+02 -0.50331215444E+02  0.19304125776E+03  0.20068250469E+03  0.00000000000E+00 0.  1.
         21    1    1    2  505  503  0.42409531568E+02  0.32751176248E+02  0.87634172587E+01  0.54295537529E+02  0.00000000000E+00 0. -1.
          1    1    1    2  501    0 -0.12927563256E+03  0.84974909168E+02 -0.23490312562E+04  0.23541199560E+04  0.00000000000E+00 0.  1.
<scales pt_clust_3="14000.00000" pt_clust_4="65.05156" pt_clust_5="53.58365" pt_clust_6="138.65043"></scales>
<clustering>
<clus scale="   53.584">  1  5  2 -1</clus>
<clus scale="   65.052">  1  4  2 -1</clus>
<clus scale="  138.650">  2  6  1 -1</clus>
<clus scale="   53.584">  1  3  2 -1</clus>
</clustering>
</event>
<event>
 6    0  0.2839294E+002  0.9507907E+02  0.7546771E-02  0.1290998E+00
          2   -1    0    0  505    0 -0.00000000000E+00  0.00000000000E+00  0.13550592926E+04  0.13550592926E+04  0.00000000000E+00 0.  1.
         21   -1    0    0  504  502  0.00000000000E+00 -0.00000000000E+00 -0.10023861727E+03  0.10023861727E+03  0.00000000000E+00 0.  1.
         21    1    1    2  503  502  0.61879775303E+02  0.14817850313E+02  0.12792205373E+02  0.64902355872E+02  0.00000000000E+00 0.  1.
         21    1    1    2  504  501 -0.10548707469E+03 -0.99523785682E+02  0.20232045803E+01  0.14503999518E+03  0.00000000000E+00 0.  1.
         21    1    1    2  505  503  0.27464696134E+02  0.12110370993E+02  0.15988930620E+03  0.16268239258E+03  0.00000000000E+00 0.  1.
          2    1    1    2  501    0  0.16142603257E+02  0.72595564376E+02  0.10801159592E+04  0.10826731663E+04  0.00000000000E+00 0.  1.
<scales pt_clust_3="64.59039" pt_clust_4="95.07907" pt_clust_5="30.01617" pt_clust_6="14000.00000"></scales>
<clustering>
<clus scale="   30.016">  1  5  2 -1</clus>
<clus scale="   64.590">  2  3  1 -1</clus>
<clus scale="   95.079">  2  4  1 -1</clus>
<clus scale="   64.590">  2  3  1 -1</clus>
</clustering>
</event>
<event>
 6    0  0.2839294E+002  0.1140967E+03  0.7546771E-02  0.1253166E+00
         -2   -1    0    0    0  501 -0.00000000000E+00  0.00000000000E+00  0.38419004586E+03  0.38419004586E+03  0.00000000000E+00 0. -1.
         21   -1    0    0  503  502  0.00000000000E+00 -0.00000000000E+00 -0.63236984672E+03  0.63236984672E+03  0.00000000000E+00 0. -1.
         21    1    1    2  503  504  0.10118315223E+03 -0.11110291162E+03 -0.55346121269E+03  0.57349908563E+03  0.00000000000E+00 0. -1.
         21    1    1    2  504  501 -0.36043149697E+02 -0.22089079758E+02  0.75814334867E+02  0.86803510620E+02  0.00000000000E+00 0. -1.
         21    1    1    2  505  502 -0.56787979896E+02  0.75839509015E+01 -0.32317039064E+02  0.65778278982E+02  0.00000000000E+00 0.  1.
         -2    1    1    2    0  505 -0.83520226324E+01  0.12560804048E+03  0.26178411602E+03  0.29047901734E+03  0.00000000000E+00 0. -1.
<scales pt_clust_3="14000.00000" pt_clust_4="42.27335" pt_clust_5="59.12243" pt_clust_6="114.09673"></scales>
<clustering>
<clus scale="   42.273">  1  4  2 -1</clus>
<clus scale="   59.122">  2  5  1 -1</clus>
<clus scale="  114.097">  1  6  2 -1</clus>
<clus scale="   59.122">  2  3  1 -1</clus>
</clustering>
</event>
<event>
 6    0  0.2839294E+002  0.8442013E+02  0.7546771E-02  0.1316956E+00
         21   -1    0    0  505  502  0.00000000000E+00  0.00000000000E+00  0.10212076680E+03  0.10212076680E+03  0.00000000000E+00 0. -1.
          2   -1    0    0  503    0 -0.00000000000E+00 -0.00000000000E+00 -0.32796738967E+04  0.32796738967E+04  0.00000000000E+00 0.  1.
         21    1    1    2  503  504 -0.25203855116E+02  0.34865173445E+02 -0.81248999386E+03  0.81362817353E+03  0.00000000000E+00 0.  1.
         21    1    1    2  504  502 -0.17644412086E+02 -0.13581514672E+03  0.32321047341E+02  0.14071861802E+03  0.00000000000E+00 0. -1.
         21    1    1    2  505  501  0.46269901458E+02  0.54590777837E+02 -0.71707198164E+02  0.10130636246E+03  0.00000000000E+00 0. -1.
          2    1    1    2  501    0 -0.34216342563E+01  0.46359195442E+02 -0.23256769852E+04  0.23261415095E+04  0.00000000000E+00 0.  1.
<scales pt_clust_3="43.02110" pt_clust_4="84.42013" pt_clust_5="71.93773" pt_clust_6="14000.00000"></scales>
<clustering>
<clus scale="   43.021">  2  3  1 -1</clus>
<clus scale="   71.938">  1  5  2 -1</clus>
<clus scale="   84.420">  1  4  2 -1</clus>
<clus scale="   71.938">  1  3  2 -1</clus>
</clustering>
</event>
<event>
 6    0  0.2839294E+002  0.1017761E+03  0.7546771E-02  0.1276605E+00
          1   -1    0    0  504    0 -0.00000000000E+00  0.00000000000E+00  0.67857755363E+03  0.67857755363E+03  0.00000000000E+00 0.  1.
         21   -1    0    0  503  502  0.00000000000E+00 -0.00000000000E+00 -0.16864085543E+04  0.16864085543E+04  0.00000000000E+00 0.  1.
         21    1    1    2  503  501 -0.56152606141E+02 -0.39867569476E+02  0.61752196874E+03  0.62135007857E+03  0.00000000000E+00 0.  1.
         21    1    1    2  504  505 -0.40451956473E+02 -0.13364558421E+02 -0.12910197064E+02  0.44515675806E+02  0.00000000000E+00 0.  1.
         21    1    1    2  505  502  0.10156434407E+03 -0.82880943672E+01 -0.16313808988E+04  0.16345603829E+04  0.00000000000E+00 0.  1.
          1    1    1    2  501    0 -0.49597814605E+01  0.61520222264E+02  0.18938126413E+02  0.64559970660E+02  0.00000000000E+00 0.  1.
<scales pt_clust_3="101.77613" pt_clust_4="42.60249" pt_clust_5="14000.00000" pt_clust_6="61.14109"></scales>
<clustering>
<clus scale="   42.602">  1  4  2 -1</clus>
<clus scale="   61.141">  1  6  2 -1</clus>
<clus scale="  101.776">  1  3  2 -1</clus>
<clus scale="  101.776">  2  3  1 -1</clus>
</clustering>
</event>
<event>
 6    0  0.2839294E+002  0.1350086E+03  0.7546771E-02  0.1220208E+00
         21   -1    0    0  505  502  0.00000000000E+00  0.00000000000E+00  0.17487619899E+04  0.17487619899E+04  0.00000000000E+00 0.  1.
          2   -1    0    0  504    0 -0.00000000000E+00 -0.00000000000E+00 -0.53499458207E+02  0.53499458207E+02  0.00000000000E+00 0. -1.
         21    1    1    2  503  501  0.11873775431E+03  0.30875936058E+02  0.78838570073E+03  0.79787467114E+03  0.00000000000E+00 0.  1.
         21    1    1    2  504  502  0.33359377607E+02  0.41157701201E+02  0.64616649747E+02  0.83559056164E+02  0.00000000000E+00 0. -1.
         21    1    1    2  505  503 -0.60210044732E+01  0.37287270619E+02  0.66623319441E+03  0.66730297645E+03  0.00000000000E+00 0.  1.
          2    1    1    2  501    0 -0.14607612745E+03 -0.10932090788E+03  0.17602698676E+03  0.25352474431E+03  0.00000000000E+00 0. -1.
<scales pt_clust_3="135.00859" pt_clust_4="54.73713" pt_clust_5="37.77027" pt_clust_6="14000.00000"></scales>
<clustering>
<clus scale="   37.770">  1  5  2 -1</clus>
<clus scale="   54.737">  2  4  1 -1</clus>
<clus scale="  135.009">  1  3  2 -1</clus>
<clus scale="   37.770">  1  3  2 -1</clus>
</clustering>
</event>
<event>
 6    0  0.2839294E+002  0.3671672E+03  0.7546771E-02  0.1055781E+00
         21   -1    0    0  504  502  0.00000000000E+00  0.00000000000E+00  0.26023836268E+03  0.26023836268E+03  0.00000000000E+00 0. -1.
          2   -1    0    0  503    0 -0.00000000000E+00 -0.00000000000E+00 -0.20231298238E+04  0.20231298238E+04  0.00000000000E+00 0. -1.
         21    1    1    2  503  505 -0.81397086643E+02  0.23110140395E+03  0.25971063584E+02  0.24638961173E+03  0.00000000000E+00 0. -1.
         21    1    1    2  504  501  0.12017508336E+02 -0.14206747581E+03 -0.45302702253E+03  0.47493270190E+03  0.00000000000E+00 0.  1.
         21    1    1    2  505  502 -0.37650351727E+02  0.77215015627E+02  0.88918671601E+02  0.12363752579E+03  0.00000000000E+00 0.  1.
          2    1    1    2  501    0  0.10702993003E+03 -0.16624894377E+03 -0.14247541737E+04  0.14384083470E+04  0.00000000000E+00 0. -1.
<scales pt_clust_3="351.73915" pt_clust_4="135.81497" pt_clust_5="71.27426" pt_clust_6="135.81497"></scales>
<clustering>
<clus scale="   71.274">  3  5 -1 -1</clus>
<clus scale="  135.815">  4  6 -1 -1</clus>
<clus scale="  351.739">  1  3  2 -1</clus>
<clus scale="  351.739">  1  3  2 -1</clus>
</clustering>
</event>
<event>
 6    0  0.2839294E+002  0.1048374E+03  0.7546771E-02  0.1270440E+00
         21   -1    0    0  505  502  0.00000000000E+00  0.00000000000E+00  0.13705202849E+03  0.13705202849E+03  0.00000000000E+00 0. -1.
          2   -1    0    0  504    0 -0.00000000000E+00 -0.00000000000E+00 -0.32016748573E+04  0.32016748573E+04  0.00000000000E+00 0.  1.
         21    1    1    2  503  501  0.16142123738E+02 -0.70140726782E+02 -0.62956799011E+02  0.95623471250E+02  0.00000000000E+00 0.  1.
         21    1    1    2  504  502 -0.32811146100E+02 -0.23205116804E+02 -0.34410067747E+03  0.34643949687E+03  0.00000000000E+00 0.  1.
         21    1    1    2  505  503 -0.26780142530E+02  0.11353712970E+03  0.90834126077E+02  0.14784686102E+03  0.00000000000E+00 0. -1.
          2    1    1    2  501    0  0.43449164892E+02 -0.20191286114E+02 -0.27483994784E+04  0.27488170567E+04  0.00000000000E+00 0.  1.
<scales pt_clust_3="14000.00000" pt_clust_4="40.18767" pt_clust_5="104.83743" pt_clust_6="44.14809"></scales>
<clustering>
<clus scale="   40.188">  2  4  1 -1</clus>
<clus scale="   44.148">  2  6  1 -1</clus>
<clus scale="  104.837">  1  5  2 -1</clus>
<clus scale="  104.837">  1  3  2 -1</clus>
</clustering>
</event>
<event>
 6    0  0.2839294E+002  0.7755117E+02  0.7546771E-02  0.1336148E+00
         21   -1    0    0  503  502  0.00000000000E+00  0.00000000000E+00  0.24402641157E+03  0.24402641157E+03  0.00000000000E+00 0. -1.
          2   -1    0    0  504    0 -0.00000000000E+00 -0.00000000000E+00 -0.94042357721E+03  0.94042357721E+03  0.00000000000E+00 0. -1.
         21    1    1    2  503  505  0.42056129602E+02  0.12547591676E+03  0.17134035810E+03  0.21649582453E+03  0.00000000000E+00 0. -1.
         21    1    1    2  504  502  0.38852795782E+01 -0.58751318799E+02  0.26181705508E+02  0.64438300422E+02  0.00000000000E+00 0. -1.
         21    1    1    2  505  501 -0.15105175350E+02 -0.51226460825E+02 -0.15789147044E+03  0.16667943199E+03  0.00000000000E+00 0.  1.
          2    1    1    2  501    0 -0.30836233830E+02 -0.15498137137E+02 -0.73602775881E+03  0.73683643185E+03  0.00000000000E+00 0. -1.
<scales pt_clust_3="77.55117" pt_clust_4="60.21278" pt_clust_5="14000.00000" pt_clust_6="34.51182"></scales>
<clustering>
<clus scale="   34.512">  2  6  1 -1</clus>
<clus scale="   60.213">  1  4  2 -1</clus>
<clus scale="   77.551">  1  3  2 -1</clus>
<clus scale="   60.213">  1  3  2 -1</clus>
</clustering>
</event>
<event>
 6    0  0.2839294E+002  0.3545386E+03  0.7546771E-02  0.1060767E+00
         -3   -1    0    0    0  501 -0.00000000000E+00  0.00000000000E+00  0.80972520226E+02  0.80972520226E+02  0.00000000000E+00 0. -1.
         21   -1    0    0  504  502  0.00000000000E+00 -0.00000000000E+00 -0.34053386786E+04  0.34053386786E+04  0.00000000000E+00 0. -1.
         21    1    1    2  503  505 -0.24713567300E+02 -0.33594451979E+02 -0.26739317206E+03  0.27062604471E+03  0.00000000000E+00 0. -1.
         21    1    1    2  504  501 -0.30369273827E+02  0.70185565306E+02 -0.19367414206E+03  0.20822579013E+03  0.00000000000E+00 0. -1.
         21    1    1    2  505  502 -0.30812036628E+03  0.92931458548E+01 -0.23865073716E+04  0.24063337170E+04  0.00000000000E+00 0. -1.
         -3    1    1    2    0  503  0.36320320740E+03 -0.45884259182E+02 -0.47679147260E+03  0.60112564698E+03  0.00000000000E+00 0. -1.
<scales pt_clust_3="39.54127" pt_clust_4="76.47422" pt_clust_5="39.54127" pt_clust_6="337.84783"></scales>
<clustering>
<clus scale="   39.541">  3  5 -1 -1</clus>
<clus scale="   76.474">  1  4  2 -1</clus>
<clus scale="  337.848">  1  6  2 -1</clus>
<clus scale="  354.539">  2  3  1 -1</clus>
</clustering>
</event>
<event>
 6    0  0.2839294E+002  0.5959523E+03  0.7546771E-02  0.9913840E-01
          2   -1    0    0  503    0 -0.00000000000E+00  0.00000000000E+00  0.41454191617E+04  0.41454191617E+04  0.00000000000E+00 0.  1.
         21   -1    0    0  504  502  0.00000000000E+00 -0.00000000000E+00 -0.33547188918E+03  0.33547188918E+03  0.00000000000E+00 0.  1.
         21    1    1    2  503  502 -0.19388706798E+02 -0.46338898720E+02  0.49533435829E+03  0.49787482562E+03  0.00000000000E+00 0.  1.
         21    1    1    2  504  505  0.44025038219E+03  0.47195281463E+03  0.22599077530E+03  0.68383601016E+03  0.00000000000E+00 0.  1.
         21    1    1    2  505  501 -0.41575874481E+03 -0.32476528806E+03  0.56305394402E+03  0.77159417448E+03  0.00000000000E+00 0.  1.
          2    1    1    2  501    0 -0.51029305820E+01 -0.10084862785E+03  0.25255681949E+04  0.25275860407E+04  0.00000000000E+00 0.  1.
<scales pt_clust_3="50.23162" pt_clust_4="595.95228" pt_clust_5="14000.00000" pt_clust_6="134.22046"></scales>
<clustering>
<clus scale="   50.232">  1  3  2 -1</clus>
<clus scale="  134.220">  1  6  2 -1</clus>
<clus scale="  595.952">  2  4  1 -1</clus>
<clus scale="  595.952">  2  3  1 -1</clus>
</clustering>
</event>
<event>
 6    0  0.2839294E+002  0.6787189E+02  0.7546771E-02  0.1367483E+00
          2   -1    0    0  505    0 -0.00000000000E+00  0.00000000000E+00  0.72233817236E+03  0.72233817236E+03  0.00000000000E+00 0.  1.
         21   -1    0    0  504  502  0.00000000000E+00 -0.00000000000E+00 -0.83981241637E+03  0.83981241637E+03  0.00000000000E+00 0.  1.
         21    1    1    2  503  502 -0.23849885864E+02 -0.51244679085E+02 -0.18353654649E+03  0.19204295896E+03  0.00000000000E+00 0.  1.
         21    1    1    2  504  501  0.18110664279E+02  0.11890600865E+03 -0.64339436492E+03  0.65454025382E+03  0.00000000000E+00 0.  1.
         21    1    1    2  505  503  0.29272367157E+02 -0.17262890193E+02  0.17857658942E+03  0.18178139934E+03  0.00000000000E+00 0.  1.
          2    1    1    2  501    0 -0.23533145572E+02 -0.50398439372E+02  0.53088007797E+03  0.53378597660E+03  0.00000000000E+00 0.  1.
<scales pt_clust_3="56.54937" pt_clust_4="14000.00000" pt_clust_5="33.98351" pt_clust_6="67.87189"></scales>
<clustering>
<clus scale="   33.984">  1  5  2 -1</clus>
<clus scale="   56.549">  2  3  1 -1</clus>
<clus scale="   67.872">  1  6  2 -1</clus>
<clus scale="   56.549">  2  3  1 -1</clus>
</clustering>
</event>
<event>
 6    0  0.2839294E+002  0.1066997E+03  0.7546771E-02  0.1266807E+00
          4   -1    0    0  505    0 -0.00000000000E+00  0.00000000000E+00  0.87384227549E+03  0.87384227549E+03  0.00000000000E+00 0.  1.
         21   -1    0    0  504  502  0.00000000000E+00 -0.00000000000E+00 -0.77987158362E+02  0.77987158362E+02  0.00000000000E+00 0. -1.
         21    1    1    2  503  502 -0.27964429140E+02  0.44036841539E+02  0.34551983324E+02  0.62570698106E+02  0.00000000000E+00 0. -1.
         21    1    1    2  504  501  0.11377349766E+03  0.24824421757E+02  0.12174270858E+02  0.11708489893E+03  0.00000000000E+00 0. -1.
         21    1    1    2  505  503  0.20286363051E+02 -0.56905170582E+02  0.46021723927E+03  0.46416553329E+03  0.00000000000E+00 0.  1.
          4    1    1    2  501    0 -0.10609543157E+03 -0.11956092713E+02  0.28891162367E+03  0.30800830353E+03  0.00000000000E+00 0.  1.
<scales pt_clust_3="52.16563" pt_clust_4="106.69970" pt_clust_5="58.84443" pt_clust_6="14000.00000"></scales>
<clustering>
<clus scale="   52.166">  2  3  1 -1</clus>
<clus scale="   58.844">  1  5  2 -1</clus>
<clus scale="  106.700">  2  4  1 -1</clus>
<clus scale="   52.166">  2  3  1 -1</clus>
</clustering>
</event>
<event>
 6    0  0.2839294E+002  0.4672590E+03  0.7546771E-02  0.1022697E+00
          2   -1    0    0  505    0 -0.00000000000E+00  0.00000000000E+00  0.26818545665E+04  0.26818545665E+04  0.00000000000E+00 0.  1.
         21   -1    0    0  504  502  0.00000000000E+00 -0.00000000000E+00 -0.16050367812E+03  0.16050367812E+03  0.00000000000E+00 0.  1.
         21    1    1    2  503  501 -0.31312958487E+02  0.19361612988E+03  0.90226672876E+03  0.92333794298E+03  0.00000000000E+00 0. -1.
         21    1    1    2  504  503 -0.59440723266E+02 -0.45747512653E+03  0.27350729868E+03  0.53630488848E+03  0.00000000000E+00 0.  1.
         21    1    1    2  505  502  0.32539788911E+02 -0.64333115933E+00  0.54010109545E+02  0.63058256164E+02  0.00000000000E+00 0.  1.
          2    1    1    2  501    0  0.58213892843E+02  0.26450232781E+03  0.12915667514E+04  0.13196571570E+04  0.00000000000E+00 0.  1.
<scales pt_clust_3="73.67103" pt_clust_4="459.13559" pt_clust_5="32.54615" pt_clust_6="73.67103"></scales>
<clustering>
<clus scale="   32.546">  2  5  1 -1</clus>
<clus scale="   73.671">  3  6 -1 -1</clus>
<clus scale="  459.136">  2  4  1 -1</clus>
<clus scale="   32.546">  2  3  1 -1</clus>
</clustering>
</event>
<event>
 6    0  0.2839294E+002  0.6903503E+02  0.7546771E-02  0.1363406E+00
          2   -1    0    0  503    0 -0.00000000000E+00  0.00000000000E+00  0.13896190663E+04  0.13896190663E+04  0.00000000000E+00 0.  1.
         21   -1    0    0  504  502  0.00000000000E+00 -0.00000000000E+00 -0.24722162609E+04  0.24722162609E+04  0.00000000000E+00 0. -1.
         21    1    1    2  503  505 -0.42920208333E+02  0.83150799732E+02  0.35018079285E+03  0.36246763643E+03  0.00000000000E+00 0.  1.
         21    1    1    2  504  501  0.57374180191E+02 -0.74136448999E+02 -0.22221076722E+04  0.22240841973E+04  0.00000000000E+00 0. -1.
         21    1    1    2  505  502 -0.20064755993E+02  0.56555905700E+02 -0.23820288318E+03  0.24564563594E+03  0.00000000000E+00 0. -1.
          2    1    1    2  501    0  0.56107841352E+01 -0.65570256433E+02  0.10275325680E+04  0.10296378576E+04  0.00000000000E+00 0.  1.
<scales pt_clust_3="14000.00000" pt_clust_4="41.38059" pt_clust_5="60.00971" pt_clust_6="69.03503"></scales>
<clustering>
<clus scale="   60.010">  2  5  1 -1</clus>
<clus scale="   41.381">  2  4  1 -1</clus>
<clus scale="   69.035">  1  6  2 -1</clus>
<clus scale="   60.010">  2  3  1 -1</clus>
</clustering>
</event>
<event>
 6    0  0.2839294E+002  0.1246919E+03  0.7546771E-02  0.1235552E+00
         21   -1    0    0  501  502  0.00000000000E+00  0.00000000000E+00  0.54601947505E+03  0.54601947505E+03  0.00000000000E+00 0.  1.
          3   -1    0    0  505    0 -0.00000000000E+00 -0.00000000000E+00 -0.39417093555E+03  0.39417093555E+03  0.00000000000E+00 0.  1.
         21    1    1    2  503  502  0.52612049561E+02 -0.20225233506E+02  0.34055731055E+03  0.34519033822E+03  0.00000000000E+00 0.  1.
         21    1    1    2  504  503 -0.47047833879E+02 -0.10949503396E+03  0.16981891413E+03  0.20746355037E+03  0.00000000000E+00 0.  1.
         21    1    1    2  505  504  0.20755883626E+02  0.43133596048E+02 -0.67409297696E+02  0.82676037816E+02  0.00000000000E+00 0.  1.
          3    1    1    2  501    0 -0.26320099308E+02  0.86586671418E+02 -0.29111838748E+03  0.30486048420E+03  0.00000000000E+00 0.  1.
<scales pt_clust_3="56.39501" pt_clust_4="124.69186" pt_clust_5="47.86767" pt_clust_6="14000.00000"></scales>
<clustering>
<clus scale="   47.868">  2  5  1 -1</clus>
<clus scale="   56.395">  1  3  2 -1</clus>
<clus scale="  124.692">  1  4  2 -1</clus>
<clus scale="   56.395">  1  3  2 -1</clus>
</clustering>
</event>
<event>
 6    0  0.2839294E+002  0.9045335E+02  0.7546771E-02  0.1301758E+00
          2   -1    0    0  503    0 -0.00000000000E+00  0.00000000000E+00  0.62713702556E+03  0.62713702556E+03  0.00000000000E+00 0.  1.
         21   -1    0    0  504  502  0.00000000000E+00 -0.00000000000E+00 -0.78662241500E+02  0.78662241500E+02  0.00000000000E+00 0.  1.
         21    1    1    2  503  502  0.64296015841E+02 -0.42527116646E+02  0.19671949524E+03  0.21128438918E+03  0.00000000000E+00 0.  1.
         21    1    1    2  504  505  0.19815341513E+02  0.23862759473E+02 -0.15502183325E+02  0.34675592811E+02  0.00000000000E+00 0.  1.
         21    1    1    2  505  501 -0.51101719780E+02  0.73118586977E+02  0.21620013352E+01  0.89232212658E+02  0.00000000000E+00 0.  1.
          2    1    1    2  501    0 -0.33009637573E+02 -0.54454229804E+02  0.36509547081E+03  0.37060707241E+03  0.00000000000E+00 0.  1.
<scales pt_clust_3="90.45335" pt_clust_4="31.01740" pt_clust_5="14000.00000" pt_clust_6="62.10046"></scales>
<clustering>
<clus scale="   31.017">  2  4  1 -1</clus>
<clus scale="   62.100">  1  6  2 -1</clus>
<clus scale="   90.453">  1  3  2 -1</clus>
<clus scale="   31.017">  2  3  1 -1</clus>
</clustering>
</event>
<event>
 6    0  0.2839294E+002  0.8888528E+02  0.7546771E-02  0.1305574E+00
          2   -1    0    0  504    0 -0.00000000000E+00  0.00000000000E+00  0.38522294277E+04  0.38522294277E+04  0.00000000000E+00 0. -1.
         21   -1    0    0  505  502  0.00000000000E+00 -0.00000000000E+00 -0.13956742284E+02  0.13956742284E+02  0.00000000000E+00 0.  1.
         21    1    1    2  503  501  0.10021323682E+03  0.23684152456E+01  0.86947245635E+03  0.87523177192E+03  0.00000000000E+00 0.  1.
         21    1    1    2  504  502  0.16293385561E+02 -0.48136903101E+02  0.64315478935E+02  0.81970218273E+02  0.00000000000E+00 0.  1.
         21    1    1    2  505  503 -0.32833521180E+02  0.22194754023E+02  0.25391169457E+03  0.25698598378E+03  0.00000000000E+00 0. -1.
          2    1    1    2  501    0 -0.83673101198E+02  0.23573733832E+02  0.26505730556E+04  0.26519981961E+04  0.00000000000E+00 0. -1.
<scales pt_clust_3="14000.00000" pt_clust_4="33.11935" pt_clust_5="39.63139" pt_clust_6="88.88528"></scales>
<clustering>
<clus scale="   39.631">  2  5  1 -1</clus>
<clus scale="   33.119">  2  4  1 -1</clus>
<clus scale="   88.885">  1  6  2 -1</clus>
<clus scale="   39.631">  2  3  1 -1</clus>
</clustering>
</event>
<event>
 6    0  0.2839294E+002  0.1489373E+03  0.7546771E-02  0.1201785E+00
          2   -1    0    0  504    0 -0.00000000000E+00  0.00000000000E+00  0.74792013843E+03  0.74792013843E+03  0.00000000000E+00 0.  1.
         21   -1    0    0  503  502  0.00000000000E+00 -0.00000000000E+00 -0.48989284206E+03  0.48989284206E+03  0.00000000000E+00 0.  1.
         21    1    1    2  503  505  0.87826476377E+02  0.52271589093E+01 -0.44408652016E+03  0.45271806959E+03  0.00000000000E+00 0.  1.
         21    1    1    2  504  502  0.38396447416E+02 -0.85631284162E+02  0.38318663199E+02  0.10136727258E+03  0.00000000000E+00 0.  1.
         21    1    1    2  505  501 -0.40456168043E+02  0.43557720493E+02  0.14692350366E+03  0.15849445566E+03  0.00000000000E+00 0.  1.
          2    1    1    2  501    0 -0.85766755751E+02  0.36846404759E+02  0.51687164967E+03  0.52523318266E+03  0.00000000000E+00 0.  1.
<scales pt_clust_3="87.98189" pt_clust_4="133.11612" pt_clust_5="53.30920" pt_clust_6="53.30920"></scales>
<clustering>
<clus scale="   53.309">  5  6 -1 -1</clus>
<clus scale="   87.982">  2  3  1 -1</clus>
<clus scale="  133.116">  2  4  1 -1</clus>
<clus scale="   87.982">  2  3  1 -1</clus>
</clustering>
</event>
<event>
 6    0  0.2839294E+002  0.7752266E+02  0.7546771E-02  0.1336232E+00
          2   -1    0    0  503    0 -0.00000000000E+00  0.00000000000E+00  0.10304130323E+04  0.10304130323E+04  0.00000000000E+00 0.  1.
         21   -1    0    0  501  502  0.00000000000E+00 -0.00000000000E+00 -0.24400883260E+02  0.24400883260E+02  0.00000000000E+00 0.  1.
         21    1    1    2  503  505 -0.10317756201E+02  0.51376680743E+02  0.18839453181E+03  0.19554671829E+03  0.00000000000E+00 0.  1.
         21    1    1    2  504  502  0.11522777599E+02  0.63757230286E+02  0.79405135482E+02  0.10248382486E+03  0.00000000000E+00 0.  1.
         21    1    1    2  505  504  0.33094142431E+02 -0.11951292031E+03  0.65561624408E+03  0.66724150042E+03  0.00000000000E+00 0.  1.
          2    1    1    2  501    0 -0.34299163830E+02  0.43790092789E+01  0.82596237636E+02  0.89541871956E+02  0.00000000000E+00 0.  1.
<scales pt_clust_3="54.57800" pt_clust_4="77.52266" pt_clust_5="14000.00000" pt_clust_6="34.57757"></scales>
<clustering>
<clus scale="   34.578">  2  6  1 -1</clus>
<clus scale="   54.578">  1  3  2 -1</clus>
<clus scale="   77.523">  2  4  1 -1</clus>
<clus scale="   34.578">  2  3  1 -1</clus>
</clustering>
</event>
<event>
 6    0  0.2839294E+002  0.1049991E+03  0.7546771E-02  0.1270121E+00
         21   -1    0    0  505  502  0.00000000000E+00  0.00000000000E+00  0.58799943363E+03  0.58799943363E+03  0.00000000000E+00 0.  1.
          2   -1    0    0  503    0 -0.00000000000E+00 -0.00000000000E+00 -0.91458598764E+03  0.91458598764E+03  0.00000000000E+00 0.  1.
         21    1    1    2  503  504 -0.43077000481E+02  0.60228557332E+02 -0.32605465602E+02  0.80908735473E+02  0.00000000000E+00 0. -1.
         21    1    1    2  504  502  0.75182016394E+02  0.56605123752E+02  0.55495364280E+03  0.56287655954E+03  0.00000000000E+00 0.  1.
         21    1    1    2  505  501 -0.39700031320E+02 -0.78155795185E+02 -0.66011836836E+03  0.66591341859E+03  0.00000000000E+00 0.  1.
          2    1    1    2  501    0  0.75950154069E+01 -0.38677885900E+02 -0.18881636285E+03  0.19288670767E+03  0.00000000000E+00 0.  1.
<scales pt_clust_3="74.04801" pt_clust_4="94.11784" pt_clust_5="31.21258" pt_clust_6="31.21258"></scales>
<clustering>
<clus scale="   31.213">  5  6 -1 -1</clus>
<clus scale="   74.048">  2  3  1 -1</clus>
<clus scale="   94.118">  1  4  2 -1</clus>
<clus scale="   94.118">  1  3  2 -1</clus>
</clustering>
</event>
<event>
 6    0  0.2839294E+002  0.1002952E+03  0.7546771E-02  0.1279676E+00
         21   -1    0    0  504  502  0.00000000000E+00  0.00000000000E+00  0.42305042489E+02  0.42305042489E+02  0.00000000000E+00 0. -1.
          1   -1    0    0  503    0 -0.00000000000E+00 -0.00000000000E+00 -0.70984471096E+03  0.70984471096E+03  0.00000000000E+00 0.  1.
         21    1    1    2  503  505 -0.49745767358E+02 -0.45956862793E+02 -0.27445589533E+03  0.28268836744E+03  0.00000000000E+00 0.  1.
         21    1    1    2  504  501  0.67509379631E+01  0.54292956500E+02 -0.99814405488E+02  0.11382537429E+03  0.00000000000E+00 0.  1.
         21    1    1    2  505  502  0.55800164226E+02 -0.62780712534E+02 -0.34353741534E+02  0.90748309909E+02  0.00000000000E+00 0. -1.
          1    1    1    2  501    0 -0.12805334831E+02  0.54444618827E+02 -0.25891562612E+03  0.26488770181E+03  0.00000000000E+00 0.  1.
<scales pt_clust_3="67.72499" pt_clust_4="53.03917" pt_clust_5="84.75430" pt_clust_6="53.03917"></scales>
<clustering>
<clus scale="   53.039">  4  6 -1 -1</clus>
<clus scale="   67.725">  2  3  1 -1</clus>
<clus scale="   84.754">  1  5  2 -1</clus>
<clus scale="   84.754">  1  3  2 -1</clus>
</clustering>
</event>
<event>
 6    0  0.2839294E+002  0.1203270E+03  0.7546771E-02  0.1242559E+00
          2   -1    0    0  503    0 -0.00000000000E+00  0.00000000000E+00  0.18403472165E+04  0.18403472165E+04  0.00000000000E+00 0. -1.
         21   -1    0    0  505  502  0.00000000000E+00 -0.00000000000E+00 -0.31349723604E+02  0.31349723604E+02  0.00000000000E+00 0.  1.
         21    1    1    2  503  502 -0.12344037809E+03 -0.81805653066E+01  0.60991532809E+03  0.62233524408E+03  0.00000000000E+00 0. -1.
         21    1    1    2  504  501  0.50924100141E+02  0.13839760299E+02  0.50866270733E+03  0.51139275784E+03  0.00000000000E+00 0. -1.
         21    1    1    2  505  504  0.17236284768E+02  0.24976800586E+02 -0.12057605669E+02  0.32654493329E+02  0.00000000000E+00 0.  1.
          2    1    1    2  501    0  0.55279993183E+02 -0.30635995578E+02  0.70247706317E+03  0.70531444488E+03  0.00000000000E+00 0. -1.
<scales pt_clust_3="111.90685" pt_clust_4="41.54968" pt_clust_5="30.34683" pt_clust_6="41.54968"></scales>
<clustering>
<clus scale="   30.347">  2  5  1 -1</clus>
<clus scale="   41.550">  4  6 -1 -1</clus>
<clus scale="  111.907">  2  3  1 -1</clus>
<clus scale="   30.347">  2  3  1 -1</clus>
</clustering>
</event>
<event>
 6    0  0.2839294E+002  0.1259377E+03  0.7546771E-02  0.1233611E+00
         21   -1    0    0  505  502  0.00000000000E+00  0.00000000000E+00  0.13427099689E+04  0.13427099689E+04  0.00000000000E+00 0.  1.
          1   -1    0    0  504    0 -0.00000000000E+00 -0.00000000000E+00 -0.47160027050E+03  0.47160027050E+03  0.00000000000E+00 0.  1.
         21    1    1    2  503  501 -0.50346740251E+02  0.10427370286E+03 -0.47842431799E+01  0.11589084669E+03  0.00000000000E+00 0.  1.
         21    1    1    2  504  502  0.23137259279E+02 -0.22236178653E+02 -0.32735020337E+02  0.45840614792E+02  0.00000000000E+00 0.  1.
         21    1    1    2  505  503 -0.20093590047E+02 -0.12592817086E+03  0.12745995512E+04  0.12809627912E+04  0.00000000000E+00 0.  1.
          1    1    1    2  501    0  0.47303071018E+02  0.43890646651E+02 -0.36597058926E+03  0.37161598673E+03  0.00000000000E+00 0.  1.
<scales pt_clust_3="125.93773" pt_clust_4="32.09019" pt_clust_5="14000.00000" pt_clust_6="71.52311"></scales>
<clustering>
<clus scale="   32.090">  2  4  1 -1</clus>
<clus scale="   71.523">  2  6  1 -1</clus>
<clus scale="  125.938">  2  3  1 -1</clus>
<clus scale="  125.938">  1  3  2 -1</clus>
</clustering>
</event>
<event>
 6    0  0.2839294E+002  0.1014218E+04  0.7546771E-02  0.9293087E-01
         21   -1    0    0  505  502  0.00000000000E+00  0.00000000000E+00  0.12489543293E+04  0.12489543293E+04  0.00000000000E+00 0. -1.
          2   -1    0    0  503    0 -0.00000000000E+00 -0.00000000000E+00 -0.99236102074E+03  0.99236102074E+03  0.00000000000E+00 0.  1.
         21    1    1    2  503  502  0.81382569214E+03  0.57886477323E+03  0.53156817626E+03  0.11313537947E+04  0.00000000000E+00 0. -1.
         21    1    1    2  504  501 -0.35457974942E+03 -0.22448687589E+03 -0.13606939613E+03  0.44117574356E+03  0.00000000000E+00 0.  1.
         21    1    1    2  505  504 -0.53313393847E+01  0.38247352850E+02  0.25790221353E+02  0.46437255486E+02  0.00000000000E+00 0. -1.
          2    1    1    2  501    0 -0.45391460334E+03 -0.39262525019E+03 -0.16469569291E+03  0.62234855625E+03  0.00000000000E+00 0.  1.
<scales pt_clust_3="1011.18980" pt_clust_4="65.55131" pt_clust_5="38.61714" pt_clust_6="65.55131"></scales>
<clustering>
<clus scale="   38.617">  1  5  2 -1</clus>
<clus scale="   65.551">  4  6 -1 -1</clus>
<clus scale=" 1011.190">  1  3  2 -1</clus>
<clus scale="   38.617">  1  3  2 -1</clus>
</clustering>
</event>
<event>
 6    0  0.2839294E+002  0.9875286E+02  0.7546771E-02  0.1282941E+00
         21   -1    0    0  503  502  0.00000000000E+00  0.00000000000E+00  0.35475121025E+02  0.35475121025E+02  0.00000000000E+00 0. -1.
          1   -1    0    0  504    0 -0.00000000000E+00 -0.00000000000E+00 -0.38997000532E+04  0.38997000532E+04  0.00000000000E+00 0.  1.
         21    1    1    2  503  501 -0.42866822515E+01 -0.52118502486E+02 -0.18532925414E+03  0.19256595334E+03  0.00000000000E+00 0. -1.
         21    1    1    2  504  505 -0.70857560803E+02  0.23026011791E+01 -0.88187117997E+03  0.88471626749E+03  0.00000000000E+00 0.  1.
         21    1    1    2  505  502  0.57236867438E+02  0.87986105162E+02 -0.60717185706E+02  0.12126083595E+03  0.00000000000E+00 0. -1.
          1    1    1    2  501    0  0.17907375617E+02 -0.38170203855E+02 -0.27363073124E+04  0.27366321175E+04  0.00000000000E+00 0.  1.
<scales pt_clust_3="58.33490" pt_clust_4="14000.00000" pt_clust_5="98.75286" pt_clust_6="42.16205"></scales>
<clustering>
<clus scale="   42.162">  2  6  1 -1</clus>
<clus scale="   58.335">  2  3  1 -1</clus>
<clus scale="   98.753">  1  5  2 -1</clus>
<clus scale="   98.753">  1  3  2 -1</clus>
</clustering>
</event>
<event>
 6    0  0.2839294E+002  0.1321885E+03  0.7546771E-02  0.1224244E+00
          2   -1    0    0  502    0 -0.00000000000E+00  0.00000000000E+00  0.11425987173E+04  0.11425987173E+04  0.00000000000E+00 0.  1.
         21   -1    0    0  505  502  0.00000000000E+00 -0.00000000000E+00 -0.26897862011E+03  0.26897862011E+03  0.00000000000E+00 0.  1.
         21    1    1    2  503  504  0.69319930631E+02  0.39452903802E+02 -0.21109316708E+03  0.22565927765E+03  0.00000000000E+00 0.  1.
         21    1    1    2  504  501 -0.43247467319E+02 -0.46407767332E+01  0.22792038768E+03  0.23203358239E+03  0.00000000000E+00 0. -1.
         21    1    1    2  505  503  0.53997103548E+02 -0.16413171825E+02 -0.29575696424E+02  0.63716569429E+02  0.00000000000E+00 0. -1.
          2    1    1    2  501    0 -0.80069566860E+02 -0.18398955244E+02  0.88636857301E+03  0.89016790793E+03  0.00000000000E+00 0.  1.
<scales pt_clust_3="124.56087" pt_clust_4="32.19965" pt_clust_5="56.43651" pt_clust_6="32.19965"></scales>
<clustering>
<clus scale="   32.200">  4  6 -1 -1</clus>
<clus scale="   56.437">  2  5  1 -1</clus>
<clus scale="  124.561">  2  3  1 -1</clus>
<clus scale="   56.437">  2  3  1 -1</clus>
</clustering>
</event>
<event>
 6    0  0.2839294E+002  0.2179898E+03  0.7546771E-02  0.1135391E+00
         21   -1    0    0  503  502  0.00000000000E+00  0.00000000000E+00  0.10845436839E+03  0.10845436839E+03  0.00000000000E+00 0. -1.
          2   -1    0    0  502    0 -0.00000000000E+00 -0.00000000000E+00 -0.13386623611E+04  0.13386623611E+04  0.00000000000E+00 0.  1.
         21    1    1    2  503  505 -0.21875739565E+02 -0.21901483694E+02  0.14135063737E+02  0.34029736943E+02  0.00000000000E+00 0.  1.
         21    1    1    2  504  501  0.38630928535E+02 -0.60215169384E+02 -0.28791641619E+03  0.29667166695E+03  0.00000000000E+00 0.  1.
         21    1    1    2  505  504 -0.50977709784E+02  0.21883512898E+03 -0.95698217977E+02  0.24422467011E+03  0.00000000000E+00 0. -1.
          2    1    1    2  501    0  0.34222520815E+02 -0.13671847590E+03 -0.86072842231E+03  0.87219065550E+03  0.00000000000E+00 0.  1.
<scales pt_clust_3="30.95518" pt_clust_4="37.40458" pt_clust_5="211.55585" pt_clust_6="37.40458"></scales>
<clustering>
<clus scale="   30.955">  1  3  2 -1</clus>
<clus scale="   37.405">  4  6 -1 -1</clus>
<clus scale="  211.556">  1  5  2 -1</clus>
<clus scale="   30.955">  1  3  2 -1</clus>
</clustering>
</event>
<event>
 6    0  0.2839294E+002  0.8101205E+02  0.7546771E-02  0.1326204E+00
         21   -1    0    0  504  502  0.00000000000E+00  0.00000000000E+00  0.56014509730E+02  0.56014509730E+02  0.00000000000E+00 0. -1.
          1   -1    0    0  502    0 -0.00000000000E+00 -0.00000000000E+00 -0.34332419692E+04  0.34332419692E+04  0.00000000000E+00 0.  1.
         21    1    1    2  503  501 -0.23508955813E+02 -0.28467869610E+02 -0.13191319203E+04  0.13196484811E+04  0.00000000000E+00 0. -1.
         21    1    1    2  504  505  0.57166575613E+02 -0.61718190642E+02 -0.14950978479E+02  0.85444041226E+02  0.00000000000E+00 0. -1.
         21    1    1    2  505  503  0.98163990496E+01  0.87763263882E+02 -0.75922808789E+02  0.11646040130E+03  0.00000000000E+00 0. -1.
          1    1    1    2  501    0 -0.43474018849E+02  0.24227963699E+01 -0.19672217520E+04  0.19677035553E+04  0.00000000000E+00 0.  1.
<scales pt_clust_3="34.42831" pt_clust_4="14000.00000" pt_clust_5="78.49073" pt_clust_6="81.01205"></scales>
<clustering>
<clus scale="   34.428">  3  6 -1 -1</clus>
<clus scale="   81.012">  2  3  1 -1</clus>
<clus scale="   78.491">  2  5  1 -1</clus>
<clus scale="   81.012">  1  3  2 -1</clus>
</clustering>
</event>
<event>
 6    0  0.2839294E+002  0.3280290E+03  0.7546771E-02  0.1072012E+00
         21   -1    0    0  503  502  0.00000000000E+00  0.00000000000E+00  0.11609031502E+03  0.11609031502E+03  0.00000000000E+00 0.  1.
          2   -1    0    0  504    0 -0.00000000000E+00 -0.00000000000E+00 -0.93578040001E+03  0.93578040001E+03  0.00000000000E+00 0.  1.
         21    1    1    2  503  501  0.45382845496E+01 -0.99120398893E+02 -0.11531531984E+03  0.15212847365E+03  0.00000000000E+00 0. -1.
         21    1    1    2  504  505  0.10896097392E+02  0.32077882876E+02 -0.55303559797E+01  0.34326379731E+02  0.00000000000E+00 0.  1.
         21    1    1    2  505  502 -0.15490208394E+02  0.28393355029E+03 -0.31368423634E+03  0.42338635744E+03  0.00000000000E+00 0.  1.
          2    1    1    2  501    0  0.55826453079E-01 -0.21689103427E+03 -0.38516017283E+03  0.44202950421E+03  0.00000000000E+00 0.  1.
<scales pt_clust_3="34.90815" pt_clust_4="30.32484" pt_clust_5="30.32484" pt_clust_6="320.23114"></scales>
<clustering>
<clus scale="   30.325">  4  5 -1 -1</clus>
<clus scale="   34.908">  3  6 -1 -1</clus>
<clus scale="  320.231">  2  3  1 -1</clus>
<clus scale="  328.029">  1  3  2 -1</clus>
</clustering>
</event>
<event>
 6    0  0.2839294E+002  0.2665946E+03  0.7546771E-02  0.1103245E+00
         21   -1    0    0  503  502  0.00000000000E+00  0.00000000000E+00  0.56765594319E+02  0.56765594319E+02  0.00000000000E+00 0.  1.
          1   -1    0    0  504    0 -0.00000000000E+00 -0.00000000000E+00 -0.40848419240E+04  0.40848419240E+04  0.00000000000E+00 0.  1.
         21    1    1    2  503  505  0.25142289561E+02 -0.49025734070E+02 -0.33044456075E+02  0.64246349334E+02  0.00000000000E+00 0.  1.
         21    1    1    2  504  502  0.23501491945E+03  0.10509305375E+03 -0.42237626292E+03  0.49464964348E+03  0.00000000000E+00 0.  1.
         21    1    1    2  505  501 -0.12248850052E+03 -0.14685156542E+02 -0.14878869983E+04  0.14929925674E+04  0.00000000000E+00 0.  1.
          1    1    1    2  501    0 -0.13766870849E+03 -0.41382163139E+02 -0.20847686123E+04  0.20897189581E+04  0.00000000000E+00 0.  1.
<scales pt_clust_3="55.09680" pt_clust_4="264.46971" pt_clust_5="31.11914" pt_clust_6="31.11914"></scales>
<clustering>
<clus scale="   31.119">  5  6 -1 -1</clus>
<clus scale="   55.097">  1  3  2 -1</clus>
<clus scale="  264.470">  1  4  2 -1</clus>
<clus scale="   55.097">  1  3  2 -1</clus>
</clustering>
</event>
<event>
 6    0  0.2839294E+002  0.8155397E+02  0.7546771E-02  0.1324698E+00
          1   -1    0    0  503    0 -0.00000000000E+00  0.00000000000E+00  0.43761283915E+03  0.43761283915E+03  0.00000000000E+00 0. -1.
         21   -1    0    0  505  502  0.00000000000E+00 -0.00000000000E+00 -0.26728231640E+03  0.26728231640E+03  0.00000000000E+00 0.  1.
         21    1    1    2  503  504  0.28644228973E+02 -0.15913382915E+02  0.69790822993E+02  0.77100496648E+02  0.00000000000E+00 0.  1.
         21    1    1    2  504  502 -0.11286428713E+03  0.53055743154E+02 -0.18459786015E+03  0.22277708402E+03  0.00000000000E+00 0.  1.
         21    1    1    2  505  501  0.31073023340E+02 -0.42012833872E+02 -0.45993421074E+02  0.69613258591E+02  0.00000000000E+00 0.  1.
          1    1    1    2  501    0  0.53147034820E+02  0.48704736329E+01  0.33113098099E+03  0.33540431630E+03  0.00000000000E+00 0. -1.
<scales pt_clust_3="32.76778" pt_clust_4="81.55397" pt_clust_5="53.22436" pt_clust_6="14000.00000"></scales>
<clustering>
<clus scale="   32.768">  1  3  2 -1</clus>
<clus scale="   53.224">  2  5  1 -1</clus>
<clus scale="   81.554">  2  4  1 -1</clus>
<clus scale="   53.224">  2  3  1 -1</clus>
</clustering>
</event>
<event>
 6    0  0.2839294E+002  0.1820625E+03  0.7546771E-02  0.1165822E+00
         21   -1    0    0  503  502  0.00000000000E+00  0.00000000000E+00  0.14062062818E+03  0.14062062818E+03  0.00000000000E+00 0.  1.
          1   -1    0    0  505    0 -0.00000000000E+00 -0.00000000000E+00 -0.20138027042E+04  0.20138027042E+04  0.00000000000E+00 0. -1.
         21    1    1    2  503  501 -0.30992798174E+02 -0.49180084108E+02 -0.57956044786E+02  0.82086158022E+02  0.00000000000E+00 0.  1.
         21    1    1    2  504  502 -0.96280644650E+02 -0.13505094366E+02  0.95453198818E+02  0.13624853494E+03  0.00000000000E+00 0.  1.
         21    1    1    2  505  504  0.17436364633E+03  0.94063117308E+02 -0.18082270666E+04  0.18190480136E+04  0.00000000000E+00 0. -1.
          1    1    1    2  501    0 -0.47090203510E+02 -0.31377938834E+02 -0.10245216348E+03  0.11704062592E+03  0.00000000000E+00 0. -1.
<scales pt_clust_3="36.03731" pt_clust_4="97.22320" pt_clust_5="178.36094" pt_clust_6="36.03731"></scales>
<clustering>
<clus scale="   36.037">  3  6 -1 -1</clus>
<clus scale="   97.223">  1  4  2 -1</clus>
<clus scale="  178.361">  2  5  1 -1</clus>
<clus scale="   97.223">  1  3  2 -1</clus>
</clustering>
</event>
<event>
 6    0  0.2839294E+002  0.9101785E+02  0.7546771E-02  0.1300405E+00
         21   -1    0    0  503  502  0.00000000000E+00  0.00000000000E+00  0.21659864181E+03  0.21659864181E+03  0.00000000000E+00 0. -1.
         -2   -1    0    0    0  501 -0.00000000000E+00 -0.00000000000E+00 -0.20035583782E+04  0.20035583782E+04  0.00000000000E+00 0.  1.
         21    1    1    2  503  504 -0.86433033143E+01  0.44010615871E+02  0.20190096004E+03  0.20682272280E+03  0.00000000000E+00 0. -1.
         21    1    1    2  504  505  0.80615978992E+02 -0.18009669745E+02 -0.14556390750E+04  0.14579809330E+04  0.00000000000E+00 0.  1.
         21    1    1    2  505  501  0.12270248350E+02  0.31641419428E+02 -0.28425398869E+03  0.28627271701E+03  0.00000000000E+00 0.  1.
         -2    1    1    2    0  502 -0.84242924028E+02 -0.57642365554E+02 -0.24896763274E+03  0.26908064722E+03  0.00000000000E+00 0.  1.
<scales pt_clust_3="44.89241" pt_clust_4="91.01785" pt_clust_5="33.93727" pt_clust_6="14000.00000"></scales>
<clustering>
<clus scale="   33.937">  2  5  1 -1</clus>
<clus scale="   44.892">  1  3  2 -1</clus>
<clus scale="   91.018">  2  4  1 -1</clus>
<clus scale="   44.892">  1  3  2 -1</clus>
</clustering>
</event>
<event>
 6    0  0.2839294E+002  0.1539876E+03  0.7546771E-02  0.1195657E+00
         21   -1    0    0  504  502  0.00000000000E+00  0.00000000000E+00  0.11330496123E+03  0.11330496123E+03  0.00000000000E+00 0. -1.
          2   -1    0    0  505    0 -0.00000000000E+00 -0.00000000000E+00 -0.67062122209E+03  0.67062122209E+03  0.00000000000E+00 0. -1.
         21    1    1    2  503  501 -0.61521962542E+02 -0.25432844736E+02 -0.18114360014E+03  0.19298908087E+03  0.00000000000E+00 0. -1.
         21    1    1    2  504  503  0.15625733222E+03 -0.24589290929E+02 -0.99602771390E+00  0.15818337198E+03  0.00000000000E+00 0. -1.
         21    1    1    2  505  502 -0.11375330125E+02  0.57321867970E+02 -0.11482232891E+02  0.59557000891E+02  0.00000000000E+00 0. -1.
          2    1    1    2  501    0 -0.83360039553E+02 -0.72997323052E+01 -0.36369440012E+03  0.37319672957E+03  0.00000000000E+00 0. -1.
<scales pt_clust_3="36.29345" pt_clust_4="148.51421" pt_clust_5="58.43967" pt_clust_6="36.29345"></scales>
<clustering>
<clus scale="   36.293">  3  6 -1 -1</clus>
<clus scale="   58.440">  1  5  2 -1</clus>
<clus scale="  148.514">  1  4  2 -1</clus>
<clus scale="   58.440">  1  3  2 -1</clus>
</clustering>
</event>
<event>
 6    0  0.2839294E+002  0.1175058E+03  0.7546771E-02  0.1247269E+00
          2   -1    0    0  504    0 -0.00000000000E+00  0.00000000000E+00  0.73619845785E+03  0.73619845785E+03  0.00000000000E+00 0.  1.
         21   -1    0    0  505  502  0.00000000000E+00 -0.00000000000E+00 -0.23227307190E+03  0.23227307190E+03  0.00000000000E+00 0. -1.
         21    1    1    2  503  502  0.20020311969E+02 -0.12326837716E+03 -0.17768575764E+03  0.21718226025E+03  0.00000000000E+00 0. -1.
         21    1    1    2  504  503  0.21687752920E+01 -0.68153981956E+02  0.13409183707E+03  0.15043367180E+03  0.00000000000E+00 0.  1.
         21    1    1    2  505  501 -0.35723901114E+02  0.12883201858E+02  0.18276297148E+02  0.42144952703E+02  0.00000000000E+00 0. -1.
          2    1    1    2  501    0  0.13534813853E+02  0.17853915725E+03  0.52924300937E+03  0.55871064499E+03  0.00000000000E+00 0.  1.
<scales pt_clust_3="117.50580" pt_clust_4="67.68149" pt_clust_5="37.97597" pt_clust_6="14000.00000"></scales>
<clustering>
<clus scale="   37.976">  2  5  1 -1</clus>
<clus scale="   67.681">  1  4  2 -1</clus>
<clus scale="  117.506">  2  3  1 -1</clus>
<clus scale="   37.976">  2  3  1 -1</clus>
</clustering>
</event>
<event>
 6    0  0.2839294E+002  0.8299897E+02  0.7546771E-02  0.1320750E+00
          1   -1    0    0  503    0 -0.00000000000E+00  0.00000000000E+00  0.25191372576E+04  0.25191372576E+04  0.00000000000E+00 0.  1.
         21   -1    0    0  505  502  0.00000000000E+00 -0.00000000000E+00 -0.25791508890E+03  0.25791508890E+03  0.00000000000E+00 0.  1.
         21    1    1    2  503  502  0.71992836178E+02  0.95689145458E+02  0.10555195787E+04  0.10622904321E+04  0.00000000000E+00 0.  1.
         21    1    1    2  504  501 -0.18004441123E+02 -0.31416447667E+02  0.49143719920E+03  0.49276939215E+03  0.00000000000E+00 0.  1.
         21    1    1    2  505  504 -0.55772118290E+02 -0.32376498895E+02 -0.24949916014E+03  0.25769865690E+03  0.00000000000E+00 0.  1.
          1    1    1    2  501    0  0.17837232349E+01 -0.31896198897E+02  0.96376455095E+03  0.96429386540E+03  0.00000000000E+00 0.  1.
<scales pt_clust_3="75.75770" pt_clust_4="31.84700" pt_clust_5="64.48850" pt_clust_6="31.84700"></scales>
<clustering>
<clus scale="   31.847">  4  6 -1 -1</clus>
<clus scale="   64.489">  2  5  1 -1</clus>
<clus scale="   75.758">  2  3  1 -1</clus>
<clus scale="   64.489">  2  3  1 -1</clus>
</clustering>
</event>
<event>
 6    0  0.2839294E+002  0.1532987E+03  0.7546771E-02  0.1196477E+00
         21   -1    0    0  503  502  0.00000000000E+00  0.00000000000E+00  0.19217810348E+04  0.19217810348E+04  0.00000000000E+00 0. -1.
          2   -1    0    0  504    0 -0.00000000000E+00 -0.00000000000E+00 -0.67881903428E+02  0.67881903428E+02  0.00000000000E+00 0.  1.
         21    1    1    2  503  505  0.88529815106E+02 -0.93483398899E+02  0.14740822910E+04  0.14796943180E+04  0.00000000000E+00 0. -1.
         21    1    1    2  504  502  0.34274453433E+02  0.13829190799E+02  0.35085592821E+03  0.35279720384E+03  0.00000000000E+00 0. -1.
         21    1    1    2  505  501 -0.50466319938E+02  0.61531303163E+01  0.35737077772E+01  0.50965496643E+02  0.00000000000E+00 0.  1.
          2    1    1    2  501    0 -0.72337948601E+02  0.73501077784E+02  0.25387204365E+02  0.10620591974E+03  0.00000000000E+00 0.  1.
<scales pt_clust_3="145.12774" pt_clust_4="36.95923" pt_clust_5="34.67150" pt_clust_6="34.67150"></scales>
<clustering>
<clus scale="   34.671">  5  6 -1 -1</clus>
<clus scale="   36.959">  1  4  2 -1</clus>
<clus scale="  145.128">  1  3  2 -1</clus>
<clus scale="   36.959">  1  3  2 -1</clus>
</clustering>
</event>
<event>
 6    0  0.2839294E+002  0.1011442E+03  0.7546771E-02  0.1277908E+00
         21   -1    0    0  503  502  0.00000000000E+00  0.00000000000E+00  0.22670959007E+02  0.22670959007E+02  0.00000000000E+00 0. -1.
          1   -1    0    0  504    0 -0.00000000000E+00 -0.00000000000E+00 -0.34955703248E+04  0.34955703248E+04  0.00000000000E+00 0. -1.
         21    1    1    2  503  505  0.53368017910E+02 -0.91051971496E+02 -0.12693125624E+03  0.16507619653E+03  0.00000000000E+00 0. -1.
         21    1    1    2  504  502 -0.62817342956E+02  0.46609354511E+02 -0.94672516344E+03  0.94995104379E+03  0.00000000000E+00 0. -1.
         21    1    1    2  505  501  0.49550102139E+02  0.43654323189E+02 -0.61774900463E+03  0.62126865789E+03  0.00000000000E+00 0. -1.
          1    1    1    2  501    0 -0.40100777093E+02  0.78829379562E+00 -0.17814939415E+04  0.17819453856E+04  0.00000000000E+00 0. -1.
<scales pt_clust_3="14000.00000" pt_clust_4="101.14420" pt_clust_5="56.20941" pt_clust_6="40.10852"></scales>
<clustering>
<clus scale="   40.109">  2  6  1 -1</clus>
<clus scale="   56.209">  2  5  1 -1</clus>
<clus scale="  101.144">  2  4  1 -1</clus>
<clus scale="  101.144">  1  3  2 -1</clus>
</clustering>
</event>
<event>
 6    0  0.2839294E+002  0.1452407E+03  0.7546771E-02  0.1206446E+00
         21   -1    0    0  504  502  0.00000000000E+00  0.00000000000E+00  0.43324794580E+03  0.43324794580E+03  0.00000000000E+00 0.  1.
         -2   -1    0    0    0  501 -0.00000000000E+00 -0.00000000000E+00 -0.34214543373E+03  0.34214543373E+03  0.00000000000E+00 0.  1.
         21    1    1    2  503  501  0.37367085833E+02 -0.31266216335E+02 -0.24601220379E+03  0.25079050979E+03  0.00000000000E+00 0.  1.
         21    1    1    2  504  503  0.11265778967E+02 -0.43706552466E+02  0.68656376191E+01  0.45654326018E+02  0.00000000000E+00 0.  1.
         21    1    1    2  505  502 -0.16822267402E+03  0.38655675375E+02  0.30645492727E+03  0.35172112780E+03  0.00000000000E+00 0.  1.
         -2    1    1    2    0  505  0.11958980922E+03  0.36317093426E+02  0.23794150966E+02  0.12722741593E+03  0.00000000000E+00 0.  1.
<scales pt_clust_3="48.93804" pt_clust_4="45.13514" pt_clust_5="145.24073" pt_clust_6="14000.00000"></scales>
<clustering>
<clus scale="   45.135">  1  4  2 -1</clus>
<clus scale="   48.938">  2  3  1 -1</clus>
<clus scale="  145.241">  1  5  2 -1</clus>
<clus scale="   45.135">  1  3  2 -1</clus>
</clustering>
</event>
<event>
 6    0  0.2839294E+002  0.1332543E+03  0.7546771E-02  0.1222705E+00
          2   -1    0    0  505    0 -0.00000000000E+00  0.00000000000E+00  0.19485546964E+04  0.19485546964E+04  0.00000000000E+00 0.  1.
         21   -1    0    0  504  502  0.00000000000E+00 -0.00000000000E+00 -0.77675360337E+02  0.77675360337E+02  0.00000000000E+00 0.  1.
         21    1    1    2  503  501  0.67273850024E+02  0.63875302197E+02  0.23050440032E+03  0.24847153497E+03  0.00000000000E+00 0. -1.
         21    1    1    2  504  503 -0.13084700227E+03  0.50332333440E+02  0.10649792978E+02  0.14059765248E+03  0.00000000000E+00 0.  1.
         21    1    1    2  505  502  0.18811138215E+02 -0.99250057526E+02  0.84479119285E+03  0.85080937487E+03  0.00000000000E+00 0.  1.
          2    1    1    2  501    0  0.44762014028E+02 -0.14957578112E+02  0.78493394987E+03  0.78635149437E+03  0.00000000000E+00 0.  1.
<scales pt_clust_3="97.70907" pt_clust_4="14000.00000" pt_clust_5="133.25428" pt_clust_6="47.19499"></scales>
<clustering>
<clus scale="   47.195">  1  6  2 -1</clus>
<clus scale="   97.709">  1  3  2 -1</clus>
<clus scale="  133.254">  1  5  2 -1</clus>
<clus scale="  133.254">  2  3  1 -1</clus>
</clustering>
</event>
<event>
 6    0  0.2839294E+002  0.1285370E+03  0.7546771E-02  0.1229643E+00
          4   -1    0    0  503    0 -0.00000000000E+00  0.00000000000E+00  0.21018030568E+03  0.21018030568E+03  0.00000000000E+00 0. -1.
         21   -1    0    0  504  502  0.00000000000E+00 -0.00000000000E+00 -0.57496425388E+03  0.57496425388E+03  0.00000000000E+00 0.  1.
         21    1    1    2  503  505 -0.53412271198E+02  0.45030944070E+02  0.12251971472E+03  0.14103806980E+03  0.00000000000E+00 0. -1.
         21    1    1    2  504  501  0.25411330890E+02 -0.18563249691E+02 -0.36558902115E+02  0.48237778769E+02  0.00000000000E+00 0.  1.
         21    1    1    2  505  502  0.11511072088E+03  0.13191071465E+02 -0.48157190783E+03  0.49531402649E+03  0.00000000000E+00 0.  1.
          4    1    1    2  501    0 -0.87109780576E+02 -0.39658765844E+02  0.30827147023E+02  0.10055468450E+03  0.00000000000E+00 0. -1.
<scales pt_clust_3="69.31590" pt_clust_4="31.46951" pt_clust_5="14000.00000" pt_clust_6="128.53698"></scales>
<clustering>
<clus scale="   31.470">  2  4  1 -1</clus>
<clus scale="   69.316">  1  3  2 -1</clus>
<clus scale="  128.537">  1  6  2 -1</clus>
<clus scale="   31.470">  2  3  1 -1</clus>
</clustering>
</event>
<event>
 6    0  0.2839294E+002  0.1251841E+03  0.7546771E-02  0.1234782E+00
          2   -1    0    0  502    0 -0.00000000000E+00  0.00000000000E+00  0.52229998721E+03  0.52229998721E+03  0.00000000000E+00 0.  1.
         21   -1    0    0  505  502  0.00000000000E+00 -0.00000000000E+00 -0.59824049134E+02  0.59824049134E+02  0.00000000000E+00 0. -1.
         21    1    1    2  503  501 -0.15022674243E+02  0.39513602097E+02  0.71173455779E+02  0.82780832924E+02  0.00000000000E+00 0.  1.
         21    1    1    2  504  503  0.68707361927E+02 -0.41982173694E+02  0.11825317506E+02  0.81382078034E+02  0.00000000000E+00 0. -1.
         21    1    1    2  505  504  0.66036601046E+01 -0.54207383085E+02  0.37818081923E+02  0.66424814851E+02  0.00000000000E+00 0. -1.
          2    1    1    2  501    0 -0.60288347788E+02  0.56675954682E+02  0.34165908287E+03  0.35153631054E+03  0.00000000000E+00 0.  1.
<scales pt_clust_3="40.91321" pt_clust_4="111.33087" pt_clust_5="54.60814" pt_clust_6="40.91321"></scales>
<clustering>
<clus scale="   40.913">  3  6 -1 -1</clus>
<clus scale="   54.608">  2  5  1 -1</clus>
<clus scale="  111.331">  2  4  1 -1</clus>
<clus scale="   54.608">  2  3  1 -1</clus>
</clustering>
</event>
<event>
 6    0  0.2839294E+002  0.7067502E+02  0.7546771E-02  0.1357813E+00
         21   -1    0    0  503  502  0.00000000000E+00  0.00000000000E+00  0.44822741051E+02  0.44822741051E+02  0.00000000000E+00 0.  1.
          2   -1    0    0  505    0 -0.00000000000E+00 -0.00000000000E+00 -0.98460431705E+03  0.98460431705E+03  0.00000000000E+00 0.  1.
         21    1    1    2  503  501  0.39584165238E+01 -0.99358332091E+02 -0.74355882397E+02  0.12416337811E+03  0.00000000000E+00 0.  1.
         21    1    1    2  504  502 -0.18975536650E+02  0.35105265084E+02 -0.10602875363E+02  0.41290090745E+02  0.00000000000E+00 0.  1.
         21    1    1    2  505  504 -0.36927378276E+02  0.55477997395E+01 -0.14104472418E+03  0.14590415884E+03  0.00000000000E+00 0. -1.
          2    1    1    2  501    0  0.51944498402E+02  0.58705267268E+02 -0.71377809407E+03  0.71806943041E+03  0.00000000000E+00 0.  1.
<scales pt_clust_3="70.67502" pt_clust_4="40.60817" pt_clust_5="37.34179" pt_clust_6="14000.00000"></scales>
<clustering>
<clus scale="   37.342">  2  5  1 -1</clus>
<clus scale="   40.608">  1  4  2 -1</clus>
<clus scale="   70.675">  1  3  2 -1</clus>
<clus scale="   40.608">  1  3  2 -1</clus>
</clustering>
</event>
<event>
 6    0  0.2839294E+002  0.1355636E+03  0.7546771E-02  0.1219426E+00
         21   -1    0    0  503  502  0.00000000000E+00  0.00000000000E+00  0.49292686166E+03  0.49292686166E+03  0.00000000000E+00 0.  1.
          2   -1    0    0  505    0 -0.00000000000E+00 -0.00000000000E+00 -0.14320167149E+04  0.14320167149E+04  0.00000000000E+00 0.  1.
         21    1    1    2  503  504 -0.49842217860E+02 -0.53888617062E+02  0.39104846770E+03  0.39787829021E+03  0.00000000000E+00 0.  1.
         21    1    1    2  504  501  0.13039696484E+03  0.86626124143E+02 -0.45991842750E+03  0.48583167227E+03  0.00000000000E+00 0.  1.
         21    1    1    2  505  502  0.31229765912E+02  0.30845630641E+02  0.75218138117E+02  0.87089146915E+02  0.00000000000E+00 0. -1.
          2    1    1    2  501    0 -0.11178451289E+03 -0.63583137722E+02 -0.94543803154E+03  0.95414446716E+03  0.00000000000E+00 0.  1.
<scales pt_clust_3="31.45529" pt_clust_4="14000.00000" pt_clust_5="43.89477" pt_clust_6="135.56365"></scales>
<clustering>
<clus scale="   43.895">  1  5  2 -1</clus>
<clus scale="   31.455">  1  3  2 -1</clus>
<clus scale="  135.564">  2  6  1 -1</clus>
<clus scale="   43.895">  1  3  2 -1</clus>
</clustering>
</event>
<event>
 6    0  0.2839294E+002  0.1141555E+03  0.7546771E-02  0.1253062E+00
          1   -1    0    0  503    0 -0.00000000000E+00  0.00000000000E+00  0.30201875801E+04  0.30201875801E+04  0.00000000000E+00 0.  1.
         21   -1    0    0  501  502  0.00000000000E+00 -0.00000000000E+00 -0.25391640033E+03  0.25391640033E+03  0.00000000000E+00 0. -1.
         21    1    1    2  503  505  0.24550025015E+02  0.48039379474E+02  0.47962840340E+03  0.48265297167E+03  0.00000000000E+00 0. -1.
         21    1    1    2  504  502 -0.33746448003E+02  0.64877359319E+01 -0.75339065770E+02  0.82806330081E+02  0.00000000000E+00 0. -1.
         21    1    1    2  505  504 -0.30051624584E+02 -0.10194190659E+03 -0.15662858998E+03  0.18928224338E+03  0.00000000000E+00 0. -1.
          1    1    1    2  501    0  0.39248047572E+02  0.47414791185E+02  0.25186104321E+04  0.25193624353E+04  0.00000000000E+00 0.  1.
<scales pt_clust_3="53.86682" pt_clust_4="34.36442" pt_clust_5="14000.00000" pt_clust_6="114.15553"></scales>
<clustering>
<clus scale="   34.364">  2  4  1 -1</clus>
<clus scale="   53.867">  1  3  2 -1</clus>
<clus scale="  114.156">  1  6  2 -1</clus>
<clus scale="   34.364">  2  3  1 -1</clus>
</clustering>
</event>
<event>
 6    0  0.2839294E+002  0.8273369E+02  0.7546771E-02  0.1321468E+00
         21   -1    0    0  503  502  0.00000000000E+00  0.00000000000E+00  0.27786740197E+02  0.27786740197E+02  0.00000000000E+00 0.  1.
          1   -1    0    0  504    0 -0.00000000000E+00 -0.00000000000E+00 -0.14184629585E+04  0.14184629585E+04  0.00000000000E+00 0.  1.
         21    1    1    2  503  505 -0.37135054536E+02 -0.16680773457E+02 -0.15324078364E+02  0.43498136239E+02  0.00000000000E+00 0.  1.
         21    1    1    2  504  502 -0.31662861791E+02 -0.15736200995E+02 -0.65556380900E+02  0.74483581515E+02  0.00000000000E+00 0.  1.
         21    1    1    2  505  501  0.12934611455E+03  0.62487756566E+02 -0.68988341411E+03  0.70468025525E+03  0.00000000000E+00 0.  1.
          1    1    1    2  501    0 -0.60548198224E+02 -0.30070782114E+02 -0.61991234496E+03  0.62358772573E+03  0.00000000000E+00 0.  1.
<scales pt_clust_3="62.05459" pt_clust_4="35.35767" pt_clust_5="14000.00000" pt_clust_6="82.73369"></scales>
<clustering>
<clus scale="   35.358">  1  4  2 -1</clus>
<clus scale="   62.055">  1  3  2 -1</clus>
<clus scale="   82.734">  2  6  1 -1</clus>
<clus scale="   35.358">  1  3  2 -1</clus>
</clustering>
</event>
<event>
 6    0  0.2839294E+002  0.2472868E+03  0.7546771E-02  0.1115032E+00
         21   -1    0    0  504  502  0.00000000000E+00  0.00000000000E+00  0.87689726051E+02  0.87689726051E+02  0.00000000000E+00 0.  1.
          2   -1    0    0  503    0 -0.00000000000E+00 -0.00000000000E+00 -0.24396056696E+04  0.24396056696E+04  0.00000000000E+00 0.  1.
         21    1    1    2  503  505  0.17400699924E+03 -0.18788787175E+03 -0.18437262402E+03  0.31555277312E+03  0.00000000000E+00 0.  1.
         21    1    1    2  504  501 -0.42848362635E+02  0.27699168616E+02 -0.28286491656E+03  0.28742962120E+03  0.00000000000E+00 0. -1.
         21    1    1    2  505  502  0.67447465009E+01  0.32786802724E+02 -0.33508675577E+01  0.33640665149E+02  0.00000000000E+00 0. -1.
          2    1    1    2  501    0 -0.13790338311E+03  0.12740190041E+03 -0.18813275354E+04  0.18906723362E+04  0.00000000000E+00 0.  1.
<scales pt_clust_3="239.74802" pt_clust_4="31.58800" pt_clust_5="33.47336" pt_clust_6="31.58800"></scales>
<clustering>
<clus scale="   31.588">  4  6 -1 -1</clus>
<clus scale="   33.473">  1  5  2 -1</clus>
<clus scale="  239.748">  1  3  2 -1</clus>
<clus scale="   33.473">  1  3  2 -1</clus>
</clustering>
</event>
<event>
 6    0  0.2839294E+002  0.6365095E+02  0.7546771E-02  0.1383119E+00
         21   -1    0    0  501  502  0.00000000000E+00  0.00000000000E+00  0.98761357494E+02  0.98761357494E+02  0.00000000000E+00 0. -1.
          2   -1    0    0  504    0 -0.00000000000E+00 -0.00000000000E+00 -0.25945110364E+04  0.25945110364E+04  0.00000000000E+00 0.  1.
         21    1    1    2  503  502  0.36431444757E+02  0.26601970829E+02  0.64309197193E+02  0.78553089453E+02  0.00000000000E+00 0. -1.
         21    1    1    2  504  505 -0.27371759970E+02 -0.47950567428E+02 -0.13322815677E+04  0.13334251557E+04  0.00000000000E+00 0.  1.
         21    1    1    2  505  503  0.18502845404E+02 -0.60553363795E+02 -0.14516769941E+02  0.64960001266E+02  0.00000000000E+00 0.  1.
          2    1    1    2  501    0 -0.27562530190E+02  0.81901960394E+02 -0.12132605385E+04  0.12163341475E+04  0.00000000000E+00 0.  1.
<scales pt_clust_3="45.11003" pt_clust_4="54.35311" pt_clust_5="14000.00000" pt_clust_6="63.65095"></scales>
<clustering>
<clus scale="   45.110">  1  3  2 -1</clus>
<clus scale="   54.353">  2  4  1 -1</clus>
<clus scale="   63.651">  2  6  1 -1</clus>
<clus scale="   45.110">  1  3  2 -1</clus>
</clustering>
</event>
<event>
 6    0  0.2839294E+002  0.1792433E+03  0.7546771E-02  0.1168537E+00
         21   -1    0    0  505  502  0.00000000000E+00  0.00000000000E+00  0.85441062574E+03  0.85441062574E+03  0.00000000000E+00 0.  1.
         -2   -1    0    0    0  501 -0.00000000000E+00 -0.00000000000E+00 -0.33653120512E+03  0.33653120512E+03  0.00000000000E+00 0. -1.
         21    1    1    2  503  502  0.53010249183E+02  0.56007245921E+02  0.52667672968E+02  0.93385126707E+02  0.00000000000E+00 0.  1.
         21    1    1    2  504  503 -0.29381884785E+03 -0.25135259866E+02  0.25528913850E+03  0.39004338333E+03  0.00000000000E+00 0.  1.
         21    1    1    2  505  501  0.80698228369E+02  0.28649402954E+02  0.42461159062E+03  0.43316047285E+03  0.00000000000E+00 0.  1.
         -2    1    1    2    0  504  0.16011037030E+03 -0.59521389010E+02 -0.21468898147E+03  0.27435284798E+03  0.00000000000E+00 0. -1.
<scales pt_clust_3="77.11613" pt_clust_4="14000.00000" pt_clust_5="124.82819" pt_clust_6="179.24330"></scales>
<clustering>
<clus scale="   77.116">  1  3  2 -1</clus>
<clus scale="  124.828">  1  5  2 -1</clus>
<clus scale="  179.243">  2  6  1 -1</clus>
<clus scale="   77.116">  1  3  2 -1</clus>
</clustering>
</event>
<event>
 6    0  0.2839294E+002  0.1112177E+03  0.7546771E-02  0.1258331E+00
         21   -1    0    0  504  502  0.00000000000E+00  0.00000000000E+00  0.13129016121E+03  0.13129016121E+03  0.00000000000E+00 0.  1.
          2   -1    0    0  503    0 -0.00000000000E+00 -0.00000000000E+00 -0.18678441309E+04  0.18678441309E+04  0.00000000000E+00 0. -1.
         21    1    1    2  503  505  0.33740100192E+02 -0.20221031900E+02 -0.21988070525E+03  0.22337145976E+03  0.00000000000E+00 0.  1.
         21    1    1    2  504  501  0.11651547471E+02  0.38534934986E+02  0.72834036438E+00  0.40264503630E+02  0.00000000000E+00 0.  1.
         21    1    1    2  505  502 -0.12215465635E+03 -0.18783765419E+02  0.72804690570E+02  0.14344027635E+03  0.00000000000E+00 0.  1.
          2    1    1    2  501    0  0.76763008688E+02  0.46986233332E+00 -0.15902062954E+04  0.15920580524E+04  0.00000000000E+00 0. -1.
<scales pt_clust_3="39.33554" pt_clust_4="40.14537" pt_clust_5="111.21769" pt_clust_6="14000.00000"></scales>
<clustering>
<clus scale="   39.336">  2  3  1 -1</clus>
<clus scale="   40.145">  1  4  2 -1</clus>
<clus scale="  111.218">  1  5  2 -1</clus>
<clus scale="   40.145">  1  3  2 -1</clus>
</clustering>
</event>
<event>
 6    0  0.2839294E+002  0.1047573E+03  0.7546771E-02  0.1270599E+00
          1   -1    0    0  504    0 -0.00000000000E+00  0.00000000000E+00  0.10025648648E+04  0.10025648648E+04  0.00000000000E+00 0. -1.
         21   -1    0    0  503  502  0.00000000000E+00 -0.00000000000E+00 -0.20015926733E+03  0.20015926733E+03  0.00000000000E+00 0.  1.
         21    1    1    2  503  501  0.11465240508E+03  0.13729166168E+03  0.16506123725E+03  0.24339142631E+03  0.00000000000E+00 0.  1.
         21    1    1    2  504  505 -0.47772371386E+02 -0.25658737082E+02 -0.21288891721E+02  0.58256219988E+02  0.00000000000E+00 0. -1.
         21    1    1    2  505  502  0.29755880438E+01 -0.41691923563E+02 -0.11437510254E+03  0.12177329221E+03  0.00000000000E+00 0.  1.
          1    1    1    2  501    0 -0.69855621738E+02 -0.69941001033E+02  0.77300835451E+03  0.77930319367E+03  0.00000000000E+00 0. -1.
<scales pt_clust_3="14000.00000" pt_clust_4="65.18922" pt_clust_5="41.79797" pt_clust_6="104.75731"></scales>
<clustering>
<clus scale="   41.798">  2  5  1 -1</clus>
<clus scale="   65.189">  2  4  1 -1</clus>
<clus scale="  104.757">  1  6  2 -1</clus>
<clus scale="   41.798">  2  3  1 -1</clus>
</clustering>
</event>
<event>
 6    0  0.2839294E+002  0.8700727E+02  0.7546771E-02  0.1310265E+00
         21   -1    0    0  504  502  0.00000000000E+00  0.00000000000E+00  0.61050162333E+02  0.61050162333E+02  0.00000000000E+00 0.  1.
          1   -1    0    0  503    0 -0.00000000000E+00 -0.00000000000E+00 -0.77365545840E+03  0.77365545840E+03  0.00000000000E+00 0.  1.
         21    1    1    2  503  505  0.16276382442E+02  0.26315413100E+02 -0.44526133615E+03  0.44633516449E+03  0.00000000000E+00 0. -1.
         21    1    1    2  504  501  0.36678696111E+01 -0.67517651295E+02 -0.41764085990E+01  0.67746061824E+02  0.00000000000E+00 0.  1.
         21    1    1    2  505  502 -0.96239298886E+02  0.22037624040E+02 -0.10592673591E+03  0.14480377379E+03  0.00000000000E+00 0.  1.
          1    1    1    2  501    0  0.76295046833E+02  0.19164614155E+02 -0.15724081541E+03  0.17582062063E+03  0.00000000000E+00 0.  1.
<scales pt_clust_3="30.94223" pt_clust_4="64.86087" pt_clust_5="87.00727" pt_clust_6="14000.00000"></scales>
<clustering>
<clus scale="   30.942">  2  3  1 -1</clus>
<clus scale="   64.861">  1  4  2 -1</clus>
<clus scale="   87.007">  1  5  2 -1</clus>
<clus scale="   64.861">  1  3  2 -1</clus>
</clustering>
</event>
<event>
 6    0  0.2839294E+002  0.1780672E+03  0.7546771E-02  0.1169687E+00
         21   -1    0    0  505  502  0.00000000000E+00  0.00000000000E+00  0.68634260311E+03  0.68634260311E+03  0.00000000000E+00 0. -1.
          2   -1    0    0  503    0 -0.00000000000E+00 -0.00000000000E+00 -0.19492073042E+04  0.19492073042E+04  0.00000000000E+00 0.  1.
         21    1    1    2  503  502  0.42677727127E+01  0.42956194919E+02  0.19192871067E+03  0.19672335537E+03  0.00000000000E+00 0. -1.
         21    1    1    2  504  501  0.97061842834E+02 -0.87367016775E+02 -0.20516219940E+03  0.24319853005E+03  0.00000000000E+00 0. -1.
         21    1    1    2  505  504 -0.18268442010E+03  0.29694872168E+01  0.45408631968E+03  0.48946583223E+03  0.00000000000E+00 0. -1.
          2    1    1    2  501    0  0.81354804554E+02  0.41441334640E+02 -0.17037175320E+04  0.17061621896E+04  0.00000000000E+00 0.  1.
<scales pt_clust_3="43.16768" pt_clust_4="178.06718" pt_clust_5="14000.00000" pt_clust_6="91.35956"></scales>
<clustering>
<clus scale="   43.168">  1  3  2 -1</clus>
<clus scale="   91.360">  2  6  1 -1</clus>
<clus scale="  178.067">  2  4  1 -1</clus>
<clus scale="   43.168">  1  3  2 -1</clus>
</clustering>
</event>
<event>
 6    0  0.2839294E+002  0.1898059E+03  0.7546771E-02  0.1158637E+00
         21   -1    0    0  504  502  0.00000000000E+00  0.00000000000E+00  0.69912675970E+02  0.69912675970E+02  0.00000000000E+00 0.  1.
          2   -1    0    0  505    0 -0.00000000000E+00 -0.00000000000E+00 -0.19791056319E+04  0.19791056319E+04  0.00000000000E+00 0.  1.
         21    1    1    2  503  502  0.23356920503E+03  0.77096158852E+02 -0.56187849730E+03  0.61335620725E+03  0.00000000000E+00 0.  1.
         21    1    1    2  504  501 -0.64467079538E+02 -0.51847479486E+02 -0.24272966540E+02  0.86216833495E+02  0.00000000000E+00 0.  1.
         21    1    1    2  505  503 -0.13290379499E+03 -0.10255209846E+03 -0.66366512303E+03  0.68456683176E+03  0.00000000000E+00 0.  1.
          2    1    1    2  501    0 -0.36198330501E+02  0.77303419090E+02 -0.65937636902E+03  0.66487843532E+03  0.00000000000E+00 0.  1.
<scales pt_clust_3="189.80588" pt_clust_4="82.72947" pt_clust_5="14000.00000" pt_clust_6="84.16482"></scales>
<clustering>
<clus scale="   82.729">  1  4  2 -1</clus>
<clus scale="   84.165">  2  6  1 -1</clus>
<clus scale="  189.806">  1  3  2 -1</clus>
<clus scale="   82.729">  1  3  2 -1</clus>
</clustering>
</event>
<event>
 6    0  0.2839294E+002  0.1522879E+03  0.7546771E-02  0.1197689E+00
         21   -1    0    0  505  502  0.00000000000E+00  0.00000000000E+00  0.19116554938E+03  0.19116554938E+03  0.00000000000E+00 0. -1.
          2   -1    0    0  503    0 -0.00000000000E+00 -0.00000000000E+00 -0.14816340707E+04  0.14816340707E+04  0.00000000000E+00 0.  1.
         21    1    1    2  503  502  0.12159153574E+02  0.16805901675E+03  0.57969205846E+02  0.17819120897E+03  0.00000000000E+00 0. -1.
         21    1    1    2  504  501 -0.24125125409E+02 -0.18437995075E+03 -0.59739870843E+03  0.62567020445E+03  0.00000000000E+00 0. -1.
         21    1    1    2  505  504  0.14258095118E+02 -0.12125839162E+03 -0.18379160684E+02  0.12346936609E+03  0.00000000000E+00 0.  1.
          2    1    1    2  501    0 -0.22921232833E+01  0.13757932562E+03 -0.73265985807E+03  0.74546884060E+03  0.00000000000E+00 0.  1.
<scales pt_clust_3="69.17827" pt_clust_4="152.28794" pt_clust_5="122.09378" pt_clust_6="14000.00000"></scales>
<clustering>
<clus scale="  122.094">  1  5  2 -1</clus>
<clus scale="   69.178">  1  3  2 -1</clus>
<clus scale="  152.288">  1  4  2 -1</clus>
<clus scale="  122.094">  1  3  2 -1</clus>
</clustering>
</event>
<event>
 6    0  0.2839294E+002  0.1071940E+03  0.7546771E-02  0.1265856E+00
          1   -1    0    0  505    0 -0.00000000000E+00  0.00000000000E+00  0.16095262141E+04  0.16095262141E+04  0.00000000000E+00 0.  1.
         21   -1    0    0  503  502  0.00000000000E+00 -0.00000000000E+00 -0.10907934121E+03  0.10907934121E+03  0.00000000000E+00 0.  1.
         21    1    1    2  503  504 -0.10565714133E+02  0.11612134216E+03 -0.60210605407E+02  0.13122925521E+03  0.00000000000E+00 0.  1.
         21    1    1    2  504  501 -0.26360003049E+01 -0.75228970111E+02  0.11080216252E+03  0.13395322191E+03  0.00000000000E+00 0.  1.
         21    1    1    2  505  502  0.68851611200E+01  0.29583331480E+02  0.36422633007E+03  0.36549062705E+03  0.00000000000E+00 0. -1.
          1    1    1    2  501    0  0.63165533180E+01 -0.70475703529E+02  0.10856289857E+04  0.10879324511E+04  0.00000000000E+00 0.  1.
<scales pt_clust_3="107.19403" pt_clust_4="14000.00000" pt_clust_5="30.37398" pt_clust_6="46.31595"></scales>
<clustering>
<clus scale="   30.374">  1  5  2 -1</clus>
<clus scale="   46.316">  1  6  2 -1</clus>
<clus scale="  107.194">  2  3  1 -1</clus>
<clus scale="  107.194">  2  3  1 -1</clus>
</clustering>
</event>
<event>
 6    0  0.2839294E+002  0.8173133E+02  0.7546771E-02  0.1324209E+00
         21   -1    0    0  504  502  0.00000000000E+00  0.00000000000E+00  0.38249159198E+03  0.38249159198E+03  0.00000000000E+00 0. -1.
          1   -1    0    0  503    0 -0.00000000000E+00 -0.00000000000E+00 -0.14143308229E+04  0.14143308229E+04  0.00000000000E+00 0.  1.
         21    1    1    2  503  502 -0.37135433323E+02  0.18679111192E+02 -0.37477497954E+03  0.37707324871E+03  0.00000000000E+00 0. -1.
         21    1    1    2  504  505 -0.20569509226E+02  0.40774441931E+02  0.35156427800E+03  0.35451812562E+03  0.00000000000E+00 0. -1.
         21    1    1    2  505  501  0.74254962072E+02 -0.10317519158E+03 -0.11821343049E+03  0.17358955815E+03  0.00000000000E+00 0. -1.
          1    1    1    2  501    0 -0.16550019523E+02  0.43721638458E+02 -0.89041509887E+03  0.89164148239E+03  0.00000000000E+00 0.  1.
<scales pt_clust_3="41.56861" pt_clust_4="45.71655" pt_clust_5="14000.00000" pt_clust_6="81.73133"></scales>
<clustering>
<clus scale="   41.569">  2  3  1 -1</clus>
<clus scale="   45.717">  1  4  2 -1</clus>
<clus scale="   81.731">  2  6  1 -1</clus>
<clus scale="   45.717">  1  3  2 -1</clus>
</clustering>
</event>
<event>
 6    0  0.2839294E+002  0.1947885E+03  0.7546771E-02  0.1154212E+00
          3   -1    0    0  505    0 -0.00000000000E+00  0.00000000000E+00  0.15787815650E+03  0.15787815650E+03  0.00000000000E+00 0. -1.
         21   -1    0    0  501  502  0.00000000000E+00 -0.00000000000E+00 -0.78320226702E+03  0.78320226702E+03  0.00000000000E+00 0. -1.
         21    1    1    2  503  504  0.78164299291E+02  0.39488884678E+02 -0.31430478737E+03  0.32627676758E+03  0.00000000000E+00 0. -1.
         21    1    1    2  504  502  0.95942035356E+02 -0.43700004557E+02 -0.33269776657E+03  0.34900196049E+03  0.00000000000E+00 0. -1.
         21    1    1    2  505  503  0.13252028760E+02  0.65893006964E+02  0.12297424051E+02  0.68328114794E+02  0.00000000000E+00 0.  1.
          3    1    1    2  501    0 -0.18735836341E+03 -0.61681887085E+02  0.93810193610E+01  0.19747358066E+03  0.00000000000E+00 0. -1.
<scales pt_clust_3="77.86219" pt_clust_4="77.86219" pt_clust_5="67.21238" pt_clust_6="175.73921"></scales>
<clustering>
<clus scale="   67.212">  1  5  2 -1</clus>
<clus scale="   77.862">  3  4 -1 -1</clus>
<clus scale="  175.739">  1  6  2 -1</clus>
<clus scale="  194.789">  2  3  1 -1</clus>
</clustering>
</event>
<event>
 6    0  0.2839294E+002  0.7025150E+02  0.7546771E-02  0.1359240E+00
         21   -1    0    0  503  502  0.00000000000E+00  0.00000000000E+00  0.63624389036E+02  0.63624389036E+02  0.00000000000E+00 0. -1.
         -2   -1    0    0    0  501 -0.00000000000E+00 -0.00000000000E+00 -0.86856141417E+03  0.86856141417E+03  0.00000000000E+00 0. -1.
         21    1    1    2  503  505 -0.62347838978E+02  0.36644053110E+02  0.10331252937E+02  0.73053230188E+02  0.00000000000E+00 0. -1.
         21    1    1    2  504  501  0.31548742394E+01  0.53208234295E+02 -0.26008131808E+03  0.26548702688E+03  0.00000000000E+00 0. -1.
         21    1    1    2  505  504  0.72547909902E+01 -0.93273722810E+02 -0.10570594730E+03  0.14116078299E+03  0.00000000000E+00 0. -1.
         -2    1    1    2    0  502  0.51938173749E+02  0.34214354043E+01 -0.44948101269E+03  0.45248476315E+03  0.00000000000E+00 0. -1.
<scales pt_clust_3="70.25150" pt_clust_4="65.94977" pt_clust_5="14000.00000" pt_clust_6="52.05075"></scales>
<clustering>
<clus scale="   52.051">  2  6  1 -1</clus>
<clus scale="   65.950">  2  4  1 -1</clus>
<clus scale="   70.251">  1  3  2 -1</clus>
<clus scale="   70.251">  1  3  2 -1</clus>
</clustering>
</event>
<event>
 6    0  0.2839294E+002  0.9988733E+02  0.7546771E-02  0.1280533E+00
          1   -1    0    0  504    0 -0.00000000000E+00  0.00000000000E+00  0.12781728548E+04  0.12781728548E+04  0.00000000000E+00 0.  1.
         21   -1    0    0  505  502  0.00000000000E+00 -0.00000000000E+00 -0.11387750233E+04  0.11387750233E+04  0.00000000000E+00 0. -1.
         21    1    1    2  503  501 -0.10101145957E+03 -0.67217254138E+02  0.12000828738E+03  0.17065597926E+03  0.00000000000E+00 0.  1.
         21    1    1    2  504  502  0.33774311318E+02  0.66572496578E+02 -0.10233530719E+04  0.10260721764E+04  0.00000000000E+00 0. -1.
         21    1    1    2  505  503 -0.62416556136E+00 -0.70453516686E+02 -0.72242416563E+02  0.10091112103E+03  0.00000000000E+00 0.  1.
          1    1    1    2  501    0  0.67861313811E+02  0.71098274246E+02  0.11149850325E+04  0.11193086015E+04  0.00000000000E+00 0.  1.
<scales pt_clust_3="14000.00000" pt_clust_4="33.22917" pt_clust_5="70.45628" pt_clust_6="99.88733"></scales>
<clustering>
<clus scale="   70.456">  2  5  1 -1</clus>
<clus scale="   33.229">  2  4  1 -1</clus>
<clus scale="   99.887">  1  6  2 -1</clus>
<clus scale="   70.456">  2  3  1 -1</clus>
</clustering>
</event>
<event>
 6    0  0.2839294E+002  0.1653264E+03  0.7546771E-02  0.1182811E+00
         21   -1    0    0  503  502  0.00000000000E+00  0.00000000000E+00  0.50505757373E+02  0.50505757373E+02  0.00000000000E+00 0.  1.
          2   -1    0    0  504    0 -0.00000000000E+00 -0.00000000000E+00 -0.10056286072E+04  0.10056286072E+04  0.00000000000E+00 0. -1.
         21    1    1    2  503  505 -0.75024334459E+02 -0.10019116080E+03 -0.11964371527E+03  0.17315177754E+03  0.00000000000E+00 0.  1.
         21    1    1    2  504  502 -0.26912125824E+02  0.19777787021E+02 -0.76628574843E+02  0.83590441190E+02  0.00000000000E+00 0.  1.
         21    1    1    2  505  501 -0.36712163818E+02 -0.42009768040E+01 -0.18294838924E+02  0.41232660714E+02  0.00000000000E+00 0. -1.
          2    1    1    2  501    0  0.13864862410E+03  0.84614350583E+02 -0.74055572082E+03  0.75815948516E+03  0.00000000000E+00 0. -1.
<scales pt_clust_3="32.37722" pt_clust_4="33.39795" pt_clust_5="32.37722" pt_clust_6="154.21391"></scales>
<clustering>
<clus scale="   32.377">  3  5 -1 -1</clus>
<clus scale="   33.398">  2  4  1 -1</clus>
<clus scale="  154.214">  2  6  1 -1</clus>
<clus scale="  165.326">  1  3  2 -1</clus>
</clustering>
</event>
<event>
 6    0  0.2839294E+002  0.2086335E+03  0.7546771E-02  0.1142653E+00
         21   -1    0    0  504  502  0.00000000000E+00  0.00000000000E+00  0.16206194108E+04  0.16206194108E+04  0.00000000000E+00 0. -1.
          1   -1    0    0  503    0 -0.00000000000E+00 -0.00000000000E+00 -0.16215067968E+04  0.16215067968E+04  0.00000000000E+00 0. -1.
         21    1    1    2  503  502 -0.60602618417E+02 -0.13452394141E+03  0.11066171695E+04  0.11164098388E+04  0.00000000000E+00 0. -1.
         21    1    1    2  504  505  0.80779377025E+02 -0.42040073424E+02  0.39577653305E+03  0.40611788885E+03  0.00000000000E+00 0. -1.
         21    1    1    2  505  501 -0.18206508782E+03  0.34302868944E+02  0.15208543594E+02  0.18589158889E+03  0.00000000000E+00 0.  1.
          1    1    1    2  501    0  0.16188832922E+03  0.14226114589E+03 -0.15184896322E+04  0.15337068911E+04  0.00000000000E+00 0. -1.
<scales pt_clust_3="173.32518" pt_clust_4="91.06413" pt_clust_5="208.63350" pt_clust_6="14000.00000"></scales>
<clustering>
<clus scale="   91.064">  1  4  2 -1</clus>
<clus scale="  173.325">  1  3  2 -1</clus>
<clus scale="  208.634">  1  5  2 -1</clus>
<clus scale="   91.064">  1  3  2 -1</clus>
</clustering>
</event>
<event>
 6    0  0.2839294E+002  0.9834391E+02  0.7546771E-02  0.1283818E+00
         21   -1    0    0  505  502  0.00000000000E+00  0.00000000000E+00  0.48580726428E+02  0.48580726428E+02  0.00000000000E+00 0. -1.
          2   -1    0    0  503    0 -0.00000000000E+00 -0.00000000000E+00 -0.12665014433E+04  0.12665014433E+04  0.00000000000E+00 0. -1.
         21    1    1    2  503  504  0.30541215393E+02 -0.58523336012E+02 -0.42719802519E+03  0.43226831878E+03  0.00000000000E+00 0.  1.
         21    1    1    2  504  502  0.44158243117E+02  0.39885278236E+01 -0.87707416952E+01  0.45197175789E+02  0.00000000000E+00 0. -1.
         21    1    1    2  505  501 -0.65367124512E+02  0.10195484429E+03 -0.10901846309E+03  0.16294992033E+03  0.00000000000E+00 0. -1.
          2    1    1    2  501    0 -0.93323339985E+01 -0.47420036101E+02 -0.67293348688E+03  0.67466675481E+03  0.00000000000E+00 0. -1.
<scales pt_clust_3="98.34391" pt_clust_4="44.33801" pt_clust_5="14000.00000" pt_clust_6="47.98997"></scales>
<clustering>
<clus scale="   44.338">  1  4  2 -1</clus>
<clus scale="   47.990">  2  6  1 -1</clus>
<clus scale="   98.344">  2  3  1 -1</clus>
<clus scale="   44.338">  1  3  2 -1</clus>
</clustering>
</event>
<event>
 6    0  0.2839294E+002  0.1060593E+03  0.7546771E-02  0.1268046E+00
         21   -1    0    0  503  502  0.00000000000E+00  0.00000000000E+00  0.21829840477E+03  0.21829840477E+03  0.00000000000E+00 0. -1.
          2   -1    0    0  504    0 -0.00000000000E+00 -0.00000000000E+00 -0.25423632012E+04  0.25423632012E+04  0.00000000000E+00 0.  1.
         21    1    1    2  503  501 -0.76116510846E+02  0.71332191759E+02 -0.15189479512E+03  0.18426620306E+03  0.00000000000E+00 0. -1.
         21    1    1    2  504  505  0.18524347697E+02  0.29251857127E+02 -0.70167549136E+02  0.78245175920E+02  0.00000000000E+00 0.  1.
         21    1    1    2  505  502  0.58399472957E+02  0.37018361927E+02  0.18991261328E+03  0.20210803607E+03  0.00000000000E+00 0. -1.
          2    1    1    2  501    0 -0.80730980856E+00 -0.13760241081E+03 -0.22919150655E+04  0.22960421910E+04  0.00000000000E+00 0.  1.
<scales pt_clust_3="106.05933" pt_clust_4="34.62402" pt_clust_5="69.22110" pt_clust_6="14000.00000"></scales>
<clustering>
<clus scale="   34.624">  2  4  1 -1</clus>
<clus scale="   69.221">  1  5  2 -1</clus>
<clus scale="  106.059">  1  3  2 -1</clus>
<clus scale="   69.221">  1  3  2 -1</clus>
</clustering>
</event>
<event>
 6    0  0.2839294E+002  0.1574499E+03  0.7546771E-02  0.1191606E+00
         21   -1    0    0  504  502  0.00000000000E+00  0.00000000000E+00  0.82716703604E+03  0.82716703604E+03  0.00000000000E+00 0.  1.
          2   -1    0    0  503    0 -0.00000000000E+00 -0.00000000000E+00 -0.43331269384E+03  0.43331269384E+03  0.00000000000E+00 0.  1.
         21    1    1    2  503  505  0.56228373256E+02  0.79729361640E-01 -0.17144051660E+03  0.18042584917E+03  0.00000000000E+00 0.  1.
         21    1    1    2  504  501  0.65583043693E+02  0.22688053339E+03  0.47056274050E+03  0.52650280607E+03  0.00000000000E+00 0.  1.
         21    1    1    2  505  502 -0.92754623383E+02 -0.74623568404E+02  0.28454209232E+03  0.30844172776E+03  0.00000000000E+00 0.  1.
          2    1    1    2  501    0 -0.29056793567E+02 -0.15233669435E+03 -0.18980997401E+03  0.24510934689E+03  0.00000000000E+00 0.  1.
<scales pt_clust_3="56.22843" pt_clust_4="157.44987" pt_clust_5="117.02165" pt_clust_6="14000.00000"></scales>
<clustering>
<clus scale="   56.228">  2  3  1 -1</clus>
<clus scale="  117.022">  1  5  2 -1</clus>
<clus scale="  157.450">  1  4  2 -1</clus>
<clus scale="  117.022">  1  3  2 -1</clus>
</clustering>
</event>
<event>
 6    0  0.2839294E+002  0.1263482E+03  0.7546771E-02  0.1232977E+00
          1   -1    0    0  503    0 -0.00000000000E+00  0.00000000000E+00  0.21713362071E+04  0.21713362071E+04  0.00000000000E+00 0. -1.
         21   -1    0    0  504  502  0.00000000000E+00 -0.00000000000E+00 -0.11286201042E+02  0.11286201042E+02  0.00000000000E+00 0. -1.
         21    1    1    2  503  505  0.31848444440E+02 -0.49950156551E+02  0.46583429920E+03  0.46958591957E+03  0.00000000000E+00 0. -1.
         21    1    1    2  504  501  0.83340281901E+02  0.19220949995E+02  0.45942422565E+03  0.46731752227E+03  0.00000000000E+00 0. -1.
         21    1    1    2  505  502 -0.13160459340E+03  0.25509805452E+01  0.95325302898E+03  0.96229808987E+03  0.00000000000E+00 0. -1.
          1    1    1    2  501    0  0.16415867061E+02  0.28178226011E+02  0.28153845224E+03  0.28342087644E+03  0.00000000000E+00 0. -1.
<scales pt_clust_3="59.23970" pt_clust_4="30.15271" pt_clust_5="116.53065" pt_clust_6="30.15271"></scales>
<clustering>
<clus scale="   30.153">  4  6 -1 -1</clus>
<clus scale="   59.240">  1  3  2 -1</clus>
<clus scale="  116.531">  1  5  2 -1</clus>
<clus scale="  126.348">  2  3  1 -1</clus>
</clustering>
</event>
<event>
 6    0  0.2839294E+002  0.1360029E+03  0.7546771E-02  0.1218811E+00
          2   -1    0    0  504    0 -0.00000000000E+00  0.00000000000E+00  0.11994473540E+04  0.11994473540E+04  0.00000000000E+00 0.  1.
         21   -1    0    0  503  502  0.00000000000E+00 -0.00000000000E+00 -0.19537979513E+03  0.19537979513E+03  0.00000000000E+00 0. -1.
         21    1    1    2  503  501 -0.11608827012E+03 -0.89820882381E+02 -0.13214850869E+03  0.19750317901E+03  0.00000000000E+00 0. -1.
         21    1    1    2  504  505 -0.12524955368E+02  0.50181274100E+02  0.22624635201E+03  0.23208284421E+03  0.00000000000E+00 0.  1.
         21    1    1    2  505  502  0.12181073492E+03 -0.23326728335E+02  0.11946352275E+03  0.17220198798E+03  0.00000000000E+00 0.  1.
          2    1    1    2  501    0  0.68024905708E+01  0.62966336617E+02  0.79050619285E+03  0.79303913797E+03  0.00000000000E+00 0.  1.
<scales pt_clust_3="14000.00000" pt_clust_4="51.72074" pt_clust_5="136.00289" pt_clust_6="103.97159"></scales>
<clustering>
<clus scale="   51.721">  1  4  2 -1</clus>
<clus scale="  103.972">  1  6  2 -1</clus>
<clus scale="  136.003">  1  5  2 -1</clus>
<clus scale="  136.003">  2  3  1 -1</clus>
</clustering>
</event>
<event>
 6    0  0.2839294E+002  0.7879694E+02  0.7546771E-02  0.1332501E+00
         21   -1    0    0  504  502  0.00000000000E+00  0.00000000000E+00  0.40173118828E+02  0.40173118828E+02  0.00000000000E+00 0.  1.
          2   -1    0    0  505    0 -0.00000000000E+00 -0.00000000000E+00 -0.27600874147E+04  0.27600874147E+04  0.00000000000E+00 0.  1.
         21    1    1    2  503  501  0.12371273819E+02  0.10995008998E+03 -0.29934480384E+03  0.31913850017E+03  0.00000000000E+00 0.  1.
         21    1    1    2  504  503  0.19996930249E+02 -0.40039208680E+02  0.11898989795E+02  0.46309841387E+02  0.00000000000E+00 0.  1.
         21    1    1    2  505  502 -0.34882832133E+02  0.12906103811E+01 -0.67853561642E+03  0.67943289618E+03  0.00000000000E+00 0.  1.
          2    1    1    2  501    0  0.25146280650E+01 -0.71201491678E+02 -0.17539328654E+04  0.17553792958E+04  0.00000000000E+00 0.  1.
<scales pt_clust_3="14000.00000" pt_clust_4="44.61738" pt_clust_5="34.90670" pt_clust_6="78.79694"></scales>
<clustering>
<clus scale="   34.907">  2  5  1 -1</clus>
<clus scale="   44.617">  1  4  2 -1</clus>
<clus scale="   78.797">  2  6  1 -1</clus>
<clus scale="   44.617">  1  3  2 -1</clus>
</clustering>
</event>
<event>
 6    0  0.2839294E+002  0.1055337E+03  0.7546771E-02  0.1269072E+00
         21   -1    0    0  503  502  0.00000000000E+00  0.00000000000E+00  0.18735229236E+04  0.18735229236E+04  0.00000000000E+00 0. -1.
          1   -1    0    0  505    0 -0.00000000000E+00 -0.00000000000E+00 -0.11436481887E+04  0.11436481887E+04  0.00000000000E+00 0.  1.
         21    1    1    2  503  504  0.39601193268E+02  0.18082438967E+02  0.18379784418E+04  0.18384939438E+04  0.00000000000E+00 0. -1.
         21    1    1    2  504  501  0.64921636893E+02 -0.33570752926E+02 -0.98587191349E+02  0.12272427913E+03  0.00000000000E+00 0.  1.
         21    1    1    2  505  502 -0.13767091099E+02 -0.54688840139E+02 -0.20042997061E+02  0.59850845978E+02  0.00000000000E+00 0.  1.
          1    1    1    2  501    0 -0.90755739061E+02  0.70177154098E+02 -0.98947351840E+03  0.99610204333E+03  0.00000000000E+00 0.  1.
<scales pt_clust_3="43.53423" pt_clust_4="105.53369" pt_clust_5="45.30721" pt_clust_6="14000.00000"></scales>
<clustering>
<clus scale="   43.534">  1  3  2 -1</clus>
<clus scale="   45.307">  1  5  2 -1</clus>
<clus scale="  105.534">  1  4  2 -1</clus>
<clus scale="   43.534">  1  3  2 -1</clus>
</clustering>
</event>
<event>
 6    0  0.2839294E+002  0.8348489E+02  0.7546771E-02  0.1319443E+00
         21   -1    0    0  503  502  0.00000000000E+00  0.00000000000E+00  0.27269911867E+03  0.27269911867E+03  0.00000000000E+00 0.  1.
         -3   -1    0    0    0  501 -0.00000000000E+00 -0.00000000000E+00 -0.76299050076E+03  0.76299050076E+03  0.00000000000E+00 0.  1.
         21    1    1    2  503  501 -0.35114150034E+02 -0.10873921335E+02 -0.83803454862E+02  0.91511008872E+02  0.00000000000E+00 0.  1.
         21    1    1    2  504  502 -0.56544623487E+02 -0.22956716136E+01  0.24596722824E+03  0.25239342686E+03  0.00000000000E+00 0.  1.
         21    1    1    2  505  504  0.13755483560E+03  0.13270925220E+02 -0.24125291428E+03  0.27802952883E+03  0.00000000000E+00 0.  1.
         -3    1    1    2    0  505 -0.45896062080E+02 -0.10133227136E+00 -0.41120224118E+03  0.41375565487E+03  0.00000000000E+00 0.  1.
<scales pt_clust_3="36.75929" pt_clust_4="56.76025" pt_clust_5="83.48489" pt_clust_6="14000.00000"></scales>
<clustering>
<clus scale="   36.759">  2  3  1 -1</clus>
<clus scale="   56.760">  1  4  2 -1</clus>
<clus scale="   83.485">  1  5  2 -1</clus>
<clus scale="   56.760">  1  3  2 -1</clus>
</clustering>
</event>
<event>
 6    0  0.2839294E+002  0.1403734E+03  0.7546771E-02  0.1212827E+00
         21   -1    0    0  503  502  0.00000000000E+00  0.00000000000E+00  0.67268224148E+02  0.67268224148E+02  0.00000000000E+00 0. -1.
          2   -1    0    0  505    0 -0.00000000000E+00 -0.00000000000E+00 -0.15686633907E+04  0.15686633907E+04  0.00000000000E+00 0. -1.
         21    1    1    2  503  504  0.99905500795E+02  0.48444260810E+02 -0.12267301486E+03  0.16545882892E+03  0.00000000000E+00 0. -1.
         21    1    1    2  504  501  0.27879850948E+02 -0.69153053801E+02 -0.55745225462E+03  0.56241661348E+03  0.00000000000E+00 0. -1.
         21    1    1    2  505  502 -0.13145023879E+03  0.85518025929E+02 -0.10471617129E+03  0.18856822258E+03  0.00000000000E+00 0. -1.
          2    1    1    2  501    0  0.36648870424E+01 -0.64809232938E+02 -0.71655372576E+03  0.71948794985E+03  0.00000000000E+00 0. -1.
<scales pt_clust_3="111.03133" pt_clust_4="32.95029" pt_clust_5="135.85865" pt_clust_6="32.95029"></scales>
<clustering>
<clus scale="   32.950">  4  6 -1 -1</clus>
<clus scale="  111.031">  1  3  2 -1</clus>
<clus scale="  135.859">  1  5  2 -1</clus>
<clus scale="  111.031">  1  3  2 -1</clus>
</clustering>
</event>
<event>
 6    0  0.2839294E+002  0.9236279E+02  0.7546771E-02  0.1297229E+00
         21   -1    0    0  504  502  0.00000000000E+00  0.00000000000E+00  0.32809255445E+03  0.32809255445E+03  0.00000000000E+00 0. -1.
          1   -1    0    0  505    0 -0.00000000000E+00 -0.00000000000E+00 -0.46154046850E+03  0.46154046850E+03  0.00000000000E+00 0. -1.
         21    1    1    2  503  501 -0.41587449587E+02 -0.14652996697E+02 -0.24417938066E+02  0.50402995692E+02  0.00000000000E+00 0. -1.
         21    1    1    2  504  503 -0.16098080875E+02  0.26958191521E+02  0.27110003896E+03  0.27291229988E+03  0.00000000000E+00 0. -1.
         21    1    1    2  505  502 -0.51518458076E+00 -0.88243770862E+02 -0.15817969752E+02  0.89651752231E+02  0.00000000000E+00 0.  1.
          1    1    1    2  501    0  0.58200715043E+02  0.75938576038E+02 -0.36431204520E+03  0.37666597515E+03  0.00000000000E+00 0. -1.
<scales pt_clust_3="46.09002" pt_clust_4="31.39892" pt_clust_5="14000.00000" pt_clust_6="92.36279"></scales>
<clustering>
<clus scale="   31.399">  1  4  2 -1</clus>
<clus scale="   46.090">  1  3  2 -1</clus>
<clus scale="   92.363">  2  6  1 -1</clus>
<clus scale="   31.399">  1  3  2 -1</clus>
</clustering>
</event>
<event>
 6    0  0.2839294E+002  0.6258179E+02  0.7546771E-02  0.1387306E+00
          1   -1    0    0  505    0 -0.00000000000E+00  0.00000000000E+00  0.64055732425E+03  0.64055732425E+03  0.00000000000E+00 0.  1.
         21   -1    0    0  503  502  0.00000000000E+00 -0.00000000000E+00 -0.87869165156E+02  0.87869165156E+02  0.00000000000E+00 0.  1.
         21    1    1    2  503  501  0.89549353934E+01 -0.49701197740E+02 -0.13977146666E+01  0.50520822746E+02  0.00000000000E+00 0.  1.
         21    1    1    2  504  502 -0.16574835898E+02  0.10308429035E+03 -0.35298421560E+01  0.10446796584E+03  0.00000000000E+00 0.  1.
         21    1    1    2  505  504 -0.13321705938E+02  0.29018664521E+02  0.54307040395E+02  0.62998455348E+02  0.00000000000E+00 0.  1.
          1    1    1    2  501    0  0.20941606443E+02 -0.82401757132E+02  0.50330867552E+03  0.51043924547E+03  0.00000000000E+00 0.  1.
<scales pt_clust_3="49.19749" pt_clust_4="62.58179" pt_clust_5="31.93040" pt_clust_6="14000.00000"></scales>
<clustering>
<clus scale="   31.930">  1  5  2 -1</clus>
<clus scale="   49.197">  2  3  1 -1</clus>
<clus scale="   62.582">  2  4  1 -1</clus>
<clus scale="   49.197">  2  3  1 -1</clus>
</clustering>
</event>
<event>
 6    0  0.4067448E+002  0.1251296E+03  0.7546771E-02  0.1234867E+00
          2   -1    0    0  503    0 -0.00000000000E+00  0.00000000000E+00  0.69229827983E+03  0.69229827983E+03  0.00000000000E+00 0. -1.
         21   -1    0    0  505  502  0.00000000000E+00 -0.00000000000E+00 -0.13995140766E+04  0.13995140766E+04  0.00000000000E+00 0. -1.
         21    1    1    2  503  504  0.12691089134E+02  0.33767986919E+02  0.60611745436E+02  0.70534561520E+02  0.00000000000E+00 0. -1.
         21    1    1    2  504  502  0.46853315047E+02  0.85054446487E+01  0.20484125126E+02  0.51837969691E+02  0.00000000000E+00 0.  1.
         21    1    1    2  505  501 -0.79333561004E+02 -0.97205695725E+02 -0.13745682687E+04  0.13802828284E+04  0.00000000000E+00 0. -1.
          2    1    1    2  501    0  0.19789156823E+02  0.54932264157E+02  0.58625660129E+03  0.58915699685E+03  0.00000000000E+00 0. -1.
<scales pt_clust_3="36.07410" pt_clust_4="48.72031" pt_clust_5="125.12959" pt_clust_6="14000.00000"></scales>
<clustering>
<clus scale="   36.074">  1  3  2 -1</clus>
<clus scale="   48.720">  1  4  2 -1</clus>
<clus scale="  125.130">  2  5  1 -1</clus>
<clus scale="  125.130">  2  3  1 -1</clus>
</clustering>
</event>
<event>
 6    0  0.2839294E+002  0.1325249E+03  0.7546771E-02  0.1223757E+00
         21   -1    0    0  504  502  0.00000000000E+00  0.00000000000E+00  0.10018137098E+03  0.10018137098E+03  0.00000000000E+00 0.  1.
          2   -1    0    0  503    0 -0.00000000000E+00 -0.00000000000E+00 -0.21823977369E+04  0.21823977369E+04  0.00000000000E+00 0.  1.
         21    1    1    2  503  502  0.10809293900E+02  0.39593498476E+02  0.15251452261E+02  0.43784617759E+02  0.00000000000E+00 0.  1.
         21    1    1    2  504  505  0.76452536344E+02 -0.12970651172E+03 -0.14063435040E+02  0.15121689621E+03  0.00000000000E+00 0.  1.
         21    1    1    2  505  501 -0.44788537506E+02  0.41981805481E+02 -0.70069330323E+03  0.70337727450E+03  0.00000000000E+00 0.  1.
          2    1    1    2  501    0 -0.42473292738E+02  0.48131207760E+02 -0.13827110799E+04  0.13842003194E+04  0.00000000000E+00 0.  1.
<scales pt_clust_3="41.04249" pt_clust_4="126.06132" pt_clust_5="39.97998" pt_clust_6="39.97998"></scales>
<clustering>
<clus scale="   39.980">  5  6 -1 -1</clus>
<clus scale="   41.042">  1  3  2 -1</clus>
<clus scale="  126.061">  1  4  2 -1</clus>
<clus scale="   41.042">  1  3  2 -1</clus>
</clustering>
</event>
<event>
 6    0  0.2839294E+002  0.1934063E+03  0.7546771E-02  0.1155424E+00
         21   -1    0    0  501  502  0.00000000000E+00  0.00000000000E+00  0.42132191362E+02  0.42132191362E+02  0.00000000000E+00 0. -1.
         -1   -1    0    0    0  501 -0.00000000000E+00 -0.00000000000E+00 -0.15302099496E+04  0.15302099496E+04  0.00000000000E+00 0.  1.
         21    1    1    2  503  505  0.44650930304E+02 -0.84076933535E+02 -0.46472561612E+03  0.47437594228E+03  0.00000000000E+00 0.  1.
         21    1    1    2  504  502 -0.45018103753E+02  0.18633963638E+02 -0.71396917688E+02  0.86437110790E+02  0.00000000000E+00 0. -1.
         21    1    1    2  505  504 -0.33567772960E+02  0.13982019648E+03 -0.15902486903E+03  0.21439540969E+03  0.00000000000E+00 0. -1.
         -1    1    1    2    0  503  0.33934946409E+02 -0.74377226582E+02 -0.79293035537E+03  0.79713367818E+03  0.00000000000E+00 0.  1.
<scales pt_clust_3="56.78407" pt_clust_4="45.54706" pt_clust_5="45.54706" pt_clust_6="187.18486"></scales>
<clustering>
<clus scale="   45.547">  4  5 -1 -1</clus>
<clus scale="   56.784">  3  6 -1 -1</clus>
<clus scale="  187.185">  2  3  1 -1</clus>
<clus scale="  193.406">  1  3  2 -1</clus>
</clustering>
</event>
<event>
 6    0  0.2839294E+002  0.1558229E+03  0.7546771E-02  0.1193495E+00
         -1   -1    0    0    0  501 -0.00000000000E+00  0.00000000000E+00  0.26232139650E+04  0.26232139650E+04  0.00000000000E+00 0. -1.
         21   -1    0    0  504  502  0.00000000000E+00 -0.00000000000E+00 -0.16356820902E+02  0.16356820902E+02  0.00000000000E+00 0. -1.
         21    1    1    2  503  505 -0.98412896488E+01  0.79933833750E+02  0.85367961377E+03  0.85747020457E+03  0.00000000000E+00 0. -1.
         21    1    1    2  504  501 -0.42271621208E+02 -0.31514384672E+02  0.87760915674E+02  0.10238175971E+03  0.00000000000E+00 0. -1.
         21    1    1    2  505  502  0.11777160103E+03 -0.82436061089E+02  0.10202021527E+04  0.10302806834E+04  0.00000000000E+00 0. -1.
         -1    1    1    2    0  503 -0.65658690175E+02  0.34016612012E+02  0.64521446195E+03  0.64943813823E+03  0.00000000000E+00 0. -1.
<scales pt_clust_3="71.45873" pt_clust_4="52.72615" pt_clust_5="137.39154" pt_clust_6="71.45873"></scales>
<clustering>
<clus scale="   52.726">  2  4  1 -1</clus>
<clus scale="   71.459">  3  6 -1 -1</clus>
<clus scale="  137.392">  2  5  1 -1</clus>
<clus scale="   52.726">  2  3  1 -1</clus>
</clustering>
</event>
<event>
 6    0  0.2839294E+002  0.2707567E+03  0.7546771E-02  0.1100847E+00
         21   -1    0    0  504  502  0.00000000000E+00  0.00000000000E+00  0.92316766021E+03  0.92316766021E+03  0.00000000000E+00 0.  1.
          1   -1    0    0  503    0 -0.00000000000E+00 -0.00000000000E+00 -0.18276392620E+03  0.18276392620E+03  0.00000000000E+00 0. -1.
         21    1    1    2  503  505 -0.28496163222E+03  0.72779958816E+02  0.26654023018E+03  0.39691781082E+03  0.00000000000E+00 0.  1.
         21    1    1    2  504  501  0.78575811379E+02 -0.53243649981E+02  0.23935675733E+03  0.25748922633E+03  0.00000000000E+00 0. -1.
         21    1    1    2  505  502 -0.55018233007E+02 -0.12320734253E+02  0.17428303161E+03  0.18317582144E+03  0.00000000000E+00 0.  1.
          1    1    1    2  501    0  0.26140405385E+03 -0.72155745820E+01  0.60223714897E+02  0.26834872781E+03  0.00000000000E+00 0. -1.
<scales pt_clust_3="270.75675" pt_clust_4="83.15991" pt_clust_5="56.38091" pt_clust_6="14000.00000"></scales>
<clustering>
<clus scale="   56.381">  1  5  2 -1</clus>
<clus scale="   83.160">  1  4  2 -1</clus>
<clus scale="  270.757">  1  3  2 -1</clus>
<clus scale="   56.381">  1  3  2 -1</clus>
</clustering>
</event>
<event>
 6    0  0.2839294E+002  0.1141538E+03  0.7546771E-02  0.1253066E+00
         21   -1    0    0  505  502  0.00000000000E+00  0.00000000000E+00  0.95547963660E+03  0.95547963660E+03  0.00000000000E+00 0.  1.
         -4   -1    0    0    0  501 -0.00000000000E+00 -0.00000000000E+00 -0.56836076425E+02  0.56836076425E+02  0.00000000000E+00 0. -1.
         21    1    1    2  503  504  0.28718318344E+02 -0.78062566984E+02  0.35473259118E+03  0.36435383546E+03  0.00000000000E+00 0.  1.
         21    1    1    2  504  502  0.47158900817E+02 -0.24928615781E+02  0.46875270467E+03  0.47177801554E+03  0.00000000000E+00 0.  1.
         21    1    1    2  505  501  0.18213238309E+02  0.25973066513E+02  0.37015137289E+02  0.48748770470E+02  0.00000000000E+00 0. -1.
         -4    1    1    2    0  503 -0.94090457470E+02  0.77018116252E+02  0.38143127033E+02  0.12743509155E+03  0.00000000000E+00 0. -1.
<scales pt_clust_3="114.15375" pt_clust_4="53.46807" pt_clust_5="31.72258" pt_clust_6="14000.00000"></scales>
<clustering>
<clus scale="   31.723">  2  5  1 -1</clus>
<clus scale="   53.468">  1  4  2 -1</clus>
<clus scale="  114.154">  1  3  2 -1</clus>
<clus scale="   53.468">  1  3  2 -1</clus>
</clustering>
</event>
<event>
 6    0  0.2839294E+002  0.1288270E+03  0.7546771E-02  0.1229207E+00
          1   -1    0    0  503    0 -0.00000000000E+00  0.00000000000E+00  0.26672463063E+04  0.26672463063E+04  0.00000000000E+00 0. -1.
         21   -1    0    0  504  502  0.00000000000E+00 -0.00000000000E+00 -0.79510618582E+01  0.79510618582E+01  0.00000000000E+00 0. -1.
         21    1    1    2  503  505  0.22836256082E+02 -0.34211740671E+02  0.29770840942E+03  0.30053657819E+03  0.00000000000E+00 0.  1.
         21    1    1    2  504  501 -0.44481023893E+02  0.53777365474E+02  0.95702705684E+03  0.95956831651E+03  0.00000000000E+00 0.  1.
         21    1    1    2  505  502  0.79617007473E+02 -0.19986293005E+02  0.37396110931E+03  0.38286450745E+03  0.00000000000E+00 0. -1.
          1    1    1    2  501    0 -0.57972239661E+02  0.42066820154E+00  0.10305986689E+04  0.10322279660E+04  0.00000000000E+00 0. -1.
<scales pt_clust_3="35.13102" pt_clust_4="51.25343" pt_clust_5="126.08371" pt_clust_6="51.25343"></scales>
<clustering>
<clus scale="   35.131">  3  5 -1 -1</clus>
<clus scale="   51.253">  4  6 -1 -1</clus>
<clus scale="  126.084">  2  3  1 -1</clus>
<clus scale="  126.084">  2  3  1 -1</clus>
</clustering>
</event>
<event>
 6    0  0.2839294E+002  0.1288858E+03  0.7546771E-02  0.1229118E+00
         21   -1    0    0  501  502  0.00000000000E+00  0.00000000000E+00  0.15254852757E+04  0.15254852757E+04  0.00000000000E+00 0. -1.
          2   -1    0    0  505    0 -0.00000000000E+00 -0.00000000000E+00 -0.12557924885E+04  0.12557924885E+04  0.00000000000E+00 0. -1.
         21    1    1    2  503  504 -0.24309563744E+02 -0.11155730372E+03  0.12043647655E+04  0.12097646363E+04  0.00000000000E+00 0. -1.
         21    1    1    2  504  502  0.27934361563E+02 -0.17509384365E+02  0.31203205352E+03  0.31376887914E+03  0.00000000000E+00 0. -1.
         21    1    1    2  505  503  0.24802031607E+02  0.37133920339E+02 -0.14197090361E+03  0.14882810986E+03  0.00000000000E+00 0. -1.
          2    1    1    2  501    0 -0.28426829426E+02  0.91932767749E+02 -0.11047331282E+04  0.11089161388E+04  0.00000000000E+00 0. -1.
<scales pt_clust_3="14000.00000" pt_clust_4="32.96827" pt_clust_5="44.65779" pt_clust_6="128.88582"></scales>
<clustering>
<clus scale="   32.968">  1  4  2 -1</clus>
<clus scale="   44.658">  2  5  1 -1</clus>
<clus scale="  128.886">  2  6  1 -1</clus>
<clus scale="   32.968">  1  3  2 -1</clus>
</clustering>
</event>
<event>
 6    0  0.2839294E+002  0.1151296E+03  0.7546771E-02  0.1251355E+00
         21   -1    0    0  503  502  0.00000000000E+00  0.00000000000E+00  0.47694930433E+03  0.47694930433E+03  0.00000000000E+00 0.  1.
         -4   -1    0    0    0  501 -0.00000000000E+00 -0.00000000000E+00 -0.56641940725E+03  0.56641940725E+03  0.00000000000E+00 0.  1.
         21    1    1    2  503  504 -0.27735222664E+02 -0.67633695576E+02  0.20189736024E+03  0.21472331831E+03  0.00000000000E+00 0.  1.
         21    1    1    2  504  501  0.11355827591E+02 -0.42101521716E+02 -0.59956915381E+02  0.74137201546E+02  0.00000000000E+00 0.  1.
         21    1    1    2  505  502 -0.48871714273E+02  0.15447653946E+03  0.23278423207E+03  0.28361936535E+03  0.00000000000E+00 0.  1.
         -4    1    1    2    0  505  0.65251109347E+02 -0.44741322168E+02 -0.46419477984E+03  0.47088882638E+03  0.00000000000E+00 0.  1.
<scales pt_clust_3="73.54535" pt_clust_4="43.60611" pt_clust_5="115.12963" pt_clust_6="14000.00000"></scales>
<clustering>
<clus scale="   43.606">  2  4  1 -1</clus>
<clus scale="   73.545">  1  3  2 -1</clus>
<clus scale="  115.130">  1  5  2 -1</clus>
<clus scale="   73.545">  1  3  2 -1</clus>
</clustering>
</event>
<event>
 6    0  0.2839294E+002  0.1097176E+03  0.7546771E-02  0.1261094E+00
         21   -1    0    0  501  502  0.00000000000E+00  0.00000000000E+00  0.93176961002E+02  0.93176961002E+02  0.00000000000E+00 0. -1.
          2   -1    0    0  503    0 -0.00000000000E+00 -0.00000000000E+00 -0.14019383401E+04  0.14019383401E+04  0.00000000000E+00 0. -1.
         21    1    1    2  503  505  0.53735395019E+02 -0.58829570149E+02 -0.49281579902E+03  0.49921520687E+03  0.00000000000E+00 0.  1.
         21    1    1    2  504  502  0.10135859993E+03 -0.43543133859E+02  0.36255219375E+02  0.11612067524E+03  0.00000000000E+00 0. -1.
         21    1    1    2  505  504 -0.92692488979E+02 -0.66479014109E+01 -0.36577270767E+03  0.37739338333E+03  0.00000000000E+00 0. -1.
          2    1    1    2  501    0 -0.62401505972E+02  0.10902060542E+03 -0.48642809175E+03  0.50238603563E+03  0.00000000000E+00 0. -1.
<scales pt_clust_3="79.67692" pt_clust_4="109.71757" pt_clust_5="77.06469" pt_clust_6="14000.00000"></scales>
<clustering>
<clus scale="   79.677">  2  3  1 -1</clus>
<clus scale="   77.065">  2  5  1 -1</clus>
<clus scale="  109.718">  1  4  2 -1</clus>
<clus scale="  109.718">  1  3  2 -1</clus>
</clustering>
</event>
<event>
 6    0  0.2839294E+002  0.1330813E+03  0.7546771E-02  0.1222954E+00
         21   -1    0    0  503  502  0.00000000000E+00  0.00000000000E+00  0.65867388277E+03  0.65867388277E+03  0.00000000000E+00 0.  1.
         -1   -1    0    0    0  501 -0.00000000000E+00 -0.00000000000E+00 -0.75160639150E+03  0.75160639150E+03  0.00000000000E+00 0.  1.
         21    1    1    2  503  501 -0.28483946298E+02  0.14317760561E+02 -0.56734968575E+01  0.32380889902E+02  0.00000000000E+00 0. -1.
         21    1    1    2  504  505 -0.12688095823E+01  0.13837830357E+03  0.78544842442E+02  0.15912088817E+03  0.00000000000E+00 0. -1.
         21    1    1    2  505  502 -0.50225858200E+02 -0.12402710039E+03  0.51530289326E+03  0.53239311628E+03  0.00000000000E+00 0.  1.
         -1    1    1    2    0  504  0.79978614080E+02 -0.28668963741E+02 -0.68110674757E+03  0.68638537993E+03  0.00000000000E+00 0.  1.
<scales pt_clust_3="31.87999" pt_clust_4="133.08131" pt_clust_5="14000.00000" pt_clust_6="55.54381"></scales>
<clustering>
<clus scale="   31.880">  2  3  1 -1</clus>
<clus scale="   55.544">  2  6  1 -1</clus>
<clus scale="  133.081">  2  4  1 -1</clus>
<clus scale="  133.081">  1  3  2 -1</clus>
</clustering>
</event>
<event>
 6    0  0.2839294E+002  0.1137549E+03  0.7546771E-02  0.1253770E+00
          2   -1    0    0  503    0 -0.00000000000E+00  0.00000000000E+00  0.18667127045E+04  0.18667127045E+04  0.00000000000E+00 0.  1.
         21   -1    0    0  505  502  0.00000000000E+00 -0.00000000000E+00 -0.10464775915E+03  0.10464775915E+03  0.00000000000E+00 0. -1.
         21    1    1    2  503  502  0.63325526258E+02  0.81167788388E+02 -0.43406433637E+02  0.11172488813E+03  0.00000000000E+00 0. -1.
         21    1    1    2  504  501  0.30918110523E+02 -0.76944886091E+02  0.68189160238E+03  0.68691528040E+03  0.00000000000E+00 0.  1.
         21    1    1    2  505  504 -0.32750211667E+02  0.35132495898E+02  0.12785758059E+01  0.48046887395E+02  0.00000000000E+00 0. -1.
          2    1    1    2  501    0 -0.61493425114E+02 -0.39355398195E+02  0.11223012008E+04  0.11246734077E+04  0.00000000000E+00 0.  1.
<scales pt_clust_3="113.75493" pt_clust_4="14000.00000" pt_clust_5="48.02987" pt_clust_6="73.13828"></scales>
<clustering>
<clus scale="   48.030">  2  5  1 -1</clus>
<clus scale="   73.138">  1  6  2 -1</clus>
<clus scale="  113.755">  2  3  1 -1</clus>
<clus scale="   48.030">  2  3  1 -1</clus>
</clustering>
</event>
<event>
 6    0  0.2839294E+002  0.6538258E+02  0.7546771E-02  0.1376538E+00
         -3   -1    0    0    0  501 -0.00000000000E+00  0.00000000000E+00  0.75941761733E+03  0.75941761733E+03  0.00000000000E+00 0. -1.
         21   -1    0    0  505  502  0.00000000000E+00 -0.00000000000E+00 -0.12382849911E+03  0.12382849911E+03  0.00000000000E+00 0.  1.
         21    1    1    2  503  502 -0.24494582080E+02 -0.59981021591E+02 -0.87178697849E+02  0.10861782939E+03  0.00000000000E+00 0.  1.
         21    1    1    2  504  503  0.76193556088E+02  0.42984045270E+02  0.78840238554E+02  0.11776616387E+03  0.00000000000E+00 0. -1.
         21    1    1    2  505  501  0.30596280776E+02 -0.16860517357E+02  0.10558328031E+03  0.11121258258E+03  0.00000000000E+00 0. -1.
         -3    1    1    2    0  504 -0.82295254784E+02  0.33857493678E+02  0.53834429720E+03  0.54564954061E+03  0.00000000000E+00 0. -1.
<scales pt_clust_3="14000.00000" pt_clust_4="65.38258" pt_clust_5="34.93436" pt_clust_6="60.18039"></scales>
<clustering>
<clus scale="   34.934">  1  5  2 -1</clus>
<clus scale="   60.180">  1  6  2 -1</clus>
<clus scale="   65.383">  1  4  2 -1</clus>
<clus scale="   65.383">  2  3  1 -1</clus>
</clustering>
</event>
<event>
 6    0  0.2839294E+002  0.1108888E+03  0.7546771E-02  0.1258933E+00
         -4   -1    0    0    0  501 -0.00000000000E+00  0.00000000000E+00  0.28242055088E+03  0.28242055088E+03  0.00000000000E+00 0.  1.
         21   -1    0    0  504  502  0.00000000000E+00 -0.00000000000E+00 -0.36255759766E+03  0.36255759766E+03  0.00000000000E+00 0.  1.
         21    1    1    2  503  505 -0.77124466431E+02  0.63613391937E+02  0.25387709688E+02  0.10314738368E+03  0.00000000000E+00 0.  1.
         21    1    1    2  504  503  0.57541027146E+02 -0.97854565754E+02 -0.29879250559E+03  0.31963017260E+03  0.00000000000E+00 0.  1.
         21    1    1    2  505  501 -0.47458400523E+01 -0.33906598512E+02  0.39599907884E+02  0.52348191228E+02  0.00000000000E+00 0.  1.
         -4    1    1    2    0  502  0.24329279337E+02  0.68147772328E+02  0.15366784123E+03  0.16985240103E+03  0.00000000000E+00 0.  1.
<scales pt_clust_3="14000.00000" pt_clust_4="110.88877" pt_clust_5="34.23712" pt_clust_6="49.64965"></scales>
<clustering>
<clus scale="   34.237">  1  5  2 -1</clus>
<clus scale="   49.650">  1  6  2 -1</clus>
<clus scale="  110.889">  2  4  1 -1</clus>
<clus scale="  110.889">  2  3  1 -1</clus>
</clustering>
</event>
<event>
 6    0  0.2839294E+002  0.9634781E+02  0.7546771E-02  0.1288169E+00
          1   -1    0    0  504    0 -0.00000000000E+00  0.00000000000E+00  0.17707748000E+04  0.17707748000E+04  0.00000000000E+00 0. -1.
         21   -1    0    0  505  502  0.00000000000E+00 -0.00000000000E+00 -0.25655262059E+03  0.25655262059E+03  0.00000000000E+00 0.  1.
         21    1    1    2  503  502  0.39190949272E+02 -0.60474176023E+02 -0.27622298996E+02  0.77175435679E+02  0.00000000000E+00 0. -1.
         21    1    1    2  504  503 -0.31177428408E+01  0.49203952422E+02  0.20574596493E+03  0.21157067694E+03  0.00000000000E+00 0. -1.
         21    1    1    2  505  501 -0.10724158692E+03 -0.93525358553E+01 -0.18587941097E+03  0.21480079914E+03  0.00000000000E+00 0.  1.
          1    1    1    2  501    0  0.71168380488E+02  0.20622759456E+02  0.15219779244E+04  0.15237805088E+04  0.00000000000E+00 0. -1.
<scales pt_clust_3="71.38208" pt_clust_4="49.30263" pt_clust_5="14000.00000" pt_clust_6="96.34781"></scales>
<clustering>
<clus scale="   49.303">  1  4  2 -1</clus>
<clus scale="   71.382">  2  3  1 -1</clus>
<clus scale="   96.348">  1  6  2 -1</clus>
<clus scale="   71.382">  2  3  1 -1</clus>
</clustering>
</event>
<event>
 6    0  0.2839294E+002  0.2415083E+03  0.7546771E-02  0.1118792E+00
         21   -1    0    0  505  502  0.00000000000E+00  0.00000000000E+00  0.89562726513E+03  0.89562726513E+03  0.00000000000E+00 0.  1.
          2   -1    0    0  504    0 -0.00000000000E+00 -0.00000000000E+00 -0.14034399314E+04  0.14034399314E+04  0.00000000000E+00 0. -1.
         21    1    1    2  503  501  0.85698867106E+02  0.69935121861E+02 -0.52676896924E+03  0.53825715420E+03  0.00000000000E+00 0.  1.
         21    1    1    2  504  502 -0.70601908664E+02 -0.26888609030E+03  0.69347114060E+03  0.74711885394E+03  0.00000000000E+00 0.  1.
         21    1    1    2  505  503 -0.84370838410E+02  0.90966576274E+02  0.14119085633E+03  0.18795801202E+03  0.00000000000E+00 0. -1.
          2    1    1    2  501    0  0.69273879968E+02  0.10798439216E+03 -0.81570569393E+03  0.82573317634E+03  0.00000000000E+00 0. -1.
<scales pt_clust_3="46.97598" pt_clust_4="236.14986" pt_clust_5="124.06997" pt_clust_6="46.97598"></scales>
<clustering>
<clus scale="   46.976">  3  6 -1 -1</clus>
<clus scale="  124.070">  1  5  2 -1</clus>
<clus scale="  236.150">  1  4  2 -1</clus>
<clus scale="  124.070">  1  3  2 -1</clus>
</clustering>
</event>
<event>
 6    0  0.2839294E+002  0.1205689E+03  0.7546771E-02  0.1242162E+00
         -3   -1    0    0    0  501 -0.00000000000E+00  0.00000000000E+00  0.10036411073E+04  0.10036411073E+04  0.00000000000E+00 0.  1.
         21   -1    0    0  504  502  0.00000000000E+00 -0.00000000000E+00 -0.38860157723E+02  0.38860157723E+02  0.00000000000E+00 0. -1.
         21    1    1    2  503  502 -0.47140366763E+01  0.48054279720E+02  0.10150244943E+02  0.49340281855E+02  0.00000000000E+00 0. -1.
         21    1    1    2  504  501  0.76613212418E+02 -0.12030552581E+03  0.34283132383E+03  0.37131700804E+03  0.00000000000E+00 0. -1.
         21    1    1    2  505  503 -0.32659588073E+02  0.62814910823E+02  0.40548580616E+03  0.41162009270E+03  0.00000000000E+00 0. -1.
         -3    1    1    2    0  505 -0.39239587669E+02  0.94363352720E+01  0.20631357469E+03  0.21022388248E+03  0.00000000000E+00 0.  1.
<scales pt_clust_3="48.28495" pt_clust_4="111.96046" pt_clust_5="33.77976" pt_clust_6="33.77976"></scales>
<clustering>
<clus scale="   33.780">  5  6 -1 -1</clus>
<clus scale="   48.285">  2  3  1 -1</clus>
<clus scale="  111.960">  2  4  1 -1</clus>
<clus scale="   48.285">  2  3  1 -1</clus>
</clustering>
</event>
<event>
 6    0  0.2839294E+002  0.1340887E+03  0.7546771E-02  0.1221512E+00
         21   -1    0    0  505  502  0.00000000000E+00  0.00000000000E+00  0.13590007198E+03  0.13590007198E+03  0.00000000000E+00 0.  1.
          1   -1    0    0  503    0 -0.00000000000E+00 -0.00000000000E+00 -0.11380510038E+04  0.11380510038E+04  0.00000000000E+00 0. -1.
         21    1    1    2  503  504 -0.31503301311E+02 -0.18278715130E+02 -0.78252920945E+02  0.86313898398E+02  0.00000000000E+00 0. -1.
         21    1    1    2  504  502 -0.34231416490E+02 -0.31299545913E+02 -0.54280147552E+01  0.46700265454E+02  0.00000000000E+00 0. -1.
         21    1    1    2  505  501 -0.92996575268E+02  0.74784379652E+02  0.70759021707E+02  0.13873682137E+03  0.00000000000E+00 0.  1.
          1    1    1    2  501    0  0.15873129307E+03 -0.25206118608E+02 -0.98922901778E+03  0.10022000905E+04  0.00000000000E+00 0. -1.
<scales pt_clust_3="36.42210" pt_clust_4="47.26261" pt_clust_5="134.08872" pt_clust_6="14000.00000"></scales>
<clustering>
<clus scale="   36.422">  2  3  1 -1</clus>
<clus scale="   47.263">  1  4  2 -1</clus>
<clus scale="  134.089">  1  5  2 -1</clus>
<clus scale="   47.263">  1  3  2 -1</clus>
</clustering>
</event>
<event>
 6    0  0.2839294E+002  0.1583829E+03  0.7546771E-02  0.1190535E+00
          2   -1    0    0  503    0 -0.00000000000E+00  0.00000000000E+00  0.85820957667E+03  0.85820957667E+03  0.00000000000E+00 0.  1.
         21   -1    0    0  505  502  0.00000000000E+00 -0.00000000000E+00 -0.11684136459E+04  0.11684136459E+04  0.00000000000E+00 0.  1.
         21    1    1    2  503  504 -0.31134391700E+02  0.18624980142E+02  0.17400039957E+03  0.17774245211E+03  0.00000000000E+00 0. -1.
         21    1    1    2  504  502 -0.15462415184E+03  0.97676907354E+01 -0.41517094602E+02  0.16039858247E+03  0.00000000000E+00 0. -1.
         21    1    1    2  505  501  0.13111526251E+03 -0.93299365388E+02 -0.10565748024E+04  0.10687592323E+04  0.00000000000E+00 0.  1.
          2    1    1    2  501    0  0.54643281031E+02  0.64906694511E+02  0.61388742825E+03  0.61972295562E+03  0.00000000000E+00 0.  1.
<scales pt_clust_3="36.28003" pt_clust_4="158.38289" pt_clust_5="14000.00000" pt_clust_6="85.93081"></scales>
<clustering>
<clus scale="   36.280">  1  3  2 -1</clus>
<clus scale="   85.931">  1  6  2 -1</clus>
<clus scale="  158.383">  1  4  2 -1</clus>
<clus scale="  158.383">  2  3  1 -1</clus>
</clustering>
</event>
<event>
 6    0  0.2839294E+002  0.7344196E+02  0.7546771E-02  0.1348765E+00
         21   -1    0    0  501  502  0.00000000000E+00  0.00000000000E+00  0.22257397721E+03  0.22257397721E+03  0.00000000000E+00 0.  1.
          2   -1    0    0  504    0 -0.00000000000E+00 -0.00000000000E+00 -0.16488933637E+04  0.16488933637E+04  0.00000000000E+00 0.  1.
         21    1    1    2  503  505  0.70744573698E+02 -0.77048834095E+02 -0.32257733958E+02  0.10946176932E+03  0.00000000000E+00 0.  1.
         21    1    1    2  504  503 -0.48790888929E+02 -0.10704354903E+02 -0.88260590930E+03  0.88401828329E+03  0.00000000000E+00 0.  1.
         21    1    1    2  505  502 -0.47945353517E+02  0.51622297235E+02  0.17574808007E+03  0.18934361923E+03  0.00000000000E+00 0.  1.
          2    1    1    2  501    0  0.25991668748E+02  0.36130891763E+02 -0.68720382330E+03  0.68864366907E+03  0.00000000000E+00 0.  1.
<scales pt_clust_3="73.44196" pt_clust_4="33.56406" pt_clust_5="14000.00000" pt_clust_6="44.50852"></scales>
<clustering>
<clus scale="   44.509">  2  6  1 -1</clus>
<clus scale="   33.564">  2  4  1 -1</clus>
<clus scale="   73.442">  2  3  1 -1</clus>
<clus scale="   73.442">  1  3  2 -1</clus>
</clustering>
</event>
<event>
 6    0  0.2839294E+002  0.7696651E+02  0.7546771E-02  0.1337887E+00
         -1   -1    0    0    0  501 -0.00000000000E+00  0.00000000000E+00  0.92631316748E+03  0.92631316748E+03  0.00000000000E+00 0.  1.
         21   -1    0    0  505  502  0.00000000000E+00 -0.00000000000E+00 -0.12086815185E+03  0.12086815185E+03  0.00000000000E+00 0.  1.
         21    1    1    2  503  504  0.11309776202E+02 -0.70823780774E+02  0.10087818353E+03  0.12377530801E+03  0.00000000000E+00 0.  1.
         21    1    1    2  504  502  0.63268446689E+02 -0.94145462580E+01  0.86671734110E+02  0.10771963387E+03  0.00000000000E+00 0.  1.
         21    1    1    2  505  501 -0.75256954778E+02  0.24839440701E+02 -0.81745909789E+02  0.11385517478E+03  0.00000000000E+00 0.  1.
         -1    1    1    2    0  503  0.67873188689E+00  0.55398886331E+02  0.69964100777E+03  0.70183120267E+03  0.00000000000E+00 0.  1.
<scales pt_clust_3="44.77916" pt_clust_4="76.96651" pt_clust_5="14000.00000" pt_clust_6="55.40304"></scales>
<clustering>
<clus scale="   55.403">  1  6  2 -1</clus>
<clus scale="   44.779">  1  3  2 -1</clus>
<clus scale="   76.967">  1  4  2 -1</clus>
<clus scale="   76.967">  2  3  1 -1</clus>
</clustering>
</event>
<event>
 6    0  0.2839294E+002  0.1749033E+03  0.7546771E-02  0.1172829E+00
          1   -1    0    0  504    0 -0.00000000000E+00  0.00000000000E+00  0.10833160990E+04  0.10833160990E+04  0.00000000000E+00 0.  1.
         21   -1    0    0  505  502  0.00000000000E+00 -0.00000000000E+00 -0.93440681599E+03  0.93440681599E+03  0.00000000000E+00 0.  1.
         21    1    1    2  503  502  0.87915378937E+02 -0.10182337419E+03 -0.17637658487E+01  0.13453707390E+03  0.00000000000E+00 0.  1.
         21    1    1    2  504  503  0.22313737938E+02  0.33705513930E+02  0.13891356187E+03  0.14467529935E+03  0.00000000000E+00 0.  1.
         21    1    1    2  505  501 -0.81898172291E+02  0.16165918568E+03 -0.85107658814E+03  0.87015651570E+03  0.00000000000E+00 0.  1.
          1    1    1    2  501    0 -0.28330944585E+02 -0.93541325423E+02  0.86283607515E+03  0.86835402605E+03  0.00000000000E+00 0.  1.
<scales pt_clust_3="174.90330" pt_clust_4="40.42233" pt_clust_5="14000.00000" pt_clust_6="63.04039"></scales>
<clustering>
<clus scale="   40.422">  1  4  2 -1</clus>
<clus scale="   63.040">  1  6  2 -1</clus>
<clus scale="  174.903">  1  3  2 -1</clus>
<clus scale="  174.903">  2  3  1 -1</clus>
</clustering>
</event>
<event>
 6    0  0.2839294E+002  0.8124567E+02  0.7546771E-02  0.1325553E+00
          2   -1    0    0  505    0 -0.00000000000E+00  0.00000000000E+00  0.43057943162E+04  0.43057943162E+04  0.00000000000E+00 0.  1.
         21   -1    0    0  504  502  0.00000000000E+00 -0.00000000000E+00 -0.95744704317E+01  0.95744704317E+01  0.00000000000E+00 0.  1.
         21    1    1    2  503  502 -0.98150869646E+02  0.84200547927E+01  0.35593350135E+03  0.36931442961E+03  0.00000000000E+00 0.  1.
         21    1    1    2  504  501  0.25205326690E+02 -0.53951576592E+02  0.45784922691E+03  0.46170552920E+03  0.00000000000E+00 0. -1.
         21    1    1    2  505  503  0.29636871893E+02 -0.19927228904E+02  0.13356464009E+04  0.13361237768E+04  0.00000000000E+00 0.  1.
          2    1    1    2  501    0  0.43308671063E+02  0.65458750703E+02  0.21467907166E+04  0.21482250511E+04  0.00000000000E+00 0.  1.
<scales pt_clust_3="14000.00000" pt_clust_4="64.34919" pt_clust_5="35.71328" pt_clust_6="81.24567"></scales>
<clustering>
<clus scale="   35.713">  1  5  2 -1</clus>
<clus scale="   64.349">  2  4  1 -1</clus>
<clus scale="   81.246">  1  6  2 -1</clus>
<clus scale="   64.349">  2  3  1 -1</clus>
</clustering>
</event>
<event>
 6    0  0.2839294E+002  0.7342177E+02  0.7546771E-02  0.1348829E+00
         21   -1    0    0  504  502  0.00000000000E+00  0.00000000000E+00  0.11750922254E+04  0.11750922254E+04  0.00000000000E+00 0.  1.
         -2   -1    0    0    0  501 -0.00000000000E+00 -0.00000000000E+00 -0.54987691950E+02  0.54987691950E+02  0.00000000000E+00 0.  1.
         21    1    1    2  503  502  0.19110124321E+02 -0.11294060444E+03  0.14159456478E+03  0.18212577456E+03  0.00000000000E+00 0.  1.
         21    1    1    2  504  505  0.32524493290E+02  0.49889215649E+02  0.88780566264E+03  0.88980091657E+03  0.00000000000E+00 0.  1.
         21    1    1    2  505  501  0.11621182342E+02  0.54816397819E+02  0.72858539340E+02  0.91914395519E+02  0.00000000000E+00 0.  1.
         -2    1    1    2    0  503 -0.63255799953E+02  0.82349909718E+01  0.17845766679E+02  0.66238830699E+02  0.00000000000E+00 0.  1.
<scales pt_clust_3="14000.00000" pt_clust_4="60.70344" pt_clust_5="56.03472" pt_clust_6="73.42177"></scales>
<clustering>
<clus scale="   56.035">  2  5  1 -1</clus>
<clus scale="   60.703">  1  4  2 -1</clus>
<clus scale="   73.422">  2  6  1 -1</clus>
<clus scale="   60.703">  1  3  2 -1</clus>
</clustering>
</event>
<event>
 6    0  0.2839294E+002  0.1323621E+03  0.7546771E-02  0.1223992E+00
         21   -1    0    0  505  502  0.00000000000E+00  0.00000000000E+00  0.12160148984E+03  0.12160148984E+03  0.00000000000E+00 0. -1.
         -2   -1    0    0    0  501 -0.00000000000E+00 -0.00000000000E+00 -0.20348291399E+04  0.20348291399E+04  0.00000000000E+00 0. -1.
         21    1    1    2  503  502  0.33914709304E+02 -0.89762581801E+01  0.10033707076E+03  0.10629350162E+03  0.00000000000E+00 0. -1.
         21    1    1    2  504  503 -0.23985085189E+02 -0.43608594236E+02 -0.43205426670E+03  0.43491135094E+03  0.00000000000E+00 0. -1.
         21    1    1    2  505  501  0.37915934331E+02  0.11134646432E+03 -0.20286351487E+03  0.23449788669E+03  0.00000000000E+00 0.  1.
         -2    1    1    2    0  504 -0.47845558446E+02 -0.58761611907E+02 -0.13786469392E+04  0.13807278905E+04  0.00000000000E+00 0. -1.
<scales pt_clust_3="35.08248" pt_clust_4="38.56733" pt_clust_5="123.49910" pt_clust_6="38.56733"></scales>
<clustering>
<clus scale="   35.082">  1  3  2 -1</clus>
<clus scale="   38.567">  4  6 -1 -1</clus>
<clus scale="  123.499">  1  5  2 -1</clus>
<clus scale="   35.082">  1  3  2 -1</clus>
</clustering>
</event>
<event>
 6    0  0.2839294E+002  0.1421623E+03  0.7546771E-02  0.1210449E+00
          2   -1    0    0  503    0 -0.00000000000E+00  0.00000000000E+00  0.13834660910E+04  0.13834660910E+04  0.00000000000E+00 0.  1.
         21   -1    0    0  504  502  0.00000000000E+00 -0.00000000000E+00 -0.49111601773E+03  0.49111601773E+03  0.00000000000E+00 0. -1.
         21    1    1    2  503  505  0.10463786504E+03 -0.90714496758E+02  0.23917562302E+03  0.27637507371E+03  0.00000000000E+00 0.  1.
         21    1    1    2  504  501 -0.31210031951E+02 -0.20889060106E+02 -0.17263040246E+02  0.41333176566E+02  0.00000000000E+00 0.  1.
         21    1    1    2  505  502 -0.10122870242E+03  0.77294971730E+02 -0.43361770569E+03  0.45193592193E+03  0.00000000000E+00 0. -1.
          2    1    1    2  501    0  0.27800869340E+02  0.34308585133E+02  0.11040551962E+04  0.11049379366E+04  0.00000000000E+00 0.  1.
<scales pt_clust_3="14000.00000" pt_clust_4="37.55554" pt_clust_5="142.16226" pt_clust_6="44.12415"></scales>
<clustering>
<clus scale="   37.556">  2  4  1 -1</clus>
<clus scale="   44.124">  1  6  2 -1</clus>
<clus scale="  142.162">  2  5  1 -1</clus>
<clus scale="   37.556">  2  3  1 -1</clus>
</clustering>
</event>
<event>
 6    0  0.2839294E+002  0.1161838E+03  0.7546771E-02  0.1249529E+00
         21   -1    0    0  504  502  0.00000000000E+00  0.00000000000E+00  0.10590391293E+03  0.10590391293E+03  0.00000000000E+00 0. -1.
         -4   -1    0    0    0  501 -0.00000000000E+00 -0.00000000000E+00 -0.12876846966E+04  0.12876846966E+04  0.00000000000E+00 0.  1.
         21    1    1    2  503  501  0.63325626598E+02  0.70158398853E+02 -0.28227698128E+03  0.29767873635E+03  0.00000000000E+00 0.  1.
         21    1    1    2  504  503  0.28814450653E+02  0.20558973162E+02  0.19203481780E+02  0.40270555700E+02  0.00000000000E+00 0. -1.
         21    1    1    2  505  502  0.51847574373E+02 -0.78921266923E+02  0.27590767850E+02  0.98376764593E+02  0.00000000000E+00 0. -1.
         -4    1    1    2    0  505 -0.14398765162E+03 -0.11796105092E+02 -0.94629805205E+03  0.95726255292E+03  0.00000000000E+00 0.  1.
<scales pt_clust_3="14000.00000" pt_clust_4="35.39695" pt_clust_5="97.77955" pt_clust_6="116.18376"></scales>
<clustering>
<clus scale="   35.397">  1  4  2 -1</clus>
<clus scale="   97.780">  1  5  2 -1</clus>
<clus scale="  116.184">  2  6  1 -1</clus>
<clus scale="   35.397">  1  3  2 -1</clus>
</clustering>
</event>
<event>
 6    0  0.2839294E+002  0.1195668E+03  0.7546771E-02  0.1243813E+00
          3   -1    0    0  503    0 -0.00000000000E+00  0.00000000000E+00  0.20300459589E+04  0.20300459589E+04  0.00000000000E+00 0. -1.
         21   -1    0    0  504  502  0.00000000000E+00 -0.00000000000E+00 -0.35994983075E+03  0.35994983075E+03  0.00000000000E+00 0. -1.
         21    1    1    2  503  502 -0.85713018376E+02 -0.64734721890E+01 -0.33122037357E+03  0.34219228984E+03  0.00000000000E+00 0. -1.
         21    1    1    2  504  505 -0.36524504592E+02 -0.24720058785E+01 -0.43452174096E+01  0.36865039849E+02  0.00000000000E+00 0.  1.
         21    1    1    2  505  501  0.64696487058E+02 -0.17985442397E+02  0.58219880377E+03  0.58605849426E+03  0.00000000000E+00 0. -1.
          3    1    1    2  501    0  0.57541035910E+02  0.26930920465E+02  0.14234629153E+04  0.14248799657E+04  0.00000000000E+00 0. -1.
<scales pt_clust_3="14000.00000" pt_clust_4="36.60806" pt_clust_5="119.56682" pt_clust_6="63.46020"></scales>
<clustering>
<clus scale="   36.608">  2  4  1 -1</clus>
<clus scale="   63.460">  1  6  2 -1</clus>
<clus scale="  119.567">  1  5  2 -1</clus>
<clus scale="   36.608">  2  3  1 -1</clus>
</clustering>
</event>
<event>
 6    0  0.2839294E+002  0.8033983E+02  0.7546771E-02  0.1328090E+00
          1   -1    0    0  505    0 -0.00000000000E+00  0.00000000000E+00  0.13165555514E+04  0.13165555514E+04  0.00000000000E+00 0.  1.
         21   -1    0    0  503  502  0.00000000000E+00 -0.00000000000E+00 -0.10898237868E+03  0.10898237868E+03  0.00000000000E+00 0.  1.
         21    1    1    2  503  501 -0.60989342195E+02  0.71677394698E+02 -0.65641561283E+02  0.11474390328E+03  0.00000000000E+00 0.  1.
         21    1    1    2  504  502  0.43432466455E+02  0.50635043548E+01  0.18395018383E+02  0.47438327543E+02  0.00000000000E+00 0. -1.
         21    1    1    2  505  504 -0.17895248457E+02  0.26087101423E+02  0.15662979901E+03  0.15979258655E+03  0.00000000000E+00 0. -1.
          1    1    1    2  501    0  0.35452124197E+02 -0.10282800048E+03  0.10981899166E+04  0.11035631127E+04  0.00000000000E+00 0.  1.
<scales pt_clust_3="80.33983" pt_clust_4="43.31467" pt_clust_5="31.63506" pt_clust_6="14000.00000"></scales>
<clustering>
<clus scale="   31.635">  1  5  2 -1</clus>
<clus scale="   43.315">  2  4  1 -1</clus>
<clus scale="   80.340">  2  3  1 -1</clus>
<clus scale="   43.315">  2  3  1 -1</clus>
</clustering>
</event>
<event>
 6    0  0.2839294E+002  0.9209734E+02  0.7546771E-02  0.1297851E+00
          2   -1    0    0  505    0 -0.00000000000E+00  0.00000000000E+00  0.12265264056E+04  0.12265264056E+04  0.00000000000E+00 0. -1.
         21   -1    0    0  504  502  0.00000000000E+00 -0.00000000000E+00 -0.61675648233E+03  0.61675648233E+03  0.00000000000E+00 0. -1.
         21    1    1    2  503  502 -0.49119933249E+01  0.62115517635E+02 -0.47940664843E+03  0.48343893076E+03  0.00000000000E+00 0. -1.
         21    1    1    2  504  501 -0.59509264750E+01 -0.35733962454E+02 -0.78583483559E+02  0.86531459522E+02  0.00000000000E+00 0. -1.
         21    1    1    2  505  503 -0.74858214432E+02  0.91232076350E+01 -0.23078811469E+02  0.78864546688E+02  0.00000000000E+00 0.  1.
          2    1    1    2  501    0  0.85721134232E+02 -0.35504762816E+02  0.11908388668E+04  0.11944479510E+04  0.00000000000E+00 0. -1.
<scales pt_clust_3="31.62747" pt_clust_4="36.22609" pt_clust_5="92.09734" pt_clust_6="14000.00000"></scales>
<clustering>
<clus scale="   36.226">  2  4  1 -1</clus>
<clus scale="   31.627">  2  3  1 -1</clus>
<clus scale="   92.097">  2  5  1 -1</clus>
<clus scale="   36.226">  2  3  1 -1</clus>
</clustering>
</event>
<event>
 6    0  0.2839294E+002  0.4029267E+03  0.7546771E-02  0.1042771E+00
          2   -1    0    0  505    0 -0.00000000000E+00  0.00000000000E+00  0.14248534886E+04  0.14248534886E+04  0.00000000000E+00 0. -1.
         21   -1    0    0  503  502  0.00000000000E+00 -0.00000000000E+00 -0.24914563341E+03  0.24914563341E+03  0.00000000000E+00 0.  1.
         21    1    1    2  503  504  0.97750510432E+02  0.38361434152E+03 -0.71789531983E+01  0.39593770050E+03  0.00000000000E+00 0.  1.
         21    1    1    2  504  501  0.86615685022E+00 -0.13724430540E+03  0.33799759338E+03  0.36480011338E+03  0.00000000000E+00 0.  1.
         21    1    1    2  505  502 -0.36112761952E+02  0.98650764148E+01  0.11545143540E+02  0.39175778841E+02  0.00000000000E+00 0. -1.
          2    1    1    2  501    0 -0.62503905331E+02 -0.25623511254E+03  0.83334407148E+03  0.87408552931E+03  0.00000000000E+00 0. -1.
<scales pt_clust_3="397.71709" pt_clust_4="46.49975" pt_clust_5="37.43596" pt_clust_6="46.49975"></scales>
<clustering>
<clus scale="   37.436">  2  5  1 -1</clus>
<clus scale="   46.500">  4  6 -1 -1</clus>
<clus scale="  397.717">  2  3  1 -1</clus>
<clus scale="   37.436">  2  3  1 -1</clus>
</clustering>
</event>
<event>
 6    0  0.2839294E+002  0.1608267E+03  0.7546771E-02  0.1187767E+00
         21   -1    0    0  501  502  0.00000000000E+00  0.00000000000E+00  0.93083632938E+02  0.93083632938E+02  0.00000000000E+00 0.  1.
          1   -1    0    0  504    0 -0.00000000000E+00 -0.00000000000E+00 -0.79270859180E+03  0.79270859180E+03  0.00000000000E+00 0.  1.
         21    1    1    2  503  505  0.58172636248E+02  0.18175003976E+02 -0.28940326175E+02  0.67467983938E+02  0.00000000000E+00 0. -1.
         21    1    1    2  504  503  0.80586500605E+02 -0.11251262314E+03 -0.27468609796E+03  0.30758043965E+03  0.00000000000E+00 0.  1.
         21    1    1    2  505  502 -0.72649620002E+01 -0.42190953273E+02  0.24620060869E+02  0.49386269429E+02  0.00000000000E+00 0.  1.
          1    1    1    2  501    0 -0.13149417485E+03  0.13652857243E+03 -0.42061859560E+03  0.46135753172E+03  0.00000000000E+00 0.  1.
<scales pt_clust_3="55.79873" pt_clust_4="160.82667" pt_clust_5="42.81187" pt_clust_6="14000.00000"></scales>
<clustering>
<clus scale="   42.812">  1  5  2 -1</clus>
<clus scale="   55.799">  1  3  2 -1</clus>
<clus scale="  160.827">  2  4  1 -1</clus>
<clus scale="   42.812">  1  3  2 -1</clus>
</clustering>
</event>
<event>
 6    0  0.2839294E+002  0.6634521E+02  0.7546771E-02  0.1372982E+00
         21   -1    0    0  503  502  0.00000000000E+00  0.00000000000E+00  0.77836907611E+03  0.77836907611E+03  0.00000000000E+00 0.  1.
         -3   -1    0    0    0  501 -0.00000000000E+00 -0.00000000000E+00 -0.43454192535E+03  0.43454192535E+03  0.00000000000E+00 0. -1.
         21    1    1    2  503  505 -0.14446329387E+00 -0.31728519516E+02  0.71402378482E+03  0.71472839954E+03  0.00000000000E+00 0.  1.
         21    1    1    2  504  501  0.30106710724E+02 -0.43617454775E+02 -0.14381033603E+03  0.15326548581E+03  0.00000000000E+00 0. -1.
         21    1    1    2  505  504  0.44735502052E+02 -0.19751426550E+02  0.32817476729E+02  0.58892875405E+02  0.00000000000E+00 0. -1.
         -3    1    1    2    0  502 -0.74697749481E+02  0.95097400841E+02 -0.25920377476E+03  0.28602424071E+03  0.00000000000E+00 0. -1.
<scales pt_clust_3="31.72885" pt_clust_4="54.93838" pt_clust_5="66.34521" pt_clust_6="14000.00000"></scales>
<clustering>
<clus scale="   31.729">  1  3  2 -1</clus>
<clus scale="   54.938">  2  4  1 -1</clus>
<clus scale="   66.345">  1  5  2 -1</clus>
<clus scale="   31.729">  1  3  2 -1</clus>
</clustering>
</event>
<event>
 6    0  0.2839294E+002  0.2299128E+03  0.7546771E-02  0.1126701E+00
          2   -1    0    0  504    0 -0.00000000000E+00  0.00000000000E+00  0.36657271865E+04  0.36657271865E+04  0.00000000000E+00 0.  1.
         21   -1    0    0  505  502  0.00000000000E+00 -0.00000000000E+00 -0.62077056166E+02  0.62077056166E+02  0.00000000000E+00 0.  1.
         21    1    1    2  503  501  0.45296368672E+02  0.13909313151E+02  0.60161224686E+03  0.60347537280E+03  0.00000000000E+00 0.  1.
         21    1    1    2  504  502 -0.17598859836E+03 -0.10509782937E+03  0.17340746642E+04  0.17461478980E+04  0.00000000000E+00 0.  1.
         21    1    1    2  505  503 -0.45031941730E+02  0.45837817671E+01 -0.37081269966E+02  0.58514164214E+02  0.00000000000E+00 0.  1.
          2    1    1    2  501    0  0.17572417142E+03  0.86604734453E+02  0.13050444892E+04  0.13196668077E+04  0.00000000000E+00 0.  1.
<scales pt_clust_3="31.80706" pt_clust_4="220.62889" pt_clust_5="45.26463" pt_clust_6="31.80706"></scales>
<clustering>
<clus scale="   31.807">  3  6 -1 -1</clus>
<clus scale="   45.265">  2  5  1 -1</clus>
<clus scale="  220.629">  1  4  2 -1</clus>
<clus scale="   45.265">  2  3  1 -1</clus>
</clustering>
</event>
<event>
 6    0  0.2839294E+002  0.1295570E+03  0.7546771E-02  0.1228115E+00
          2   -1    0    0  503    0 -0.00000000000E+00  0.00000000000E+00  0.28750150158E+04  0.28750150158E+04  0.00000000000E+00 0. -1.
         21   -1    0    0  504  502  0.00000000000E+00 -0.00000000000E+00 -0.20947273372E+02  0.20947273372E+02  0.00000000000E+00 0. -1.
         21    1    1    2  503  505 -0.14397025568E+02  0.12969401469E+03  0.31378982318E+03  0.33984094062E+03  0.00000000000E+00 0. -1.
         21    1    1    2  504  501  0.21061254458E+02 -0.41646326825E+02  0.57025749186E+03  0.57216396251E+03  0.00000000000E+00 0. -1.
         21    1    1    2  505  502 -0.34403765863E+02 -0.19004440589E+02  0.55587663260E+02  0.68079190465E+02  0.00000000000E+00 0.  1.
          2    1    1    2  501    0  0.27739536973E+02 -0.69043247271E+02  0.19144327642E+04  0.19158781956E+04  0.00000000000E+00 0. -1.
<scales pt_clust_3="121.45203" pt_clust_4="35.72118" pt_clust_5="39.30379" pt_clust_6="35.72118"></scales>
<clustering>
<clus scale="   35.721">  4  6 -1 -1</clus>
<clus scale="   39.304">  2  5  1 -1</clus>
<clus scale="  121.452">  2  3  1 -1</clus>
<clus scale="   39.304">  2  3  1 -1</clus>
</clustering>
</event>
<event>
 6    0  0.2839294E+002  0.8698405E+02  0.7546771E-02  0.1310324E+00
          1   -1    0    0  504    0 -0.00000000000E+00  0.00000000000E+00  0.12622670029E+04  0.12622670029E+04  0.00000000000E+00 0. -1.
         21   -1    0    0  503  502  0.00000000000E+00 -0.00000000000E+00 -0.82164496457E+02  0.82164496457E+02  0.00000000000E+00 0.  1.
         21    1    1    2  503  501 -0.59135525188E+02 -0.37973829826E+02  0.10851647517E+02  0.71111042354E+02  0.00000000000E+00 0.  1.
         21    1    1    2  504  505 -0.26144160390E+02  0.26478222083E+02  0.32341434089E+03  0.32554792161E+03  0.00000000000E+00 0. -1.
         21    1    1    2  505  502  0.12713146460E+03  0.11137233783E+02  0.30304298014E+02  0.13116706044E+03  0.00000000000E+00 0.  1.
          1    1    1    2  501    0 -0.41851779018E+02  0.35837395969E+00  0.81553222007E+03  0.81660547500E+03  0.00000000000E+00 0. -1.
<scales pt_clust_3="14000.00000" pt_clust_4="37.21039" pt_clust_5="86.98405" pt_clust_6="68.70996"></scales>
<clustering>
<clus scale="   37.210">  1  4  2 -1</clus>
<clus scale="   68.710">  1  6  2 -1</clus>
<clus scale="   86.984">  1  5  2 -1</clus>
<clus scale="   86.984">  2  3  1 -1</clus>
</clustering>
</event>
<event>
 6    0  0.2839294E+002  0.1746529E+03  0.7546771E-02  0.1173081E+00
          2   -1    0    0  504    0 -0.00000000000E+00  0.00000000000E+00  0.17925289177E+03  0.17925289177E+03  0.00000000000E+00 0.  1.
         21   -1    0    0  501  502  0.00000000000E+00 -0.00000000000E+00 -0.12373323928E+04  0.12373323928E+04  0.00000000000E+00 0. -1.
         21    1    1    2  503  502  0.69091431838E+02  0.44821980126E+02 -0.46992866922E+03  0.47709075658E+03  0.00000000000E+00 0. -1.
         21    1    1    2  504  505  0.13510505953E+03 -0.10001281905E+03  0.10261932838E+02  0.16840798185E+03  0.00000000000E+00 0.  1.
         21    1    1    2  505  503 -0.10184447504E+03  0.14004548250E+03 -0.61332481380E+03  0.63730084065E+03  0.00000000000E+00 0. -1.
          2    1    1    2  501    0 -0.10235201633E+03 -0.84854643574E+02  0.14912049166E+02  0.13378570549E+03  0.00000000000E+00 0.  1.
<scales pt_clust_3="82.35676" pt_clust_4="174.65287" pt_clust_5="14000.00000" pt_clust_6="126.58926"></scales>
<clustering>
<clus scale="   82.357">  2  3  1 -1</clus>
<clus scale="  126.589">  1  6  2 -1</clus>
<clus scale="  174.653">  1  4  2 -1</clus>
<clus scale="   82.357">  2  3  1 -1</clus>
</clustering>
</event>
<event>
 6    0  0.2839294E+002  0.1109236E+03  0.7546771E-02  0.1258869E+00
         21   -1    0    0  504  502  0.00000000000E+00  0.00000000000E+00  0.27392101493E+03  0.27392101493E+03  0.00000000000E+00 0. -1.
          1   -1    0    0  503    0 -0.00000000000E+00 -0.00000000000E+00 -0.61883827067E+03  0.61883827067E+03  0.00000000000E+00 0. -1.
         21    1    1    2  503  505 -0.23131676335E+02 -0.12856796895E+03 -0.43221790135E+03  0.45152753110E+03  0.00000000000E+00 0. -1.
         21    1    1    2  504  501 -0.29695339001E+02  0.11626798962E+02  0.12275018846E+03  0.12682509365E+03  0.00000000000E+00 0. -1.
         21    1    1    2  505  502  0.79665619785E+01  0.38731420389E+02  0.12459143577E+03  0.13071577908E+03  0.00000000000E+00 0. -1.
          1    1    1    2  501    0  0.44860453358E+02  0.78209749598E+02 -0.16004097862E+03  0.18369088177E+03  0.00000000000E+00 0. -1.
<scales pt_clust_3="110.92363" pt_clust_4="31.89037" pt_clust_5="51.71708" pt_clust_6="14000.00000"></scales>
<clustering>
<clus scale="   31.890">  1  4  2 -1</clus>
<clus scale="   51.717">  1  5  2 -1</clus>
<clus scale="  110.924">  2  3  1 -1</clus>
<clus scale="   31.890">  1  3  2 -1</clus>
</clustering>
</event>
<event>
 6    0  0.2839294E+002  0.1207141E+03  0.7546771E-02  0.1241924E+00
         21   -1    0    0  503  502  0.00000000000E+00  0.00000000000E+00  0.37676320791E+03  0.37676320791E+03  0.00000000000E+00 0.  1.
          2   -1    0    0  505    0 -0.00000000000E+00 -0.00000000000E+00 -0.44391746450E+03  0.44391746450E+03  0.00000000000E+00 0. -1.
         21    1    1    2  503  501 -0.45772438635E+02  0.49356973063E+02 -0.93993339855E+01  0.67967451092E+02  0.00000000000E+00 0.  1.
         21    1    1    2  504  502  0.29925137054E+02 -0.12193162747E+03  0.32437729591E+03  0.34782677544E+03  0.00000000000E+00 0.  1.
         21    1    1    2  505  504 -0.42785490528E+02  0.50467230151E+02 -0.14109902562E+03  0.15584118374E+03  0.00000000000E+00 0. -1.
          2    1    1    2  501    0  0.58632792109E+02  0.22107424256E+02 -0.24103319289E+03  0.24904526214E+03  0.00000000000E+00 0. -1.
<scales pt_clust_3="63.71994" pt_clust_4="120.71406" pt_clust_5="14000.00000" pt_clust_6="62.66213"></scales>
<clustering>
<clus scale="   62.662">  2  6  1 -1</clus>
<clus scale="   63.720">  2  3  1 -1</clus>
<clus scale="  120.714">  1  4  2 -1</clus>
<clus scale="  120.714">  1  3  2 -1</clus>
</clustering>
</event>
<event>
 6    0  0.2839294E+002  0.8835299E+02  0.7546771E-02  0.1306890E+00
          2   -1    0    0  504    0 -0.00000000000E+00  0.00000000000E+00  0.12369680330E+03  0.12369680330E+03  0.00000000000E+00 0. -1.
         21   -1    0    0  505  502  0.00000000000E+00 -0.00000000000E+00 -0.26550425761E+04  0.26550425761E+04  0.00000000000E+00 0.  1.
         21    1    1    2  503  502  0.47697542454E+02 -0.40502429022E+02 -0.25011841848E+04  0.25019667921E+04  0.00000000000E+00 0.  1.
         21    1    1    2  504  503 -0.54352326571E+02 -0.19485184833E+02 -0.17105211464E+02  0.60219897799E+02  0.00000000000E+00 0.  1.
         21    1    1    2  505  501 -0.41191241584E+01 -0.37687148935E+02 -0.86122863390E+02  0.94098012610E+02  0.00000000000E+00 0.  1.
          2    1    1    2  501    0  0.10773908275E+02  0.97674762790E+02  0.73066486894E+02  0.12245467689E+03  0.00000000000E+00 0. -1.
<scales pt_clust_3="14000.00000" pt_clust_4="57.99191" pt_clust_5="37.91159" pt_clust_6="88.35299"></scales>
<clustering>
<clus scale="   37.912">  2  5  1 -1</clus>
<clus scale="   57.992">  1  4  2 -1</clus>
<clus scale="   88.353">  1  6  2 -1</clus>
<clus scale="   37.912">  2  3  1 -1</clus>
</clustering>
</event>
<event>
 6    0  0.2839294E+002  0.9276169E+02  0.7546771E-02  0.1296298E+00
          1   -1    0    0  503    0 -0.00000000000E+00  0.00000000000E+00  0.87428966417E+03  0.87428966417E+03  0.00000000000E+00 0. -1.
         21   -1    0    0  505  502  0.00000000000E+00 -0.00000000000E+00 -0.24020630804E+02  0.24020630804E+02  0.00000000000E+00 0. -1.
         21    1    1    2  503  502  0.22976414434E+02 -0.84058442436E+02  0.11896419334E+03  0.14746598477E+03  0.00000000000E+00 0. -1.
         21    1    1    2  504  501  0.30593501440E+02  0.45399421720E+02  0.29830163999E+03  0.30328359376E+03  0.00000000000E+00 0. -1.
         21    1    1    2  505  504  0.10617559477E+02  0.45227576494E+02  0.13890998306E+03  0.14647269247E+03  0.00000000000E+00 0. -1.
          1    1    1    2  501    0 -0.64187475350E+02 -0.65685557783E+01  0.29409321697E+03  0.30108802398E+03  0.00000000000E+00 0. -1.
<scales pt_clust_3="85.96291" pt_clust_4="32.11144" pt_clust_5="32.11144" pt_clust_6="64.52269"></scales>
<clustering>
<clus scale="   32.111">  4  5 -1 -1</clus>
<clus scale="   64.523">  1  6  2 -1</clus>
<clus scale="   85.963">  2  3  1 -1</clus>
<clus scale="   85.963">  2  3  1 -1</clus>
</clustering>
</event>
<event>
 6    0  0.2839294E+002  0.1479169E+03  0.7546771E-02  0.1203056E+00
         21   -1    0    0  503  502  0.00000000000E+00  0.00000000000E+00  0.26984381800E+02  0.26984381800E+02  0.00000000000E+00 0. -1.
          1   -1    0    0  505    0 -0.00000000000E+00 -0.00000000000E+00 -0.30230638956E+04  0.30230638956E+04  0.00000000000E+00 0. -1.
         21    1    1    2  503  504  0.16475393274E+02  0.77160335469E+02 -0.12079678537E+03  0.14428104279E+03  0.00000000000E+00 0. -1.
         21    1    1    2  504  501  0.43187688280E+02  0.82178244842E+01 -0.47928419110E+02  0.65037238692E+02  0.00000000000E+00 0. -1.
         21    1    1    2  505  502 -0.11131568587E+03 -0.10134581774E+03 -0.26719956975E+04  0.26762330176E+04  0.00000000000E+00 0. -1.
          1    1    1    2  501    0  0.51652604316E+02  0.15967657790E+02 -0.15535861174E+03  0.16449697830E+03  0.00000000000E+00 0. -1.
<scales pt_clust_3="78.89966" pt_clust_4="38.05257" pt_clust_5="141.76981" pt_clust_6="38.05257"></scales>
<clustering>
<clus scale="   38.053">  4  6 -1 -1</clus>
<clus scale="   78.900">  1  3  2 -1</clus>
<clus scale="  141.770">  2  5  1 -1</clus>
<clus scale="   78.900">  1  3  2 -1</clus>
</clustering>
</event>
<event>
 6    0  0.2839294E+002  0.1027018E+03  0.7546771E-02  0.1274715E+00
          2   -1    0    0  504    0 -0.00000000000E+00  0.00000000000E+00  0.19746444795E+04  0.19746444795E+04  0.00000000000E+00 0. -1.
         21   -1    0    0  503  502  0.00000000000E+00 -0.00000000000E+00 -0.11799270464E+03  0.11799270464E+03  0.00000000000E+00 0. -1.
         21    1    1    2  503  501  0.12520688672E+03  0.63113525770E+02 -0.40444915290E+02  0.14593105492E+03  0.00000000000E+00 0. -1.
         21    1    1    2  504  505 -0.69039875161E+02 -0.13827999919E+02  0.57945984748E+03  0.58372205096E+03  0.00000000000E+00 0. -1.
         21    1    1    2  505  502 -0.37849550361E+02 -0.52848262790E+01 -0.58304048271E+01  0.38658911932E+02  0.00000000000E+00 0.  1.
          2    1    1    2  501    0 -0.18317461202E+02 -0.44000699571E+02  0.13234672475E+04  0.13243251663E+04  0.00000000000E+00 0. -1.
<scales pt_clust_3="14000.00000" pt_clust_4="102.70177" pt_clust_5="38.21672" pt_clust_6="47.74847"></scales>
<clustering>
<clus scale="   38.217">  2  5  1 -1</clus>
<clus scale="   47.748">  1  6  2 -1</clus>
<clus scale="  102.702">  1  4  2 -1</clus>
<clus scale="   38.217">  2  3  1 -1</clus>
</clustering>
</event>
<event>
 6    0  0.2839294E+002  0.7514869E+02  0.7546771E-02  0.1343411E+00
         21   -1    0    0  503  502  0.00000000000E+00  0.00000000000E+00  0.71366439682E+03  0.71366439682E+03  0.00000000000E+00 0. -1.
         -1   -1    0    0    0  501 -0.00000000000E+00 -0.00000000000E+00 -0.85153308479E+02  0.85153308479E+02  0.00000000000E+00 0.  1.
         21    1    1    2  503  505  0.15655650159E+02 -0.41775396391E+02  0.26205420006E+03  0.26582454156E+03  0.00000000000E+00 0.  1.
         21    1    1    2  504  501  0.59811996371E+02  0.37254618332E+02  0.31208932003E+02  0.77067366205E+02  0.00000000000E+00 0. -1.
         21    1    1    2  505  504 -0.78110708964E+02  0.77776540819E+02  0.36160134855E+03  0.37802911056E+03  0.00000000000E+00 0. -1.
         -1    1    1    2    0  502  0.26430624338E+01 -0.73255762759E+02 -0.26353392279E+02  0.77896686971E+02  0.00000000000E+00 0.  1.
<scales pt_clust_3="44.61259" pt_clust_4="69.60581" pt_clust_5="75.14869" pt_clust_6="14000.00000"></scales>
<clustering>
<clus scale="   44.613">  1  3  2 -1</clus>
<clus scale="   69.606">  2  4  1 -1</clus>
<clus scale="   75.149">  1  5  2 -1</clus>
<clus scale="   44.613">  1  3  2 -1</clus>
</clustering>
</event>
<event>
 6    0  0.2839294E+002  0.1266750E+03  0.7546771E-02  0.1232474E+00
         -2   -1    0    0    0  501 -0.00000000000E+00  0.00000000000E+00  0.17061657962E+03  0.17061657962E+03  0.00000000000E+00 0. -1.
         21   -1    0    0  504  502  0.00000000000E+00 -0.00000000000E+00 -0.50810136871E+03  0.50810136871E+03  0.00000000000E+00 0.  1.
         21    1    1    2  503  502  0.24848372721E+02  0.57359199713E+02  0.41120606910E+02  0.74822615106E+02  0.00000000000E+00 0. -1.
         21    1    1    2  504  505 -0.48236954660E+01 -0.50561441114E+02 -0.31508557152E+02  0.59770532366E+02  0.00000000000E+00 0.  1.
         21    1    1    2  505  501 -0.64660701951E+02 -0.51261590062E+02 -0.43120907440E+03  0.43903305438E+03  0.00000000000E+00 0.  1.
         -2    1    1    2    0  503  0.44636024696E+02  0.44463831463E+02  0.84112235553E+02  0.10509174648E+03  0.00000000000E+00 0. -1.
<scales pt_clust_3="38.44790" pt_clust_4="50.79102" pt_clust_5="120.65098" pt_clust_6="38.44790"></scales>
<clustering>
<clus scale="   38.448">  3  6 -1 -1</clus>
<clus scale="   50.791">  2  4  1 -1</clus>
<clus scale="  120.651">  2  5  1 -1</clus>
<clus scale="   50.791">  2  3  1 -1</clus>
</clustering>
</event>
<event>
 6    0  0.2839294E+002  0.1325889E+03  0.7546771E-02  0.1223664E+00
         21   -1    0    0  504  502  0.00000000000E+00  0.00000000000E+00  0.24455444707E+02  0.24455444707E+02  0.00000000000E+00 0.  1.
         -2   -1    0    0    0  501 -0.00000000000E+00 -0.00000000000E+00 -0.19162175751E+04  0.19162175751E+04  0.00000000000E+00 0.  1.
         21    1    1    2  503  505  0.42724681963E+02 -0.53192517059E+02 -0.12619129696E+03  0.14345412420E+03  0.00000000000E+00 0.  1.
         21    1    1    2  504  503  0.14548859800E+02 -0.61770380998E+02 -0.81475019461E+02  0.10327355947E+03  0.00000000000E+00 0.  1.
         21    1    1    2  505  501  0.27810231646E+02  0.18501403707E+02 -0.78340582381E+03  0.78411759048E+03  0.00000000000E+00 0.  1.
         -2    1    1    2    0  502 -0.85083773409E+02  0.96461494350E+02 -0.90068999013E+03  0.90982774562E+03  0.00000000000E+00 0.  1.
<scales pt_clust_3="33.77434" pt_clust_4="33.77434" pt_clust_5="33.40226" pt_clust_6="127.77830"></scales>
<clustering>
<clus scale="   33.402">  2  5  1 -1</clus>
<clus scale="   33.774">  3  4 -1 -1</clus>
<clus scale="  127.778">  2  6  1 -1</clus>
<clus scale="  132.589">  1  3  2 -1</clus>
</clustering>
</event>
<event>
 6    0  0.2839294E+002  0.9363175E+02  0.7546771E-02  0.1294288E+00
          2   -1    0    0  503    0 -0.00000000000E+00  0.00000000000E+00  0.18209708952E+04  0.18209708952E+04  0.00000000000E+00 0.  1.
         21   -1    0    0  504  502  0.00000000000E+00 -0.00000000000E+00 -0.72770078500E+02  0.72770078500E+02  0.00000000000E+00 0.  1.
         21    1    1    2  503  502 -0.73265862031E+02 -0.72578918067E+01  0.93498394413E+02  0.11900635819E+03  0.00000000000E+00 0. -1.
         21    1    1    2  504  505  0.98314440489E+02  0.29660976031E+02 -0.12009669989E+02  0.10339117410E+03  0.00000000000E+00 0.  1.
         21    1    1    2  505  501 -0.85357406941E+01 -0.65499235600E+02  0.59831931076E+03  0.60195432248E+03  0.00000000000E+00 0. -1.
          2    1    1    2  501    0 -0.16512837764E+02  0.43096151375E+02  0.10683927816E+04  0.10693891190E+04  0.00000000000E+00 0.  1.
<scales pt_clust_3="14000.00000" pt_clust_4="93.63175" pt_clust_5="37.93749" pt_clust_6="46.15140"></scales>
<clustering>
<clus scale="   46.151">  1  6  2 -1</clus>
<clus scale="   37.937">  1  5  2 -1</clus>
<clus scale="   93.632">  2  4  1 -1</clus>
<clus scale="   93.632">  2  3  1 -1</clus>
</clustering>
</event>
<event>
 6    0  0.2839294E+002  0.1414401E+03  0.7546771E-02  0.1211404E+00
         21   -1    0    0  504  502  0.00000000000E+00  0.00000000000E+00  0.19881962050E+03  0.19881962050E+03  0.00000000000E+00 0.  1.
          2   -1    0    0  505    0 -0.00000000000E+00 -0.00000000000E+00 -0.21558998234E+04  0.21558998234E+04  0.00000000000E+00 0. -1.
         21    1    1    2  503  502 -0.13261528528E+03 -0.39273792937E+02  0.15887520164E+03  0.21064323962E+03  0.00000000000E+00 0.  1.
         21    1    1    2  504  501  0.15102636222E+02 -0.37975880792E+02 -0.38679357063E+02  0.56270327932E+02  0.00000000000E+00 0.  1.
         21    1    1    2  505  503 -0.38047258310E+02  0.17313325533E+02 -0.50005125463E+03  0.50179537898E+03  0.00000000000E+00 0.  1.
          2    1    1    2  501    0  0.15555990737E+03  0.59936348195E+02 -0.15772247928E+04  0.15860104973E+04  0.00000000000E+00 0. -1.
<scales pt_clust_3="14000.00000" pt_clust_4="40.86878" pt_clust_5="41.66619" pt_clust_6="141.44008"></scales>
<clustering>
<clus scale="   40.869">  1  4  2 -1</clus>
<clus scale="   41.666">  2  5  1 -1</clus>
<clus scale="  141.440">  2  6  1 -1</clus>
<clus scale="   40.869">  1  3  2 -1</clus>
</clustering>
</event>
<event>
 6    0  0.2839294E+002  0.1240697E+03  0.7546771E-02  0.1236530E+00
         21   -1    0    0  505  502  0.00000000000E+00  0.00000000000E+00  0.15631044804E+03  0.15631044804E+03  0.00000000000E+00 0.  1.
          3   -1    0    0  502    0 -0.00000000000E+00 -0.00000000000E+00 -0.87979938036E+03  0.87979938036E+03  0.00000000000E+00 0.  1.
         21    1    1    2  503  504  0.15482070542E+02  0.79920978070E+02 -0.98754503496E+01  0.82003547262E+02  0.00000000000E+00 0.  1.
         21    1    1    2  504  501 -0.29022100073E+02 -0.25087110229E+02 -0.12918142256E+03  0.13475713461E+03  0.00000000000E+00 0. -1.
         21    1    1    2  505  503  0.77854259603E+02 -0.50895524095E+01  0.10183240245E+03  0.12828494639E+03  0.00000000000E+00 0.  1.
          3    1    1    2  501    0 -0.64314230072E+02 -0.49744315432E+02 -0.68626446185E+03  0.69106420014E+03  0.00000000000E+00 0.  1.
<scales pt_clust_3="112.58688" pt_clust_4="35.80714" pt_clust_5="78.02044" pt_clust_6="35.80714"></scales>
<clustering>
<clus scale="   35.807">  4  6 -1 -1</clus>
<clus scale="   78.020">  1  5  2 -1</clus>
<clus scale="  112.587">  1  3  2 -1</clus>
<clus scale="   78.020">  1  3  2 -1</clus>
</clustering>
</event>
<event>
 6    0  0.2839294E+002  0.9662611E+02  0.7546771E-02  0.1287555E+00
          1   -1    0    0  503    0 -0.00000000000E+00  0.00000000000E+00  0.86646011122E+03  0.86646011122E+03  0.00000000000E+00 0.  1.
         21   -1    0    0  504  502  0.00000000000E+00 -0.00000000000E+00 -0.48059767679E+02  0.48059767679E+02  0.00000000000E+00 0.  1.
         21    1    1    2  503  505 -0.18660459069E+01  0.34495731260E+02  0.31621053632E+03  0.31809203209E+03  0.00000000000E+00 0.  1.
         21    1    1    2  504  501 -0.32647031825E+02 -0.47945533775E+02  0.45250480971E+01  0.58181431369E+02  0.00000000000E+00 0.  1.
         21    1    1    2  505  502 -0.75249702206E+02  0.88199967690E+01  0.98667575106E+02  0.12440096624E+03  0.00000000000E+00 0.  1.
          1    1    1    2  501    0  0.10976277994E+03  0.46298057463E+01  0.39899718402E+03  0.41384544919E+03  0.00000000000E+00 0.  1.
<scales pt_clust_3="34.54617" pt_clust_4="56.45035" pt_clust_5="14000.00000" pt_clust_6="96.62611"></scales>
<clustering>
<clus scale="   34.546">  1  3  2 -1</clus>
<clus scale="   56.450">  2  4  1 -1</clus>
<clus scale="   96.626">  1  6  2 -1</clus>
<clus scale="   56.450">  2  3  1 -1</clus>
</clustering>
</event>
<event>
 6    0  0.2839294E+002  0.1568836E+03  0.7546771E-02  0.1192261E+00
          2   -1    0    0  503    0 -0.00000000000E+00  0.00000000000E+00  0.14881783704E+04  0.14881783704E+04  0.00000000000E+00 0. -1.
         21   -1    0    0  504  502  0.00000000000E+00 -0.00000000000E+00 -0.45259820835E+03  0.45259820835E+03  0.00000000000E+00 0.  1.
         21    1    1    2  503  502 -0.31494857309E+02 -0.75546934142E+01  0.11688853246E+02  0.34432959787E+02  0.00000000000E+00 0.  1.
         21    1    1    2  504  505  0.46203857922E+01  0.82871182319E+02 -0.14627775011E+03  0.16818490123E+03  0.00000000000E+00 0.  1.
         21    1    1    2  505  501  0.11187614860E+03  0.57423907846E+02 -0.26554597067E+03  0.29381701849E+03  0.00000000000E+00 0.  1.
          2    1    1    2  501    0 -0.85001677079E+02 -0.13274039675E+03  0.14357150296E+04  0.14443416992E+04  0.00000000000E+00 0. -1.
<scales pt_clust_3="32.38826" pt_clust_4="80.45048" pt_clust_5="14000.00000" pt_clust_6="156.88364"></scales>
<clustering>
<clus scale="   32.388">  2  3  1 -1</clus>
<clus scale="   80.450">  2  4  1 -1</clus>
<clus scale="  156.884">  1  6  2 -1</clus>
<clus scale="   32.388">  2  3  1 -1</clus>
</clustering>
</event>
<event>
 6    0  0.2839294E+002  0.2297588E+03  0.7546771E-02  0.1126810E+00
          4   -1    0    0  504    0 -0.00000000000E+00  0.00000000000E+00  0.10398524922E+04  0.10398524922E+04  0.00000000000E+00 0.  1.
         21   -1    0    0  505  502  0.00000000000E+00 -0.00000000000E+00 -0.55575344100E+03  0.55575344100E+03  0.00000000000E+00 0.  1.
         21    1    1    2  503  501 -0.10680796342E+03 -0.92067735110E+02 -0.22893075033E+03  0.26887487303E+03  0.00000000000E+00 0.  1.
         21    1    1    2  504  502  0.28917441945E+02 -0.10383920283E+02  0.93502738317E+02  0.98421574474E+02  0.00000000000E+00 0.  1.
         21    1    1    2  505  503 -0.44062733489E+02 -0.57069548971E+02 -0.28899964494E+03  0.29785777256E+03  0.00000000000E+00 0.  1.
          4    1    1    2  501    0  0.12195325496E+03  0.15952120436E+03  0.90852670812E+03  0.93045171310E+03  0.00000000000E+00 0.  1.
<scales pt_clust_3="63.72915" pt_clust_4="30.72530" pt_clust_5="63.72915" pt_clust_6="211.79949"></scales>
<clustering>
<clus scale="   30.725">  1  4  2 -1</clus>
<clus scale="   63.729">  3  5 -1 -1</clus>
<clus scale="  211.799">  1  6  2 -1</clus>
<clus scale="  229.759">  2  3  1 -1</clus>
</clustering>
</event>
<event>
 6    0  0.2839294E+002  0.1219765E+03  0.7546771E-02  0.1239872E+00
          1   -1    0    0  505    0 -0.00000000000E+00  0.00000000000E+00  0.67282617738E+03  0.67282617738E+03  0.00000000000E+00 0.  1.
         21   -1    0    0  504  502  0.00000000000E+00 -0.00000000000E+00 -0.13949209177E+03  0.13949209177E+03  0.00000000000E+00 0. -1.
         21    1    1    2  503  502  0.29718063300E+02  0.25981953419E+02 -0.42174081925E+02  0.57765719730E+02  0.00000000000E+00 0. -1.
         21    1    1    2  504  501  0.69600936076E+02 -0.10757377414E+03 -0.30245580937E+02  0.13164802449E+03  0.00000000000E+00 0. -1.
         21    1    1    2  505  503 -0.33161115566E+02  0.15143784531E+02  0.32205288897E+03  0.32410963746E+03  0.00000000000E+00 0.  1.
          1    1    1    2  501    0 -0.66157883811E+02  0.66448036188E+02  0.28370085949E+03  0.29879488747E+03  0.00000000000E+00 0.  1.
<scales pt_clust_3="39.14707" pt_clust_4="14000.00000" pt_clust_5="36.45537" pt_clust_6="121.97647"></scales>
<clustering>
<clus scale="   36.455">  1  5  2 -1</clus>
<clus scale="   39.147">  2  3  1 -1</clus>
<clus scale="  121.976">  1  6  2 -1</clus>
<clus scale="   39.147">  2  3  1 -1</clus>
</clustering>
</event>
<event>
 6    0  0.2839294E+002  0.6630140E+02  0.7546771E-02  0.1373142E+00
         21   -1    0    0  503  502  0.00000000000E+00  0.00000000000E+00  0.49431568307E+02  0.49431568307E+02  0.00000000000E+00 0. -1.
          2   -1    0    0  504    0 -0.00000000000E+00 -0.00000000000E+00 -0.76587670593E+03  0.76587670593E+03  0.00000000000E+00 0. -1.
         21    1    1    2  503  501  0.64952328093E+02 -0.70226581179E+01 -0.46742870221E+02  0.80330682608E+02  0.00000000000E+00 0. -1.
         21    1    1    2  504  505  0.11606562190E+02 -0.39621168413E+02 -0.14772188408E+03  0.15338286837E+03  0.00000000000E+00 0.  1.
         21    1    1    2  505  502 -0.63713704561E+02 -0.34613488767E+02 -0.23279814433E+02  0.76154313821E+02  0.00000000000E+00 0. -1.
          2    1    1    2  501    0 -0.12845185722E+02  0.81257315297E+02 -0.49870056889E+03  0.50544040944E+03  0.00000000000E+00 0. -1.
<scales pt_clust_3="66.30140" pt_clust_4="41.28619" pt_clust_5="14000.00000" pt_clust_6="49.04490"></scales>
<clustering>
<clus scale="   41.286">  2  4  1 -1</clus>
<clus scale="   49.045">  2  6  1 -1</clus>
<clus scale="   66.301">  2  3  1 -1</clus>
<clus scale="   66.301">  1  3  2 -1</clus>
</clustering>
</event>
<event>
 6    0  0.2839294E+002  0.6166139E+02  0.7546771E-02  0.1390989E+00
         -2   -1    0    0    0  501 -0.00000000000E+00  0.00000000000E+00  0.89808437834E+02  0.89808437834E+02  0.00000000000E+00 0.  1.
         21   -1    0    0  504  502  0.00000000000E+00 -0.00000000000E+00 -0.98893509856E+03  0.98893509856E+03  0.00000000000E+00 0.  1.
         21    1    1    2  503  505  0.10139729044E+03 -0.19676020494E+02 -0.10985083983E+03  0.15078382971E+03  0.00000000000E+00 0.  1.
         21    1    1    2  504  501 -0.39045912392E+02 -0.33913528600E+02 -0.73898799108E+02  0.90198354787E+02  0.00000000000E+00 0.  1.
         21    1    1    2  505  502 -0.55081158405E+01  0.46078029868E+02 -0.76227549605E+03  0.76368675257E+03  0.00000000000E+00 0.  1.
         -2    1    1    2    0  503 -0.56843262204E+02  0.75115192265E+01  0.46898474253E+02  0.74074599333E+02  0.00000000000E+00 0.  1.
<scales pt_clust_3="14000.00000" pt_clust_4="44.49702" pt_clust_5="46.40608" pt_clust_6="61.66139"></scales>
<clustering>
<clus scale="   46.406">  2  5  1 -1</clus>
<clus scale="   44.497">  2  4  1 -1</clus>
<clus scale="   61.661">  1  6  2 -1</clus>
<clus scale="   46.406">  2  3  1 -1</clus>
</clustering>
</event>
<event>
 6    0  0.2839294E+002  0.8132952E+02  0.7546771E-02  0.1325320E+00
         21   -1    0    0  504  502  0.00000000000E+00  0.00000000000E+00  0.43251479715E+02  0.43251479715E+02  0.00000000000E+00 0.  1.
         -1   -1    0    0    0  501 -0.00000000000E+00 -0.00000000000E+00 -0.20504180951E+04  0.20504180951E+04  0.00000000000E+00 0.  1.
         21    1    1    2  503  501  0.13651743263E+02 -0.71764198823E+02 -0.15012729670E+04  0.15030492313E+04  0.00000000000E+00 0.  1.
         21    1    1    2  504  503  0.24704303388E+02  0.85538016093E+02 -0.10639006529E+03  0.13872959596E+03  0.00000000000E+00 0.  1.
         21    1    1    2  505  502 -0.64750457977E+02 -0.51694778012E+02 -0.44801199137E+02  0.94191928136E+02  0.00000000000E+00 0.  1.
         -1    1    1    2    0  505  0.26394411326E+02  0.37920960741E+02 -0.35470238395E+03  0.35769881939E+03  0.00000000000E+00 0.  1.
<scales pt_clust_3="53.17720" pt_clust_4="81.32952" pt_clust_5="14000.00000" pt_clust_6="46.20243"></scales>
<clustering>
<clus scale="   46.202">  2  6  1 -1</clus>
<clus scale="   53.177">  2  3  1 -1</clus>
<clus scale="   81.330">  2  4  1 -1</clus>
<clus scale="   81.330">  1  3  2 -1</clus>
</clustering>
</event>
<event>
 6    0  0.2839294E+002  0.7721897E+02  0.7546771E-02  0.1337134E+00
         21   -1    0    0  501  502  0.00000000000E+00  0.00000000000E+00  0.60423087831E+02  0.60423087831E+02  0.00000000000E+00 0. -1.
          2   -1    0    0  505    0 -0.00000000000E+00 -0.00000000000E+00 -0.27038408070E+04  0.27038408070E+04  0.00000000000E+00 0. -1.
         21    1    1    2  503  504  0.12699361984E+02  0.55492063377E+02 -0.48858897611E+02  0.75018896076E+02  0.00000000000E+00 0. -1.
         21    1    1    2  504  502 -0.49836636705E+01 -0.93246995936E+02 -0.25537320200E+01  0.93414991848E+02  0.00000000000E+00 0. -1.
         21    1    1    2  505  503 -0.13091212402E+02 -0.38382677008E+02 -0.32222494190E+03  0.32476687473E+03  0.00000000000E+00 0. -1.
          2    1    1    2  501    0  0.53755140881E+01  0.76137609567E+02 -0.22697801476E+04  0.22710631322E+04  0.00000000000E+00 0. -1.
<scales pt_clust_3="14000.00000" pt_clust_4="77.21897" pt_clust_5="40.55379" pt_clust_6="40.16200"></scales>
<clustering>
<clus scale="   40.554">  2  5  1 -1</clus>
<clus scale="   40.162">  2  6  1 -1</clus>
<clus scale="   77.219">  1  4  2 -1</clus>
<clus scale="   77.219">  1  3  2 -1</clus>
</clustering>
</event>
<event>
 6    0  0.2839294E+002  0.2292238E+03  0.7546771E-02  0.1127187E+00
          2   -1    0    0  505    0 -0.00000000000E+00  0.00000000000E+00  0.16306488642E+04  0.16306488642E+04  0.00000000000E+00 0. -1.
         21   -1    0    0  504  502  0.00000000000E+00 -0.00000000000E+00 -0.68562412835E+02  0.68562412835E+02  0.00000000000E+00 0. -1.
         21    1    1    2  503  501  0.17321795663E+02  0.74645847848E+02  0.33422131706E+03  0.34289347614E+03  0.00000000000E+00 0.  1.
         21    1    1    2  504  503 -0.39186914256E+02  0.50450277280E+01  0.20119390383E+02  0.44337979466E+02  0.00000000000E+00 0. -1.
         21    1    1    2  505  502  0.26230744607E+02 -0.22752002346E+03  0.23532416466E+03  0.32837611897E+03  0.00000000000E+00 0. -1.
          2    1    1    2  501    0 -0.43656260144E+01  0.14782914789E+03  0.97242157924E+03  0.98360370242E+03  0.00000000000E+00 0. -1.
<scales pt_clust_3="36.81727" pt_clust_4="39.51033" pt_clust_5="223.44449" pt_clust_6="36.81727"></scales>
<clustering>
<clus scale="   36.817">  3  6 -1 -1</clus>
<clus scale="   39.510">  2  4  1 -1</clus>
<clus scale="  223.444">  2  5  1 -1</clus>
<clus scale="   39.510">  2  3  1 -1</clus>
</clustering>
</event>
<event>
 6    0  0.2839294E+002  0.1947107E+03  0.7546771E-02  0.1154280E+00
         21   -1    0    0  503  502  0.00000000000E+00  0.00000000000E+00  0.53205828178E+03  0.53205828178E+03  0.00000000000E+00 0. -1.
          1   -1    0    0  505    0 -0.00000000000E+00 -0.00000000000E+00 -0.58534414980E+03  0.58534414980E+03  0.00000000000E+00 0. -1.
         21    1    1    2  503  504 -0.62487636083E+01 -0.81909228694E+02  0.82824428321E+02  0.11665356711E+03  0.00000000000E+00 0. -1.
         21    1    1    2  504  501 -0.29738694719E+02 -0.74440567721E+02 -0.59070433313E+01  0.80378363053E+02  0.00000000000E+00 0. -1.
         21    1    1    2  505  502  0.10197332805E+03  0.15259202248E+03  0.37148486844E+03  0.41434755030E+03  0.00000000000E+00 0. -1.
          1    1    1    2  501    0 -0.65985869723E+02  0.37577739307E+01 -0.50168812144E+03  0.50602295112E+03  0.00000000000E+00 0. -1.
<scales pt_clust_3="78.50863" pt_clust_4="78.50863" pt_clust_5="175.34913" pt_clust_6="66.09278"></scales>
<clustering>
<clus scale="   66.093">  2  6  1 -1</clus>
<clus scale="   78.509">  3  4 -1 -1</clus>
<clus scale="  175.349">  1  5  2 -1</clus>
<clus scale="  175.349">  1  3  2 -1</clus>
</clustering>
</event>
<event>
 6    0  0.2839294E+002  0.6390739E+02  0.7546771E-02  0.1382129E+00
         21   -1    0    0  505  502  0.00000000000E+00  0.00000000000E+00  0.18417515764E+02  0.18417515764E+02  0.00000000000E+00 0.  1.
          2   -1    0    0  503    0 -0.00000000000E+00 -0.00000000000E+00 -0.19713517226E+04  0.19713517226E+04  0.00000000000E+00 0.  1.
         21    1    1    2  503  502  0.46114535466E+02 -0.17843179876E+02 -0.20582645906E+03  0.21168245250E+03  0.00000000000E+00 0.  1.
         21    1    1    2  504  501 -0.12417072157E+03 -0.12709641726E+02 -0.28646886331E+03  0.31248089979E+03  0.00000000000E+00 0.  1.
         21    1    1    2  505  504  0.17459662205E+02  0.30902809742E+02 -0.17625802313E+03  0.17979631301E+03  0.00000000000E+00 0.  1.
          2    1    1    2  501    0  0.60596523900E+02 -0.34998813983E+00 -0.12843808613E+04  0.12858095730E+04  0.00000000000E+00 0.  1.
<scales pt_clust_3="50.72622" pt_clust_4="63.90739" pt_clust_5="35.49399" pt_clust_6="14000.00000"></scales>
<clustering>
<clus scale="   35.494">  1  5  2 -1</clus>
<clus scale="   50.726">  1  3  2 -1</clus>
<clus scale="   63.907">  1  4  2 -1</clus>
<clus scale="   35.494">  1  3  2 -1</clus>
</clustering>
</event>
<event>
 6    0  0.2839294E+002  0.1474184E+03  0.7546771E-02  0.1203682E+00
         21   -1    0    0  505  502  0.00000000000E+00  0.00000000000E+00  0.38656763428E+02  0.38656763428E+02  0.00000000000E+00 0.  1.
          1   -1    0    0  502    0 -0.00000000000E+00 -0.00000000000E+00 -0.11222666491E+04  0.11222666491E+04  0.00000000000E+00 0.  1.
         21    1    1    2  503  501 -0.42519391715E+02 -0.59034708803E+02 -0.36953724413E+03  0.37663081434E+03  0.00000000000E+00 0.  1.
         21    1    1    2  504  503  0.12114126890E+03  0.12510014468E+03 -0.41052879683E+03  0.44593625807E+03  0.00000000000E+00 0.  1.
         21    1    1    2  505  504 -0.18158738102E+02 -0.57464854636E+02 -0.52295446466E+02  0.79791998401E+02  0.00000000000E+00 0.  1.
          1    1    1    2  501    0 -0.60463139086E+02 -0.86005812403E+01 -0.25124839823E+03  0.25856434170E+03  0.00000000000E+00 0.  1.
<scales pt_clust_3="49.49346" pt_clust_4="137.16425" pt_clust_5="60.26566" pt_clust_6="49.49346"></scales>
<clustering>
<clus scale="   49.493">  3  6 -1 -1</clus>
<clus scale="   60.266">  1  5  2 -1</clus>
<clus scale="  137.164">  1  4  2 -1</clus>
<clus scale="   60.266">  1  3  2 -1</clus>
</clustering>
</event>
<event>
 6    0  0.2839294E+002  0.9224805E+02  0.7546771E-02  0.1297497E+00
         21   -1    0    0  504  502  0.00000000000E+00  0.00000000000E+00  0.55386682727E+03  0.55386682727E+03  0.00000000000E+00 0. -1.
          1   -1    0    0  503    0 -0.00000000000E+00 -0.00000000000E+00 -0.74602184982E+03  0.74602184982E+03  0.00000000000E+00 0. -1.
         21    1    1    2  503  502 -0.53817200814E+02  0.95594037431E+01 -0.17805743806E+02  0.57486675115E+02  0.00000000000E+00 0. -1.
         21    1    1    2  504  505  0.70086306525E+02  0.29082361149E+02  0.49908323880E+03  0.50481873316E+03  0.00000000000E+00 0. -1.
         21    1    1    2  505  501  0.29916611242E+02 -0.82549613609E+02 -0.32708334194E+02  0.93697798592E+02  0.00000000000E+00 0.  1.
          1    1    1    2  501    0 -0.46185716954E+02  0.43907848717E+02 -0.64072418336E+03  0.64388547023E+03  0.00000000000E+00 0. -1.
<scales pt_clust_3="54.65961" pt_clust_4="75.69435" pt_clust_5="14000.00000" pt_clust_6="92.24805"></scales>
<clustering>
<clus scale="   54.660">  2  3  1 -1</clus>
<clus scale="   75.694">  1  4  2 -1</clus>
<clus scale="   92.248">  2  6  1 -1</clus>
<clus scale="   75.694">  1  3  2 -1</clus>
</clustering>
</event>
<event>
 6    0  0.2839294E+002  0.1530408E+03  0.7546771E-02  0.1196785E+00
         21   -1    0    0  504  502  0.00000000000E+00  0.00000000000E+00  0.18957056899E+04  0.18957056899E+04  0.00000000000E+00 0.  1.
         -1   -1    0    0    0  501 -0.00000000000E+00 -0.00000000000E+00 -0.40692332281E+03  0.40692332281E+03  0.00000000000E+00 0. -1.
         21    1    1    2  503  501  0.15376148330E+02  0.66493784933E+02 -0.89637837017E+02  0.11266228827E+03  0.00000000000E+00 0.  1.
         21    1    1    2  504  503 -0.62200508953E+02  0.11494275027E+03  0.33060280416E+03  0.35549817618E+03  0.00000000000E+00 0. -1.
         21    1    1    2  505  502 -0.12761763434E+02 -0.16671327419E+03  0.15333370172E+04  0.15424262013E+04  0.00000000000E+00 0.  1.
         -1    1    1    2    0  505  0.59586124057E+02 -0.14723261013E+02 -0.28551961720E+03  0.29204234693E+03  0.00000000000E+00 0. -1.
<scales pt_clust_3="85.50930" pt_clust_4="153.04080" pt_clust_5="14000.00000" pt_clust_6="61.37818"></scales>
<clustering>
<clus scale="   61.378">  2  6  1 -1</clus>
<clus scale="   85.509">  2  3  1 -1</clus>
<clus scale="  153.041">  2  4  1 -1</clus>
<clus scale="  153.041">  1  3  2 -1</clus>
</clustering>
</event>
<event>
 6    0  0.2839294E+002  0.1461874E+03  0.7546771E-02  0.1205238E+00
         21   -1    0    0  505  502  0.00000000000E+00  0.00000000000E+00  0.16707540283E+03  0.16707540283E+03  0.00000000000E+00 0. -1.
          2   -1    0    0  504    0 -0.00000000000E+00 -0.00000000000E+00 -0.40704806579E+03  0.40704806579E+03  0.00000000000E+00 0. -1.
         21    1    1    2  503  501 -0.59008166996E+02 -0.43981155185E+02 -0.12163300730E+03  0.14216502470E+03  0.00000000000E+00 0. -1.
         21    1    1    2  504  502  0.23581722098E+02 -0.31673471921E+02  0.11661380091E+02  0.41173950822E+02  0.00000000000E+00 0. -1.
         21    1    1    2  505  503  0.53146863605E+02  0.13769330563E+03  0.82235432656E+02  0.16895769266E+03  0.00000000000E+00 0. -1.
          2    1    1    2  501    0 -0.17720418706E+02 -0.62038678520E+02 -0.21223646840E+03  0.22182680044E+03  0.00000000000E+00 0. -1.
<scales pt_clust_3="58.77554" pt_clust_4="39.48805" pt_clust_5="132.20061" pt_clust_6="58.77554"></scales>
<clustering>
<clus scale="   39.488">  1  4  2 -1</clus>
<clus scale="   58.776">  3  6 -1 -1</clus>
<clus scale="  132.201">  1  5  2 -1</clus>
<clus scale="   39.488">  1  3  2 -1</clus>
</clustering>
</event>
<event>
 6    0  0.2839294E+002  0.1144343E+03  0.7546771E-02  0.1252572E+00
         -1   -1    0    0    0  501 -0.00000000000E+00  0.00000000000E+00  0.17109787038E+04  0.17109787038E+04  0.00000000000E+00 0. -1.
         21   -1    0    0  505  502  0.00000000000E+00 -0.00000000000E+00 -0.83947571373E+03  0.83947571373E+03  0.00000000000E+00 0.  1.
         21    1    1    2  503  502 -0.23490152560E+02 -0.22270309515E+02 -0.82722533139E+03  0.82785838333E+03  0.00000000000E+00 0.  1.
         21    1    1    2  504  501 -0.74051122174E+02 -0.48975672959E+02  0.29507061403E+03  0.30813771678E+03  0.00000000000E+00 0. -1.
         21    1    1    2  505  504 -0.21836454090E+02  0.25810061512E+02  0.12687238639E+03  0.13129962844E+03  0.00000000000E+00 0.  1.
         -1    1    1    2    0  503  0.11937772882E+03  0.45435920961E+02  0.12767853210E+04  0.12831586889E+04  0.00000000000E+00 0. -1.
<scales pt_clust_3="32.36903" pt_clust_4="114.43428" pt_clust_5="34.00136" pt_clust_6="14000.00000"></scales>
<clustering>
<clus scale="   32.369">  2  3  1 -1</clus>
<clus scale="   34.001">  2  5  1 -1</clus>
<clus scale="  114.434">  2  4  1 -1</clus>
<clus scale="   32.369">  2  3  1 -1</clus>
</clustering>
</event>
<event>
 6    0  0.2839294E+002  0.7663241E+02  0.7546771E-02  0.1338889E+00
         -2   -1    0    0    0  501 -0.00000000000E+00  0.00000000000E+00  0.73837997697E+03  0.73837997697E+03  0.00000000000E+00 0.  1.
         21   -1    0    0  505  502  0.00000000000E+00 -0.00000000000E+00 -0.82456304626E+02  0.82456304626E+02  0.00000000000E+00 0.  1.
         21    1    1    2  503  501  0.39027381364E+02  0.88656113785E+01  0.32742405843E+03  0.32986095495E+03  0.00000000000E+00 0. -1.
         21    1    1    2  504  502 -0.40090670746E+02 -0.37581288922E+02  0.29643248051E+02  0.62436666414E+02  0.00000000000E+00 0.  1.
         21    1    1    2  505  503  0.55378631079E+02 -0.39718133333E+02 -0.39714283089E+02  0.78876784778E+02  0.00000000000E+00 0.  1.
         -2    1    1    2    0  504 -0.54315341696E+02  0.68433810876E+02  0.33857064895E+03  0.34966187545E+03  0.00000000000E+00 0.  1.
<scales pt_clust_3="40.02169" pt_clust_4="51.12088" pt_clust_5="76.63241" pt_clust_6="14000.00000"></scales>
<clustering>
<clus scale="   40.022">  1  3  2 -1</clus>
<clus scale="   51.121">  2  4  1 -1</clus>
<clus scale="   76.632">  2  5  1 -1</clus>
<clus scale="   51.121">  2  3  1 -1</clus>
</clustering>
</event>
<event>
 6    0  0.2839294E+002  0.1193208E+03  0.7546771E-02  0.1244222E+00
         -1   -1    0    0    0  501 -0.00000000000E+00  0.00000000000E+00  0.24833924298E+03  0.24833924298E+03  0.00000000000E+00 0.  1.
         21   -1    0    0  505  502  0.00000000000E+00 -0.00000000000E+00 -0.10877874041E+04  0.10877874041E+04  0.00000000000E+00 0.  1.
         21    1    1    2  503  504 -0.65434750956E+02 -0.62181836050E+02 -0.51752425069E+02  0.10405095323E+03  0.00000000000E+00 0.  1.
         21    1    1    2  504  502  0.26275068927E+02 -0.15145642007E+02 -0.53041856178E+02  0.61099985481E+02  0.00000000000E+00 0. -1.
         21    1    1    2  505  501 -0.22921167526E+02 -0.33533137874E+02 -0.93383557284E+03  0.93471852895E+03  0.00000000000E+00 0.  1.
         -1    1    1    2    0  503  0.62080849555E+02  0.11086061593E+03  0.19918169293E+03  0.23625717946E+03  0.00000000000E+00 0.  1.
<scales pt_clust_3="119.32081" pt_clust_4="30.32771" pt_clust_5="47.27015" pt_clust_6="14000.00000"></scales>
<clustering>
<clus scale="   30.328">  2  4  1 -1</clus>
<clus scale="   47.270">  2  5  1 -1</clus>
<clus scale="  119.321">  2  3  1 -1</clus>
<clus scale="   30.328">  2  3  1 -1</clus>
</clustering>
</event>
<event>
 6    0  0.2839294E+002  0.9443259E+02  0.7546771E-02  0.1292459E+00
         -1   -1    0    0    0  501 -0.00000000000E+00  0.00000000000E+00  0.89678455204E+03  0.89678455204E+03  0.00000000000E+00 0.  1.
         21   -1    0    0  501  502  0.00000000000E+00 -0.00000000000E+00 -0.18809944499E+03  0.18809944499E+03  0.00000000000E+00 0. -1.
         21    1    1    2  503  504 -0.47427528476E+02 -0.10354158432E+03  0.22797659003E+02  0.11614630169E+03  0.00000000000E+00 0.  1.
         21    1    1    2  504  502  0.55453244873E+02  0.18084866441E+02 -0.13261968424E+03  0.14487962386E+03  0.00000000000E+00 0. -1.
         21    1    1    2  505  503 -0.65417082157E-02  0.36502882432E+02  0.19546374262E+03  0.19884299119E+03  0.00000000000E+00 0. -1.
         -1    1    1    2    0  505 -0.80191746888E+01  0.48953835448E+02  0.62304338967E+03  0.62501508028E+03  0.00000000000E+00 0.  1.
<scales pt_clust_3="86.58279" pt_clust_4="58.32774" pt_clust_5="32.33568" pt_clust_6="32.33568"></scales>
<clustering>
<clus scale="   32.336">  5  6 -1 -1</clus>
<clus scale="   58.328">  2  4  1 -1</clus>
<clus scale="   86.583">  2  3  1 -1</clus>
<clus scale="   58.328">  2  3  1 -1</clus>
</clustering>
</event>
<event>
 6    0  0.2839294E+002  0.7739623E+02  0.7546771E-02  0.1336607E+00
          1   -1    0    0  504    0 -0.00000000000E+00  0.00000000000E+00  0.25874853166E+04  0.25874853166E+04  0.00000000000E+00 0. -1.
         21   -1    0    0  505  502  0.00000000000E+00 -0.00000000000E+00 -0.10275530334E+03  0.10275530334E+03  0.00000000000E+00 0.  1.
         21    1    1    2  503  502  0.65431905848E+02 -0.93650193195E+02  0.19241625218E+02  0.11585306698E+03  0.00000000000E+00 0.  1.
         21    1    1    2  504  503  0.21145475097E+02 -0.49759356163E+02  0.25697462062E+03  0.26260060984E+03  0.00000000000E+00 0.  1.
         21    1    1    2  505  501 -0.42280578293E+02  0.50402213152E+02 -0.29004957591E+02  0.71897969070E+02  0.00000000000E+00 0.  1.
          1    1    1    2  501    0 -0.44296802652E+02  0.93007336206E+02  0.22375187250E+04  0.22398889740E+04  0.00000000000E+00 0. -1.
<scales pt_clust_3="14000.00000" pt_clust_4="54.06593" pt_clust_5="77.39623" pt_clust_6="51.11389"></scales>
<clustering>
<clus scale="   54.066">  1  4  2 -1</clus>
<clus scale="   51.114">  1  6  2 -1</clus>
<clus scale="   77.396">  2  5  1 -1</clus>
<clus scale="   77.396">  2  3  1 -1</clus>
</clustering>
</event>
<event>
 6    0  0.2839294E+002  0.1870685E+03  0.7546771E-02  0.1161132E+00
          1   -1    0    0  503    0 -0.00000000000E+00  0.00000000000E+00  0.96478142424E+03  0.96478142424E+03  0.00000000000E+00 0. -1.
         21   -1    0    0  504  502  0.00000000000E+00 -0.00000000000E+00 -0.25250992949E+03  0.25250992949E+03  0.00000000000E+00 0. -1.
         21    1    1    2  503  502 -0.14062716146E+02 -0.26731636191E+02 -0.14218318646E+03  0.14535611053E+03  0.00000000000E+00 0. -1.
         21    1    1    2  504  505  0.53537883174E+02 -0.60672544551E+01 -0.37091620717E+02  0.65413338386E+02  0.00000000000E+00 0. -1.
         21    1    1    2  505  501  0.19627212037E+02 -0.15385516536E+03  0.85641099297E+02  0.17717515980E+03  0.00000000000E+00 0. -1.
          1    1    1    2  501    0 -0.59102379064E+02  0.18665405600E+03  0.80590520263E+03  0.82934674501E+03  0.00000000000E+00 0. -1.
<scales pt_clust_3="30.20497" pt_clust_4="50.48728" pt_clust_5="14000.00000" pt_clust_6="187.06847"></scales>
<clustering>
<clus scale="   30.205">  2  3  1 -1</clus>
<clus scale="   50.487">  2  4  1 -1</clus>
<clus scale="  187.068">  1  6  2 -1</clus>
<clus scale="   30.205">  2  3  1 -1</clus>
</clustering>
</event>
<event>
 6    0  0.2839294E+002  0.1115185E+03  0.7546771E-02  0.1257783E+00
          2   -1    0    0  504    0 -0.00000000000E+00  0.00000000000E+00  0.10929551839E+04  0.10929551839E+04  0.00000000000E+00 0.  1.
         21   -1    0    0  503  502  0.00000000000E+00 -0.00000000000E+00 -0.67583866991E+03  0.67583866991E+03  0.00000000000E+00 0. -1.
         21    1    1    2  503  501 -0.39121012287E+02  0.80575822969E+02 -0.64308005208E+03  0.64928797173E+03  0.00000000000E+00 0. -1.
         21    1    1    2  504  505  0.92096064944E+02 -0.15665579447E+02  0.47893903471E+03  0.48796484968E+03  0.00000000000E+00 0.  1.
         21    1    1    2  505  502  0.12314362258E+02  0.29160129105E+02 -0.68526983631E+01  0.32386974575E+02  0.00000000000E+00 0.  1.
          2    1    1    2  501    0 -0.65289414916E+02 -0.94070372627E+02  0.58811022973E+03  0.59915405784E+03  0.00000000000E+00 0.  1.
<scales pt_clust_3="111.51850" pt_clust_4="93.46902" pt_clust_5="31.65370" pt_clust_6="14000.00000"></scales>
<clustering>
<clus scale="   31.654">  2  5  1 -1</clus>
<clus scale="   93.469">  1  4  2 -1</clus>
<clus scale="  111.518">  2  3  1 -1</clus>
<clus scale="   31.654">  2  3  1 -1</clus>
</clustering>
</event>
<event>
 6    0  0.2839294E+002  0.9331348E+02  0.7546771E-02  0.1295020E+00
         21   -1    0    0  505  502  0.00000000000E+00  0.00000000000E+00  0.14832444782E+03  0.14832444782E+03  0.00000000000E+00 0. -1.
          2   -1    0    0  504    0 -0.00000000000E+00 -0.00000000000E+00 -0.14491082759E+04  0.14491082759E+04  0.00000000000E+00 0.  1.
         21    1    1    2  503  502  0.48719671732E+02 -0.68264562451E+02 -0.11569289558E+03  0.14289332731E+03  0.00000000000E+00 0. -1.
         21    1    1    2  504  503 -0.16340795405E+02 -0.31899051087E+02 -0.39305989092E+03  0.39469057362E+03  0.00000000000E+00 0.  1.
         21    1    1    2  505  501 -0.75214573880E+02  0.57995559079E+02  0.11594811887E+03  0.14988223132E+03  0.00000000000E+00 0. -1.
          2    1    1    2  501    0  0.42835697553E+02  0.42168054459E+02 -0.90797916043E+03  0.90996659146E+03  0.00000000000E+00 0.  1.
<scales pt_clust_3="93.31348" pt_clust_4="35.84091" pt_clust_5="14000.00000" pt_clust_6="32.29448"></scales>
<clustering>
<clus scale="   35.841">  2  4  1 -1</clus>
<clus scale="   32.294">  2  6  1 -1</clus>
<clus scale="   93.313">  2  3  1 -1</clus>
<clus scale="   93.313">  1  3  2 -1</clus>
</clustering>
</event>
<event>
 6    0  0.2839294E+002  0.1152140E+03  0.7546771E-02  0.1251208E+00
         21   -1    0    0  505  502  0.00000000000E+00  0.00000000000E+00  0.12001264526E+03  0.12001264526E+03  0.00000000000E+00 0.  1.
          1   -1    0    0  504    0 -0.00000000000E+00 -0.00000000000E+00 -0.12129595542E+04  0.12129595542E+04  0.00000000000E+00 0. -1.
         21    1    1    2  503  502  0.30144623122E+02 -0.26624071802E+01  0.68219364601E+02  0.74630211187E+02  0.00000000000E+00 0.  1.
         21    1    1    2  504  503 -0.15911586784E+03  0.37677391892E+02 -0.12393584025E+03  0.20517684508E+03  0.00000000000E+00 0.  1.
         21    1    1    2  505  501  0.28632326063E+02  0.14192289469E+02 -0.48141106383E+02  0.57782326882E+02  0.00000000000E+00 0.  1.
          1    1    1    2  501    0  0.10033891865E+03 -0.49207274181E+02 -0.98908932692E+03  0.99538281634E+03  0.00000000000E+00 0. -1.
<scales pt_clust_3="30.26197" pt_clust_4="14000.00000" pt_clust_5="34.55450" pt_clust_6="115.21398"></scales>
<clustering>
<clus scale="   30.262">  1  3  2 -1</clus>
<clus scale="   34.555">  1  5  2 -1</clus>
<clus scale="  115.214">  2  6  1 -1</clus>
<clus scale="   30.262">  1  3  2 -1</clus>
</clustering>
</event>
<event>
 6    0  0.2839294E+002  0.8407660E+02  0.7546771E-02  0.1317865E+00
          1   -1    0    0  505    0 -0.00000000000E+00  0.00000000000E+00  0.74279580652E+03  0.74279580652E+03  0.00000000000E+00 0.  1.
         21   -1    0    0  504  502  0.00000000000E+00 -0.00000000000E+00 -0.33762364532E+03  0.33762364532E+03  0.00000000000E+00 0.  1.
         21    1    1    2  503  501 -0.32339136944E+02 -0.59114034836E+02  0.34544005864E+02  0.75720388496E+02  0.00000000000E+00 0.  1.
         21    1    1    2  504  503 -0.60693585937E+02 -0.25219850108E+02 -0.27151589017E+03  0.27935753225E+03  0.00000000000E+00 0.  1.
         21    1    1    2  505  502  0.17530448522E+02  0.39921090373E+02 -0.26474809400E+02  0.51009073847E+02  0.00000000000E+00 0.  1.
          1    1    1    2  501    0  0.75502274359E+02  0.44412794571E+02  0.66861885491E+03  0.67433245724E+03  0.00000000000E+00 0.  1.
<scales pt_clust_3="84.07660" pt_clust_4="46.01648" pt_clust_5="43.60057" pt_clust_6="14000.00000"></scales>
<clustering>
<clus scale="   43.601">  2  5  1 -1</clus>
<clus scale="   46.016">  2  4  1 -1</clus>
<clus scale="   84.077">  2  3  1 -1</clus>
<clus scale="   43.601">  2  3  1 -1</clus>
</clustering>
</event>
<event>
 6    0  0.2839294E+002  0.7386616E+02  0.7546771E-02  0.1347419E+00
         21   -1    0    0  505  502  0.00000000000E+00  0.00000000000E+00  0.57210824742E+02  0.57210824742E+02  0.00000000000E+00 0.  1.
         -3   -1    0    0    0  501 -0.00000000000E+00 -0.00000000000E+00 -0.12374200441E+04  0.12374200441E+04  0.00000000000E+00 0.  1.
         21    1    1    2  503  501 -0.28037942917E+02  0.38866690669E+02 -0.47832419408E+03  0.48071902452E+03  0.00000000000E+00 0. -1.
         21    1    1    2  504  502 -0.41459051098E+02 -0.10624548066E+03 -0.23340116083E+02  0.11641183830E+03  0.00000000000E+00 0.  1.
         21    1    1    2  505  503  0.39943157862E+02  0.28249373834E+02 -0.61856618886E+02  0.78865228599E+02  0.00000000000E+00 0.  1.
         -3    1    1    2    0  504  0.29553836153E+02  0.39129416153E+02 -0.61668829029E+03  0.61863477741E+03  0.00000000000E+00 0.  1.
<scales pt_clust_3="47.92438" pt_clust_4="14000.00000" pt_clust_5="49.08360" pt_clust_6="73.86616"></scales>
<clustering>
<clus scale="   47.924">  2  3  1 -1</clus>
<clus scale="   49.084">  1  5  2 -1</clus>
<clus scale="   73.866">  2  6  1 -1</clus>
<clus scale="   49.084">  1  3  2 -1</clus>
</clustering>
</event>
<event>
 6    0  0.2839294E+002  0.8738054E+02  0.7546771E-02  0.1309322E+00
         21   -1    0    0  505  502  0.00000000000E+00  0.00000000000E+00  0.67352427920E+02  0.67352427920E+02  0.00000000000E+00 0. -1.
         -1   -1    0    0    0  501 -0.00000000000E+00 -0.00000000000E+00 -0.32470201436E+04  0.32470201436E+04  0.00000000000E+00 0.  1.
         21    1    1    2  503  502 -0.12325400363E+02  0.96392493874E+02  0.33069567791E+01  0.97233555589E+02  0.00000000000E+00 0. -1.
         21    1    1    2  504  501  0.65723993413E+01 -0.41927993080E+02 -0.25628835375E+03  0.25977850816E+03  0.00000000000E+00 0.  1.
         21    1    1    2  505  504  0.74267937567E+02 -0.31066807869E+02 -0.94050991698E+02  0.12380008942E+03  0.00000000000E+00 0. -1.
         -1    1    1    2    0  503 -0.68514936545E+02 -0.23397692925E+02 -0.28326353270E+04  0.28335604184E+04  0.00000000000E+00 0.  1.
<scales pt_clust_3="87.38054" pt_clust_4="42.43999" pt_clust_5="81.32514" pt_clust_6="14000.00000"></scales>
<clustering>
<clus scale="   42.440">  2  4  1 -1</clus>
<clus scale="   81.325">  1  5  2 -1</clus>
<clus scale="   87.381">  1  3  2 -1</clus>
<clus scale="   81.325">  1  3  2 -1</clus>
</clustering>
</event>
<event>
 6    0  0.2839294E+002  0.8581135E+02  0.7546771E-02  0.1313324E+00
          2   -1    0    0  505    0 -0.00000000000E+00  0.00000000000E+00  0.67484343707E+03  0.67484343707E+03  0.00000000000E+00 0.  1.
         21   -1    0    0  503  502  0.00000000000E+00 -0.00000000000E+00 -0.49622008257E+03  0.49622008257E+03  0.00000000000E+00 0.  1.
         21    1    1    2  503  501  0.42868204830E+02  0.68236412137E+02 -0.42227079502E+03  0.42989128306E+03  0.00000000000E+00 0.  1.
         21    1    1    2  504  502  0.38408952070E+02 -0.44262299757E+02 -0.45495357755E+02  0.74190473487E+02  0.00000000000E+00 0. -1.
         21    1    1    2  505  504  0.34509538391E+02  0.19589692986E+02  0.19164383867E+03  0.19570903201E+03  0.00000000000E+00 0. -1.
          2    1    1    2  501    0 -0.11578669529E+03 -0.43563805366E+02  0.45474566860E+03  0.47127273108E+03  0.00000000000E+00 0.  1.
<scales pt_clust_3="85.81135" pt_clust_4="58.84841" pt_clust_5="39.68204" pt_clust_6="14000.00000"></scales>
<clustering>
<clus scale="   39.682">  1  5  2 -1</clus>
<clus scale="   58.848">  2  4  1 -1</clus>
<clus scale="   85.811">  2  3  1 -1</clus>
<clus scale="   58.848">  2  3  1 -1</clus>
</clustering>
</event>
<event>
 6    0  0.2839294E+002  0.9164218E+02  0.7546771E-02  0.1298923E+00
         21   -1    0    0  503  502  0.00000000000E+00  0.00000000000E+00  0.10951832438E+03  0.10951832438E+03  0.00000000000E+00 0. -1.
          2   -1    0    0  504    0 -0.00000000000E+00 -0.00000000000E+00 -0.34678151941E+03  0.34678151941E+03  0.00000000000E+00 0. -1.
         21    1    1    2  503  501  0.11316008376E+03 -0.25672653815E+02  0.12304173669E+02  0.11668625626E+03  0.00000000000E+00 0. -1.
         21    1    1    2  504  505 -0.90786966756E+02 -0.36044073749E+02 -0.18372537172E+03  0.20807801613E+03  0.00000000000E+00 0. -1.
         21    1    1    2  505  502 -0.28806253464E+02  0.15291582407E+02  0.16681008624E+02  0.36631800118E+02  0.00000000000E+00 0. -1.
          2    1    1    2  501    0  0.64331364624E+01  0.46425145157E+02 -0.82523005603E+02  0.94903771270E+02  0.00000000000E+00 0. -1.
<scales pt_clust_3="91.64218" pt_clust_4="14000.00000" pt_clust_5="32.61338" pt_clust_6="47.75980"></scales>
<clustering>
<clus scale="   32.613">  1  5  2 -1</clus>
<clus scale="   47.760">  2  6  1 -1</clus>
<clus scale="   91.642">  1  3  2 -1</clus>
<clus scale="   32.613">  1  3  2 -1</clus>
</clustering>
</event>
<event>
 6    0  0.2839294E+002  0.1397493E+03  0.7546771E-02  0.1213667E+00
          1   -1    0    0  503    0 -0.00000000000E+00  0.00000000000E+00  0.22789690911E+04  0.22789690911E+04  0.00000000000E+00 0.  1.
         21   -1    0    0  505  502  0.00000000000E+00 -0.00000000000E+00 -0.14202513575E+03  0.14202513575E+03  0.00000000000E+00 0. -1.
         21    1    1    2  503  502 -0.35865211729E+02 -0.21760513254E+02  0.19385659375E+03  0.19834367217E+03  0.00000000000E+00 0. -1.
         21    1    1    2  504  501  0.82739988802E+02  0.11782347424E+03  0.28895985454E+02  0.14684432166E+03  0.00000000000E+00 0. -1.
         21    1    1    2  505  504  0.56682255014E+02 -0.80028969023E+02 -0.49132158208E+02  0.10968811643E+03  0.00000000000E+00 0. -1.
          1    1    1    2  501    0 -0.10355703209E+03 -0.16033991962E+02  0.19633235344E+04  0.19661181166E+04  0.00000000000E+00 0.  1.
<scales pt_clust_3="41.95037" pt_clust_4="139.74927" pt_clust_5="98.02761" pt_clust_6="14000.00000"></scales>
<clustering>
<clus scale="   41.950">  1  3  2 -1</clus>
<clus scale="   98.028">  2  5  1 -1</clus>
<clus scale="  139.749">  2  4  1 -1</clus>
<clus scale="   98.028">  2  3  1 -1</clus>
</clustering>
</event>
<event>
 6    0  0.2839294E+002  0.9234265E+02  0.7546771E-02  0.1297276E+00
         21   -1    0    0  503  502  0.00000000000E+00  0.00000000000E+00  0.19000317514E+03  0.19000317514E+03  0.00000000000E+00 0.  1.
          2   -1    0    0  505    0 -0.00000000000E+00 -0.00000000000E+00 -0.48711697418E+03  0.48711697418E+03  0.00000000000E+00 0. -1.
         21    1    1    2  503  501  0.60269502833E+02  0.74814802417E+02  0.51306732777E+02  0.10891303164E+03  0.00000000000E+00 0.  1.
         21    1    1    2  504  502 -0.65383290035E+02  0.22928166138E+02  0.88016881534E+02  0.11201627941E+03  0.00000000000E+00 0.  1.
         21    1    1    2  505  504 -0.21347832046E+02 -0.26591573969E+02 -0.40054497369E+02  0.52604225103E+02  0.00000000000E+00 0.  1.
          2    1    1    2  501    0  0.26461619248E+02 -0.71151394586E+02 -0.39638291598E+03  0.40358661317E+03  0.00000000000E+00 0. -1.
<scales pt_clust_3="92.34265" pt_clust_4="69.60127" pt_clust_5="34.10047" pt_clust_6="14000.00000"></scales>
<clustering>
<clus scale="   34.100">  2  5  1 -1</clus>
<clus scale="   69.601">  1  4  2 -1</clus>
<clus scale="   92.343">  1  3  2 -1</clus>
<clus scale="   69.601">  1  3  2 -1</clus>
</clustering>
</event>
<event>
 6    0  0.2839294E+002  0.1248911E+03  0.7546771E-02  0.1235240E+00
         21   -1    0    0  505  502  0.00000000000E+00  0.00000000000E+00  0.86370456873E+02  0.86370456873E+02  0.00000000000E+00 0.  1.
         -3   -1    0    0    0  501 -0.00000000000E+00 -0.00000000000E+00 -0.48455277727E+03  0.48455277727E+03  0.00000000000E+00 0.  1.
         21    1    1    2  503  502 -0.41490823745E+02  0.29359805904E+02  0.33671274237E+02  0.60969183745E+02  0.00000000000E+00 0.  1.
         21    1    1    2  504  503 -0.61891930218E+02  0.26986309064E+02 -0.11019258082E+02  0.68412688528E+02  0.00000000000E+00 0.  1.
         21    1    1    2  505  501  0.27889631773E+02  0.12304186828E+02 -0.12264057829E+03  0.12637221220E+03  0.00000000000E+00 0.  1.
         -3    1    1    2    0  504  0.75493122190E+02 -0.68650301796E+02 -0.29819375826E+03  0.31516914967E+03  0.00000000000E+00 0.  1.
<scales pt_clust_3="42.64988" pt_clust_4="42.64988" pt_clust_5="30.48319" pt_clust_6="115.03955"></scales>
<clustering>
<clus scale="   30.483">  2  5  1 -1</clus>
<clus scale="   42.650">  3  4 -1 -1</clus>
<clus scale="  115.040">  2  6  1 -1</clus>
<clus scale="  124.891">  1  3  2 -1</clus>
</clustering>
</event>
<event>
 6    0  0.2839294E+002  0.2438749E+03  0.7546771E-02  0.1117238E+00
         21   -1    0    0  501  502  0.00000000000E+00  0.00000000000E+00  0.62449560319E+03  0.62449560319E+03  0.00000000000E+00 0. -1.
         -1   -1    0    0    0  501 -0.00000000000E+00 -0.00000000000E+00 -0.97642963135E+03  0.97642963135E+03  0.00000000000E+00 0.  1.
         21    1    1    2  503  505 -0.13084898752E+03 -0.11096673931E+03  0.10091920136E+03  0.19904713002E+03  0.00000000000E+00 0. -1.
         21    1    1    2  504  503  0.81584078151E+02  0.10928846565E+03 -0.54172147007E+03  0.55862517099E+03  0.00000000000E+00 0.  1.
         21    1    1    2  505  502 -0.50153067379E+02 -0.52983098085E+02  0.45455423617E+03  0.46037168948E+03  0.00000000000E+00 0. -1.
         -1    1    1    2    0  504  0.99417976748E+02  0.54661371739E+02 -0.36568599562E+03  0.38288124406E+03  0.00000000000E+00 0.  1.
<scales pt_clust_3="236.79154" pt_clust_4="53.21979" pt_clust_5="72.95573" pt_clust_6="53.21979"></scales>
<clustering>
<clus scale="   53.220">  4  6 -1 -1</clus>
<clus scale="   72.956">  1  5  2 -1</clus>
<clus scale="  236.792">  1  3  2 -1</clus>
<clus scale="   72.956">  1  3  2 -1</clus>
</clustering>
</event>
<event>
 6    0  0.2839294E+002  0.1989885E+03  0.7546771E-02  0.1150595E+00
         -1   -1    0    0    0  501 -0.00000000000E+00  0.00000000000E+00  0.28341589339E+03  0.28341589339E+03  0.00000000000E+00 0. -1.
         21   -1    0    0  505  502  0.00000000000E+00 -0.00000000000E+00 -0.19408010564E+04  0.19408010564E+04  0.00000000000E+00 0. -1.
         21    1    1    2  503  501  0.28936715265E+02  0.37900722171E+02 -0.66740851510E+01  0.48149160367E+02  0.00000000000E+00 0. -1.
         21    1    1    2  504  502  0.17055250377E+02 -0.13308323684E+03 -0.14908756642E+04  0.14969008903E+04  0.00000000000E+00 0. -1.
         21    1    1    2  505  503 -0.17010490453E+03 -0.17662874004E+02 -0.37157010128E+03  0.40903789046E+03  0.00000000000E+00 0. -1.
         -1    1    1    2    0  504  0.12411293889E+03  0.11284538867E+03  0.21173468762E+03  0.27012900859E+03  0.00000000000E+00 0. -1.
<scales pt_clust_3="47.68436" pt_clust_4="133.78323" pt_clust_5="198.98849" pt_clust_6="14000.00000"></scales>
<clustering>
<clus scale="   47.684">  1  3  2 -1</clus>
<clus scale="  133.783">  2  4  1 -1</clus>
<clus scale="  198.988">  2  5  1 -1</clus>
<clus scale="  133.783">  2  3  1 -1</clus>
</clustering>
</event>
<event>
 6    0  0.2839294E+002  0.7253198E+02  0.7546771E-02  0.1351689E+00
         -2   -1    0    0    0  501 -0.00000000000E+00  0.00000000000E+00  0.17342609697E+02  0.17342609697E+02  0.00000000000E+00 0. -1.
         21   -1    0    0  505  502  0.00000000000E+00 -0.00000000000E+00 -0.14972048993E+04  0.14972048993E+04  0.00000000000E+00 0.  1.
         21    1    1    2  503  502 -0.48668279304E+01 -0.47186308158E+02 -0.31934871467E+03  0.32285265254E+03  0.00000000000E+00 0. -1.
         21    1    1    2  504  503 -0.10134736829E+03  0.47387596292E+00 -0.80275152498E+03  0.80912392405E+03  0.00000000000E+00 0.  1.
         21    1    1    2  505  501  0.39596088916E+02  0.30020003217E+02 -0.24922857819E+03  0.25413369520E+03  0.00000000000E+00 0. -1.
         -2    1    1    2    0  504  0.66618107308E+02  0.16692428977E+02 -0.10853347177E+03  0.12843723720E+03  0.00000000000E+00 0. -1.
<scales pt_clust_3="47.43663" pt_clust_4="72.53198" pt_clust_5="43.39767" pt_clust_6="14000.00000"></scales>
<clustering>
<clus scale="   47.437">  2  3  1 -1</clus>
<clus scale="   43.398">  2  5  1 -1</clus>
<clus scale="   72.532">  2  4  1 -1</clus>
<clus scale="   47.437">  2  3  1 -1</clus>
</clustering>
</event>
<event>
 6    0  0.2839294E+002  0.1469337E+03  0.7546771E-02  0.1204292E+00
          2   -1    0    0  505    0 -0.00000000000E+00  0.00000000000E+00  0.26994947662E+04  0.26994947662E+04  0.00000000000E+00 0.  1.
         21   -1    0    0  504  502  0.00000000000E+00 -0.00000000000E+00 -0.34431944370E+02  0.34431944370E+02  0.00000000000E+00 0.  1.
         21    1    1    2  503  502 -0.18554078358E+01  0.30146368572E+02  0.21698543631E+02  0.37189687711E+02  0.00000000000E+00 0. -1.
         21    1    1    2  504  501  0.13950667137E+03 -0.22591967389E+02  0.26792177028E+03  0.30291019021E+03  0.00000000000E+00 0.  1.
         21    1    1    2  505  503  0.52887419774E+02 -0.76908832543E+02  0.74591573145E+03  0.75173288216E+03  0.00000000000E+00 0.  1.
          2    1    1    2  501    0 -0.19053868331E+03  0.69354431359E+02  0.16295267764E+04  0.16420939505E+04  0.00000000000E+00 0.  1.
<scales pt_clust_3="30.20341" pt_clust_4="146.93367" pt_clust_5="90.53230" pt_clust_6="14000.00000"></scales>
<clustering>
<clus scale="   30.203">  2  3  1 -1</clus>
<clus scale="   90.532">  1  5  2 -1</clus>
<clus scale="  146.934">  2  4  1 -1</clus>
<clus scale="   30.203">  2  3  1 -1</clus>
</clustering>
</event>
<event>
 6    0  0.2839294E+002  0.9686908E+02  0.7546771E-02  0.1287021E+00
         21   -1    0    0  504  502  0.00000000000E+00  0.00000000000E+00  0.91904669009E+02  0.91904669009E+02  0.00000000000E+00 0.  1.
         -2   -1    0    0    0  501 -0.00000000000E+00 -0.00000000000E+00 -0.43715841394E+03  0.43715841394E+03  0.00000000000E+00 0.  1.
         21    1    1    2  503  502  0.11525209046E+02 -0.30274987454E+02  0.30663209316E+02  0.44605355221E+02  0.00000000000E+00 0.  1.
         21    1    1    2  504  505 -0.10700152052E+03 -0.28024302257E+02 -0.42781253050E+02  0.11859562607E+03  0.00000000000E+00 0.  1.
         21    1    1    2  505  501  0.16630471735E+02  0.67494600915E+02 -0.18794818361E+03  0.20039115116E+03  0.00000000000E+00 0.  1.
         -2    1    1    2    0  503  0.78845839743E+02 -0.91953112040E+01 -0.14518751759E+03  0.16547095049E+03  0.00000000000E+00 0.  1.
<scales pt_clust_3="32.39453" pt_clust_4="96.86908" pt_clust_5="66.49305" pt_clust_6="14000.00000"></scales>
<clustering>
<clus scale="   32.395">  1  3  2 -1</clus>
<clus scale="   66.493">  2  5  1 -1</clus>
<clus scale="   96.869">  1  4  2 -1</clus>
<clus scale="   32.395">  1  3  2 -1</clus>
</clustering>
</event>
<event>
 6    0  0.2839294E+002  0.1816713E+03  0.7546771E-02  0.1166195E+00
         21   -1    0    0  503  502  0.00000000000E+00  0.00000000000E+00  0.14249118434E+03  0.14249118434E+03  0.00000000000E+00 0. -1.
          2   -1    0    0  504    0 -0.00000000000E+00 -0.00000000000E+00 -0.12682745800E+04  0.12682745800E+04  0.00000000000E+00 0. -1.
         21    1    1    2  503  505  0.57586684751E+02  0.93914038616E+00  0.38407639481E+02  0.69226115129E+02  0.00000000000E+00 0. -1.
         21    1    1    2  504  502  0.55242825363E+01  0.64265463871E+02 -0.23080130998E+03  0.23964517986E+03  0.00000000000E+00 0. -1.
         21    1    1    2  505  501  0.69307997342E+02 -0.14469333032E+03 -0.47575369892E+01  0.16050667429E+03  0.00000000000E+00 0. -1.
          2    1    1    2  501    0 -0.13241896463E+03  0.79488726064E+02 -0.92863218819E+03  0.94138779507E+03  0.00000000000E+00 0. -1.
<scales pt_clust_3="57.59434" pt_clust_4="64.85803" pt_clust_5="14000.00000" pt_clust_6="181.67133"></scales>
<clustering>
<clus scale="   57.594">  1  3  2 -1</clus>
<clus scale="   64.858">  2  4  1 -1</clus>
<clus scale="  181.671">  2  6  1 -1</clus>
<clus scale="   57.594">  1  3  2 -1</clus>
</clustering>
</event>
<event>
 6    0  0.2839294E+002  0.1869854E+03  0.7546771E-02  0.1161209E+00
          4   -1    0    0  505    0 -0.00000000000E+00  0.00000000000E+00  0.44297021886E+03  0.44297021886E+03  0.00000000000E+00 0. -1.
         21   -1    0    0  504  502  0.00000000000E+00 -0.00000000000E+00 -0.82106230547E+03  0.82106230547E+03  0.00000000000E+00 0. -1.
         21    1    1    2  503  501  0.93639511871E+02 -0.68364718516E+01  0.25161260562E+03  0.26855911609E+03  0.00000000000E+00 0. -1.
         21    1    1    2  504  503 -0.10952548532E+03 -0.19240994153E+03 -0.39292475193E+03  0.45100696027E+03  0.00000000000E+00 0. -1.
         21    1    1    2  505  502  0.34071086614E+02  0.16549298940E+03 -0.36951081663E+03  0.40630901060E+03  0.00000000000E+00 0. -1.
          4    1    1    2  501    0 -0.18185113163E+02  0.33753423976E+02  0.13273087632E+03  0.13815743737E+03  0.00000000000E+00 0. -1.
<scales pt_clust_3="81.21519" pt_clust_4="14000.00000" pt_clust_5="186.98542" pt_clust_6="38.34047"></scales>
<clustering>
<clus scale="   38.340">  1  6  2 -1</clus>
<clus scale="   81.215">  1  3  2 -1</clus>
<clus scale="  186.985">  2  5  1 -1</clus>
<clus scale="  186.985">  2  3  1 -1</clus>
</clustering>
</event>
<event>
 6    0  0.2839294E+002  0.1160377E+03  0.7546771E-02  0.1249780E+00
         21   -1    0    0  504  502  0.00000000000E+00  0.00000000000E+00  0.10457291460E+04  0.10457291460E+04  0.00000000000E+00 0.  1.
          2   -1    0    0  505    0 -0.00000000000E+00 -0.00000000000E+00 -0.31646973030E+03  0.31646973030E+03  0.00000000000E+00 0.  1.
         21    1    1    2  503  502 -0.12989945242E+02 -0.64448571472E+02  0.50504709063E+03  0.50930827678E+03  0.00000000000E+00 0.  1.
         21    1    1    2  504  501 -0.98804850865E+02  0.29491448019E+02  0.46599087351E+03  0.47726265122E+03  0.00000000000E+00 0.  1.
         21    1    1    2  505  503 -0.66358797321E+02 -0.14661783382E+02  0.39617864560E+01  0.68074618072E+02  0.00000000000E+00 0.  1.
          2    1    1    2  501    0  0.17815359343E+03  0.49618906835E+02 -0.24574033487E+03  0.30755333025E+03  0.00000000000E+00 0.  1.
<scales pt_clust_3="65.74464" pt_clust_4="116.03774" pt_clust_5="69.85331" pt_clust_6="14000.00000"></scales>
<clustering>
<clus scale="   65.745">  1  3  2 -1</clus>
<clus scale="   69.853">  2  5  1 -1</clus>
<clus scale="  116.038">  1  4  2 -1</clus>
<clus scale="   65.745">  1  3  2 -1</clus>
</clustering>
</event>
<event>
 6    0  0.2839294E+002  0.7082430E+02  0.7546771E-02  0.1357312E+00
         -2   -1    0    0    0  501 -0.00000000000E+00  0.00000000000E+00  0.47125850237E+03  0.47125850237E+03  0.00000000000E+00 0. -1.
         21   -1    0    0  503  502  0.00000000000E+00 -0.00000000000E+00 -0.76648973954E+02  0.76648973954E+02  0.00000000000E+00 0. -1.
         21    1    1    2  503  501 -0.58461508183E+02 -0.78525523529E+01  0.12885964218E+01  0.59000601677E+02  0.00000000000E+00 0.  1.
         21    1    1    2  504  502  0.42179921134E+02 -0.19799869097E+02 -0.13657941456E+02  0.48556358265E+02  0.00000000000E+00 0. -1.
         21    1    1    2  505  504  0.76525723040E+02 -0.89710497523E+01  0.10491787018E+03  0.13017075518E+03  0.00000000000E+00 0. -1.
         -2    1    1    2    0  505 -0.60244135991E+02  0.36623471202E+02  0.30206100328E+03  0.31017976121E+03  0.00000000000E+00 0. -1.
<scales pt_clust_3="37.72576" pt_clust_4="46.59593" pt_clust_5="70.82430" pt_clust_6="14000.00000"></scales>
<clustering>
<clus scale="   46.596">  2  4  1 -1</clus>
<clus scale="   37.726">  2  3  1 -1</clus>
<clus scale="   70.824">  2  5  1 -1</clus>
<clus scale="   46.596">  2  3  1 -1</clus>
</clustering>
</event>
<event>
 6    0  0.2839294E+002  0.8450505E+02  0.7546771E-02  0.1316732E+00
          2   -1    0    0  503    0 -0.00000000000E+00  0.00000000000E+00  0.18292063938E+04  0.18292063938E+04  0.00000000000E+00 0. -1.
         21   -1    0    0  505  502  0.00000000000E+00 -0.00000000000E+00 -0.35798818595E+04  0.35798818595E+04  0.00000000000E+00 0. -1.
         21    1    1    2  503  504  0.43175440149E+02  0.10668455841E+02  0.24821870832E+03  0.25217149272E+03  0.00000000000E+00 0. -1.
         21    1    1    2  504  502 -0.11630424299E+03 -0.10791142695E+01 -0.25676170070E+04  0.25702499754E+04  0.00000000000E+00 0. -1.
         21    1    1    2  505  501  0.59494271048E+02  0.19870727501E+02 -0.10078298707E+04  0.10097799079E+04  0.00000000000E+00 0. -1.
          2    1    1    2  501    0  0.13634531794E+02 -0.29460069073E+02  0.15765527037E+04  0.15768868773E+04  0.00000000000E+00 0. -1.
<scales pt_clust_3="59.63620" pt_clust_4="84.50505" pt_clust_5="14000.00000" pt_clust_6="32.46223"></scales>
<clustering>
<clus scale="   32.462">  1  6  2 -1</clus>
<clus scale="   59.636">  1  3  2 -1</clus>
<clus scale="   84.505">  1  4  2 -1</clus>
<clus scale="   84.505">  2  3  1 -1</clus>
</clustering>
</event>
<event>
 6    0  0.2839294E+002  0.9303970E+02  0.7546771E-02  0.1295653E+00
         21   -1    0    0  505  502  0.00000000000E+00  0.00000000000E+00  0.25275041769E+03  0.25275041769E+03  0.00000000000E+00 0.  1.
          1   -1    0    0  503    0 -0.00000000000E+00 -0.00000000000E+00 -0.14660822074E+04  0.14660822074E+04  0.00000000000E+00 0. -1.
         21    1    1    2  503  504 -0.82837428142E+02  0.63146044742E+02  0.10098167554E+03  0.14507501943E+03  0.00000000000E+00 0.  1.
         21    1    1    2  504  502  0.34488480034E+02 -0.28252131056E+02  0.11548285986E+03  0.12378985858E+03  0.00000000000E+00 0.  1.
         21    1    1    2  505  501 -0.10885908736E+02  0.36715204041E+02 -0.34390056743E+02  0.51470236249E+02  0.00000000000E+00 0.  1.
          1    1    1    2  501    0  0.59234856844E+02 -0.71609117726E+02 -0.13954062684E+04  0.13984975108E+04  0.00000000000E+00 0. -1.
<scales pt_clust_3="14000.00000" pt_clust_4="30.91006" pt_clust_5="38.29503" pt_clust_6="93.03970"></scales>
<clustering>
<clus scale="   38.295">  1  5  2 -1</clus>
<clus scale="   30.910">  1  4  2 -1</clus>
<clus scale="   93.040">  2  6  1 -1</clus>
<clus scale="   38.295">  1  3  2 -1</clus>
</clustering>
</event>
<event>
 6    0  0.2839294E+002  0.1318990E+03  0.7546771E-02  0.1224665E+00
         -1   -1    0    0    0  501 -0.00000000000E+00  0.00000000000E+00  0.50345394538E+02  0.50345394538E+02  0.00000000000E+00 0. -1.
         21   -1    0    0  505  502  0.00000000000E+00 -0.00000000000E+00 -0.67926233915E+03  0.67926233915E+03  0.00000000000E+00 0. -1.
         21    1    1    2  503  501  0.80144577764E+02  0.16547816472E+02 -0.10910285524E+03  0.13638334428E+03  0.00000000000E+00 0. -1.
         21    1    1    2  504  503  0.49623177283E+02 -0.22845296672E+01 -0.22796143918E+02  0.54656591341E+02  0.00000000000E+00 0. -1.
         21    1    1    2  505  504 -0.12164735765E+03  0.18333776436E+02 -0.48871878508E+03  0.50396454029E+03  0.00000000000E+00 0. -1.
         -1    1    1    2    0  502 -0.81203973931E+01 -0.32597063241E+02 -0.82991603728E+01  0.34603257775E+02  0.00000000000E+00 0. -1.
<scales pt_clust_3="36.06963" pt_clust_4="36.06963" pt_clust_5="123.86103" pt_clust_6="33.59329"></scales>
<clustering>
<clus scale="   33.593">  1  6  2 -1</clus>
<clus scale="   36.070">  3  4 -1 -1</clus>
<clus scale="  123.861">  2  5  1 -1</clus>
<clus scale="  123.861">  2  3  1 -1</clus>
</clustering>
</event>
<event>
 6    0  0.2839294E+002  0.2095504E+03  0.7546771E-02  0.1141923E+00
         21   -1    0    0  504  502  0.00000000000E+00  0.00000000000E+00  0.66675521379E+02  0.66675521379E+02  0.00000000000E+00 0.  1.
          2   -1    0    0  505    0 -0.00000000000E+00 -0.00000000000E+00 -0.20331556687E+04  0.20331556687E+04  0.00000000000E+00 0.  1.
         21    1    1    2  503  502 -0.22623041155E+03 -0.17370757642E+03 -0.99037384022E+03  0.10306283834E+04  0.00000000000E+00 0.  1.
         21    1    1    2  504  501  0.74720208876E+02  0.13011524318E+03 -0.14712599718E+03  0.21014077465E+03  0.00000000000E+00 0.  1.
         21    1    1    2  505  503  0.15486897437E+02 -0.54797593886E+02 -0.23631586742E+03  0.24307984178E+03  0.00000000000E+00 0.  1.
          2    1    1    2  501    0  0.13602330524E+03  0.98389927124E+02 -0.59266444248E+03  0.61598219025E+03  0.00000000000E+00 0.  1.
<scales pt_clust_3="209.55035" pt_clust_4="146.13499" pt_clust_5="56.94401" pt_clust_6="14000.00000"></scales>
<clustering>
<clus scale="   56.944">  2  5  1 -1</clus>
<clus scale="  146.135">  1  4  2 -1</clus>
<clus scale="  209.550">  1  3  2 -1</clus>
<clus scale="  146.135">  1  3  2 -1</clus>
</clustering>
</event>
<event>
 6    0  0.2839294E+002  0.1297171E+03  0.7546771E-02  0.1227876E+00
         21   -1    0    0  505  502  0.00000000000E+00  0.00000000000E+00  0.20584707027E+02  0.20584707027E+02  0.00000000000E+00 0.  1.
         -4   -1    0    0    0  501 -0.00000000000E+00 -0.00000000000E+00 -0.13022474810E+04  0.13022474810E+04  0.00000000000E+00 0. -1.
         21    1    1    2  503  502  0.11480821346E+02 -0.41151896519E+02 -0.63886253780E+02  0.76855326868E+02  0.00000000000E+00 0. -1.
         21    1    1    2  504  501 -0.52350192449E+01  0.10442157378E+03 -0.52506665295E+03  0.53537487851E+03  0.00000000000E+00 0.  1.
         21    1    1    2  505  504 -0.15813673619E+02  0.38189317038E+02 -0.86291770030E+02  0.95680540258E+02  0.00000000000E+00 0.  1.
         -4    1    1    2    0  503  0.95678715178E+01 -0.10145899430E+03 -0.60641809725E+03  0.61492144243E+03  0.00000000000E+00 0. -1.
<scales pt_clust_3="42.72339" pt_clust_4="38.19903" pt_clust_5="38.19903" pt_clust_6="114.61073"></scales>
<clustering>
<clus scale="   38.199">  4  5 -1 -1</clus>
<clus scale="   42.723">  1  3  2 -1</clus>
<clus scale="  114.611">  2  6  1 -1</clus>
<clus scale="   42.723">  1  3  2 -1</clus>
</clustering>
</event>
<event>
 6    0  0.2839294E+002  0.1487005E+03  0.7546771E-02  0.1202079E+00
         21   -1    0    0  504  502  0.00000000000E+00  0.00000000000E+00  0.16380595075E+03  0.16380595075E+03  0.00000000000E+00 0.  1.
          1   -1    0    0  503    0 -0.00000000000E+00 -0.00000000000E+00 -0.98829073400E+03  0.98829073400E+03  0.00000000000E+00 0. -1.
         21    1    1    2  503  502  0.12738777088E+03 -0.34597798304E+02  0.10165746959E+03  0.16661000252E+03  0.00000000000E+00 0.  1.
         21    1    1    2  504  505  0.16782077175E+02  0.28914098714E+02  0.12010307481E+02  0.35523382504E+02  0.00000000000E+00 0. -1.
         21    1    1    2  505  501 -0.78814331818E+02  0.95926050542E+01 -0.39674323288E+03  0.40460957701E+03  0.00000000000E+00 0.  1.
          1    1    1    2  501    0 -0.65355516242E+02 -0.39089054646E+01 -0.54140932743E+03  0.54535372271E+03  0.00000000000E+00 0. -1.
<scales pt_clust_3="143.62814" pt_clust_4="33.43147" pt_clust_5="34.97921" pt_clust_6="34.97921"></scales>
<clustering>
<clus scale="   33.431">  1  4  2 -1</clus>
<clus scale="   34.979">  5  6 -1 -1</clus>
<clus scale="  143.628">  1  3  2 -1</clus>
<clus scale="   33.431">  1  3  2 -1</clus>
</clustering>
</event>
<event>
 6    0  0.2839294E+002  0.8625321E+02  0.7546771E-02  0.1312187E+00
         21   -1    0    0  505  502  0.00000000000E+00  0.00000000000E+00  0.11415822522E+03  0.11415822522E+03  0.00000000000E+00 0.  1.
          1   -1    0    0  504    0 -0.00000000000E+00 -0.00000000000E+00 -0.18991429432E+04  0.18991429432E+04  0.00000000000E+00 0.  1.
         21    1    1    2  503  501  0.50800832222E+02 -0.84902744166E+02 -0.14506140516E+03  0.17559046611E+03  0.00000000000E+00 0.  1.
         21    1    1    2  504  502  0.38664252395E+01  0.31072921974E+02 -0.86357274628E+02  0.91858884193E+02  0.00000000000E+00 0.  1.
         21    1    1    2  505  503 -0.82670960836E+02  0.27983564623E+02  0.76066201607E+02  0.11577406740E+03  0.00000000000E+00 0.  1.
          1    1    1    2  501    0  0.28003703374E+02  0.25846257570E+02 -0.16296322398E+04  0.16300777507E+04  0.00000000000E+00 0.  1.
<scales pt_clust_3="14000.00000" pt_clust_4="31.31255" pt_clust_5="86.25321" pt_clust_6="62.35833"></scales>
<clustering>
<clus scale="   31.313">  2  4  1 -1</clus>
<clus scale="   62.358">  2  6  1 -1</clus>
<clus scale="   86.253">  1  5  2 -1</clus>
<clus scale="   86.253">  1  3  2 -1</clus>
</clustering>
</event>
<event>
 6    0  0.2839294E+002  0.1701029E+03  0.7546771E-02  0.1177741E+00
          3   -1    0    0  505    0 -0.00000000000E+00  0.00000000000E+00  0.65181504231E+03  0.65181504231E+03  0.00000000000E+00 0.  1.
         21   -1    0    0  503  502  0.00000000000E+00 -0.00000000000E+00 -0.17072316969E+03  0.17072316969E+03  0.00000000000E+00 0. -1.
         21    1    1    2  503  501  0.15238253962E+02  0.34677596166E+02  0.13343339329E+03  0.13870548117E+03  0.00000000000E+00 0.  1.
         21    1    1    2  504  502 -0.31390479558E+02 -0.30725608537E+01 -0.72008516352E+02  0.78613162157E+02  0.00000000000E+00 0. -1.
         21    1    1    2  505  504 -0.11469242698E+03 -0.68082324641E+02 -0.28955180300E+02  0.13648427822E+03  0.00000000000E+00 0. -1.
          3    1    1    2  501    0  0.13084465258E+03  0.36477289329E+02  0.44862217598E+03  0.46873529046E+03  0.00000000000E+00 0.  1.
<scales pt_clust_3="32.73598" pt_clust_4="31.54050" pt_clust_5="158.56428" pt_clust_6="32.73598"></scales>
<clustering>
<clus scale="   31.540">  2  4  1 -1</clus>
<clus scale="   32.736">  3  6 -1 -1</clus>
<clus scale="  158.564">  2  5  1 -1</clus>
<clus scale="   31.540">  2  3  1 -1</clus>
</clustering>
</event>
<event>
 6    0  0.2839294E+002  0.1539625E+03  0.7546771E-02  0.1195687E+00
         -2   -1    0    0    0  501 -0.00000000000E+00  0.00000000000E+00  0.31211020164E+03  0.31211020164E+03  0.00000000000E+00 0.  1.
         21   -1    0    0  505  502  0.00000000000E+00 -0.00000000000E+00 -0.10496290053E+04  0.10496290053E+04  0.00000000000E+00 0. -1.
         21    1    1    2  503  501 -0.15712857203E+03  0.29350216792E+02  0.12172468901E+03  0.20091720506E+03  0.00000000000E+00 0.  1.
         21    1    1    2  504  502 -0.20775832704E+01  0.69633670692E+02 -0.71254759132E+03  0.71594499394E+03  0.00000000000E+00 0. -1.
         21    1    1    2  505  503  0.50352471061E+02  0.27946107103E+02 -0.24447995433E+03  0.25117086677E+03  0.00000000000E+00 0. -1.
         -2    1    1    2    0  504  0.10885368424E+03 -0.12692999459E+03  0.97784052998E+02  0.19370614115E+03  0.00000000000E+00 0.  1.
<scales pt_clust_3="14000.00000" pt_clust_4="103.75630" pt_clust_5="57.58781" pt_clust_6="153.96254"></scales>
<clustering>
<clus scale="   57.588">  2  5  1 -1</clus>
<clus scale="  103.756">  2  4  1 -1</clus>
<clus scale="  153.963">  2  6  1 -1</clus>
<clus scale="   57.588">  2  3  1 -1</clus>
</clustering>
</event>
<event>
 6    0  0.2839294E+002  0.1539752E+03  0.7546771E-02  0.1195672E+00
         21   -1    0    0  504  502  0.00000000000E+00  0.00000000000E+00  0.64265202290E+03  0.64265202290E+03  0.00000000000E+00 0.  1.
         -1   -1    0    0    0  501 -0.00000000000E+00 -0.00000000000E+00 -0.82755901609E+02  0.82755901609E+02  0.00000000000E+00 0.  1.
         21    1    1    2  503  501 -0.28450438034E+02 -0.41142183449E+02  0.87441479344E+01  0.50779590451E+02  0.00000000000E+00 0.  1.
         21    1    1    2  504  503 -0.68567725751E+02 -0.29698056874E+02  0.64070323846E+02  0.98430249388E+02  0.00000000000E+00 0.  1.
         21    1    1    2  505  502  0.13808892390E+03  0.67120353225E+02  0.50747452208E+03  0.53019249644E+03  0.00000000000E+00 0.  1.
         -1    1    1    2    0  505 -0.41070760118E+02  0.37198870968E+01 -0.20392872569E+02  0.46005588229E+02  0.00000000000E+00 0.  1.
<scales pt_clust_3="41.16002" pt_clust_4="41.16002" pt_clust_5="145.52521" pt_clust_6="41.23888"></scales>
<clustering>
<clus scale="   41.160">  3  4 -1 -1</clus>
<clus scale="   41.239">  2  6  1 -1</clus>
<clus scale="  145.525">  1  5  2 -1</clus>
<clus scale="  145.525">  1  3  2 -1</clus>
</clustering>
</event>
<event>
 6    0  0.2839294E+002  0.1024398E+03  0.7546771E-02  0.1275247E+00
         21   -1    0    0  504  502  0.00000000000E+00  0.00000000000E+00  0.14528952600E+03  0.14528952600E+03  0.00000000000E+00 0.  1.
          1   -1    0    0  503    0 -0.00000000000E+00 -0.00000000000E+00 -0.40158564548E+03  0.40158564548E+03  0.00000000000E+00 0.  1.
         21    1    1    2  503  505 -0.61525483010E+02  0.63082679821E+02 -0.30717742702E+02  0.93318750901E+02  0.00000000000E+00 0.  1.
         21    1    1    2  504  501 -0.46839794530E+01 -0.30833096857E+02  0.21949020985E+02  0.38136321893E+02  0.00000000000E+00 0.  1.
         21    1    1    2  505  502 -0.31950550387E+02  0.12516096274E+02  0.71141073346E+02  0.78984445638E+02  0.00000000000E+00 0.  1.
          1    1    1    2  501    0  0.98160012850E+02 -0.44765679238E+02 -0.31866847111E+03  0.33643565305E+03  0.00000000000E+00 0.  1.
<scales pt_clust_3="102.43983" pt_clust_4="31.18685" pt_clust_5="35.80977" pt_clust_6="14000.00000"></scales>
<clustering>
<clus scale="   31.187">  1  4  2 -1</clus>
<clus scale="   35.810">  1  5  2 -1</clus>
<clus scale="  102.440">  1  3  2 -1</clus>
<clus scale="   31.187">  1  3  2 -1</clus>
</clustering>
</event>
<event>
 6    0  0.2839294E+002  0.1076018E+03  0.7546771E-02  0.1265077E+00
         21   -1    0    0  504  502  0.00000000000E+00  0.00000000000E+00  0.14079544609E+03  0.14079544609E+03  0.00000000000E+00 0. -1.
          2   -1    0    0  503    0 -0.00000000000E+00 -0.00000000000E+00 -0.45340640811E+03  0.45340640811E+03  0.00000000000E+00 0.  1.
         21    1    1    2  503  505 -0.12133471866E+03  0.18441487662E+02 -0.11286328601E+03  0.16673429086E+03  0.00000000000E+00 0.  1.
         21    1    1    2  504  501  0.97243237707E+02 -0.26654076258E+02 -0.49565229747E+02  0.11235390096E+03  0.00000000000E+00 0. -1.
         21    1    1    2  505  502 -0.28133430644E+02 -0.69709761609E+02  0.52557906592E+02  0.91723902712E+02  0.00000000000E+00 0. -1.
          2    1    1    2  501    0  0.52224911597E+02  0.77922350206E+02 -0.20274035285E+03  0.22338975968E+03  0.00000000000E+00 0.  1.
<scales pt_clust_3="107.60180" pt_clust_4="14000.00000" pt_clust_5="75.17274" pt_clust_6="82.77342"></scales>
<clustering>
<clus scale="   75.173">  1  5  2 -1</clus>
<clus scale="   82.773">  2  6  1 -1</clus>
<clus scale="  107.602">  2  3  1 -1</clus>
<clus scale="   75.173">  1  3  2 -1</clus>
</clustering>
</event>
<event>
 6    0  0.2839294E+002  0.1291583E+03  0.7546771E-02  0.1228710E+00
          1   -1    0    0  503    0 -0.00000000000E+00  0.00000000000E+00  0.38080056128E+03  0.38080056128E+03  0.00000000000E+00 0.  1.
         21   -1    0    0  505  502  0.00000000000E+00 -0.00000000000E+00 -0.54921999871E+03  0.54921999871E+03  0.00000000000E+00 0.  1.
         21    1    1    2  503  504  0.42104389887E+02  0.13282538526E+02  0.99284864925E+02  0.10865859322E+03  0.00000000000E+00 0.  1.
         21    1    1    2  504  502 -0.65019980866E+02 -0.81077348040E+02 -0.30685297105E+03  0.32397512269E+03  0.00000000000E+00 0.  1.
         21    1    1    2  505  501 -0.71854953301E+00 -0.33721432318E+02 -0.21764648780E+03  0.22024451177E+03  0.00000000000E+00 0.  1.
          1    1    1    2  501    0  0.23634140512E+02  0.10151624183E+03  0.25679515651E+03  0.27714233231E+03  0.00000000000E+00 0.  1.
<scales pt_clust_3="43.99845" pt_clust_4="129.15827" pt_clust_5="33.72909" pt_clust_6="14000.00000"></scales>
<clustering>
<clus scale="   33.729">  2  5  1 -1</clus>
<clus scale="   43.998">  1  3  2 -1</clus>
<clus scale="  129.158">  2  4  1 -1</clus>
<clus scale="   33.729">  2  3  1 -1</clus>
</clustering>
</event>
<event>
 6    0  0.2839294E+002  0.8073692E+02  0.7546771E-02  0.1326973E+00
          4   -1    0    0  503    0 -0.00000000000E+00  0.00000000000E+00  0.25694019007E+03  0.25694019007E+03  0.00000000000E+00 0. -1.
         21   -1    0    0  505  502  0.00000000000E+00 -0.00000000000E+00 -0.70398724545E+03  0.70398724545E+03  0.00000000000E+00 0.  1.
         21    1    1    2  503  504 -0.41681785516E+02  0.53905094254E+01  0.38249384422E+02  0.56828199376E+02  0.00000000000E+00 0.  1.
         21    1    1    2  504  502 -0.64586478609E+02  0.37668354001E+02 -0.59810339292E+03  0.60275864717E+03  0.00000000000E+00 0.  1.
         21    1    1    2  505  501  0.26950061883E+02  0.33251480959E+02 -0.73439541605E+02  0.85001959346E+02  0.00000000000E+00 0. -1.
          4    1    1    2  501    0  0.79318202241E+02 -0.76310344385E+02  0.18624649473E+03  0.21633862962E+03  0.00000000000E+00 0. -1.
<scales pt_clust_3="42.02890" pt_clust_4="80.73692" pt_clust_5="42.20408" pt_clust_6="14000.00000"></scales>
<clustering>
<clus scale="   42.029">  1  3  2 -1</clus>
<clus scale="   42.204">  2  5  1 -1</clus>
<clus scale="   80.737">  2  4  1 -1</clus>
<clus scale="   42.204">  2  3  1 -1</clus>
</clustering>
</event>
<event>
 6    0  0.2839294E+002  0.7273194E+02  0.7546771E-02  0.1351042E+00
          2   -1    0    0  504    0 -0.00000000000E+00  0.00000000000E+00  0.69756132956E+03  0.69756132956E+03  0.00000000000E+00 0. -1.
         21   -1    0    0  503  502  0.00000000000E+00 -0.00000000000E+00 -0.13605208737E+04  0.13605208737E+04  0.00000000000E+00 0.  1.
         21    1    1    2  503  501 -0.19905850767E+02 -0.25117821991E+02 -0.48940053199E+03  0.49044880323E+03  0.00000000000E+00 0. -1.
         21    1    1    2  504  505 -0.10804405747E+02  0.51343045394E+02  0.11447384694E+03  0.12592499802E+03  0.00000000000E+00 0.  1.
         21    1    1    2  505  502  0.92231699767E+02  0.18504412118E+02 -0.85978655603E+03  0.86491734960E+03  0.00000000000E+00 0.  1.
          2    1    1    2  501    0 -0.61521443254E+02 -0.44729635521E+02  0.57175369690E+03  0.57679105246E+03  0.00000000000E+00 0. -1.
<scales pt_clust_3="32.04915" pt_clust_4="52.33311" pt_clust_5="72.73194" pt_clust_6="14000.00000"></scales>
<clustering>
<clus scale="   32.049">  2  3  1 -1</clus>
<clus scale="   52.333">  1  4  2 -1</clus>
<clus scale="   72.732">  2  5  1 -1</clus>
<clus scale="   32.049">  2  3  1 -1</clus>
</clustering>
</event>
<event>
 6    0  0.2839294E+002  0.1253944E+03  0.7546771E-02  0.1234454E+00
         -1   -1    0    0    0  501 -0.00000000000E+00  0.00000000000E+00  0.14839355019E+03  0.14839355019E+03  0.00000000000E+00 0.  1.
         21   -1    0    0  503  502  0.00000000000E+00 -0.00000000000E+00 -0.53044178786E+03  0.53044178786E+03  0.00000000000E+00 0.  1.
         21    1    1    2  503  505  0.44147500864E+02  0.23738943176E+02 -0.24624270798E+03  0.25129267894E+03  0.00000000000E+00 0.  1.
         21    1    1    2  504  502 -0.61740756995E+02  0.59182794592E+02 -0.18575657626E+03  0.20449946179E+03  0.00000000000E+00 0.  1.
         21    1    1    2  505  501  0.94647837778E+01  0.54399378303E+02 -0.31107124014E+02  0.63376081104E+02  0.00000000000E+00 0.  1.
         -1    1    1    2    0  504  0.81284723536E+01 -0.13732111607E+03  0.81058170586E+02  0.15966711622E+03  0.00000000000E+00 0.  1.
<scales pt_clust_3="50.12524" pt_clust_4="14000.00000" pt_clust_5="60.76911" pt_clust_6="125.39438"></scales>
<clustering>
<clus scale="   50.125">  2  3  1 -1</clus>
<clus scale="   60.769">  2  5  1 -1</clus>
<clus scale="  125.394">  1  6  2 -1</clus>
<clus scale="   50.125">  2  3  1 -1</clus>
</clustering>
</event>
<event>
 6    0  0.2839294E+002  0.1079454E+03  0.7546771E-02  0.1264423E+00
         21   -1    0    0  503  502  0.00000000000E+00  0.00000000000E+00  0.50344875234E+03  0.50344875234E+03  0.00000000000E+00 0. -1.
         -1   -1    0    0    0  501 -0.00000000000E+00 -0.00000000000E+00 -0.21749379631E+04  0.21749379631E+04  0.00000000000E+00 0. -1.
         21    1    1    2  503  504  0.16710611983E+02  0.82327132817E+02  0.38144731090E+03  0.39058808525E+03  0.00000000000E+00 0. -1.
         21    1    1    2  504  501  0.80079146818E+02 -0.90829043221E+02  0.84484412781E+02  0.14764891077E+03  0.00000000000E+00 0. -1.
         21    1    1    2  505  502 -0.70013469927E+02 -0.12962340621E+02 -0.12091527620E+04  0.12112474190E+04  0.00000000000E+00 0.  1.
         -1    1    1    2    0  505 -0.26776288875E+02  0.21464251025E+02 -0.92826817246E+03  0.92890230042E+03  0.00000000000E+00 0. -1.
<scales pt_clust_3="84.00596" pt_clust_4="97.05757" pt_clust_5="32.79874" pt_clust_6="32.79874"></scales>
<clustering>
<clus scale="   32.799">  5  6 -1 -1</clus>
<clus scale="   84.006">  1  3  2 -1</clus>
<clus scale="   97.058">  1  4  2 -1</clus>
<clus scale="   84.006">  1  3  2 -1</clus>
</clustering>
</event>
<event>
 6    0  0.2839294E+002  0.1023349E+03  0.7546771E-02  0.1275461E+00
         -4   -1    0    0    0  501 -0.00000000000E+00  0.00000000000E+00  0.38650009174E+03  0.38650009174E+03  0.00000000000E+00 0. -1.
         21   -1    0    0  504  502  0.00000000000E+00 -0.00000000000E+00 -0.11261613261E+03  0.11261613261E+03  0.00000000000E+00 0. -1.
         21    1    1    2  503  501  0.22415829562E+02 -0.64022110927E+02  0.96374209069E+02  0.11785282464E+03  0.00000000000E+00 0. -1.
         21    1    1    2  504  505  0.21725207403E+02 -0.52890239999E+02 -0.18575391921E+02  0.60119941026E+02  0.00000000000E+00 0. -1.
         21    1    1    2  505  503  0.74732136691E+02  0.90534972437E+02  0.41838361881E+02  0.12462713193E+03  0.00000000000E+00 0. -1.
         -4    1    1    2    0  502 -0.11887317366E+03  0.26377378490E+02  0.15424678010E+03  0.19651632676E+03  0.00000000000E+00 0. -1.
<scales pt_clust_3="76.20333" pt_clust_4="57.17834" pt_clust_5="102.33495" pt_clust_6="14000.00000"></scales>
<clustering>
<clus scale="   57.178">  2  4  1 -1</clus>
<clus scale="   76.203">  1  3  2 -1</clus>
<clus scale="  102.335">  2  5  1 -1</clus>
<clus scale="   57.178">  2  3  1 -1</clus>
</clustering>
</event>
<event>
 6    0  0.2839294E+002  0.1233407E+03  0.7546771E-02  0.1237685E+00
         21   -1    0    0  505  502  0.00000000000E+00  0.00000000000E+00  0.51543646554E+02  0.51543646554E+02  0.00000000000E+00 0. -1.
          2   -1    0    0  503    0 -0.00000000000E+00 -0.00000000000E+00 -0.16975803071E+04  0.16975803071E+04  0.00000000000E+00 0. -1.
         21    1    1    2  503  502 -0.15745686390E+03  0.45444613196E+02 -0.77325030292E+03  0.79042640886E+03  0.00000000000E+00 0. -1.
         21    1    1    2  504  501  0.31340729990E+02 -0.38827556603E+02 -0.30310129355E+03  0.30718107797E+03  0.00000000000E+00 0. -1.
         21    1    1    2  505  504  0.11394900891E+03  0.43348162857E+02 -0.54111822186E+02  0.13338489103E+03  0.00000000000E+00 0. -1.
          2    1    1    2  501    0  0.12167124995E+02 -0.49965219450E+02 -0.51557324186E+03  0.51813157577E+03  0.00000000000E+00 0. -1.
<scales pt_clust_3="123.34072" pt_clust_4="33.19876" pt_clust_5="14000.00000" pt_clust_6="104.46522"></scales>
<clustering>
<clus scale="   33.199">  4  6 -1 -1</clus>
<clus scale="  104.465">  2  4  1 -1</clus>
<clus scale="  123.341">  2  3  1 -1</clus>
<clus scale="  123.341">  1  3  2 -1</clus>
</clustering>
</event>
<event>
 6    0  0.2839294E+002  0.1301528E+03  0.7546771E-02  0.1227229E+00
          2   -1    0    0  505    0 -0.00000000000E+00  0.00000000000E+00  0.47327628488E+03  0.47327628488E+03  0.00000000000E+00 0. -1.
         21   -1    0    0  503  502  0.00000000000E+00 -0.00000000000E+00 -0.39508523382E+03  0.39508523382E+03  0.00000000000E+00 0.  1.
         21    1    1    2  503  501  0.87028367206E+02 -0.15027624837E+03 -0.29424183860E+03  0.34166525592E+03  0.00000000000E+00 0.  1.
         21    1    1    2  504  502  0.30691490776E+02  0.58043087870E+02 -0.27431373459E+02  0.71157908242E+02  0.00000000000E+00 0.  1.
         21    1    1    2  505  504  0.59954107732E+01  0.51904371038E+02  0.23455389876E+02  0.57272715995E+02  0.00000000000E+00 0.  1.
          2    1    1    2  501    0 -0.12371526876E+03  0.40328789461E+02  0.37640887324E+03  0.39826563854E+03  0.00000000000E+00 0. -1.
<scales pt_clust_3="14000.00000" pt_clust_4="128.36906" pt_clust_5="49.21949" pt_clust_6="130.15282"></scales>
<clustering>
<clus scale="   49.219">  4  5 -1 -1</clus>
<clus scale="  128.369">  2  4  1 -1</clus>
<clus scale="  130.153">  1  6  2 -1</clus>
<clus scale="  128.369">  2  3  1 -1</clus>
</clustering>
</event>
<event>
 6    0  0.2839294E+002  0.1267471E+03  0.7546771E-02  0.1232364E+00
          2   -1    0    0  505    0 -0.00000000000E+00  0.00000000000E+00  0.39011902956E+03  0.39011902956E+03  0.00000000000E+00 0.  1.
         21   -1    0    0  504  502  0.00000000000E+00 -0.00000000000E+00 -0.69668855462E+03  0.69668855462E+03  0.00000000000E+00 0.  1.
         21    1    1    2  503  502  0.13652730309E+02  0.13052727022E+03 -0.89610718164E+02  0.15891458752E+03  0.00000000000E+00 0.  1.
         21    1    1    2  504  501 -0.55446531394E+02 -0.11443216309E+03 -0.55480214100E+03  0.56918753803E+03  0.00000000000E+00 0.  1.
         21    1    1    2  505  503  0.36950446392E+02  0.14767133625E+02  0.31440014461E+02  0.50713688817E+02  0.00000000000E+00 0.  1.
          2    1    1    2  501    0  0.48433546935E+01 -0.30862240751E+02  0.30640331964E+03  0.30799176982E+03  0.00000000000E+00 0.  1.
<scales pt_clust_3="126.74709" pt_clust_4="14000.00000" pt_clust_5="39.35315" pt_clust_6="31.23997"></scales>
<clustering>
<clus scale="   31.240">  1  6  2 -1</clus>
<clus scale="   39.353">  1  5  2 -1</clus>
<clus scale="  126.747">  1  3  2 -1</clus>
<clus scale="  126.747">  2  3  1 -1</clus>
</clustering>
</event>
<event>
 6    0  0.2839294E+002  0.1038520E+03  0.7546771E-02  0.1272398E+00
         21   -1    0    0  501  502  0.00000000000E+00  0.00000000000E+00  0.87915944780E+03  0.87915944780E+03  0.00000000000E+00 0. -1.
          1   -1    0    0  505    0 -0.00000000000E+00 -0.00000000000E+00 -0.13408903231E+04  0.13408903231E+04  0.00000000000E+00 0. -1.
         21    1    1    2  503  504 -0.38314536299E+02 -0.65632540063E+02  0.14098384622E+03  0.16016266388E+03  0.00000000000E+00 0.  1.
         21    1    1    2  504  502  0.67466781228E+02  0.96582170133E+02  0.72211815164E+03  0.73166557052E+03  0.00000000000E+00 0. -1.
         21    1    1    2  505  503  0.23389200910E+02 -0.31238230704E+02 -0.74186034257E+03  0.74288602737E+03  0.00000000000E+00 0. -1.
          1    1    1    2  501    0 -0.52541445840E+02  0.28860063436E+00 -0.58297253060E+03  0.58533550913E+03  0.00000000000E+00 0. -1.
<scales pt_clust_3="103.85198" pt_clust_4="14000.00000" pt_clust_5="39.02412" pt_clust_6="42.36665"></scales>
<clustering>
<clus scale="   39.024">  2  5  1 -1</clus>
<clus scale="   42.367">  2  6  1 -1</clus>
<clus scale="  103.852">  2  3  1 -1</clus>
<clus scale="  103.852">  1  3  2 -1</clus>
</clustering>
</event>
<event>
 6    0  0.2839294E+002  0.1079881E+03  0.7546771E-02  0.1264342E+00
          2   -1    0    0  502    0 -0.00000000000E+00  0.00000000000E+00  0.10918489345E+04  0.10918489345E+04  0.00000000000E+00 0.  1.
         21   -1    0    0  503  502  0.00000000000E+00 -0.00000000000E+00 -0.66111198173E+02  0.66111198173E+02  0.00000000000E+00 0.  1.
         21    1    1    2  503  504  0.42172349097E+00 -0.64689019656E+02 -0.21197552075E+02  0.68074836237E+02  0.00000000000E+00 0.  1.
         21    1    1    2  504  505 -0.92403729087E+02  0.78530336011E+01  0.10042575012E+03  0.13669473499E+03  0.00000000000E+00 0.  1.
         21    1    1    2  505  501  0.41130243739E+02  0.33636833928E+02  0.34203340410E+03  0.34613578703E+03  0.00000000000E+00 0. -1.
          2    1    1    2  501    0  0.50851761857E+02  0.23199152127E+02  0.60447613418E+03  0.60705477441E+03  0.00000000000E+00 0.  1.
<scales pt_clust_3="64.69039" pt_clust_4="103.24975" pt_clust_5="30.84619" pt_clust_6="30.84619"></scales>
<clustering>
<clus scale="   30.846">  5  6 -1 -1</clus>
<clus scale="   64.690">  2  3  1 -1</clus>
<clus scale="  103.250">  2  4  1 -1</clus>
<clus scale="   64.690">  2  3  1 -1</clus>
</clustering>
</event>
<event>
 6    0  0.2839294E+002  0.8029651E+02  0.7546771E-02  0.1328212E+00
         21   -1    0    0  501  502  0.00000000000E+00  0.00000000000E+00  0.13128864155E+04  0.13128864155E+04  0.00000000000E+00 0.  1.
          3   -1    0    0  504    0 -0.00000000000E+00 -0.00000000000E+00 -0.12303896432E+03  0.12303896432E+03  0.00000000000E+00 0.  1.
         21    1    1    2  503  502 -0.27428294119E+02 -0.73489778960E+02  0.10885652419E+04  0.10913878068E+04  0.00000000000E+00 0.  1.
         21    1    1    2  504  505 -0.14711560784E+02 -0.41205021010E+02 -0.43726543729E+02  0.61857048132E+02  0.00000000000E+00 0.  1.
         21    1    1    2  505  503  0.58842388312E+02  0.79876833079E+02  0.19542991221E+03  0.21917022086E+03  0.00000000000E+00 0. -1.
          3    1    1    2  501    0 -0.16702533409E+02  0.34817966891E+02 -0.50421159132E+02  0.63510304117E+02  0.00000000000E+00 0.  1.
<scales pt_clust_3="80.29651" pt_clust_4="31.08632" pt_clust_5="14000.00000" pt_clust_6="38.61691"></scales>
<clustering>
<clus scale="   38.617">  2  6  1 -1</clus>
<clus scale="   31.086">  2  4  1 -1</clus>
<clus scale="   80.297">  1  3  2 -1</clus>
<clus scale="   80.297">  1  3  2 -1</clus>
</clustering>
</event>
<event>
 6    0  0.2839294E+002  0.1034457E+03  0.7546771E-02  0.1273213E+00
         21   -1    0    0  501  502  0.00000000000E+00  0.00000000000E+00  0.11535854832E+04  0.11535854832E+04  0.00000000000E+00 0.  1.
          1   -1    0    0  505    0 -0.00000000000E+00 -0.00000000000E+00 -0.20579620199E+04  0.20579620199E+04  0.00000000000E+00 0.  1.
         21    1    1    2  503  504  0.16729370914E+02 -0.10707997271E+03  0.40930414546E+02  0.11585029668E+03  0.00000000000E+00 0.  1.
         21    1    1    2  504  502  0.35557808832E+02  0.18490484256E+02  0.10682039553E+04  0.10689555397E+04  0.00000000000E+00 0.  1.
         21    1    1    2  505  503  0.71301030520E+02  0.58495934920E+01 -0.39623903968E+03  0.40264554047E+03  0.00000000000E+00 0.  1.
          1    1    1    2  501    0 -0.12358821027E+03  0.82739894962E+02 -0.16172718668E+04  0.16240961262E+04  0.00000000000E+00 0.  1.
<scales pt_clust_3="14000.00000" pt_clust_4="40.07812" pt_clust_5="72.93533" pt_clust_6="103.44565"></scales>
<clustering>
<clus scale="   40.078">  1  4  2 -1</clus>
<clus scale="   72.935">  2  5  1 -1</clus>
<clus scale="  103.446">  2  6  1 -1</clus>
<clus scale="   40.078">  1  3  2 -1</clus>
</clustering>
</event>
<event>
 6    0  0.2839294E+002  0.8681984E+02  0.7546771E-02  0.1310741E+00
          3   -1    0    0  505    0 -0.00000000000E+00  0.00000000000E+00  0.11422964743E+04  0.11422964743E+04  0.00000000000E+00 0. -1.
         21   -1    0    0  501  502  0.00000000000E+00 -0.00000000000E+00 -0.12806291219E+03  0.12806291219E+03  0.00000000000E+00 0. -1.
         21    1    1    2  503  502  0.25837191252E+02 -0.20852747850E+02 -0.66284256850E+02  0.74135013663E+02  0.00000000000E+00 0. -1.
         21    1    1    2  504  503 -0.54422534115E+02  0.10018444127E+03  0.92058050561E+01  0.11438304656E+03  0.00000000000E+00 0. -1.
         21    1    1    2  505  504  0.73317790241E+02 -0.60339474680E+02  0.53759827265E+03  0.54591963999E+03  0.00000000000E+00 0. -1.
          3    1    1    2  501    0 -0.44732447378E+02 -0.18992218744E+02  0.53371374121E+03  0.53592168624E+03  0.00000000000E+00 0. -1.
<scales pt_clust_3="33.20237" pt_clust_4="86.81984" pt_clust_5="14000.00000" pt_clust_6="48.30221"></scales>
<clustering>
<clus scale="   33.202">  2  3  1 -1</clus>
<clus scale="   48.302">  1  6  2 -1</clus>
<clus scale="   86.820">  2  4  1 -1</clus>
<clus scale="   33.202">  2  3  1 -1</clus>
</clustering>
</event>
<event>
 6    0  0.2839294E+002  0.1129468E+03  0.7546771E-02  0.1255208E+00
         21   -1    0    0  505  502  0.00000000000E+00  0.00000000000E+00  0.42315962671E+03  0.42315962671E+03  0.00000000000E+00 0.  1.
          2   -1    0    0  504    0 -0.00000000000E+00 -0.00000000000E+00 -0.45774108273E+03  0.45774108273E+03  0.00000000000E+00 0.  1.
         21    1    1    2  503  501  0.43517296527E+02 -0.17462957708E+02  0.49367027198E+00  0.46893002668E+02  0.00000000000E+00 0. -1.
         21    1    1    2  504  502  0.71323360480E+02  0.10172444287E+02  0.34399731672E+03  0.35146074359E+03  0.00000000000E+00 0.  1.
         21    1    1    2  505  503 -0.84436474133E+01 -0.33779973710E+02  0.37188636389E+02  0.50944837638E+02  0.00000000000E+00 0.  1.
          2    1    1    2  501    0 -0.10639700959E+03  0.41070487131E+02 -0.41626107940E+03  0.43160212555E+03  0.00000000000E+00 0.  1.
<scales pt_clust_3="47.23614" pt_clust_4="112.94679" pt_clust_5="34.81927" pt_clust_6="14000.00000"></scales>
<clustering>
<clus scale="   34.819">  1  5  2 -1</clus>
<clus scale="   47.236">  1  3  2 -1</clus>
<clus scale="  112.947">  1  4  2 -1</clus>
<clus scale="   34.819">  1  3  2 -1</clus>
</clustering>
</event>
<event>
 6    0  0.2839294E+002  0.1816468E+03  0.7546771E-02  0.1166219E+00
         21   -1    0    0  504  502  0.00000000000E+00  0.00000000000E+00  0.27538517490E+02  0.27538517490E+02  0.00000000000E+00 0.  1.
          2   -1    0    0  505    0 -0.00000000000E+00 -0.00000000000E+00 -0.44659044143E+04  0.44659044143E+04  0.00000000000E+00 0. -1.
         21    1    1    2  503  502 -0.59746922179E+02  0.10234476319E+03 -0.34348256144E+03  0.36335164136E+03  0.00000000000E+00 0. -1.
         21    1    1    2  504  501  0.31295714949E+02 -0.45513110594E+01 -0.14521671133E+03  0.14862042072E+03  0.00000000000E+00 0. -1.
         21    1    1    2  505  503 -0.14784443067E+03 -0.14125930309E+03 -0.77201963037E+03  0.79864039220E+03  0.00000000000E+00 0.  1.
          2    1    1    2  501    0  0.17629563790E+03  0.43465850959E+02 -0.31776469936E+04  0.31828304775E+04  0.00000000000E+00 0. -1.
<scales pt_clust_3="111.33669" pt_clust_4="31.62493" pt_clust_5="14000.00000" pt_clust_6="181.64680"></scales>
<clustering>
<clus scale="   31.625">  1  4  2 -1</clus>
<clus scale="  111.337">  1  3  2 -1</clus>
<clus scale="  181.647">  2  6  1 -1</clus>
<clus scale="   31.625">  1  3  2 -1</clus>
</clustering>
</event>
<event>
 6    0  0.2839294E+002  0.8814878E+02  0.7546771E-02  0.1307398E+00
         21   -1    0    0  505  502  0.00000000000E+00  0.00000000000E+00  0.10625596696E+03  0.10625596696E+03  0.00000000000E+00 0. -1.
          2   -1    0    0  503    0 -0.00000000000E+00 -0.00000000000E+00 -0.11197811294E+04  0.11197811294E+04  0.00000000000E+00 0. -1.
         21    1    1    2  503  502 -0.33431815199E+02  0.22725458095E+02 -0.91491651417E+02  0.10002427201E+03  0.00000000000E+00 0. -1.
         21    1    1    2  504  501  0.10124998802E+03 -0.73423631462E+02 -0.36926718859E+03  0.38987285915E+03  0.00000000000E+00 0. -1.
         21    1    1    2  505  504 -0.15369453065E+02  0.42229447749E+02  0.85008526456E+02  0.96156101809E+02  0.00000000000E+00 0. -1.
          2    1    1    2  501    0 -0.52448719754E+02  0.84687256185E+01 -0.63777484886E+03  0.63998386336E+03  0.00000000000E+00 0. -1.
<scales pt_clust_3="40.42441" pt_clust_4="88.14878" pt_clust_5="45.11802" pt_clust_6="14000.00000"></scales>
<clustering>
<clus scale="   40.424">  2  3  1 -1</clus>
<clus scale="   45.118">  1  5  2 -1</clus>
<clus scale="   88.149">  1  4  2 -1</clus>
<clus scale="   45.118">  1  3  2 -1</clus>
</clustering>
</event>
<event>
 6    0  0.2839294E+002  0.1063624E+03  0.7546771E-02  0.1267458E+00
         -1   -1    0    0    0  501 -0.00000000000E+00  0.00000000000E+00  0.25797425825E+03  0.25797425825E+03  0.00000000000E+00 0.  1.
         21   -1    0    0  504  502  0.00000000000E+00 -0.00000000000E+00 -0.22104420493E+03  0.22104420493E+03  0.00000000000E+00 0.  1.
         21    1    1    2  503  502 -0.13618758453E+03  0.64368785510E+02 -0.14214674860E+03  0.20711372930E+03  0.00000000000E+00 0.  1.
         21    1    1    2  504  505  0.53659248223E+02  0.60761740515E+01 -0.25319927582E+01  0.54061500148E+02  0.00000000000E+00 0.  1.
         21    1    1    2  505  501  0.10775824673E+02 -0.30649839874E+02  0.24825052072E+02  0.40887825719E+02  0.00000000000E+00 0.  1.
         -1    1    1    2    0  503  0.71752511630E+02 -0.39795119688E+02  0.15678374261E+03  0.17695540801E+03  0.00000000000E+00 0.  1.
<scales pt_clust_3="106.36241" pt_clust_4="54.95259" pt_clust_5="32.48894" pt_clust_6="14000.00000"></scales>
<clustering>
<clus scale="   32.489">  1  5  2 -1</clus>
<clus scale="   54.953">  2  4  1 -1</clus>
<clus scale="  106.362">  2  3  1 -1</clus>
<clus scale="   54.953">  2  3  1 -1</clus>
</clustering>
</event>
<event>
 6    0  0.2839294E+002  0.1010134E+03  0.7546771E-02  0.1278179E+00
         21   -1    0    0  505  502  0.00000000000E+00  0.00000000000E+00  0.12406156160E+02  0.12406156160E+02  0.00000000000E+00 0.  1.
          1   -1    0    0  503    0 -0.00000000000E+00 -0.00000000000E+00 -0.28726167376E+04  0.28726167376E+04  0.00000000000E+00 0. -1.
         21    1    1    2  503  504 -0.44678501872E+02  0.56526978996E+01 -0.37546487700E+03  0.37815604634E+03  0.00000000000E+00 0.  1.
         21    1    1    2  504  502  0.44721249397E+02 -0.21676073094E+02 -0.13580212012E+03  0.14461002082E+03  0.00000000000E+00 0.  1.
         21    1    1    2  505  501  0.56686498434E+02  0.77377982243E+02 -0.39326561318E+03  0.40479445864E+03  0.00000000000E+00 0.  1.
          1    1    1    2  501    0 -0.56729245959E+02 -0.61354607049E+02 -0.19556779712E+04  0.19574623680E+04  0.00000000000E+00 0. -1.
<scales pt_clust_3="45.03467" pt_clust_4="47.30735" pt_clust_5="101.01339" pt_clust_6="14000.00000"></scales>
<clustering>
<clus scale="   45.035">  2  3  1 -1</clus>
<clus scale="   47.307">  1  4  2 -1</clus>
<clus scale="  101.013">  1  5  2 -1</clus>
<clus scale="   47.307">  1  3  2 -1</clus>
</clustering>
</event>
<event>
 6    0  0.2839294E+002  0.8446361E+02  0.7546771E-02  0.1316841E+00
         21   -1    0    0  503  502  0.00000000000E+00  0.00000000000E+00  0.19687593565E+04  0.19687593565E+04  0.00000000000E+00 0. -1.
          2   -1    0    0  504    0 -0.00000000000E+00 -0.00000000000E+00 -0.31519959935E+02  0.31519959935E+02  0.00000000000E+00 0.  1.
         21    1    1    2  503  501  0.51208916194E+02  0.70535679573E+02  0.82869885639E+03  0.83327032215E+03  0.00000000000E+00 0.  1.
         21    1    1    2  504  505 -0.46596677133E+02 -0.11481056122E+03  0.27303304868E+03  0.29983288838E+03  0.00000000000E+00 0. -1.
         21    1    1    2  505  502 -0.17344890549E+02 -0.27731315635E+02  0.76466472127E+03  0.76536397031E+03  0.00000000000E+00 0. -1.
          2    1    1    2  501    0  0.12732651488E+02  0.72006197279E+02  0.70842770229E+02  0.10181213559E+03  0.00000000000E+00 0.  1.
<scales pt_clust_3="64.65694" pt_clust_4="14000.00000" pt_clust_5="32.70888" pt_clust_6="84.46361"></scales>
<clustering>
<clus scale="   32.709">  1  5  2 -1</clus>
<clus scale="   64.657">  1  3  2 -1</clus>
<clus scale="   84.464">  2  6  1 -1</clus>
<clus scale="   32.709">  1  3  2 -1</clus>
</clustering>
</event>
<event>
 6    0  0.2839294E+002  0.1028734E+03  0.7546771E-02  0.1274367E+00
          1   -1    0    0  505    0 -0.00000000000E+00  0.00000000000E+00  0.19576908709E+04  0.19576908709E+04  0.00000000000E+00 0.  1.
         21   -1    0    0  504  502  0.00000000000E+00 -0.00000000000E+00 -0.13621180457E+04  0.13621180457E+04  0.00000000000E+00 0.  1.
         21    1    1    2  503  502 -0.94137483988E+02 -0.72077643564E+02 -0.10790530677E+04  0.10855471319E+04  0.00000000000E+00 0.  1.
         21    1    1    2  504  501  0.31203932007E+02  0.18908327897E+02  0.31914974593E+03  0.32122853324E+03  0.00000000000E+00 0. -1.
         21    1    1    2  505  503  0.76339286337E+02  0.22046519840E+02 -0.27293672792E+03  0.28426781935E+03  0.00000000000E+00 0. -1.
          1    1    1    2  501    0 -0.13405734356E+02  0.31122795827E+02  0.16284128749E+04  0.16287654322E+04  0.00000000000E+00 0.  1.
<scales pt_clust_3="14000.00000" pt_clust_4="52.43393" pt_clust_5="102.87344" pt_clust_6="33.88720"></scales>
<clustering>
<clus scale="   33.887">  1  6  2 -1</clus>
<clus scale="   52.434">  1  4  2 -1</clus>
<clus scale="  102.873">  1  5  2 -1</clus>
<clus scale="  102.873">  2  3  1 -1</clus>
</clustering>
</event>
<event>
 6    0  0.2839294E+002  0.2052169E+03  0.7546771E-02  0.1145411E+00
         21   -1    0    0  503  502  0.00000000000E+00  0.00000000000E+00  0.85291255580E+02  0.85291255580E+02  0.00000000000E+00 0. -1.
          2   -1    0    0  505    0 -0.00000000000E+00 -0.00000000000E+00 -0.17301669659E+04  0.17301669659E+04  0.00000000000E+00 0. -1.
         21    1    1    2  503  501 -0.96545447177E+02 -0.12696252433E+03 -0.63546092962E+03  0.65517257194E+03  0.00000000000E+00 0. -1.
         21    1    1    2  504  502 -0.78643039191E+01  0.32422248403E+02  0.59717042952E+01  0.33892635185E+02  0.00000000000E+00 0. -1.
         21    1    1    2  505  504  0.94519194586E+02  0.18275497300E+03 -0.14552370335E+03  0.25201271106E+03  0.00000000000E+00 0. -1.
          2    1    1    2  501    0  0.98905565101E+01 -0.88214697072E+02 -0.86986278161E+03  0.87438030326E+03  0.00000000000E+00 0. -1.
<scales pt_clust_3="205.21689" pt_clust_4="33.36240" pt_clust_5="14000.00000" pt_clust_6="87.62375"></scales>
<clustering>
<clus scale="   33.362">  1  4  2 -1</clus>
<clus scale="   87.624">  2  6  1 -1</clus>
<clus scale="  205.217">  2  3  1 -1</clus>
<clus scale="   33.362">  1  3  2 -1</clus>
</clustering>
</event>
