<event>
 5    0  0.5612316E-005  0.3028953E+03  0.7546771E-02  0.1083802E+00
         21   -1    0    0  502  501  0.00000000000E+00  0.00000000000E+00  0.44194797841E+03  0.44194797841E+03  0.00000000000E+00 0.  1.
         21   -1    0    0  501  502 -0.00000000000E+00 -0.00000000000E+00 -0.20759363499E+03  0.20759363499E+03  0.00000000000E+00 0.  1.
         25    1    1    2    0    0  0.42105667442E+02 -0.95252971042E+02  0.17511194327E+03  0.23902972283E+03  0.12500000000E+03 0.  0.
         25    1    1    2    0    0 -0.16817980101E+02  0.16508563722E+03  0.13380043402E+03  0.24711063962E+03  0.12500000000E+03 0.  0.
         25    1    1    2    0    0 -0.25287687340E+02 -0.69832666177E+02 -0.74558033870E+02  0.16340125095E+03  0.12500000000E+03 0.  0.
</event>
<event>
 5    0  0.5612316E-005  0.2255873E+03  0.7546771E-02  0.1129785E+00
         21   -1    0    0  502  501  0.00000000000E+00  0.00000000000E+00  0.22416641711E+03  0.22416641711E+03  0.00000000000E+00 0.  1.
         21   -1    0    0  501  502 -0.00000000000E+00 -0.00000000000E+00 -0.22701714116E+03  0.22701714116E+03  0.00000000000E+00 0.  1.
         25    1    1    2    0    0  0.44472690991E+02  0.11395338211E+02  0.14296592444E+01  0.13317176090E+03  0.12500000000E+03 0.  0.
         25    1    1    2    0    0 -0.10134828875E+03  0.23178849232E+02 -0.48479151351E+02  0.16965837085E+03  0.12500000000E+03 0.  0.
         25    1    1    2    0    0  0.56875597764E+02 -0.34574187442E+02  0.44198768058E+02  0.14835342651E+03  0.12500000000E+03 0.  0.
</event>
<event>
 5    0  0.5612316E-005  0.3809165E+03  0.7546771E-02  0.1050596E+00
         21   -1    0    0  502  501  0.00000000000E+00  0.00000000000E+00  0.53839714328E+03  0.53839714328E+03  0.00000000000E+00 0. -1.
         21   -1    0    0  501  502 -0.00000000000E+00 -0.00000000000E+00 -0.26949883727E+03  0.26949883727E+03  0.00000000000E+00 0. -1.
         25    1    1    2    0    0  0.14725092969E+03 -0.99623666022E+02  0.56567899595E+02  0.22457212291E+03  0.12500000000E+03 0.  0.
         25    1    1    2    0    0 -0.60817992590E+02 -0.14974900245E+03  0.20755707214E+03  0.29125337793E+03  0.12500000000E+03 0.  0.
         25    1    1    2    0    0 -0.86432937095E+02  0.24937266847E+03  0.47733342708E+01  0.29207047971E+03  0.12500000000E+03 0.  0.
</event>
<event>
 5    0  0.5612316E-005  0.3071508E+03  0.7546771E-02  0.1081720E+00
         21   -1    0    0  502  501  0.00000000000E+00  0.00000000000E+00  0.71895915141E+02  0.71895915141E+02  0.00000000000E+00 0. -1.
         21   -1    0    0  501  502 -0.00000000000E+00 -0.00000000000E+00 -0.13121973584E+04  0.13121973584E+04  0.00000000000E+00 0. -1.
         25    1    1    2    0    0  0.21248872229E+02  0.84715898012E+02 -0.21295657078E+03  0.26192326927E+03  0.12500000000E+03 0.  0.
         25    1    1    2    0    0  0.14783316215E+02 -0.21612556919E+03 -0.43661958679E+03  0.50318035700E+03  0.12500000000E+03 0.  0.
         25    1    1    2    0    0 -0.36032188444E+02  0.13140967118E+03 -0.59072528573E+03  0.61898964731E+03  0.12500000000E+03 0.  0.
</event>
<event>
 5    0  0.5612316E-005  0.3910073E+03  0.7546771E-02  0.1046939E+00
         21   -1    0    0  502  501  0.00000000000E+00  0.00000000000E+00  0.40630537802E+03  0.40630537802E+03  0.00000000000E+00 0.  1.
         21   -1    0    0  501  502 -0.00000000000E+00 -0.00000000000E+00 -0.37628524404E+03  0.37628524404E+03  0.00000000000E+00 0.  1.
         25    1    1    2    0    0  0.33896933896E+02 -0.10610254334E+03 -0.12027510636E+03  0.20615007407E+03  0.12500000000E+03 0.  0.
         25    1    1    2    0    0  0.41612754868E+02 -0.10989861934E+03  0.24494865448E+03  0.29905546514E+03  0.12500000000E+03 0.  0.
         25    1    1    2    0    0 -0.75509688764E+02  0.21600116268E+03 -0.94653414141E+02  0.27738508284E+03  0.12500000000E+03 0.  0.
</event>
<event>
 5    0  0.5612316E-005  0.2433673E+03  0.7546771E-02  0.1117570E+00
         21   -1    0    0  502  501  0.00000000000E+00  0.00000000000E+00  0.44015797569E+03  0.44015797569E+03  0.00000000000E+00 0. -1.
         21   -1    0    0  501  502 -0.00000000000E+00 -0.00000000000E+00 -0.13455997303E+03  0.13455997303E+03  0.00000000000E+00 0. -1.
         25    1    1    2    0    0  0.79581342259E+02 -0.25479542720E+02  0.96599013639E+02  0.17871420360E+03  0.12500000000E+03 0.  0.
         25    1    1    2    0    0 -0.14302458949E+02 -0.53606626340E+02  0.65509398626E+01  0.13691656413E+03  0.12500000000E+03 0.  0.
         25    1    1    2    0    0 -0.65278883311E+02  0.79086169061E+02  0.20244804916E+03  0.25908718099E+03  0.12500000000E+03 0.  0.
</event>
<event>
 5    0  0.5612316E-005  0.2652782E+03  0.7546771E-02  0.1104013E+00
         21   -1    0    0  502  501  0.00000000000E+00  0.00000000000E+00  0.27212291659E+03  0.27212291659E+03  0.00000000000E+00 0.  1.
         21   -1    0    0  501  502 -0.00000000000E+00 -0.00000000000E+00 -0.25860559925E+03  0.25860559925E+03  0.00000000000E+00 0.  1.
         25    1    1    2    0    0  0.13267290386E+02  0.63275049378E+02 -0.12507170430E+03  0.18827555361E+03  0.12500000000E+03 0.  0.
         25    1    1    2    0    0  0.77557062858E+02 -0.28837208474E+02  0.97771009893E+02  0.17897165409E+03  0.12500000000E+03 0.  0.
         25    1    1    2    0    0 -0.90824353244E+02 -0.34437840904E+02  0.40818011750E+02  0.16348130814E+03  0.12500000000E+03 0.  0.
</event>
<event>
 5    0  0.5612316E-005  0.2764957E+03  0.7546771E-02  0.1097618E+00
         21   -1    0    0  502  501  0.00000000000E+00  0.00000000000E+00  0.55815404424E+03  0.55815404424E+03  0.00000000000E+00 0. -1.
         21   -1    0    0  501  502 -0.00000000000E+00 -0.00000000000E+00 -0.13696915458E+03  0.13696915458E+03  0.00000000000E+00 0. -1.
         25    1    1    2    0    0  0.17530081448E+03  0.84064710483E+02  0.16420909043E+03  0.28352579510E+03  0.12500000000E+03 0.  0.
         25    1    1    2    0    0 -0.62548391225E+02 -0.56803632389E+02  0.12604665553E+03  0.19660038979E+03  0.12500000000E+03 0.  0.
         25    1    1    2    0    0 -0.11275242326E+03 -0.27261078094E+02  0.13092914370E+03  0.21499701393E+03  0.12500000000E+03 0.  0.
</event>
<event>
 5    0  0.5612316E-005  0.2975705E+03  0.7546771E-02  0.1086461E+00
         21   -1    0    0  502  501  0.00000000000E+00  0.00000000000E+00  0.36740177149E+03  0.36740177149E+03  0.00000000000E+00 0.  1.
         21   -1    0    0  501  502 -0.00000000000E+00 -0.00000000000E+00 -0.24101184174E+03  0.24101184174E+03  0.00000000000E+00 0.  1.
         25    1    1    2    0    0  0.12438977318E+03 -0.89940417517E+02  0.51909414008E+01  0.19802535254E+03  0.12500000000E+03 0.  0.
         25    1    1    2    0    0 -0.25789049939E+02  0.94757776058E+02 -0.59296902848E+02  0.16966211689E+03  0.12500000000E+03 0.  0.
         25    1    1    2    0    0 -0.98600723242E+02 -0.48173585405E+01  0.18049589120E+03  0.24072614380E+03  0.12500000000E+03 0.  0.
</event>
<event>
 5    0  0.5612316E-005  0.2306255E+03  0.7546771E-02  0.1126200E+00
         21   -1    0    0  502  501  0.00000000000E+00  0.00000000000E+00  0.78693771772E+02  0.78693771772E+02  0.00000000000E+00 0. -1.
         21   -1    0    0  501  502 -0.00000000000E+00 -0.00000000000E+00 -0.67588758956E+03  0.67588758956E+03  0.00000000000E+00 0. -1.
         25    1    1    2    0    0 -0.10219527782E+03 -0.22173871884E+02 -0.24184811354E+03  0.29163515807E+03  0.12500000000E+03 0.  0.
         25    1    1    2    0    0  0.67718423821E+02  0.46860521399E+02 -0.26036949847E+03  0.30033143213E+03  0.12500000000E+03 0.  0.
         25    1    1    2    0    0  0.34476853998E+02 -0.24686649515E+02 -0.94976205785E+02  0.16261477113E+03  0.12500000000E+03 0.  0.
</event>
<event>
 5    0  0.5612316E-005  0.3269562E+03  0.7546771E-02  0.1072492E+00
         21   -1    0    0  502  501  0.00000000000E+00  0.00000000000E+00  0.29523681741E+03  0.29523681741E+03  0.00000000000E+00 0. -1.
         21   -1    0    0  501  502 -0.00000000000E+00 -0.00000000000E+00 -0.36208336727E+03  0.36208336727E+03  0.00000000000E+00 0. -1.
         25    1    1    2    0    0  0.17768889884E+03 -0.23018399352E+02  0.47796375970E+02  0.22363516056E+03  0.12500000000E+03 0.  0.
         25    1    1    2    0    0 -0.76631339654E+02 -0.42792462099E+02 -0.19048455612E+03  0.24415757852E+03  0.12500000000E+03 0.  0.
         25    1    1    2    0    0 -0.10105755919E+03  0.65810861451E+02  0.75841630290E+02  0.18952744561E+03  0.12500000000E+03 0.  0.
</event>
<event>
 5    0  0.5612316E-005  0.3354060E+03  0.7546771E-02  0.1068770E+00
         21   -1    0    0  502  501  0.00000000000E+00  0.00000000000E+00  0.43041811765E+03  0.43041811765E+03  0.00000000000E+00 0.  1.
         21   -1    0    0  501  502 -0.00000000000E+00 -0.00000000000E+00 -0.26136726794E+03  0.26136726794E+03  0.00000000000E+00 0.  1.
         25    1    1    2    0    0 -0.38347544575E+02  0.19128243243E+03  0.27683020709E+02  0.23334706505E+03  0.12500000000E+03 0.  0.
         25    1    1    2    0    0  0.30144401955E+02 -0.27491574951E+02 -0.81588626684E+02  0.15474551905E+03  0.12500000000E+03 0.  0.
         25    1    1    2    0    0  0.82031426198E+01 -0.16379085748E+03  0.22295645568E+03  0.30369280148E+03  0.12500000000E+03 0.  0.
</event>
<event>
 5    0  0.5612316E-005  0.3117362E+03  0.7546771E-02  0.1079517E+00
         21   -1    0    0  502  501  0.00000000000E+00  0.00000000000E+00  0.39663840505E+03  0.39663840505E+03  0.00000000000E+00 0. -1.
         21   -1    0    0  501  502 -0.00000000000E+00 -0.00000000000E+00 -0.24500769774E+03  0.24500769774E+03  0.00000000000E+00 0. -1.
         25    1    1    2    0    0  0.32135612162E+02  0.18976308754E+02  0.71397991537E+01  0.13064752043E+03  0.12500000000E+03 0.  0.
         25    1    1    2    0    0 -0.78039553058E+02 -0.18771605186E+03 -0.21214495526E+02  0.23958827765E+03  0.12500000000E+03 0.  0.
         25    1    1    2    0    0  0.45903940897E+02  0.16873974311E+03  0.16570540368E+03  0.27141030471E+03  0.12500000000E+03 0.  0.
</event>
<event>
 5    0  0.5612316E-005  0.2536213E+03  0.7546771E-02  0.1111037E+00
         21   -1    0    0  502  501  0.00000000000E+00  0.00000000000E+00  0.68687264093E+03  0.68687264093E+03  0.00000000000E+00 0. -1.
         21   -1    0    0  501  502 -0.00000000000E+00 -0.00000000000E+00 -0.93647289683E+02  0.93647289683E+02  0.00000000000E+00 0. -1.
         25    1    1    2    0    0  0.26403844071E+02 -0.94926386536E+02  0.24545785798E+03  0.29254528177E+03  0.12500000000E+03 0.  0.
         25    1    1    2    0    0  0.61884039023E+02  0.68550091148E+02  0.71543764707E+02  0.17109137778E+03  0.12500000000E+03 0.  0.
         25    1    1    2    0    0 -0.88287883094E+02  0.26376295388E+02  0.27622372856E+03  0.31688327106E+03  0.12500000000E+03 0.  0.
</event>
<event>
 5    0  0.5663607E-005  0.4259253E+03  0.7546771E-02  0.1035155E+00
         21   -1    0    0  502  501  0.00000000000E+00  0.00000000000E+00  0.38976740205E+03  0.38976740205E+03  0.00000000000E+00 0.  1.
         21   -1    0    0  501  502 -0.00000000000E+00 -0.00000000000E+00 -0.46543741000E+03  0.46543741000E+03  0.00000000000E+00 0.  1.
         25    1    1    2    0    0 -0.19113502434E+01 -0.80723342650E+02 -0.25263061477E+03  0.29320153279E+03  0.12500000000E+03 0.  0.
         25    1    1    2    0    0  0.13859481681E+03  0.22685565434E+03  0.65053725781E+02  0.30088037223E+03  0.12500000000E+03 0.  0.
         25    1    1    2    0    0 -0.13668346656E+03 -0.14613231169E+03  0.11190688105E+03  0.26112290703E+03  0.12500000000E+03 0.  0.
</event>
<event>
 5    0  0.5612316E-005  0.2772056E+03  0.7546771E-02  0.1097225E+00
         21   -1    0    0  502  501  0.00000000000E+00  0.00000000000E+00  0.10128719600E+04  0.10128719600E+04  0.00000000000E+00 0.  1.
         21   -1    0    0  501  502 -0.00000000000E+00 -0.00000000000E+00 -0.75866371099E+02  0.75866371099E+02  0.00000000000E+00 0.  1.
         25    1    1    2    0    0 -0.10624879023E+02  0.85354073999E+02  0.14626768557E+03  0.21075445866E+03  0.12500000000E+03 0.  0.
         25    1    1    2    0    0  0.28095348726E+02 -0.14375740462E+03  0.65849903159E+03  0.68607690138E+03  0.12500000000E+03 0.  0.
         25    1    1    2    0    0 -0.17470469703E+02  0.58403330624E+02  0.13223887173E+03  0.19190697104E+03  0.12500000000E+03 0.  0.
</event>
<event>
 5    0  0.6187287E-005  0.2847893E+03  0.7546771E-02  0.1093102E+00
         21   -1    0    0  502  501  0.00000000000E+00  0.00000000000E+00  0.14245566153E+04  0.14245566153E+04  0.00000000000E+00 0. -1.
         21   -1    0    0  501  502 -0.00000000000E+00 -0.00000000000E+00 -0.56933458674E+02  0.56933458674E+02  0.00000000000E+00 0. -1.
         25    1    1    2    0    0  0.18976337744E+03  0.12025184575E+01  0.43821227516E+03  0.49362595512E+03  0.12500000000E+03 0.  0.
         25    1    1    2    0    0 -0.92996618201E+02 -0.51600184782E+02  0.37950837918E+03  0.41347619029E+03  0.12500000000E+03 0.  0.
         25    1    1    2    0    0 -0.96766759238E+02  0.50397666324E+02  0.54990250230E+03  0.57438792858E+03  0.12500000000E+03 0.  0.
</event>
<event>
 5    0  0.5612316E-005  0.2780715E+03  0.7546771E-02  0.1096747E+00
         21   -1    0    0  502  501  0.00000000000E+00  0.00000000000E+00  0.24244451683E+03  0.24244451683E+03  0.00000000000E+00 0.  1.
         21   -1    0    0  501  502 -0.00000000000E+00 -0.00000000000E+00 -0.31893393780E+03  0.31893393780E+03  0.00000000000E+00 0.  1.
         25    1    1    2    0    0  0.28933020239E+02  0.17079960568E+03 -0.23596894874E+02  0.21492193561E+03  0.12500000000E+03 0.  0.
         25    1    1    2    0    0 -0.45043804442E+02 -0.10873016003E+03  0.42217446499E+02  0.17680074889E+03  0.12500000000E+03 0.  0.
         25    1    1    2    0    0  0.16110784203E+02 -0.62069445648E+02 -0.95109972600E+02  0.16965577013E+03  0.12500000000E+03 0.  0.
</event>
<event>
 5    0  0.5612316E-005  0.4200419E+03  0.7546771E-02  0.1037053E+00
         21   -1    0    0  502  501  0.00000000000E+00  0.00000000000E+00  0.35114452844E+03  0.35114452844E+03  0.00000000000E+00 0.  1.
         21   -1    0    0  501  502 -0.00000000000E+00 -0.00000000000E+00 -0.50245750931E+03  0.50245750931E+03  0.00000000000E+00 0.  1.
         25    1    1    2    0    0 -0.78505150892E+02 -0.10622140088E+03 -0.17405405911E+03  0.25172576390E+03  0.12500000000E+03 0.  0.
         25    1    1    2    0    0 -0.17527975450E+03 -0.47627463418E+02 -0.11840832662E+03  0.25027364908E+03  0.12500000000E+03 0.  0.
         25    1    1    2    0    0  0.25378490540E+03  0.15384886429E+03  0.14114940486E+03  0.35160262477E+03  0.12500000000E+03 0.  0.
</event>
<event>
 5    0  0.5612316E-005  0.2473613E+03  0.7546771E-02  0.1114984E+00
         21   -1    0    0  502  501  0.00000000000E+00  0.00000000000E+00  0.14806682331E+03  0.14806682331E+03  0.00000000000E+00 0.  1.
         21   -1    0    0  501  502 -0.00000000000E+00 -0.00000000000E+00 -0.41324324196E+03  0.41324324196E+03  0.00000000000E+00 0.  1.
         25    1    1    2    0    0  0.14973545085E+02 -0.18109941705E+02  0.51147590292E+02  0.13708848615E+03  0.12500000000E+03 0.  0.
         25    1    1    2    0    0  0.44660564887E+02  0.34728112030E+02 -0.11353152625E+03  0.17808710025E+03  0.12500000000E+03 0.  0.
         25    1    1    2    0    0 -0.59634109973E+02 -0.16618170326E+02 -0.20279248269E+03  0.24613447888E+03  0.12500000000E+03 0.  0.
</event>
<event>
 5    0  0.6012766E-005  0.3023374E+03  0.7546771E-02  0.1084078E+00
         21   -1    0    0  502  501  0.00000000000E+00  0.00000000000E+00  0.26537480546E+03  0.26537480546E+03  0.00000000000E+00 0.  1.
         21   -1    0    0  501  502 -0.00000000000E+00 -0.00000000000E+00 -0.34444827951E+03  0.34444827951E+03  0.00000000000E+00 0.  1.
         25    1    1    2    0    0  0.16433433473E+03  0.12429363961E+01 -0.74945160784E+01  0.20661192181E+03  0.12500000000E+03 0.  0.
         25    1    1    2    0    0  0.18044343279E+02  0.52141884602E+01 -0.12272210361E+03  0.17617746962E+03  0.12500000000E+03 0.  0.
         25    1    1    2    0    0 -0.18237867801E+03 -0.64571248563E+01  0.51143145637E+02  0.22703369354E+03  0.12500000000E+03 0.  0.
</event>
<event>
 5    0  0.5612316E-005  0.6388958E+03  0.7546771E-02  0.9827842E-01
         21   -1    0    0  502  501  0.00000000000E+00  0.00000000000E+00  0.33889348990E+03  0.33889348990E+03  0.00000000000E+00 0.  1.
         21   -1    0    0  501  502 -0.00000000000E+00 -0.00000000000E+00 -0.12044722224E+04  0.12044722224E+04  0.00000000000E+00 0.  1.
         25    1    1    2    0    0  0.30214740032E+03 -0.26297913150E+03 -0.11952964973E+01  0.41961590039E+03  0.12500000000E+03 0.  0.
         25    1    1    2    0    0 -0.31427206008E+03  0.77935646041E+02 -0.82717168137E+03  0.89703895296E+03  0.12500000000E+03 0.  0.
         25    1    1    2    0    0  0.12124659759E+02  0.18504348546E+03 -0.37211754643E+02  0.22671085896E+03  0.12500000000E+03 0.  0.
</event>
<event>
 5    0  0.5612316E-005  0.2282309E+03  0.7546771E-02  0.1127891E+00
         21   -1    0    0  502  501  0.00000000000E+00  0.00000000000E+00  0.13001851949E+03  0.13001851949E+03  0.00000000000E+00 0.  1.
         21   -1    0    0  501  502 -0.00000000000E+00 -0.00000000000E+00 -0.40063012825E+03  0.40063012825E+03  0.00000000000E+00 0.  1.
         25    1    1    2    0    0  0.42348886751E+01 -0.21920451813E+02  0.80543181132E+01  0.12723329961E+03  0.12500000000E+03 0.  0.
         25    1    1    2    0    0 -0.51465646547E+02  0.53191973141E+02 -0.92820846162E+02  0.17239143907E+03  0.12500000000E+03 0.  0.
         25    1    1    2    0    0  0.47230757872E+02 -0.31271521328E+02 -0.18584508071E+03  0.23102390906E+03  0.12500000000E+03 0.  0.
</event>
<event>
 5    0  0.5612316E-005  0.2789422E+03  0.7546771E-02  0.1096268E+00
         21   -1    0    0  502  501  0.00000000000E+00  0.00000000000E+00  0.12251662913E+03  0.12251662913E+03  0.00000000000E+00 0. -1.
         21   -1    0    0  501  502 -0.00000000000E+00 -0.00000000000E+00 -0.63508727044E+03  0.63508727044E+03  0.00000000000E+00 0. -1.
         25    1    1    2    0    0 -0.69305300632E+02  0.69079503201E+02 -0.94873824683E+01  0.15902896870E+03  0.12500000000E+03 0.  0.
         25    1    1    2    0    0 -0.41240355361E+02 -0.84077394655E+02 -0.22435617630E+03  0.27336874190E+03  0.12500000000E+03 0.  0.
         25    1    1    2    0    0  0.11054565599E+03  0.14997891454E+02 -0.27872708254E+03  0.32520618898E+03  0.12500000000E+03 0.  0.
</event>
<event>
 5    0  0.5612316E-005  0.3020592E+03  0.7546771E-02  0.1084216E+00
         21   -1    0    0  502  501  0.00000000000E+00  0.00000000000E+00  0.26706087794E+03  0.26706087794E+03  0.00000000000E+00 0.  1.
         21   -1    0    0  501  502 -0.00000000000E+00 -0.00000000000E+00 -0.34164405048E+03  0.34164405048E+03  0.00000000000E+00 0.  1.
         25    1    1    2    0    0  0.54264926710E+02  0.12535703362E+03  0.73386453095E+02  0.19917238676E+03  0.12500000000E+03 0.  0.
         25    1    1    2    0    0 -0.73590049889E+02 -0.13401516165E+03 -0.19189086292E+03  0.27535915141E+03  0.12500000000E+03 0.  0.
         25    1    1    2    0    0  0.19325123179E+02  0.86581280291E+01  0.43921237287E+02  0.13417339025E+03  0.12500000000E+03 0.  0.
</event>
<event>
 5    0  0.5612316E-005  0.3993226E+03  0.7546771E-02  0.1044014E+00
         21   -1    0    0  502  501  0.00000000000E+00  0.00000000000E+00  0.52539230870E+03  0.52539230870E+03  0.00000000000E+00 0. -1.
         21   -1    0    0  501  502 -0.00000000000E+00 -0.00000000000E+00 -0.30350381259E+03  0.30350381259E+03  0.00000000000E+00 0. -1.
         25    1    1    2    0    0 -0.68995986761E+02  0.12567374832E+03  0.40887556708E+03  0.45095295382E+03  0.12500000000E+03 0.  0.
         25    1    1    2    0    0 -0.18352295001E+02  0.65207438496E+01 -0.67073574176E+02  0.14318935430E+03  0.12500000000E+03 0.  0.
         25    1    1    2    0    0  0.87348281761E+02 -0.13219449217E+03 -0.11991349678E+03  0.23475381317E+03  0.12500000000E+03 0.  0.
</event>
<event>
 5    0  0.5612316E-005  0.5276735E+03  0.7546771E-02  0.1006798E+00
         21   -1    0    0  502  501  0.00000000000E+00  0.00000000000E+00  0.44639772574E+03  0.44639772574E+03  0.00000000000E+00 0.  1.
         21   -1    0    0  501  502 -0.00000000000E+00 -0.00000000000E+00 -0.62374729799E+03  0.62374729799E+03  0.00000000000E+00 0.  1.
         25    1    1    2    0    0 -0.88692005585E+01  0.10423069777E+03 -0.28272138030E+01  0.16302053311E+03  0.12500000000E+03 0.  0.
         25    1    1    2    0    0  0.26808319839E+03  0.27356245175E+03 -0.52249780507E+01  0.40293587165E+03  0.12500000000E+03 0.  0.
         25    1    1    2    0    0 -0.25921399783E+03 -0.37779314953E+03 -0.16929738039E+03  0.50418861898E+03  0.12500000000E+03 0.  0.
</event>
<event>
 5    0  0.6990269E-005  0.3377031E+03  0.7546771E-02  0.1067778E+00
         21   -1    0    0  502  501  0.00000000000E+00  0.00000000000E+00  0.39953673814E+03  0.39953673814E+03  0.00000000000E+00 0.  1.
         21   -1    0    0  501  502 -0.00000000000E+00 -0.00000000000E+00 -0.28543898336E+03  0.28543898336E+03  0.00000000000E+00 0.  1.
         25    1    1    2    0    0  0.12748610298E+02 -0.35266267129E+02 -0.18194495926E+03  0.22390892091E+03  0.12500000000E+03 0.  0.
         25    1    1    2    0    0 -0.76562543439E+02 -0.82006952441E+02  0.11386545280E+03  0.20292191761E+03  0.12500000000E+03 0.  0.
         25    1    1    2    0    0  0.63813933141E+02  0.11727321957E+03  0.18217726125E+03  0.25814488298E+03  0.12500000000E+03 0.  0.
</event>
<event>
 5    0  0.5612316E-005  0.2857489E+03  0.7546771E-02  0.1092590E+00
         21   -1    0    0  502  501  0.00000000000E+00  0.00000000000E+00  0.13378275361E+04  0.13378275361E+04  0.00000000000E+00 0.  1.
         21   -1    0    0  501  502 -0.00000000000E+00 -0.00000000000E+00 -0.61033581805E+02  0.61033581805E+02  0.00000000000E+00 0.  1.
         25    1    1    2    0    0  0.52678382611E+02 -0.84583185511E+02  0.34318078389E+03  0.37858602417E+03  0.12500000000E+03 0.  0.
         25    1    1    2    0    0  0.43938664413E+02 -0.20496175559E+02  0.10522476504E+03  0.17043459338E+03  0.12500000000E+03 0.  0.
         25    1    1    2    0    0 -0.96617047024E+02  0.10507936107E+03  0.82838840536E+03  0.84984050035E+03  0.12500000000E+03 0.  0.
</event>
<event>
 5    0  0.5612316E-005  0.3445776E+03  0.7546771E-02  0.1064863E+00
         21   -1    0    0  502  501  0.00000000000E+00  0.00000000000E+00  0.50104606797E+03  0.50104606797E+03  0.00000000000E+00 0. -1.
         21   -1    0    0  501  502 -0.00000000000E+00 -0.00000000000E+00 -0.23697173255E+03  0.23697173255E+03  0.00000000000E+00 0. -1.
         25    1    1    2    0    0 -0.30208688131E+02 -0.66170555404E+02  0.19358357413E+03  0.24164169221E+03  0.12500000000E+03 0.  0.
         25    1    1    2    0    0 -0.73130600112E+02  0.13065061558E+03 -0.12705192269E+03  0.23277641437E+03  0.12500000000E+03 0.  0.
         25    1    1    2    0    0  0.10333928824E+03 -0.64480060180E+02  0.19754268398E+03  0.26359969395E+03  0.12500000000E+03 0.  0.
</event>
<event>
 5    0  0.5612316E-005  0.3388050E+03  0.7546771E-02  0.1067306E+00
         21   -1    0    0  502  501  0.00000000000E+00  0.00000000000E+00  0.65502472074E+03  0.65502472074E+03  0.00000000000E+00 0. -1.
         21   -1    0    0  501  502 -0.00000000000E+00 -0.00000000000E+00 -0.17524354161E+03  0.17524354161E+03  0.00000000000E+00 0. -1.
         25    1    1    2    0    0 -0.88467922298E+02  0.14784645576E+03  0.93938365162E+02  0.23266835669E+03  0.12500000000E+03 0.  0.
         25    1    1    2    0    0  0.18316915547E+03  0.20642491161E+00  0.28052601839E+03  0.35759030904E+03  0.12500000000E+03 0.  0.
         25    1    1    2    0    0 -0.94701233176E+02 -0.14805288067E+03  0.10531679558E+03  0.24000959662E+03  0.12500000000E+03 0.  0.
</event>
<event>
 5    0  0.5612316E-005  0.2724629E+03  0.7546771E-02  0.1099878E+00
         21   -1    0    0  502  501  0.00000000000E+00  0.00000000000E+00  0.57628854185E+03  0.57628854185E+03  0.00000000000E+00 0. -1.
         21   -1    0    0  501  502 -0.00000000000E+00 -0.00000000000E+00 -0.12881751594E+03  0.12881751594E+03  0.00000000000E+00 0. -1.
         25    1    1    2    0    0  0.32053379833E+01 -0.71434416536E+02  0.10187969447E+03  0.17640187698E+03  0.12500000000E+03 0.  0.
         25    1    1    2    0    0 -0.17492274850E+02 -0.94266650179E+02  0.46290475048E+02  0.16419497281E+03  0.12500000000E+03 0.  0.
         25    1    1    2    0    0  0.14286936867E+02  0.16570106672E+03  0.29930085640E+03  0.36450920800E+03  0.12500000000E+03 0.  0.
</event>
<event>
 5    0  0.5701429E-005  0.5193226E+03  0.7546771E-02  0.1008855E+00
         21   -1    0    0  502  501  0.00000000000E+00  0.00000000000E+00  0.27754643963E+03  0.27754643963E+03  0.00000000000E+00 0.  1.
         21   -1    0    0  501  502 -0.00000000000E+00 -0.00000000000E+00 -0.97171473711E+03  0.97171473711E+03  0.00000000000E+00 0.  1.
         25    1    1    2    0    0 -0.22075117025E+02  0.14105897200E+03 -0.61821793847E+03  0.64668644939E+03  0.12500000000E+03 0.  0.
         25    1    1    2    0    0  0.21971430626E+03 -0.22659380389E+03  0.86673109380E+01  0.33958688228E+03  0.12500000000E+03 0.  0.
         25    1    1    2    0    0 -0.19763918924E+03  0.85534831893E+02 -0.84617669943E+02  0.26298784507E+03  0.12500000000E+03 0.  0.
</event>
<event>
 5    0  0.5612316E-005  0.2481225E+03  0.7546771E-02  0.1114497E+00
         21   -1    0    0  502  501  0.00000000000E+00  0.00000000000E+00  0.15190179780E+03  0.15190179780E+03  0.00000000000E+00 0. -1.
         21   -1    0    0  501  502 -0.00000000000E+00 -0.00000000000E+00 -0.40529318204E+03  0.40529318204E+03  0.00000000000E+00 0. -1.
         25    1    1    2    0    0  0.10450124606E+03  0.45669929967E+02 -0.17427111433E+02  0.17010278406E+03  0.12500000000E+03 0.  0.
         25    1    1    2    0    0 -0.10167834641E+03 -0.63471777463E+02 -0.93875126493E+02  0.19698906578E+03  0.12500000000E+03 0.  0.
         25    1    1    2    0    0 -0.28228996460E+01  0.17801847496E+02 -0.14208914631E+03  0.19010313000E+03  0.12500000000E+03 0.  0.
</event>
<event>
 5    0  0.5612316E-005  0.2868570E+03  0.7546771E-02  0.1092002E+00
         21   -1    0    0  502  501  0.00000000000E+00  0.00000000000E+00  0.70067778283E+03  0.70067778283E+03  0.00000000000E+00 0. -1.
         21   -1    0    0  501  502 -0.00000000000E+00 -0.00000000000E+00 -0.11743908560E+03  0.11743908560E+03  0.00000000000E+00 0. -1.
         25    1    1    2    0    0 -0.20071317675E+02 -0.19192742280E+02  0.23191375615E+03  0.26491547603E+03  0.12500000000E+03 0.  0.
         25    1    1    2    0    0 -0.49141945794E+01 -0.13036311984E+03  0.40009451774E+02  0.18505255620E+03  0.12500000000E+03 0.  0.
         25    1    1    2    0    0  0.24985512255E+02  0.14955586212E+03  0.31131548931E+03  0.36814883621E+03  0.12500000000E+03 0.  0.
</event>
<event>
 5    0  0.5612316E-005  0.2380193E+03  0.7546771E-02  0.1121119E+00
         21   -1    0    0  502  501  0.00000000000E+00  0.00000000000E+00  0.27738038287E+03  0.27738038287E+03  0.00000000000E+00 0. -1.
         21   -1    0    0  501  502 -0.00000000000E+00 -0.00000000000E+00 -0.20424363451E+03  0.20424363451E+03  0.00000000000E+00 0. -1.
         25    1    1    2    0    0  0.38093282383E+01 -0.76963556026E+02  0.94116647126E+02  0.17441571949E+03  0.12500000000E+03 0.  0.
         25    1    1    2    0    0 -0.59543503765E+02 -0.10527055757E+02 -0.37779169946E+02  0.14390452886E+03  0.12500000000E+03 0.  0.
         25    1    1    2    0    0  0.55734175527E+02  0.87490611783E+02  0.16799271182E+02  0.16330376904E+03  0.12500000000E+03 0.  0.
</event>
<event>
 5    0  0.5612316E-005  0.3016356E+03  0.7546771E-02  0.1084426E+00
         21   -1    0    0  502  501  0.00000000000E+00  0.00000000000E+00  0.74921029244E+02  0.74921029244E+02  0.00000000000E+00 0.  1.
         21   -1    0    0  501  502 -0.00000000000E+00 -0.00000000000E+00 -0.12143992394E+04  0.12143992394E+04  0.00000000000E+00 0.  1.
         25    1    1    2    0    0 -0.16980278767E+03  0.57934904541E+02 -0.39818945800E+03  0.45427886185E+03  0.12500000000E+03 0.  0.
         25    1    1    2    0    0  0.16515838060E+03  0.20457855688E+02 -0.58088253689E+03  0.61704565163E+03  0.12500000000E+03 0.  0.
         25    1    1    2    0    0  0.46444070754E+01 -0.78392760229E+02 -0.16040621531E+03  0.21799575520E+03  0.12500000000E+03 0.  0.
</event>
<event>
 5    0  0.5612316E-005  0.2432661E+03  0.7546771E-02  0.1117636E+00
         21   -1    0    0  502  501  0.00000000000E+00  0.00000000000E+00  0.20494715220E+03  0.20494715220E+03  0.00000000000E+00 0. -1.
         21   -1    0    0  501  502 -0.00000000000E+00 -0.00000000000E+00 -0.28874955063E+03  0.28874955063E+03  0.00000000000E+00 0. -1.
         25    1    1    2    0    0 -0.76583166740E+02  0.93811562288E+01 -0.65086473636E+02  0.16066809444E+03  0.12500000000E+03 0.  0.
         25    1    1    2    0    0  0.98251578462E+02  0.71783384606E+02  0.24948553130E+02  0.17622047917E+03  0.12500000000E+03 0.  0.
         25    1    1    2    0    0 -0.21668411722E+02 -0.81164540835E+02 -0.43664477926E+02  0.15680812922E+03  0.12500000000E+03 0.  0.
</event>
<event>
 5    0  0.5612316E-005  0.3313966E+03  0.7546771E-02  0.1070521E+00
         21   -1    0    0  502  501  0.00000000000E+00  0.00000000000E+00  0.47313064404E+03  0.47313064404E+03  0.00000000000E+00 0.  1.
         21   -1    0    0  501  502 -0.00000000000E+00 -0.00000000000E+00 -0.23212132930E+03  0.23212132930E+03  0.00000000000E+00 0.  1.
         25    1    1    2    0    0 -0.12600519245E+03 -0.52071756580E+02  0.13570770177E+03  0.22941306998E+03  0.12500000000E+03 0.  0.
         25    1    1    2    0    0  0.15956388098E+03 -0.12614829972E+03  0.19788052692E+02  0.23956333748E+03  0.12500000000E+03 0.  0.
         25    1    1    2    0    0 -0.33558688529E+02  0.17822005630E+03  0.85513560271E+02  0.23627556588E+03  0.12500000000E+03 0.  0.
</event>
<event>
 5    0  0.5612316E-005  0.2291547E+03  0.7546771E-02  0.1127236E+00
         21   -1    0    0  502  501  0.00000000000E+00  0.00000000000E+00  0.28474567827E+02  0.28474567827E+02  0.00000000000E+00 0. -1.
         21   -1    0    0  501  502 -0.00000000000E+00 -0.00000000000E+00 -0.18441683057E+04  0.18441683057E+04  0.00000000000E+00 0. -1.
         25    1    1    2    0    0 -0.72223749834E+02 -0.47092357668E+02 -0.50786113477E+03  0.53007725135E+03  0.12500000000E+03 0.  0.
         25    1    1    2    0    0  0.10916409879E+03  0.26961179633E+02 -0.83044009071E+03  0.84728947234E+03  0.12500000000E+03 0.  0.
         25    1    1    2    0    0 -0.36940348954E+02  0.20131178035E+02 -0.47739251237E+03  0.49527614981E+03  0.12500000000E+03 0.  0.
</event>
<event>
 5    0  0.5612316E-005  0.2969652E+03  0.7546771E-02  0.1086768E+00
         21   -1    0    0  502  501  0.00000000000E+00  0.00000000000E+00  0.13940711222E+04  0.13940711222E+04  0.00000000000E+00 0. -1.
         21   -1    0    0  501  502 -0.00000000000E+00 -0.00000000000E+00 -0.63259582813E+02  0.63259582813E+02  0.00000000000E+00 0. -1.
         25    1    1    2    0    0 -0.50863430691E+02  0.11106154825E+03  0.59425097826E+03  0.61941987475E+03  0.12500000000E+03 0.  0.
         25    1    1    2    0    0 -0.77029100275E+02 -0.12192062915E+03  0.22043401145E+03  0.29157207600E+03  0.12500000000E+03 0.  0.
         25    1    1    2    0    0  0.12789253097E+03  0.10859080895E+02  0.51612654968E+03  0.54633875425E+03  0.12500000000E+03 0.  0.
</event>
<event>
 5    0  0.5612316E-005  0.3535523E+03  0.7546771E-02  0.1061166E+00
         21   -1    0    0  502  501  0.00000000000E+00  0.00000000000E+00  0.39038540739E+03  0.39038540739E+03  0.00000000000E+00 0.  1.
         21   -1    0    0  501  502 -0.00000000000E+00 -0.00000000000E+00 -0.32019437277E+03  0.32019437277E+03  0.00000000000E+00 0.  1.
         25    1    1    2    0    0 -0.16563113279E+03 -0.48374659956E+02 -0.17269644086E+03  0.27426782633E+03  0.12500000000E+03 0.  0.
         25    1    1    2    0    0  0.21722210117E+02 -0.55399132386E+02  0.54023766408E+02  0.14860849780E+03  0.12500000000E+03 0.  0.
         25    1    1    2    0    0  0.14390892268E+03  0.10377379234E+03  0.18886370907E+03  0.28770345602E+03  0.12500000000E+03 0.  0.
</event>
<event>
 5    0  0.5747927E-005  0.4754417E+03  0.7546771E-02  0.1020395E+00
         21   -1    0    0  502  501  0.00000000000E+00  0.00000000000E+00  0.36918253923E+03  0.36918253923E+03  0.00000000000E+00 0.  1.
         21   -1    0    0  501  502 -0.00000000000E+00 -0.00000000000E+00 -0.61228479730E+03  0.61228479730E+03  0.00000000000E+00 0.  1.
         25    1    1    2    0    0 -0.90365072608E+02 -0.20666100156E+03 -0.19912893315E+03  0.32580968054E+03  0.12500000000E+03 0.  0.
         25    1    1    2    0    0 -0.19185682037E+03  0.47588611926E+02  0.12966845037E+03  0.26741844089E+03  0.12500000000E+03 0.  0.
         25    1    1    2    0    0  0.28222189298E+03  0.15907238964E+03 -0.17364177529E+03  0.38823921511E+03  0.12500000000E+03 0.  0.
</event>
<event>
 5    0  0.5612316E-005  0.2460644E+03  0.7546771E-02  0.1115818E+00
         21   -1    0    0  502  501  0.00000000000E+00  0.00000000000E+00  0.52556858333E+02  0.52556858333E+02  0.00000000000E+00 0. -1.
         21   -1    0    0  501  502 -0.00000000000E+00 -0.00000000000E+00 -0.11520412785E+04  0.11520412785E+04  0.00000000000E+00 0. -1.
         25    1    1    2    0    0 -0.54445128438E+02  0.14605303699E+02 -0.65091538522E+03  0.66520179316E+03  0.12500000000E+03 0.  0.
         25    1    1    2    0    0 -0.73461979278E+01  0.62786047129E+02 -0.20811684968E+03  0.25086585551E+03  0.12500000000E+03 0.  0.
         25    1    1    2    0    0  0.61791326366E+02 -0.77391350829E+02 -0.24045218522E+03  0.28853048812E+03  0.12500000000E+03 0.  0.
</event>
<event>
 5    0  0.5612316E-005  0.3241814E+03  0.7546771E-02  0.1073741E+00
         21   -1    0    0  502  501  0.00000000000E+00  0.00000000000E+00  0.11296276179E+04  0.11296276179E+04  0.00000000000E+00 0. -1.
         21   -1    0    0  501  502 -0.00000000000E+00 -0.00000000000E+00 -0.93033830514E+02  0.93033830514E+02  0.00000000000E+00 0. -1.
         25    1    1    2    0    0  0.10376248017E+03 -0.13452406159E+02  0.20745548962E+03  0.26383782840E+03  0.12500000000E+03 0.  0.
         25    1    1    2    0    0 -0.21529395373E+03 -0.22830294056E+02  0.70264932688E+03  0.74579741579E+03  0.12500000000E+03 0.  0.
         25    1    1    2    0    0  0.11153147356E+03  0.36282700215E+02  0.12648897090E+03  0.21302620423E+03  0.12500000000E+03 0.  0.
</event>
<event>
 5    0  0.5612316E-005  0.2836225E+03  0.7546771E-02  0.1093727E+00
         21   -1    0    0  502  501  0.00000000000E+00  0.00000000000E+00  0.13973494595E+03  0.13973494595E+03  0.00000000000E+00 0. -1.
         21   -1    0    0  501  502 -0.00000000000E+00 -0.00000000000E+00 -0.57567345764E+03  0.57567345764E+03  0.00000000000E+00 0. -1.
         25    1    1    2    0    0 -0.15742045031E+03 -0.78069153739E+02 -0.29349913195E+03  0.36420149835E+03  0.12500000000E+03 0.  0.
         25    1    1    2    0    0  0.42965832416E+02  0.18245398845E+02 -0.99419435904E+02  0.16639766095E+03  0.12500000000E+03 0.  0.
         25    1    1    2    0    0  0.11445461790E+03  0.59823754894E+02 -0.43019943844E+02  0.18480924429E+03  0.12500000000E+03 0.  0.
</event>
<event>
 5    0  0.5612316E-005  0.2209545E+03  0.7546771E-02  0.1133173E+00
         21   -1    0    0  502  501  0.00000000000E+00  0.00000000000E+00  0.38666101068E+02  0.38666101068E+02  0.00000000000E+00 0. -1.
         21   -1    0    0  501  502 -0.00000000000E+00 -0.00000000000E+00 -0.12626281733E+04  0.12626281733E+04  0.00000000000E+00 0. -1.
         25    1    1    2    0    0 -0.39157860942E+02 -0.10379145994E+02 -0.38951127643E+03  0.41107797218E+03  0.12500000000E+03 0.  0.
         25    1    1    2    0    0  0.25429934415E+02  0.74041801939E+02 -0.26193600085E+03  0.30060661759E+03  0.12500000000E+03 0.  0.
         25    1    1    2    0    0  0.13727926528E+02 -0.63662655944E+02 -0.57251479491E+03  0.58960968456E+03  0.12500000000E+03 0.  0.
</event>
<event>
 5    0  0.5612316E-005  0.4763545E+03  0.7546771E-02  0.1020142E+00
         21   -1    0    0  502  501  0.00000000000E+00  0.00000000000E+00  0.14604002995E+04  0.14604002995E+04  0.00000000000E+00 0.  1.
         21   -1    0    0  501  502 -0.00000000000E+00 -0.00000000000E+00 -0.15537765344E+03  0.15537765344E+03  0.00000000000E+00 0.  1.
         25    1    1    2    0    0  0.70270878323E+02 -0.82907576106E+02  0.16571807211E+03  0.23430565922E+03  0.12500000000E+03 0.  0.
         25    1    1    2    0    0 -0.21352465882E+03  0.12044472654E+02  0.11518497003E+04  0.11781852916E+04  0.12500000000E+03 0.  0.
         25    1    1    2    0    0  0.14325378049E+03  0.70863103453E+02 -0.12545126308E+02  0.20328700217E+03  0.12500000000E+03 0.  0.
</event>
<event>
 5    0  0.5612316E-005  0.3092508E+03  0.7546771E-02  0.1080706E+00
         21   -1    0    0  502  501  0.00000000000E+00  0.00000000000E+00  0.13686377859E+03  0.13686377859E+03  0.00000000000E+00 0.  1.
         21   -1    0    0  501  502 -0.00000000000E+00 -0.00000000000E+00 -0.69876821228E+03  0.69876821228E+03  0.00000000000E+00 0.  1.
         25    1    1    2    0    0 -0.11222190436E+03  0.41867339253E+02 -0.13489607600E+03  0.21947341806E+03  0.12500000000E+03 0.  0.
         25    1    1    2    0    0  0.11813662585E+03  0.12491602593E+03 -0.31345180092E+03  0.37873118092E+03  0.12500000000E+03 0.  0.
         25    1    1    2    0    0 -0.59147214915E+01 -0.16678336518E+03 -0.11355655677E+03  0.23742739188E+03  0.12500000000E+03 0.  0.
</event>
<event>
 5    0  0.6052148E-005  0.4201277E+03  0.7546771E-02  0.1037025E+00
         21   -1    0    0  502  501  0.00000000000E+00  0.00000000000E+00  0.76478155017E+03  0.76478155017E+03  0.00000000000E+00 0.  1.
         21   -1    0    0  501  502 -0.00000000000E+00 -0.00000000000E+00 -0.23079440434E+03  0.23079440434E+03  0.00000000000E+00 0.  1.
         25    1    1    2    0    0 -0.14262737122E+03  0.98335366679E+02  0.17015723306E+02  0.21430573068E+03  0.12500000000E+03 0.  0.
         25    1    1    2    0    0 -0.12084552774E+02  0.14938077024E+03  0.39573203332E+03  0.44123632345E+03  0.12500000000E+03 0.  0.
         25    1    1    2    0    0  0.15471192400E+03 -0.24771613692E+03  0.12123938920E+03  0.34003390039E+03  0.12500000000E+03 0.  0.
</event>
<event>
 5    0  0.5612316E-005  0.3071918E+03  0.7546771E-02  0.1081700E+00
         21   -1    0    0  502  501  0.00000000000E+00  0.00000000000E+00  0.12598806922E+03  0.12598806922E+03  0.00000000000E+00 0. -1.
         21   -1    0    0  501  502 -0.00000000000E+00 -0.00000000000E+00 -0.74901381072E+03  0.74901381072E+03  0.00000000000E+00 0. -1.
         25    1    1    2    0    0 -0.19320017428E+03 -0.25148997744E+02 -0.27562214269E+03  0.35993241723E+03  0.12500000000E+03 0.  0.
         25    1    1    2    0    0 -0.23423601729E+02  0.24163135279E+02 -0.10369111789E+03  0.16585948919E+03  0.12500000000E+03 0.  0.
         25    1    1    2    0    0  0.21662377601E+03  0.98586246441E+00 -0.24371248092E+03  0.34920997353E+03  0.12500000000E+03 0.  0.
</event>
<event>
 5    0  0.5612316E-005  0.2412286E+03  0.7546771E-02  0.1118977E+00
         21   -1    0    0  502  501  0.00000000000E+00  0.00000000000E+00  0.67246607142E+03  0.67246607142E+03  0.00000000000E+00 0.  1.
         21   -1    0    0  501  502 -0.00000000000E+00 -0.00000000000E+00 -0.86534064643E+02  0.86534064643E+02  0.00000000000E+00 0.  1.
         25    1    1    2    0    0  0.26860876736E+02 -0.12875267260E+03  0.17326655913E+03  0.25088853683E+03  0.12500000000E+03 0.  0.
         25    1    1    2    0    0 -0.31852601575E+01  0.11212997250E+03  0.24307557293E+03  0.29545559864E+03  0.12500000000E+03 0.  0.
         25    1    1    2    0    0 -0.23675616578E+02  0.16622700093E+02  0.16958987472E+03  0.21265600058E+03  0.12500000000E+03 0.  0.
</event>
<event>
 5    0  0.5612316E-005  0.2164845E+03  0.7546771E-02  0.1136531E+00
         21   -1    0    0  502  501  0.00000000000E+00  0.00000000000E+00  0.50055873860E+03  0.50055873860E+03  0.00000000000E+00 0. -1.
         21   -1    0    0  501  502 -0.00000000000E+00 -0.00000000000E+00 -0.93626427067E+02  0.93626427067E+02  0.00000000000E+00 0. -1.
         25    1    1    2    0    0 -0.82648290256E+01  0.36580346041E+02  0.15859859789E+03  0.20538973774E+03  0.12500000000E+03 0.  0.
         25    1    1    2    0    0  0.78365187196E+02 -0.79349612147E+00  0.92798139140E+02  0.17429350771E+03  0.12500000000E+03 0.  0.
         25    1    1    2    0    0 -0.70100358171E+02 -0.35786849920E+02  0.15553557450E+03  0.21450192022E+03  0.12500000000E+03 0.  0.
</event>
<event>
 5    0  0.5612316E-005  0.5000455E+03  0.7546771E-02  0.1013767E+00
         21   -1    0    0  502  501  0.00000000000E+00  0.00000000000E+00  0.21906609884E+03  0.21906609884E+03  0.00000000000E+00 0.  1.
         21   -1    0    0  501  502 -0.00000000000E+00 -0.00000000000E+00 -0.11414159295E+04  0.11414159295E+04  0.00000000000E+00 0.  1.
         25    1    1    2    0    0 -0.10971604033E+03 -0.15067960509E+02 -0.18007489095E+03  0.24559442032E+03  0.12500000000E+03 0.  0.
         25    1    1    2    0    0  0.22018388828E+03  0.33315062925E+03 -0.59336622032E+03  0.72607076642E+03  0.12500000000E+03 0.  0.
         25    1    1    2    0    0 -0.11046784795E+03 -0.31808266874E+03 -0.14890871934E+03  0.38881684156E+03  0.12500000000E+03 0.  0.
</event>
<event>
 5    0  0.5612316E-005  0.3834567E+03  0.7546771E-02  0.1049664E+00
         21   -1    0    0  502  501  0.00000000000E+00  0.00000000000E+00  0.18274350739E+03  0.18274350739E+03  0.00000000000E+00 0.  1.
         21   -1    0    0  501  502 -0.00000000000E+00 -0.00000000000E+00 -0.80461960263E+03  0.80461960263E+03  0.00000000000E+00 0.  1.
         25    1    1    2    0    0 -0.18118853818E+03 -0.20062482638E+03 -0.25778717825E+03  0.39390206473E+03  0.12500000000E+03 0.  0.
         25    1    1    2    0    0  0.23689534658E+01 -0.36562076206E+02 -0.39637843495E+02  0.13615636597E+03  0.12500000000E+03 0.  0.
         25    1    1    2    0    0  0.17881958472E+03  0.23718690258E+03 -0.32445107349E+03  0.45730467932E+03  0.12500000000E+03 0.  0.
</event>
<event>
 5    0  0.5612316E-005  0.3271177E+03  0.7546771E-02  0.1072419E+00
         21   -1    0    0  502  501  0.00000000000E+00  0.00000000000E+00  0.39101145776E+03  0.39101145776E+03  0.00000000000E+00 0.  1.
         21   -1    0    0  501  502 -0.00000000000E+00 -0.00000000000E+00 -0.27366456712E+03  0.27366456712E+03  0.00000000000E+00 0.  1.
         25    1    1    2    0    0 -0.66458744085E+02  0.36943012828E+02 -0.30736877190E+02  0.14950353334E+03  0.12500000000E+03 0.  0.
         25    1    1    2    0    0 -0.13542949466E+03  0.19638204044E+02  0.19232265735E+03  0.26709513588E+03  0.12500000000E+03 0.  0.
         25    1    1    2    0    0  0.20188823874E+03 -0.56581216872E+02 -0.44238889522E+02  0.24807735566E+03  0.12500000000E+03 0.  0.
</event>
<event>
 5    0  0.5612316E-005  0.3956717E+03  0.7546771E-02  0.1045289E+00
         21   -1    0    0  502  501  0.00000000000E+00  0.00000000000E+00  0.25833799735E+04  0.25833799735E+04  0.00000000000E+00 0.  1.
         21   -1    0    0  501  502 -0.00000000000E+00 -0.00000000000E+00 -0.60601255755E+02  0.60601255755E+02  0.00000000000E+00 0.  1.
         25    1    1    2    0    0 -0.17740647885E+02  0.74793016068E+02  0.13093960696E+04  0.13175931818E+04  0.12500000000E+03 0.  0.
         25    1    1    2    0    0 -0.77544877384E+02  0.17544320325E+03  0.39860462575E+03  0.45967833671E+03  0.12500000000E+03 0.  0.
         25    1    1    2    0    0  0.95285525269E+02 -0.25023621932E+03  0.81477802242E+03  0.86670971069E+03  0.12500000000E+03 0.  0.
</event>
<event>
 5    0  0.6208137E-005  0.2870930E+03  0.7546771E-02  0.1091877E+00
         21   -1    0    0  502  501  0.00000000000E+00  0.00000000000E+00  0.31466239809E+03  0.31466239809E+03  0.00000000000E+00 0.  1.
         21   -1    0    0  501  502 -0.00000000000E+00 -0.00000000000E+00 -0.26193910734E+03  0.26193910734E+03  0.00000000000E+00 0.  1.
         25    1    1    2    0    0  0.22008679178E+02 -0.11322906851E+03  0.57279077509E+02  0.17947450135E+03  0.12500000000E+03 0.  0.
         25    1    1    2    0    0  0.28526227095E+01  0.80109359753E+02  0.13824116287E+03  0.20288239472E+03  0.12500000000E+03 0.  0.
         25    1    1    2    0    0 -0.24861301888E+02  0.33119708761E+02 -0.14279694963E+03  0.19424460935E+03  0.12500000000E+03 0.  0.
</event>
<event>
 5    0  0.5612316E-005  0.3143424E+03  0.7546771E-02  0.1078283E+00
         21   -1    0    0  502  501  0.00000000000E+00  0.00000000000E+00  0.40393831052E+03  0.40393831052E+03  0.00000000000E+00 0.  1.
         21   -1    0    0  501  502 -0.00000000000E+00 -0.00000000000E+00 -0.24461937973E+03  0.24461937973E+03  0.00000000000E+00 0.  1.
         25    1    1    2    0    0  0.30070846361E+02  0.12094533669E+03  0.21208546343E+03  0.27592983541E+03  0.12500000000E+03 0.  0.
         25    1    1    2    0    0 -0.13150971930E+03 -0.34756759608E+02 -0.95608669230E+01  0.18498445552E+03  0.12500000000E+03 0.  0.
         25    1    1    2    0    0  0.10143887293E+03 -0.86188577080E+02 -0.43205665714E+02  0.18764339933E+03  0.12500000000E+03 0.  0.
</event>
<event>
 5    0  0.5612316E-005  0.3194114E+03  0.7546771E-02  0.1075921E+00
         21   -1    0    0  502  501  0.00000000000E+00  0.00000000000E+00  0.43691629922E+03  0.43691629922E+03  0.00000000000E+00 0. -1.
         21   -1    0    0  501  502 -0.00000000000E+00 -0.00000000000E+00 -0.23350842630E+03  0.23350842630E+03  0.00000000000E+00 0. -1.
         25    1    1    2    0    0  0.64274193714E+02 -0.77724150267E+02 -0.55183120761E+02  0.16983048115E+03  0.12500000000E+03 0.  0.
         25    1    1    2    0    0 -0.11828896567E+03 -0.10315952301E+03  0.10015420018E+03  0.22425438770E+03  0.12500000000E+03 0.  0.
         25    1    1    2    0    0  0.54014771955E+02  0.18088367328E+03  0.15843679350E+03  0.27633985667E+03  0.12500000000E+03 0.  0.
</event>
<event>
 5    0  0.5748965E-005  0.3327812E+03  0.7546771E-02  0.1069913E+00
         21   -1    0    0  502  501  0.00000000000E+00  0.00000000000E+00  0.15357471899E+03  0.15357471899E+03  0.00000000000E+00 0. -1.
         21   -1    0    0  501  502 -0.00000000000E+00 -0.00000000000E+00 -0.72110386608E+03  0.72110386608E+03  0.00000000000E+00 0. -1.
         25    1    1    2    0    0  0.65487474113E+02 -0.11717938973E+02  0.28207575287E+02  0.14438347088E+03  0.12500000000E+03 0.  0.
         25    1    1    2    0    0 -0.10411257036E+03  0.11367884297E+03 -0.50191803077E+03  0.53973050336E+03  0.12500000000E+03 0.  0.
         25    1    1    2    0    0  0.38625096249E+02 -0.10196090400E+03 -0.93818691609E+02  0.19056461083E+03  0.12500000000E+03 0.  0.
</event>
<event>
 5    0  0.5612316E-005  0.3128480E+03  0.7546771E-02  0.1078989E+00
         21   -1    0    0  502  501  0.00000000000E+00  0.00000000000E+00  0.40469397101E+03  0.40469397101E+03  0.00000000000E+00 0. -1.
         21   -1    0    0  501  502 -0.00000000000E+00 -0.00000000000E+00 -0.24184668470E+03  0.24184668470E+03  0.00000000000E+00 0. -1.
         25    1    1    2    0    0  0.83523669365E+01 -0.14105265653E+03 -0.43380122990E+02  0.19357801791E+03  0.12500000000E+03 0.  0.
         25    1    1    2    0    0  0.45882927515E+01  0.17579168737E+03  0.82500996516E+01  0.21590931875E+03  0.12500000000E+03 0.  0.
         25    1    1    2    0    0 -0.12940659688E+02 -0.34739030848E+02  0.19797730965E+03  0.23705331905E+03  0.12500000000E+03 0.  0.
</event>
<event>
 5    0  0.5612316E-005  0.2742531E+03  0.7546771E-02  0.1098870E+00
         21   -1    0    0  502  501  0.00000000000E+00  0.00000000000E+00  0.56199865619E+03  0.56199865619E+03  0.00000000000E+00 0.  1.
         21   -1    0    0  501  502 -0.00000000000E+00 -0.00000000000E+00 -0.13383437418E+03  0.13383437418E+03  0.00000000000E+00 0.  1.
         25    1    1    2    0    0  0.14343470491E+03 -0.81643227500E+02  0.14781129420E+03  0.25438614322E+03  0.12500000000E+03 0.  0.
         25    1    1    2    0    0 -0.11602415259E+03  0.72759862208E+02  0.76477923609E+02  0.20057286539E+03  0.12500000000E+03 0.  0.
         25    1    1    2    0    0 -0.27410552324E+02  0.88833652920E+01  0.20387506421E+03  0.24087402177E+03  0.12500000000E+03 0.  0.
</event>
<event>
 5    0  0.6081349E-005  0.3014624E+03  0.7546771E-02  0.1084512E+00
         21   -1    0    0  502  501  0.00000000000E+00  0.00000000000E+00  0.54265182305E+03  0.54265182305E+03  0.00000000000E+00 0.  1.
         21   -1    0    0  501  502 -0.00000000000E+00 -0.00000000000E+00 -0.16747314115E+03  0.16747314115E+03  0.00000000000E+00 0.  1.
         25    1    1    2    0    0 -0.63177228885E+02 -0.53742879118E+02 -0.28134691047E+02  0.15263099340E+03  0.12500000000E+03 0.  0.
         25    1    1    2    0    0 -0.10547742964E+03 -0.14338002784E+02  0.17432088006E+03  0.23946572972E+03  0.12500000000E+03 0.  0.
         25    1    1    2    0    0  0.16865465853E+03  0.68080881902E+02  0.22899249289E+03  0.31802824108E+03  0.12500000000E+03 0.  0.
</event>
<event>
 5    0  0.5612316E-005  0.2566721E+03  0.7546771E-02  0.1109159E+00
         21   -1    0    0  502  501  0.00000000000E+00  0.00000000000E+00  0.10216203329E+03  0.10216203329E+03  0.00000000000E+00 0.  1.
         21   -1    0    0  501  502 -0.00000000000E+00 -0.00000000000E+00 -0.64486333244E+03  0.64486333244E+03  0.00000000000E+00 0.  1.
         25    1    1    2    0    0 -0.57398293988E+02 -0.11963699308E+03 -0.11444134563E+03  0.21524264414E+03  0.12500000000E+03 0.  0.
         25    1    1    2    0    0 -0.31020407876E+02  0.91214798440E+02 -0.24319072549E+03  0.28991228695E+03  0.12500000000E+03 0.  0.
         25    1    1    2    0    0  0.88418701864E+02  0.28422194641E+02 -0.18506922803E+03  0.24187043463E+03  0.12500000000E+03 0.  0.
</event>
<event>
 5    0  0.5612316E-005  0.4298345E+03  0.7546771E-02  0.1033912E+00
         21   -1    0    0  502  501  0.00000000000E+00  0.00000000000E+00  0.13571174473E+03  0.13571174473E+03  0.00000000000E+00 0. -1.
         21   -1    0    0  501  502 -0.00000000000E+00 -0.00000000000E+00 -0.13613982099E+04  0.13613982099E+04  0.00000000000E+00 0. -1.
         25    1    1    2    0    0  0.24879232345E+03  0.76374187450E+02 -0.15515800808E+03  0.32776461704E+03  0.12500000000E+03 0.  0.
         25    1    1    2    0    0  0.89879900133E+01  0.66910725138E+02 -0.43576689102E+03  0.45834006197E+03  0.12500000000E+03 0.  0.
         25    1    1    2    0    0 -0.25778031346E+03 -0.14328491259E+03 -0.63476156606E+03  0.71100527560E+03  0.12500000000E+03 0.  0.
</event>
<event>
 5    0  0.5612316E-005  0.3264789E+03  0.7546771E-02  0.1072706E+00
         21   -1    0    0  502  501  0.00000000000E+00  0.00000000000E+00  0.55524769054E+03  0.55524769054E+03  0.00000000000E+00 0. -1.
         21   -1    0    0  501  502 -0.00000000000E+00 -0.00000000000E+00 -0.19196566318E+03  0.19196566318E+03  0.00000000000E+00 0. -1.
         25    1    1    2    0    0 -0.10899964046E+03 -0.17154088169E+03  0.17514395485E+03  0.29598581154E+03  0.12500000000E+03 0.  0.
         25    1    1    2    0    0  0.15934535009E+02  0.21191852167E+03  0.13835566092E+03  0.28272010565E+03  0.12500000000E+03 0.  0.
         25    1    1    2    0    0  0.93065105449E+02 -0.40377639974E+02  0.49782411591E+02  0.16850743653E+03  0.12500000000E+03 0.  0.
</event>
<event>
 5    0  0.5612316E-005  0.3897602E+03  0.7546771E-02  0.1047384E+00
         21   -1    0    0  502  501  0.00000000000E+00  0.00000000000E+00  0.76437225888E+02  0.76437225888E+02  0.00000000000E+00 0. -1.
         21   -1    0    0  501  502 -0.00000000000E+00 -0.00000000000E+00 -0.19874215263E+04  0.19874215263E+04  0.00000000000E+00 0. -1.
         25    1    1    2    0    0  0.88058837008E+02  0.18600359017E+03 -0.62942856689E+03  0.67391172653E+03  0.12500000000E+03 0.  0.
         25    1    1    2    0    0 -0.39203742675E+02 -0.20682083923E+03 -0.12136635538E+04  0.12381098558E+04  0.12500000000E+03 0.  0.
         25    1    1    2    0    0 -0.48855094333E+02  0.20817249060E+02 -0.67892179654E+02  0.15183716989E+03  0.12500000000E+03 0.  0.
</event>
<event>
 5    0  0.5612316E-005  0.2418500E+03  0.7546771E-02  0.1118566E+00
         21   -1    0    0  502  501  0.00000000000E+00  0.00000000000E+00  0.13702000499E+04  0.13702000499E+04  0.00000000000E+00 0. -1.
         21   -1    0    0  501  502 -0.00000000000E+00 -0.00000000000E+00 -0.42688252863E+02  0.42688252863E+02  0.00000000000E+00 0. -1.
         25    1    1    2    0    0  0.42196979469E+02 -0.38105259592E+02  0.19390038802E+03  0.23760251758E+03  0.12500000000E+03 0.  0.
         25    1    1    2    0    0 -0.79079247596E+02 -0.94481107857E+01  0.35972746520E+03  0.38906508892E+03  0.12500000000E+03 0.  0.
         25    1    1    2    0    0  0.36882268127E+02  0.47553370377E+02  0.77388394381E+03  0.78622069626E+03  0.12500000000E+03 0.  0.
</event>
<event>
 5    0  0.5612316E-005  0.3609330E+03  0.7546771E-02  0.1058215E+00
         21   -1    0    0  502  501  0.00000000000E+00  0.00000000000E+00  0.53875925363E+03  0.53875925363E+03  0.00000000000E+00 0. -1.
         21   -1    0    0  501  502 -0.00000000000E+00 -0.00000000000E+00 -0.24180118534E+03  0.24180118534E+03  0.00000000000E+00 0. -1.
         25    1    1    2    0    0  0.15588001719E+03 -0.17300542978E+03  0.16755018171E+02  0.26483049131E+03  0.12500000000E+03 0.  0.
         25    1    1    2    0    0 -0.18656562814E+03  0.11678819861E+03  0.69474729270E+02  0.26248419942E+03  0.12500000000E+03 0.  0.
         25    1    1    2    0    0  0.30685610947E+02  0.56217231168E+02  0.21072832085E+03  0.25324574825E+03  0.12500000000E+03 0.  0.
</event>
<event>
 5    0  0.5612316E-005  0.2057413E+03  0.7546771E-02  0.1144983E+00
         21   -1    0    0  502  501  0.00000000000E+00  0.00000000000E+00  0.16532844726E+03  0.16532844726E+03  0.00000000000E+00 0. -1.
         21   -1    0    0  501  502 -0.00000000000E+00 -0.00000000000E+00 -0.25603270869E+03  0.25603270869E+03  0.00000000000E+00 0. -1.
         25    1    1    2    0    0 -0.41934363470E+02 -0.67191138136E+01 -0.76378302244E+02  0.15251977702E+03  0.12500000000E+03 0.  0.
         25    1    1    2    0    0 -0.55997128138E+01  0.15664769973E+02  0.26244088023E+02  0.12880409139E+03  0.12500000000E+03 0.  0.
         25    1    1    2    0    0  0.47534076284E+02 -0.89456561598E+01 -0.40570047207E+02  0.14003728754E+03  0.12500000000E+03 0.  0.
</event>
<event>
 5    0  0.6313312E-005  0.2918792E+03  0.7546771E-02  0.1089372E+00
         21   -1    0    0  502  501  0.00000000000E+00  0.00000000000E+00  0.63500936419E+03  0.63500936419E+03  0.00000000000E+00 0.  1.
         21   -1    0    0  501  502 -0.00000000000E+00 -0.00000000000E+00 -0.13416092732E+03  0.13416092732E+03  0.00000000000E+00 0.  1.
         25    1    1    2    0    0  0.31979327940E+02 -0.10918993514E+03  0.22657092269E+03  0.28267384449E+03  0.12500000000E+03 0.  0.
         25    1    1    2    0    0  0.31528667490E+02 -0.16430225876E+02 -0.25572871659E+02  0.13244991869E+03  0.12500000000E+03 0.  0.
         25    1    1    2    0    0 -0.63507995430E+02  0.12562016102E+03  0.29985038584E+03  0.35404652834E+03  0.12500000000E+03 0.  0.
</event>
<event>
 5    0  0.5612316E-005  0.2333629E+03  0.7546771E-02  0.1124295E+00
         21   -1    0    0  502  501  0.00000000000E+00  0.00000000000E+00  0.13219234391E+04  0.13219234391E+04  0.00000000000E+00 0.  1.
         21   -1    0    0  501  502 -0.00000000000E+00 -0.00000000000E+00 -0.41196232069E+02  0.41196232069E+02  0.00000000000E+00 0.  1.
         25    1    1    2    0    0  0.23870467436E+02  0.92191358340E+02  0.30313926941E+03  0.34144906271E+03  0.12500000000E+03 0.  0.
         25    1    1    2    0    0 -0.52721133064E+01 -0.11271942933E+03  0.52763744656E+03  0.55385895311E+03  0.12500000000E+03 0.  0.
         25    1    1    2    0    0 -0.18598354130E+02  0.20528070991E+02  0.44995049110E+03  0.46781165539E+03  0.12500000000E+03 0.  0.
</event>
<event>
 5    0  0.5612316E-005  0.2827105E+03  0.7546771E-02  0.1094218E+00
         21   -1    0    0  502  501  0.00000000000E+00  0.00000000000E+00  0.81404101550E+02  0.81404101550E+02  0.00000000000E+00 0.  1.
         21   -1    0    0  501  502 -0.00000000000E+00 -0.00000000000E+00 -0.98183303531E+03  0.98183303531E+03  0.00000000000E+00 0. -1.
         25    1    1    2    0    0 -0.49914478256E+01 -0.27964197028E+02 -0.45276595398E+03  0.47056234438E+03  0.12500000000E+03 0.  0.
         25    1    1    2    0    0  0.14464788868E+03  0.87428384422E+00 -0.28415021547E+03  0.34247645323E+03  0.12500000000E+03 0.  0.
         25    1    1    2    0    0 -0.13965644085E+03  0.27089913183E+02 -0.16351276432E+03  0.25019833925E+03  0.12500000000E+03 0.  0.
</event>
<event>
 5    0  0.5612316E-005  0.3500693E+03  0.7546771E-02  0.1062587E+00
         21   -1    0    0  502  501  0.00000000000E+00  0.00000000000E+00  0.12358029645E+04  0.12358029645E+04  0.00000000000E+00 0.  1.
         21   -1    0    0  501  502 -0.00000000000E+00 -0.00000000000E+00 -0.99165073627E+02  0.99165073627E+02  0.00000000000E+00 0.  1.
         25    1    1    2    0    0  0.15895801418E+03 -0.18157238643E+03  0.55897483930E+03  0.62154167419E+03  0.12500000000E+03 0.  0.
         25    1    1    2    0    0 -0.10450213179E+03 -0.24758120361E+02  0.29445447719E+03  0.33743458508E+03  0.12500000000E+03 0.  0.
         25    1    1    2    0    0 -0.54455882390E+02  0.20633050679E+03  0.28320857437E+03  0.37599177885E+03  0.12500000000E+03 0.  0.
</event>
<event>
 5    0  0.5612316E-005  0.3198287E+03  0.7546771E-02  0.1075728E+00
         21   -1    0    0  502  501  0.00000000000E+00  0.00000000000E+00  0.24272066366E+03  0.24272066366E+03  0.00000000000E+00 0.  1.
         21   -1    0    0  501  502 -0.00000000000E+00 -0.00000000000E+00 -0.42143247980E+03  0.42143247980E+03  0.00000000000E+00 0. -1.
         25    1    1    2    0    0 -0.17429461040E+03  0.13040714936E+03 -0.10851989031E+02  0.25125166962E+03  0.12500000000E+03 0.  0.
         25    1    1    2    0    0  0.15474671345E+03 -0.10781118725E+03 -0.36609738091E+02  0.22920530173E+03  0.12500000000E+03 0.  0.
         25    1    1    2    0    0  0.19547896953E+02 -0.22595962109E+02 -0.13125008902E+03  0.18369617211E+03  0.12500000000E+03 0.  0.
</event>
<event>
 5    0  0.5612316E-005  0.3639906E+03  0.7546771E-02  0.1057015E+00
         21   -1    0    0  502  501  0.00000000000E+00  0.00000000000E+00  0.14832144387E+04  0.14832144387E+04  0.00000000000E+00 0. -1.
         21   -1    0    0  501  502 -0.00000000000E+00 -0.00000000000E+00 -0.89325702964E+02  0.89325702964E+02  0.00000000000E+00 0. -1.
         25    1    1    2    0    0 -0.10074331440E+03 -0.39178586257E+02  0.86085705834E+03  0.87657518326E+03  0.12500000000E+03 0.  0.
         25    1    1    2    0    0  0.21127264065E+03  0.60562987224E+02  0.42961529110E+03  0.49849604056E+03  0.12500000000E+03 0.  0.
         25    1    1    2    0    0 -0.11052932625E+03 -0.21384400966E+02  0.10341638634E+03  0.19746891788E+03  0.12500000000E+03 0.  0.
</event>
<event>
 5    0  0.5612316E-005  0.2622976E+03  0.7546771E-02  0.1105771E+00
         21   -1    0    0  502  501  0.00000000000E+00  0.00000000000E+00  0.54498374445E+02  0.54498374445E+02  0.00000000000E+00 0. -1.
         21   -1    0    0  501  502 -0.00000000000E+00 -0.00000000000E+00 -0.12624237821E+04  0.12624237821E+04  0.00000000000E+00 0. -1.
         25    1    1    2    0    0 -0.44829252034E+02  0.12152543580E+02 -0.95924770445E+02  0.16426779276E+03  0.12500000000E+03 0.  0.
         25    1    1    2    0    0  0.74547396823E+02  0.27612979108E+01 -0.33937979362E+03  0.36928117128E+03  0.12500000000E+03 0.  0.
         25    1    1    2    0    0 -0.29718144788E+02 -0.14913841491E+02 -0.77262084359E+03  0.78337319251E+03  0.12500000000E+03 0.  0.
</event>
<event>
 5    0  0.5612316E-005  0.2894536E+03  0.7546771E-02  0.1090635E+00
         21   -1    0    0  502  501  0.00000000000E+00  0.00000000000E+00  0.35342332760E+02  0.35342332760E+02  0.00000000000E+00 0.  1.
         21   -1    0    0  501  502 -0.00000000000E+00 -0.00000000000E+00 -0.23706236174E+04  0.23706236174E+04  0.00000000000E+00 0.  1.
         25    1    1    2    0    0  0.13111759478E+03  0.11835712736E+02 -0.50392351001E+03  0.53562655992E+03  0.12500000000E+03 0.  0.
         25    1    1    2    0    0  0.42622638066E+02 -0.80553911412E+02 -0.78772688434E+03  0.80277286092E+03  0.12500000000E+03 0.  0.
         25    1    1    2    0    0 -0.17374023285E+03  0.68718198676E+02 -0.10436308903E+04  0.10675665294E+04  0.12500000000E+03 0.  0.
</event>
<event>
 5    0  0.5612316E-005  0.2305009E+03  0.7546771E-02  0.1126288E+00
         21   -1    0    0  502  501  0.00000000000E+00  0.00000000000E+00  0.25791095760E+03  0.25791095760E+03  0.00000000000E+00 0. -1.
         21   -1    0    0  501  502 -0.00000000000E+00 -0.00000000000E+00 -0.20600397220E+03  0.20600397220E+03  0.00000000000E+00 0. -1.
         25    1    1    2    0    0 -0.46963576784E+02  0.59102433983E+01  0.61873544775E+02  0.14728830254E+03  0.12500000000E+03 0.  0.
         25    1    1    2    0    0 -0.53659755503E+02  0.49034733008E+02 -0.23405872093E+02  0.14648074703E+03  0.12500000000E+03 0.  0.
         25    1    1    2    0    0  0.10062333229E+03 -0.54944976406E+02  0.13439312725E+02  0.17014588023E+03  0.12500000000E+03 0.  0.
</event>
<event>
 5    0  0.5612316E-005  0.4315522E+03  0.7546771E-02  0.1033371E+00
         21   -1    0    0  502  501  0.00000000000E+00  0.00000000000E+00  0.13415011239E+03  0.13415011239E+03  0.00000000000E+00 0.  1.
         21   -1    0    0  501  502 -0.00000000000E+00 -0.00000000000E+00 -0.13882753607E+04  0.13882753607E+04  0.00000000000E+00 0.  1.
         25    1    1    2    0    0  0.68170273479E+02  0.56212248967E+02  0.61799614336E+02  0.16507936107E+03  0.12500000000E+03 0.  0.
         25    1    1    2    0    0 -0.33098349778E+02  0.62016789730E+02 -0.78917830328E+03  0.80210284711E+03  0.12500000000E+03 0.  0.
         25    1    1    2    0    0 -0.35071923700E+02 -0.11822903870E+03 -0.52674655936E+03  0.55524326490E+03  0.12500000000E+03 0.  0.
</event>
<event>
 5    0  0.5612316E-005  0.3734168E+03  0.7546771E-02  0.1053394E+00
         21   -1    0    0  502  501  0.00000000000E+00  0.00000000000E+00  0.12097711640E+04  0.12097711640E+04  0.00000000000E+00 0. -1.
         21   -1    0    0  501  502 -0.00000000000E+00 -0.00000000000E+00 -0.11526152841E+03  0.11526152841E+03  0.00000000000E+00 0. -1.
         25    1    1    2    0    0 -0.91621094990E+02 -0.11081117066E+03  0.11366576740E+03  0.22185230958E+03  0.12500000000E+03 0.  0.
         25    1    1    2    0    0  0.82104015616E+02 -0.12746095889E+03  0.63609727554E+03  0.66575679446E+03  0.12500000000E+03 0.  0.
         25    1    1    2    0    0  0.95170793740E+01  0.23827212955E+03  0.34474659267E+03  0.43742358838E+03  0.12500000000E+03 0.  0.
</event>
<event>
 5    0  0.5612316E-005  0.2464981E+03  0.7546771E-02  0.1115538E+00
         21   -1    0    0  502  501  0.00000000000E+00  0.00000000000E+00  0.18326832988E+03  0.18326832988E+03  0.00000000000E+00 0. -1.
         21   -1    0    0  501  502 -0.00000000000E+00 -0.00000000000E+00 -0.33154277199E+03  0.33154277199E+03  0.00000000000E+00 0. -1.
         25    1    1    2    0    0  0.12753477127E+01  0.47600663249E+01 -0.10770903635E+03  0.16507731902E+03  0.12500000000E+03 0.  0.
         25    1    1    2    0    0 -0.72408182169E+02 -0.91455242751E+02 -0.58830296772E+02  0.18081208502E+03  0.12500000000E+03 0.  0.
         25    1    1    2    0    0  0.71132834456E+02  0.86695176426E+02  0.18264891013E+02  0.16892169783E+03  0.12500000000E+03 0.  0.
</event>
<event>
 5    0  0.5612316E-005  0.3314474E+03  0.7546771E-02  0.1070498E+00
         21   -1    0    0  502  501  0.00000000000E+00  0.00000000000E+00  0.60657291125E+03  0.60657291125E+03  0.00000000000E+00 0.  1.
         21   -1    0    0  501  502 -0.00000000000E+00 -0.00000000000E+00 -0.18111155838E+03  0.18111155838E+03  0.00000000000E+00 0.  1.
         25    1    1    2    0    0  0.98731562157E+01  0.37063410957E+02 -0.12126177859E+02  0.13131344118E+03  0.12500000000E+03 0.  0.
         25    1    1    2    0    0 -0.15234136521E+02 -0.11185148128E+03 -0.25986577913E+02  0.17042046535E+03  0.12500000000E+03 0.  0.
         25    1    1    2    0    0  0.53609803048E+01  0.74788070320E+02  0.46357410864E+03  0.48595056310E+03  0.12500000000E+03 0.  0.
</event>
<event>
 5    0  0.5612316E-005  0.3616455E+03  0.7546771E-02  0.1057934E+00
         21   -1    0    0  502  501  0.00000000000E+00  0.00000000000E+00  0.44558949931E+03  0.44558949931E+03  0.00000000000E+00 0.  1.
         21   -1    0    0  501  502 -0.00000000000E+00 -0.00000000000E+00 -0.29351564261E+03  0.29351564261E+03  0.00000000000E+00 0.  1.
         25    1    1    2    0    0 -0.10925905962E+03 -0.10210156637E+03  0.15751752836E+03  0.25059737370E+03  0.12500000000E+03 0.  0.
         25    1    1    2    0    0 -0.14034743278E+03  0.68226765023E+02 -0.43843130645E+02  0.20469370644E+03  0.12500000000E+03 0.  0.
         25    1    1    2    0    0  0.24960649240E+03  0.33874801342E+02  0.38399458997E+02  0.28381406178E+03  0.12500000000E+03 0.  0.
</event>
<event>
 5    0  0.5612316E-005  0.4271798E+03  0.7546771E-02  0.1034755E+00
         21   -1    0    0  502  501  0.00000000000E+00  0.00000000000E+00  0.18967750470E+03  0.18967750470E+03  0.00000000000E+00 0. -1.
         21   -1    0    0  501  502 -0.00000000000E+00 -0.00000000000E+00 -0.96206744390E+03  0.96206744390E+03  0.00000000000E+00 0. -1.
         25    1    1    2    0    0 -0.11381017533E+03  0.15356257737E+02 -0.35036971448E+03  0.38932314018E+03  0.12500000000E+03 0.  0.
         25    1    1    2    0    0  0.33459912828E+03 -0.90509362757E+02 -0.27434297424E+03  0.45938827685E+03  0.12500000000E+03 0.  0.
         25    1    1    2    0    0 -0.22078895295E+03  0.75153105021E+02 -0.14767725048E+03  0.30303353156E+03  0.12500000000E+03 0.  0.
</event>
<event>
 5    0  0.5612316E-005  0.2625240E+03  0.7546771E-02  0.1105636E+00
         21   -1    0    0  502  501  0.00000000000E+00  0.00000000000E+00  0.15265653621E+03  0.15265653621E+03  0.00000000000E+00 0.  1.
         21   -1    0    0  501  502 -0.00000000000E+00 -0.00000000000E+00 -0.45146344292E+03  0.45146344292E+03  0.00000000000E+00 0.  1.
         25    1    1    2    0    0  0.36007713838E+02  0.54846736648E+01  0.24657048093E+02  0.13251266778E+03  0.12500000000E+03 0.  0.
         25    1    1    2    0    0  0.32303353926E+02 -0.72349146203E+01 -0.30072213974E+03  0.32734485790E+03  0.12500000000E+03 0.  0.
         25    1    1    2    0    0 -0.68311067764E+02  0.17502409555E+01 -0.22741815067E+02  0.14426245345E+03  0.12500000000E+03 0.  0.
</event>
<event>
 5    0  0.5667446E-005  0.2721439E+03  0.7546771E-02  0.1100059E+00
         21   -1    0    0  502  501  0.00000000000E+00  0.00000000000E+00  0.92157723647E+03  0.92157723647E+03  0.00000000000E+00 0. -1.
         21   -1    0    0  501  502 -0.00000000000E+00 -0.00000000000E+00 -0.80364752661E+02  0.80364752661E+02  0.00000000000E+00 0. -1.
         25    1    1    2    0    0  0.16171539939E+02 -0.76574590005E+02  0.37094362525E+03  0.39918587106E+03  0.12500000000E+03 0.  0.
         25    1    1    2    0    0 -0.58310227827E+02 -0.13814319983E+02  0.40841926859E+03  0.43130292958E+03  0.12500000000E+03 0.  0.
         25    1    1    2    0    0  0.42138687888E+02  0.90388909988E+02  0.61849589966E+02  0.17145318849E+03  0.12500000000E+03 0.  0.
</event>
<event>
 5    0  0.5612316E-005  0.5531866E+03  0.7546771E-02  0.1000759E+00
         21   -1    0    0  502  501  0.00000000000E+00  0.00000000000E+00  0.12742492714E+03  0.12742492714E+03  0.00000000000E+00 0.  1.
         21   -1    0    0  501  502 -0.00000000000E+00 -0.00000000000E+00 -0.24015345526E+04  0.24015345526E+04  0.00000000000E+00 0.  1.
         25    1    1    2    0    0  0.16144169521E+02 -0.60348707522E+02 -0.28368141948E+03  0.31623211169E+03  0.12500000000E+03 0.  0.
         25    1    1    2    0    0  0.20165394741E+03 -0.24843868026E+03 -0.24360353629E+03  0.42113391605E+03  0.12500000000E+03 0.  0.
         25    1    1    2    0    0 -0.21779811693E+03  0.30878738778E+03 -0.17468246697E+04  0.17915934520E+04  0.12500000000E+03 0.  0.
</event>
<event>
 5    0  0.5612316E-005  0.2808712E+03  0.7546771E-02  0.1095214E+00
         21   -1    0    0  502  501  0.00000000000E+00  0.00000000000E+00  0.38907737958E+03  0.38907737958E+03  0.00000000000E+00 0. -1.
         21   -1    0    0  501  502 -0.00000000000E+00 -0.00000000000E+00 -0.20275819686E+03  0.20275819686E+03  0.00000000000E+00 0. -1.
         25    1    1    2    0    0 -0.53995634923E+02  0.13691263243E+03 -0.24634273521E+01  0.19311050200E+03  0.12500000000E+03 0.  0.
         25    1    1    2    0    0  0.73347167934E+02 -0.16356268586E+03  0.91383281372E+02  0.23687225115E+03  0.12500000000E+03 0.  0.
         25    1    1    2    0    0 -0.19351533010E+02  0.26650053431E+02  0.97399328698E+02  0.16185282329E+03  0.12500000000E+03 0.  0.
</event>
<event>
 5    0  0.5612316E-005  0.5083639E+03  0.7546771E-02  0.1011619E+00
         21   -1    0    0  502  501  0.00000000000E+00  0.00000000000E+00  0.47271364803E+03  0.47271364803E+03  0.00000000000E+00 0.  1.
         21   -1    0    0  501  502 -0.00000000000E+00 -0.00000000000E+00 -0.54670274112E+03  0.54670274112E+03  0.00000000000E+00 0.  1.
         25    1    1    2    0    0 -0.18937709778E+03 -0.29101953101E+03 -0.20971094712E+03  0.42445227521E+03  0.12500000000E+03 0.  0.
         25    1    1    2    0    0  0.16094805392E+02  0.18844035349E+03  0.24515543168E+03  0.33390866306E+03  0.12500000000E+03 0.  0.
         25    1    1    2    0    0  0.17328229239E+03  0.10257917752E+03 -0.10943357765E+03  0.26105545088E+03  0.12500000000E+03 0.  0.
</event>
<event>
 5    0  0.5612316E-005  0.2597136E+03  0.7546771E-02  0.1107315E+00
         21   -1    0    0  502  501  0.00000000000E+00  0.00000000000E+00  0.15444088949E+03  0.15444088949E+03  0.00000000000E+00 0. -1.
         21   -1    0    0  501  502 -0.00000000000E+00 -0.00000000000E+00 -0.43674420643E+03  0.43674420643E+03  0.00000000000E+00 0. -1.
         25    1    1    2    0    0 -0.36482458293E+02  0.10891153188E+03 -0.17058004296E+03  0.24065585926E+03  0.12500000000E+03 0.  0.
         25    1    1    2    0    0  0.34015900148E+02  0.28653692045E+02 -0.96415863168E+02  0.16400955521E+03  0.12500000000E+03 0.  0.
         25    1    1    2    0    0  0.24665581446E+01 -0.13756522393E+03 -0.15307410812E+02  0.18651968145E+03  0.12500000000E+03 0.  0.
</event>
<event>
 5    0  0.5612316E-005  0.3409906E+03  0.7546771E-02  0.1066375E+00
         21   -1    0    0  502  501  0.00000000000E+00  0.00000000000E+00  0.83818393088E+03  0.83818393088E+03  0.00000000000E+00 0. -1.
         21   -1    0    0  501  502 -0.00000000000E+00 -0.00000000000E+00 -0.13872203784E+03  0.13872203784E+03  0.00000000000E+00 0. -1.
         25    1    1    2    0    0  0.17936742328E+03 -0.44383166116E+02  0.13834559715E+03  0.26250150898E+03  0.12500000000E+03 0.  0.
         25    1    1    2    0    0  0.45263607816E+02  0.60879915925E+02  0.75183372452E+02  0.16441623353E+03  0.12500000000E+03 0.  0.
         25    1    1    2    0    0 -0.22463103109E+03 -0.16496749809E+02  0.48593292343E+03  0.54998822620E+03  0.12500000000E+03 0.  0.
</event>
<event>
 5    0  0.6007878E-005  0.4238189E+03  0.7546771E-02  0.1035831E+00
         21   -1    0    0  502  501  0.00000000000E+00  0.00000000000E+00  0.35250052186E+03  0.35250052186E+03  0.00000000000E+00 0. -1.
         21   -1    0    0  501  502 -0.00000000000E+00 -0.00000000000E+00 -0.50956656991E+03  0.50956656991E+03  0.00000000000E+00 0. -1.
         25    1    1    2    0    0  0.26742687022E+02  0.16395879243E+03 -0.16648340264E+03  0.26634447672E+03  0.12500000000E+03 0.  0.
         25    1    1    2    0    0  0.24398740022E+03 -0.69137076780E+02  0.64752670984E+01  0.28280154868E+03  0.12500000000E+03 0.  0.
         25    1    1    2    0    0 -0.27073008724E+03 -0.94821715650E+02  0.29420874883E+01  0.31292106637E+03  0.12500000000E+03 0.  0.
</event>
<event>
 5    0  0.5612316E-005  0.2165116E+03  0.7546771E-02  0.1136511E+00
         21   -1    0    0  502  501  0.00000000000E+00  0.00000000000E+00  0.76353768605E+02  0.76353768605E+02  0.00000000000E+00 0. -1.
         21   -1    0    0  501  502 -0.00000000000E+00 -0.00000000000E+00 -0.61394813246E+03  0.61394813246E+03  0.00000000000E+00 0. -1.
         25    1    1    2    0    0  0.33621204602E+02 -0.43473009787E+02 -0.20990808048E+03  0.25041303925E+03  0.12500000000E+03 0.  0.
         25    1    1    2    0    0 -0.75886068528E+02  0.51131745020E+01 -0.11250183028E+03  0.18457112929E+03  0.12500000000E+03 0.  0.
         25    1    1    2    0    0  0.42264863927E+02  0.38359835285E+02 -0.21518445309E+03  0.25531773252E+03  0.12500000000E+03 0.  0.
</event>
<event>
 5    0  0.5612316E-005  0.2135337E+03  0.7546771E-02  0.1138798E+00
         21   -1    0    0  502  501  0.00000000000E+00  0.00000000000E+00  0.14702019431E+03  0.14702019431E+03  0.00000000000E+00 0.  1.
         21   -1    0    0  501  502 -0.00000000000E+00 -0.00000000000E+00 -0.31013875721E+03  0.31013875721E+03  0.00000000000E+00 0.  1.
         25    1    1    2    0    0  0.78866785758E+02 -0.11099650529E+02 -0.79335494172E+02  0.16811392796E+03  0.12500000000E+03 0.  0.
         25    1    1    2    0    0 -0.61031966791E+02  0.36404369875E+02 -0.19466206969E+02  0.14510035262E+03  0.12500000000E+03 0.  0.
         25    1    1    2    0    0 -0.17834818966E+02 -0.25304719346E+02 -0.64316861760E+02  0.14394467095E+03  0.12500000000E+03 0.  0.
</event>
<event>
 5    0  0.5612316E-005  0.5067288E+03  0.7546771E-02  0.1012037E+00
         21   -1    0    0  502  501  0.00000000000E+00  0.00000000000E+00  0.68478720200E+03  0.68478720200E+03  0.00000000000E+00 0.  1.
         21   -1    0    0  501  502 -0.00000000000E+00 -0.00000000000E+00 -0.37496913404E+03  0.37496913404E+03  0.00000000000E+00 0.  1.
         25    1    1    2    0    0 -0.36078461097E+03  0.48139724702E+02 -0.96775227504E+02  0.39682919911E+03  0.12500000000E+03 0.  0.
         25    1    1    2    0    0  0.16250197465E+03  0.10597321853E+03  0.25551340558E+03  0.34430991163E+03  0.12500000000E+03 0.  0.
         25    1    1    2    0    0  0.19828263632E+03 -0.15411294323E+03  0.15107988988E+03  0.31861722531E+03  0.12500000000E+03 0.  0.
</event>
<event>
 5    0  0.5612316E-005  0.2071551E+03  0.7546771E-02  0.1143839E+00
         21   -1    0    0  502  501  0.00000000000E+00  0.00000000000E+00  0.14855888858E+03  0.14855888858E+03  0.00000000000E+00 0.  1.
         21   -1    0    0  501  502 -0.00000000000E+00 -0.00000000000E+00 -0.28886350002E+03  0.28886350002E+03  0.00000000000E+00 0.  1.
         25    1    1    2    0    0  0.19961165394E+01  0.34757704321E+02 -0.11397385419E+03  0.17270530371E+03  0.12500000000E+03 0.  0.
         25    1    1    2    0    0  0.22202035444E+02 -0.87317740075E+01 -0.41568095977E+02  0.13387337621E+03  0.12500000000E+03 0.  0.
         25    1    1    2    0    0 -0.24198151983E+02 -0.26025930313E+02  0.15237338723E+02  0.13084370867E+03  0.12500000000E+03 0.  0.
</event>
<event>
 5    0  0.5838616E-005  0.2617669E+03  0.7546771E-02  0.1106086E+00
         21   -1    0    0  502  501  0.00000000000E+00  0.00000000000E+00  0.50511868973E+03  0.50511868973E+03  0.00000000000E+00 0.  1.
         21   -1    0    0  501  502 -0.00000000000E+00 -0.00000000000E+00 -0.13565502725E+03  0.13565502725E+03  0.00000000000E+00 0.  1.
         25    1    1    2    0    0 -0.23196122976E+02  0.11441165531E+03  0.19536454466E+02  0.17214749503E+03  0.12500000000E+03 0.  0.
         25    1    1    2    0    0 -0.23007097856E+02 -0.96566366779E+02  0.11086130900E+03  0.19434407523E+03  0.12500000000E+03 0.  0.
         25    1    1    2    0    0  0.46203220833E+02 -0.17845288529E+02  0.23906589901E+03  0.27428214672E+03  0.12500000000E+03 0.  0.
</event>
<event>
 5    0  0.5612316E-005  0.2894918E+03  0.7546771E-02  0.1090615E+00
         21   -1    0    0  502  501  0.00000000000E+00  0.00000000000E+00  0.32900328655E+02  0.32900328655E+02  0.00000000000E+00 0. -1.
         21   -1    0    0  501  502 -0.00000000000E+00 -0.00000000000E+00 -0.25472538160E+04  0.25472538160E+04  0.00000000000E+00 0. -1.
         25    1    1    2    0    0  0.33330834777E+02 -0.60172202275E+02 -0.52557505379E+03  0.54459689279E+03  0.12500000000E+03 0.  0.
         25    1    1    2    0    0 -0.10987178528E+03  0.53098034647E+02 -0.17240540613E+04  0.17328815934E+04  0.12500000000E+03 0.  0.
         25    1    1    2    0    0  0.76540950500E+02  0.70741676283E+01 -0.26472437220E+03  0.30267565840E+03  0.12500000000E+03 0.  0.
</event>
<event>
 5    0  0.5612316E-005  0.3112976E+03  0.7546771E-02  0.1079726E+00
         21   -1    0    0  502  501  0.00000000000E+00  0.00000000000E+00  0.55136017964E+03  0.55136017964E+03  0.00000000000E+00 0.  1.
         21   -1    0    0  501  502 -0.00000000000E+00 -0.00000000000E+00 -0.17575842343E+03  0.17575842343E+03  0.00000000000E+00 0.  1.
         25    1    1    2    0    0 -0.14084050165E+03  0.18116890638E+02 -0.15893234610E+02  0.18984694767E+03  0.12500000000E+03 0.  0.
         25    1    1    2    0    0  0.59373410538E+02  0.10552259652E+03  0.17743404004E+03  0.24853180645E+03  0.12500000000E+03 0.  0.
         25    1    1    2    0    0  0.81467091114E+02 -0.12363948716E+03  0.21406095078E+03  0.28873984895E+03  0.12500000000E+03 0.  0.
</event>
<event>
 5    0  0.5612316E-005  0.4209741E+03  0.7546771E-02  0.1036750E+00
         21   -1    0    0  502  501  0.00000000000E+00  0.00000000000E+00  0.11413872377E+04  0.11413872377E+04  0.00000000000E+00 0. -1.
         21   -1    0    0  501  502 -0.00000000000E+00 -0.00000000000E+00 -0.15526645628E+03  0.15526645628E+03  0.00000000000E+00 0. -1.
         25    1    1    2    0    0  0.46460046533E+02 -0.14802698763E+03  0.13896166567E+03  0.24291123793E+03  0.12500000000E+03 0.  0.
         25    1    1    2    0    0  0.22542974692E+03  0.55831580705E+02  0.59800832237E+03  0.65358602327E+03  0.12500000000E+03 0.  0.
         25    1    1    2    0    0 -0.27188979345E+03  0.92195406921E+02  0.24915079337E+03  0.40015643276E+03  0.12500000000E+03 0.  0.
</event>
<event>
 5    0  0.5612316E-005  0.4072421E+03  0.7546771E-02  0.1041300E+00
         21   -1    0    0  502  501  0.00000000000E+00  0.00000000000E+00  0.20142765100E+03  0.20142765100E+03  0.00000000000E+00 0. -1.
         21   -1    0    0  501  502 -0.00000000000E+00 -0.00000000000E+00 -0.82335338215E+03  0.82335338215E+03  0.00000000000E+00 0. -1.
         25    1    1    2    0    0  0.19332184844E+03  0.34872755538E+02 -0.18289484734E+03  0.29608271032E+03  0.12500000000E+03 0.  0.
         25    1    1    2    0    0 -0.15954129673E+03 -0.21514772300E+03 -0.40913557553E+03  0.50473645325E+03  0.12500000000E+03 0.  0.
         25    1    1    2    0    0 -0.33780551714E+02  0.18027496746E+03 -0.29895308270E+02  0.22396186958E+03  0.12500000000E+03 0.  0.
</event>
<event>
 5    0  0.5612316E-005  0.3232601E+03  0.7546771E-02  0.1074159E+00
         21   -1    0    0  502  501  0.00000000000E+00  0.00000000000E+00  0.13662324804E+04  0.13662324804E+04  0.00000000000E+00 0.  1.
         21   -1    0    0  501  502 -0.00000000000E+00 -0.00000000000E+00 -0.76485574601E+02  0.76485574601E+02  0.00000000000E+00 0.  1.
         25    1    1    2    0    0 -0.38076649896E+02  0.10843469611E+03  0.31240981269E+03  0.35557391025E+03  0.12500000000E+03 0.  0.
         25    1    1    2    0    0  0.19924651605E+03  0.14112894997E+02  0.54242234426E+03  0.59139271851E+03  0.12500000000E+03 0.  0.
         25    1    1    2    0    0 -0.16116986615E+03 -0.12254759111E+03  0.43491474887E+03  0.49575142624E+03  0.12500000000E+03 0.  0.
</event>
<event>
 5    0  0.5612316E-005  0.2945299E+03  0.7546771E-02  0.1088007E+00
         21   -1    0    0  502  501  0.00000000000E+00  0.00000000000E+00  0.49933757026E+02  0.49933757026E+02  0.00000000000E+00 0. -1.
         21   -1    0    0  501  502 -0.00000000000E+00 -0.00000000000E+00 -0.17372583528E+04  0.17372583528E+04  0.00000000000E+00 0. -1.
         25    1    1    2    0    0  0.12956709223E+03 -0.11463258872E+03 -0.65241228201E+03  0.68643648468E+03  0.12500000000E+03 0.  0.
         25    1    1    2    0    0 -0.57767692124E+02 -0.49267925726E+02 -0.54757239799E+03  0.56676711778E+03  0.12500000000E+03 0.  0.
         25    1    1    2    0    0 -0.71799400107E+02  0.16390051444E+03 -0.48733991581E+03  0.53398850739E+03  0.12500000000E+03 0.  0.
</event>
<event>
 5    0  0.5612316E-005  0.3809743E+03  0.7546771E-02  0.1050574E+00
         21   -1    0    0  502  501  0.00000000000E+00  0.00000000000E+00  0.18888328545E+03  0.18888328545E+03  0.00000000000E+00 0. -1.
         21   -1    0    0  501  502 -0.00000000000E+00 -0.00000000000E+00 -0.76841847205E+03  0.76841847205E+03  0.00000000000E+00 0. -1.
         25    1    1    2    0    0 -0.22901873705E+03  0.11195544692E+03 -0.38810780841E+03  0.48087033072E+03  0.12500000000E+03 0.  0.
         25    1    1    2    0    0  0.21575691977E+03 -0.55317873123E+02 -0.19651122388E+02  0.25616846435E+03  0.12500000000E+03 0.  0.
         25    1    1    2    0    0  0.13261817277E+02 -0.56637573800E+02 -0.17177625580E+03  0.22026296243E+03  0.12500000000E+03 0.  0.
</event>
<event>
 5    0  0.5612316E-005  0.4030772E+03  0.7546771E-02  0.1042719E+00
         21   -1    0    0  502  501  0.00000000000E+00  0.00000000000E+00  0.89595042701E+03  0.89595042701E+03  0.00000000000E+00 0.  1.
         21   -1    0    0  501  502 -0.00000000000E+00 -0.00000000000E+00 -0.18133948935E+03  0.18133948935E+03  0.00000000000E+00 0.  1.
         25    1    1    2    0    0  0.63257605960E+02  0.22225406296E+03  0.11410452322E+03  0.28643190366E+03  0.12500000000E+03 0.  0.
         25    1    1    2    0    0 -0.19506389836E+03 -0.23128934663E+03  0.32950235678E+03  0.46447980519E+03  0.12500000000E+03 0.  0.
         25    1    1    2    0    0  0.13180629240E+03  0.90352836660E+01  0.27100405766E+03  0.32637820751E+03  0.12500000000E+03 0.  0.
</event>
<event>
 5    0  0.5612316E-005  0.2658389E+03  0.7546771E-02  0.1103685E+00
         21   -1    0    0  502  501  0.00000000000E+00  0.00000000000E+00  0.29307444446E+03  0.29307444446E+03  0.00000000000E+00 0. -1.
         21   -1    0    0  501  502 -0.00000000000E+00 -0.00000000000E+00 -0.24113427756E+03  0.24113427756E+03  0.00000000000E+00 0. -1.
         25    1    1    2    0    0 -0.45416014243E+02  0.52864959531E+02 -0.94224028549E+02  0.17134901766E+03  0.12500000000E+03 0.  0.
         25    1    1    2    0    0 -0.40942726052E+02  0.12904946189E+02  0.14649609441E+03  0.19730420708E+03  0.12500000000E+03 0.  0.
         25    1    1    2    0    0  0.86358740295E+02 -0.65769905720E+02 -0.33189896304E+00  0.16555549728E+03  0.12500000000E+03 0.  0.
</event>
<event>
 5    0  0.5612316E-005  0.3294997E+03  0.7546771E-02  0.1071358E+00
         21   -1    0    0  502  501  0.00000000000E+00  0.00000000000E+00  0.16256420603E+04  0.16256420603E+04  0.00000000000E+00 0. -1.
         21   -1    0    0  501  502 -0.00000000000E+00 -0.00000000000E+00 -0.66785952127E+02  0.66785952127E+02  0.00000000000E+00 0. -1.
         25    1    1    2    0    0 -0.16037324488E+03 -0.26356735598E+02  0.49384497129E+03  0.53471685110E+03  0.12500000000E+03 0.  0.
         25    1    1    2    0    0  0.19233528025E+02 -0.14106669819E+03  0.32829520271E+03  0.37904153079E+03  0.12500000000E+03 0.  0.
         25    1    1    2    0    0  0.14113971685E+03  0.16742343379E+03  0.73671593418E+03  0.77866963054E+03  0.12500000000E+03 0.  0.
</event>
<event>
 5    0  0.5612316E-005  0.2915444E+03  0.7546771E-02  0.1089546E+00
         21   -1    0    0  502  501  0.00000000000E+00  0.00000000000E+00  0.17854561690E+03  0.17854561690E+03  0.00000000000E+00 0.  1.
         21   -1    0    0  501  502 -0.00000000000E+00 -0.00000000000E+00 -0.47605852561E+03  0.47605852561E+03  0.00000000000E+00 0.  1.
         25    1    1    2    0    0 -0.10256523218E+03  0.17877456354E+03 -0.12522188659E+03  0.27163485104E+03  0.12500000000E+03 0.  0.
         25    1    1    2    0    0  0.16982540170E+02 -0.30547764105E+02 -0.57869677188E+02  0.14211077405E+03  0.12500000000E+03 0.  0.
         25    1    1    2    0    0  0.85582692007E+02 -0.14822679943E+03 -0.11442134493E+03  0.24085851743E+03  0.12500000000E+03 0.  0.
</event>
<event>
 5    0  0.5612316E-005  0.2987367E+03  0.7546771E-02  0.1085874E+00
         21   -1    0    0  502  501  0.00000000000E+00  0.00000000000E+00  0.48779883681E+03  0.48779883681E+03  0.00000000000E+00 0.  1.
         21   -1    0    0  501  502 -0.00000000000E+00 -0.00000000000E+00 -0.18295168433E+03  0.18295168433E+03  0.00000000000E+00 0.  1.
         25    1    1    2    0    0  0.86039945799E+02  0.15399436640E+03  0.30630867376E+01  0.21622099726E+03  0.12500000000E+03 0.  0.
         25    1    1    2    0    0 -0.57690964870E+02 -0.16039877119E+03  0.18068298805E+03  0.27807796640E+03  0.12500000000E+03 0.  0.
         25    1    1    2    0    0 -0.28348980929E+02  0.64044047882E+01  0.12110107768E+03  0.17645155748E+03  0.12500000000E+03 0.  0.
</event>
<event>
 5    0  0.5612316E-005  0.2405989E+03  0.7546771E-02  0.1119395E+00
         21   -1    0    0  502  501  0.00000000000E+00  0.00000000000E+00  0.67760489073E+03  0.67760489073E+03  0.00000000000E+00 0.  1.
         21   -1    0    0  501  502 -0.00000000000E+00 -0.00000000000E+00 -0.85430032414E+02  0.85430032414E+02  0.00000000000E+00 0.  1.
         25    1    1    2    0    0 -0.63196740910E+02 -0.95763788748E+02  0.34333891081E+03  0.38297668202E+03  0.12500000000E+03 0.  0.
         25    1    1    2    0    0  0.55483052140E+02  0.30402426982E+02  0.16225279395E+03  0.21436801484E+03  0.12500000000E+03 0.  0.
         25    1    1    2    0    0  0.77136887705E+01  0.65361361767E+02  0.86583153562E+02  0.16569022629E+03  0.12500000000E+03 0.  0.
</event>
<event>
 5    0  0.5612316E-005  0.3100761E+03  0.7546771E-02  0.1080309E+00
         21   -1    0    0  502  501  0.00000000000E+00  0.00000000000E+00  0.43824139877E+03  0.43824139877E+03  0.00000000000E+00 0. -1.
         21   -1    0    0  501  502 -0.00000000000E+00 -0.00000000000E+00 -0.21939322427E+03  0.21939322427E+03  0.00000000000E+00 0. -1.
         25    1    1    2    0    0 -0.51467018999E+02  0.78530020623E+02  0.29195450226E+02  0.15903833657E+03  0.12500000000E+03 0.  0.
         25    1    1    2    0    0 -0.16247778569E+03 -0.54726651925E+02  0.89324244114E+02  0.23021263618E+03  0.12500000000E+03 0.  0.
         25    1    1    2    0    0  0.21394480469E+03 -0.23803368698E+02  0.10032848016E+03  0.26838365029E+03  0.12500000000E+03 0.  0.
</event>
<event>
 5    0  0.5612316E-005  0.2472555E+03  0.7546771E-02  0.1115052E+00
         21   -1    0    0  502  501  0.00000000000E+00  0.00000000000E+00  0.61404231549E+03  0.61404231549E+03  0.00000000000E+00 0. -1.
         21   -1    0    0  501  502 -0.00000000000E+00 -0.00000000000E+00 -0.99561968371E+02  0.99561968371E+02  0.00000000000E+00 0. -1.
         25    1    1    2    0    0 -0.57477296563E+02  0.25255818761E+02  0.10550661551E+03  0.17520885228E+03  0.12500000000E+03 0.  0.
         25    1    1    2    0    0  0.11879140892E+03 -0.91573960251E+02  0.24520685789E+03  0.31344631468E+03  0.12500000000E+03 0.  0.
         25    1    1    2    0    0 -0.61314112362E+02  0.66318141490E+02  0.16376687372E+03  0.22494911690E+03  0.12500000000E+03 0.  0.
</event>
<event>
 5    0  0.5612316E-005  0.2844080E+03  0.7546771E-02  0.1093305E+00
         21   -1    0    0  502  501  0.00000000000E+00  0.00000000000E+00  0.79918828148E+03  0.79918828148E+03  0.00000000000E+00 0. -1.
         21   -1    0    0  501  502 -0.00000000000E+00 -0.00000000000E+00 -0.10121258069E+03  0.10121258069E+03  0.00000000000E+00 0. -1.
         25    1    1    2    0    0  0.34520996589E+02  0.57983467479E+02  0.30034046403E+03  0.33223963647E+03  0.12500000000E+03 0.  0.
         25    1    1    2    0    0  0.12688466659E+03 -0.18153453042E+02  0.10006517422E+03  0.20510315835E+03  0.12500000000E+03 0.  0.
         25    1    1    2    0    0 -0.16140566318E+03 -0.39830014438E+02  0.29757006253E+03  0.36305806735E+03  0.12500000000E+03 0.  0.
</event>
<event>
 5    0  0.5612316E-005  0.7519742E+03  0.7546771E-02  0.9632258E-01
         21   -1    0    0  502  501  0.00000000000E+00  0.00000000000E+00  0.47642460873E+03  0.47642460873E+03  0.00000000000E+00 0. -1.
         21   -1    0    0  501  502 -0.00000000000E+00 -0.00000000000E+00 -0.11868934340E+04  0.11868934340E+04  0.00000000000E+00 0. -1.
         25    1    1    2    0    0  0.20262625896E+03  0.23802532384E+03 -0.57008050244E+03  0.66206512887E+03  0.12500000000E+03 0.  0.
         25    1    1    2    0    0  0.19659708268E+03  0.25321408715E+03 -0.18254195934E+02  0.34456639784E+03  0.12500000000E+03 0.  0.
         25    1    1    2    0    0 -0.39922334164E+03 -0.49123941099E+03 -0.12213412694E+03  0.65668651606E+03  0.12500000000E+03 0.  0.
</event>
<event>
 5    0  0.5612316E-005  0.3036615E+03  0.7546771E-02  0.1083424E+00
         21   -1    0    0  502  501  0.00000000000E+00  0.00000000000E+00  0.31652537569E+03  0.31652537569E+03  0.00000000000E+00 0. -1.
         21   -1    0    0  501  502 -0.00000000000E+00 -0.00000000000E+00 -0.29132038031E+03  0.29132038031E+03  0.00000000000E+00 0. -1.
         25    1    1    2    0    0 -0.68922124365E+02  0.18964401810E+03  0.11619365058E+02  0.23764495045E+03  0.12500000000E+03 0.  0.
         25    1    1    2    0    0  0.34612847134E+02 -0.38522275175E+02  0.83721405944E+02  0.15911093201E+03  0.12500000000E+03 0.  0.
         25    1    1    2    0    0  0.34309277230E+02 -0.15112174293E+03 -0.70135775624E+02  0.21108987354E+03  0.12500000000E+03 0.  0.
</event>
<event>
 5    0  0.6198495E-005  0.2842325E+03  0.7546771E-02  0.1093399E+00
         21   -1    0    0  502  501  0.00000000000E+00  0.00000000000E+00  0.53239406485E+03  0.53239406485E+03  0.00000000000E+00 0.  1.
         21   -1    0    0  501  502 -0.00000000000E+00 -0.00000000000E+00 -0.15174498672E+03  0.15174498672E+03  0.00000000000E+00 0.  1.
         25    1    1    2    0    0  0.15073313853E+02  0.10919694738E+03  0.45990754367E+02  0.17289108593E+03  0.12500000000E+03 0.  0.
         25    1    1    2    0    0  0.43399724741E+02 -0.18578800578E+03  0.18401496577E+03  0.29306522623E+03  0.12500000000E+03 0.  0.
         25    1    1    2    0    0 -0.58473038594E+02  0.76591058398E+02  0.15064335799E+03  0.21818273941E+03  0.12500000000E+03 0.  0.
</event>
<event>
 5    0  0.5612316E-005  0.2581041E+03  0.7546771E-02  0.1108288E+00
         21   -1    0    0  502  501  0.00000000000E+00  0.00000000000E+00  0.11522701609E+04  0.11522701609E+04  0.00000000000E+00 0. -1.
         21   -1    0    0  501  502 -0.00000000000E+00 -0.00000000000E+00 -0.57814307100E+02  0.57814307100E+02  0.00000000000E+00 0. -1.
         25    1    1    2    0    0  0.85515648181E+00 -0.83862973571E+01  0.29354813304E+03  0.31916542370E+03  0.12500000000E+03 0.  0.
         25    1    1    2    0    0  0.32305468714E+02 -0.14147049950E+03  0.36601132824E+03  0.41309422404E+03  0.12500000000E+03 0.  0.
         25    1    1    2    0    0 -0.33160625196E+02  0.14985679685E+03  0.43489639253E+03  0.47782482027E+03  0.12500000000E+03 0.  0.
</event>
<event>
 5    0  0.5612316E-005  0.2564448E+03  0.7546771E-02  0.1109298E+00
         21   -1    0    0  502  501  0.00000000000E+00  0.00000000000E+00  0.91534120586E+03  0.91534120586E+03  0.00000000000E+00 0.  1.
         21   -1    0    0  501  502 -0.00000000000E+00 -0.00000000000E+00 -0.71846356340E+02  0.71846356340E+02  0.00000000000E+00 0.  1.
         25    1    1    2    0    0  0.92585995089E+02  0.87532190976E+02  0.17908037027E+03  0.25284151154E+03  0.12500000000E+03 0.  0.
         25    1    1    2    0    0 -0.66225016249E+01  0.16700976761E+02  0.22659613218E+03  0.25941007550E+03  0.12500000000E+03 0.  0.
         25    1    1    2    0    0 -0.85963493464E+02 -0.10423316774E+03  0.43781834708E+03  0.47493597516E+03  0.12500000000E+03 0.  0.
</event>
<event>
 5    0  0.5612316E-005  0.7732526E+03  0.7546771E-02  0.9599561E-01
         21   -1    0    0  502  501  0.00000000000E+00  0.00000000000E+00  0.53143700791E+03  0.53143700791E+03  0.00000000000E+00 0. -1.
         21   -1    0    0  501  502 -0.00000000000E+00 -0.00000000000E+00 -0.11250997286E+04  0.11250997286E+04  0.00000000000E+00 0. -1.
         25    1    1    2    0    0  0.52943118265E+03  0.15590695786E+03 -0.36337953584E+02  0.56705361611E+03  0.12500000000E+03 0.  0.
         25    1    1    2    0    0 -0.48012867023E+03  0.57420616625E+01 -0.68328426637E+03  0.84442814964E+03  0.12500000000E+03 0.  0.
         25    1    1    2    0    0 -0.49302512429E+02 -0.16164901952E+03  0.12595949926E+03  0.24505497077E+03  0.12500000000E+03 0.  0.
</event>
<event>
 5    0  0.5612316E-005  0.2750206E+03  0.7546771E-02  0.1098440E+00
         21   -1    0    0  502  501  0.00000000000E+00  0.00000000000E+00  0.34615145011E+02  0.34615145011E+02  0.00000000000E+00 0.  1.
         21   -1    0    0  501  502 -0.00000000000E+00 -0.00000000000E+00 -0.21850647126E+04  0.21850647126E+04  0.00000000000E+00 0.  1.
         25    1    1    2    0    0  0.13358496017E+02  0.81512511301E+02 -0.84563823990E+03  0.85880834399E+03  0.12500000000E+03 0.  0.
         25    1    1    2    0    0 -0.78277993834E+02 -0.12188981484E+03 -0.10469216036E+04  0.10642623809E+04  0.12500000000E+03 0.  0.
         25    1    1    2    0    0  0.64919497817E+02  0.40377303540E+02 -0.25788972411E+03  0.29660913276E+03  0.12500000000E+03 0.  0.
</event>
<event>
 5    0  0.5702854E-005  0.3015462E+03  0.7546771E-02  0.1084470E+00
         21   -1    0    0  502  501  0.00000000000E+00  0.00000000000E+00  0.25754176695E+03  0.25754176695E+03  0.00000000000E+00 0.  1.
         21   -1    0    0  501  502 -0.00000000000E+00 -0.00000000000E+00 -0.35306938884E+03  0.35306938884E+03  0.00000000000E+00 0.  1.
         25    1    1    2    0    0  0.50129954965E+02  0.97878806565E+01  0.12247364835E+03  0.18230087639E+03  0.12500000000E+03 0.  0.
         25    1    1    2    0    0 -0.11268389644E+03  0.27122619759E+02 -0.45715777486E+01  0.17052623359E+03  0.12500000000E+03 0.  0.
         25    1    1    2    0    0  0.62553941477E+02 -0.36910500416E+02 -0.21342969249E+03  0.25778404580E+03  0.12500000000E+03 0.  0.
</event>
<event>
 5    0  0.5612316E-005  0.3074447E+03  0.7546771E-02  0.1081577E+00
         21   -1    0    0  502  501  0.00000000000E+00  0.00000000000E+00  0.18108306972E+03  0.18108306972E+03  0.00000000000E+00 0. -1.
         21   -1    0    0  501  502 -0.00000000000E+00 -0.00000000000E+00 -0.52198277786E+03  0.52198277786E+03  0.00000000000E+00 0. -1.
         25    1    1    2    0    0  0.61986672571E+02  0.76626050631E+02 -0.67461631050E+02  0.17288716226E+03  0.12500000000E+03 0.  0.
         25    1    1    2    0    0  0.21368538347E+02  0.68259919046E+02  0.43715349055E+02  0.15050602221E+03  0.12500000000E+03 0.  0.
         25    1    1    2    0    0 -0.83355210918E+02 -0.14488596968E+03 -0.31715342614E+03  0.37967266310E+03  0.12500000000E+03 0.  0.
</event>
<event>
 5    0  0.5612316E-005  0.3856870E+03  0.7546771E-02  0.1048852E+00
         21   -1    0    0  502  501  0.00000000000E+00  0.00000000000E+00  0.12898384003E+03  0.12898384003E+03  0.00000000000E+00 0. -1.
         21   -1    0    0  501  502 -0.00000000000E+00 -0.00000000000E+00 -0.11532798401E+04  0.11532798401E+04  0.00000000000E+00 0. -1.
         25    1    1    2    0    0  0.19729862920E+03 -0.16846118693E+03 -0.32389339165E+03  0.43340264160E+03  0.12500000000E+03 0.  0.
         25    1    1    2    0    0 -0.77342159368E+02  0.24792192165E+03 -0.39796337039E+03  0.49137249925E+03  0.12500000000E+03 0.  0.
         25    1    1    2    0    0 -0.11995646983E+03 -0.79460734716E+02 -0.30243923806E+03  0.35748853930E+03  0.12500000000E+03 0.  0.
</event>
<event>
 5    0  0.5616037E-005  0.4241916E+03  0.7546771E-02  0.1035711E+00
         21   -1    0    0  502  501  0.00000000000E+00  0.00000000000E+00  0.78262116824E+03  0.78262116824E+03  0.00000000000E+00 0.  1.
         21   -1    0    0  501  502 -0.00000000000E+00 -0.00000000000E+00 -0.22991773070E+03  0.22991773070E+03  0.00000000000E+00 0.  1.
         25    1    1    2    0    0 -0.16308819328E+03 -0.67018452482E+02  0.98241995147E+00  0.21613698644E+03  0.12500000000E+03 0.  0.
         25    1    1    2    0    0  0.12438237472E+03 -0.71894162996E+02  0.57353091469E+03  0.60431982916E+03  0.12500000000E+03 0.  0.
         25    1    1    2    0    0  0.38705818560E+02  0.13891261548E+03 -0.21809897100E+02  0.19208208334E+03  0.12500000000E+03 0.  0.
</event>
<event>
 5    0  0.5612316E-005  0.2618681E+03  0.7546771E-02  0.1106026E+00
         21   -1    0    0  502  501  0.00000000000E+00  0.00000000000E+00  0.64523405097E+03  0.64523405097E+03  0.00000000000E+00 0.  1.
         21   -1    0    0  501  502 -0.00000000000E+00 -0.00000000000E+00 -0.10627912682E+03  0.10627912682E+03  0.00000000000E+00 0.  1.
         25    1    1    2    0    0 -0.64818842838E+02 -0.14213668832E+03  0.15465614273E+03  0.25287910755E+03  0.12500000000E+03 0.  0.
         25    1    1    2    0    0  0.74921694495E+02  0.92487947258E+02  0.27658459296E+03  0.32602349265E+03  0.12500000000E+03 0.  0.
         25    1    1    2    0    0 -0.10102851657E+02  0.49648741061E+02  0.10771418846E+03  0.17261057759E+03  0.12500000000E+03 0.  0.
</event>
<event>
 5    0  0.5612316E-005  0.3623950E+03  0.7546771E-02  0.1057640E+00
         21   -1    0    0  502  501  0.00000000000E+00  0.00000000000E+00  0.11552111072E+04  0.11552111072E+04  0.00000000000E+00 0. -1.
         21   -1    0    0  501  502 -0.00000000000E+00 -0.00000000000E+00 -0.11368499294E+03  0.11368499294E+03  0.00000000000E+00 0. -1.
         25    1    1    2    0    0  0.18400068938E+02 -0.27748448716E+03  0.47399176783E+03  0.56358619493E+03  0.12500000000E+03 0.  0.
         25    1    1    2    0    0 -0.61047917187E+02  0.20822977286E+03  0.45171744043E+03  0.51648826946E+03  0.12500000000E+03 0.  0.
         25    1    1    2    0    0  0.42647848249E+02  0.69254714296E+02  0.11581690598E+03  0.18882163574E+03  0.12500000000E+03 0.  0.
</event>
<event>
 5    0  0.5612316E-005  0.3451583E+03  0.7546771E-02  0.1064620E+00
         21   -1    0    0  502  501  0.00000000000E+00  0.00000000000E+00  0.10737447944E+04  0.10737447944E+04  0.00000000000E+00 0. -1.
         21   -1    0    0  501  502 -0.00000000000E+00 -0.00000000000E+00 -0.11095214042E+03  0.11095214042E+03  0.00000000000E+00 0. -1.
         25    1    1    2    0    0  0.10618519023E+03 -0.21934988250E+03  0.22512119239E+03  0.35453380211E+03  0.12500000000E+03 0.  0.
         25    1    1    2    0    0 -0.57166063281E+02  0.63516506017E+02  0.46217087373E+03  0.48634270001E+03  0.12500000000E+03 0.  0.
         25    1    1    2    0    0 -0.49019126952E+02  0.15583337648E+03  0.27550058788E+03  0.34382043272E+03  0.12500000000E+03 0.  0.
</event>
<event>
 5    0  0.5612316E-005  0.2649149E+03  0.7546771E-02  0.1104226E+00
         21   -1    0    0  502  501  0.00000000000E+00  0.00000000000E+00  0.17493262358E+03  0.17493262358E+03  0.00000000000E+00 0. -1.
         21   -1    0    0  501  502 -0.00000000000E+00 -0.00000000000E+00 -0.40118244373E+03  0.40118244373E+03  0.00000000000E+00 0. -1.
         25    1    1    2    0    0  0.31880139830E+02 -0.48939715671E+02  0.39961776138E+02  0.14364324780E+03  0.12500000000E+03 0.  0.
         25    1    1    2    0    0 -0.82930240194E+02 -0.27477800141E+02 -0.22522880306E+03  0.27200269846E+03  0.12500000000E+03 0.  0.
         25    1    1    2    0    0  0.51050100363E+02  0.76417515812E+02 -0.40982793229E+02  0.16046912105E+03  0.12500000000E+03 0.  0.
</event>
<event>
 5    0  0.5612316E-005  0.2168623E+03  0.7546771E-02  0.1136244E+00
         21   -1    0    0  502  501  0.00000000000E+00  0.00000000000E+00  0.89169380236E+03  0.89169380236E+03  0.00000000000E+00 0. -1.
         21   -1    0    0  501  502 -0.00000000000E+00 -0.00000000000E+00 -0.52741468202E+02  0.52741468202E+02  0.00000000000E+00 0. -1.
         25    1    1    2    0    0 -0.37439639872E+02  0.51682440649E+01  0.35927895935E+03  0.38227582714E+03  0.12500000000E+03 0.  0.
         25    1    1    2    0    0  0.65761616368E+02 -0.51954375862E+02  0.30858993969E+03  0.34333161555E+03  0.12500000000E+03 0.  0.
         25    1    1    2    0    0 -0.28321976496E+02  0.46786131797E+02  0.17108343511E+03  0.21882782787E+03  0.12500000000E+03 0.  0.
</event>
<event>
 5    0  0.5612316E-005  0.4531820E+03  0.7546771E-02  0.1026777E+00
         21   -1    0    0  502  501  0.00000000000E+00  0.00000000000E+00  0.39364298917E+03  0.39364298917E+03  0.00000000000E+00 0. -1.
         21   -1    0    0  501  502 -0.00000000000E+00 -0.00000000000E+00 -0.52172638054E+03  0.52172638054E+03  0.00000000000E+00 0. -1.
         25    1    1    2    0    0 -0.14014459725E+03 -0.15794698554E+03  0.17360513309E+03  0.30058526347E+03  0.12500000000E+03 0.  0.
         25    1    1    2    0    0  0.27839306002E+02  0.58383717319E+02  0.96924665591E+02  0.17088907574E+03  0.12500000000E+03 0.  0.
         25    1    1    2    0    0  0.11230529125E+03  0.99563268222E+02 -0.39861319005E+03  0.44389503050E+03  0.12500000000E+03 0.  0.
</event>
<event>
 5    0  0.5612316E-005  0.3887193E+03  0.7546771E-02  0.1047757E+00
         21   -1    0    0  502  501  0.00000000000E+00  0.00000000000E+00  0.99101487691E+03  0.99101487691E+03  0.00000000000E+00 0. -1.
         21   -1    0    0  501  502 -0.00000000000E+00 -0.00000000000E+00 -0.15247267607E+03  0.15247267607E+03  0.00000000000E+00 0. -1.
         25    1    1    2    0    0  0.21015896779E+03 -0.13483586688E+03  0.19139161320E+03  0.33853102124E+03  0.12500000000E+03 0.  0.
         25    1    1    2    0    0 -0.73440176439E+02 -0.81921853050E+02  0.37713031100E+03  0.41225831828E+03  0.12500000000E+03 0.  0.
         25    1    1    2    0    0 -0.13671879135E+03  0.21675771993E+03  0.27002027664E+03  0.39269821346E+03  0.12500000000E+03 0.  0.
</event>
<event>
 5    0  0.6565849E-005  0.3353123E+03  0.7546771E-02  0.1068810E+00
         21   -1    0    0  502  501  0.00000000000E+00  0.00000000000E+00  0.22206283345E+03  0.22206283345E+03  0.00000000000E+00 0. -1.
         21   -1    0    0  501  502 -0.00000000000E+00 -0.00000000000E+00 -0.50631777279E+03  0.50631777279E+03  0.00000000000E+00 0.  1.
         25    1    1    2    0    0 -0.98497893995E+02  0.22240630843E+03 -0.17654190726E+03  0.32551258988E+03  0.12500000000E+03 0.  0.
         25    1    1    2    0    0 -0.69130355065E+01 -0.10592961394E+03 -0.11770587238E+03  0.20186268987E+03  0.12500000000E+03 0.  0.
         25    1    1    2    0    0  0.10541092950E+03 -0.11647669450E+03  0.99928402895E+01  0.20100532649E+03  0.12500000000E+03 0.  0.
</event>
<event>
 5    0  0.5612316E-005  0.3044984E+03  0.7546771E-02  0.1083013E+00
         21   -1    0    0  502  501  0.00000000000E+00  0.00000000000E+00  0.34423771561E+03  0.34423771561E+03  0.00000000000E+00 0. -1.
         21   -1    0    0  501  502 -0.00000000000E+00 -0.00000000000E+00 -0.26934659984E+03  0.26934659984E+03  0.00000000000E+00 0. -1.
         25    1    1    2    0    0 -0.47957628946E+02  0.60286568989E+01  0.54189424457E+02  0.14456061912E+03  0.12500000000E+03 0.  0.
         25    1    1    2    0    0  0.22314660004E+02  0.17947894684E+03 -0.63176180092E+02  0.22875066369E+03  0.12500000000E+03 0.  0.
         25    1    1    2    0    0  0.25642968942E+02 -0.18550760374E+03  0.83877871402E+02  0.24027303263E+03  0.12500000000E+03 0.  0.
</event>
<event>
 5    0  0.5612316E-005  0.3045098E+03  0.7546771E-02  0.1083008E+00
         21   -1    0    0  502  501  0.00000000000E+00  0.00000000000E+00  0.15226253019E+03  0.15226253019E+03  0.00000000000E+00 0.  1.
         21   -1    0    0  501  502 -0.00000000000E+00 -0.00000000000E+00 -0.60898899740E+03  0.60898899740E+03  0.00000000000E+00 0.  1.
         25    1    1    2    0    0  0.14154256597E+03 -0.13774660795E+03 -0.62670572652E+02  0.24199385666E+03  0.12500000000E+03 0.  0.
         25    1    1    2    0    0 -0.81188437410E+02  0.98302561941E+01 -0.17680305782E+03  0.23145737742E+03  0.12500000000E+03 0.  0.
         25    1    1    2    0    0 -0.60354128561E+02  0.12791635176E+03 -0.21725283673E+03  0.28780029352E+03  0.12500000000E+03 0.  0.
</event>
<event>
 5    0  0.5612316E-005  0.2325334E+03  0.7546771E-02  0.1124869E+00
         21   -1    0    0  502  501  0.00000000000E+00  0.00000000000E+00  0.67783216855E+03  0.67783216855E+03  0.00000000000E+00 0.  1.
         21   -1    0    0  501  502 -0.00000000000E+00 -0.00000000000E+00 -0.79771644405E+02  0.79771644405E+02  0.00000000000E+00 0.  1.
         25    1    1    2    0    0 -0.43848596614E+02 -0.11197913823E+01  0.16099732820E+03  0.20849242923E+03  0.12500000000E+03 0.  0.
         25    1    1    2    0    0  0.49096100224E+02 -0.38792621501E+02  0.38189004518E+03  0.40666976916E+03  0.12500000000E+03 0.  0.
         25    1    1    2    0    0 -0.52475036102E+01  0.39912412883E+02  0.55173150771E+02  0.14244161457E+03  0.12500000000E+03 0.  0.
</event>
<event>
 5    0  0.5612316E-005  0.2340519E+03  0.7546771E-02  0.1123820E+00
         21   -1    0    0  502  501  0.00000000000E+00  0.00000000000E+00  0.16232810653E+03  0.16232810653E+03  0.00000000000E+00 0.  1.
         21   -1    0    0  501  502 -0.00000000000E+00 -0.00000000000E+00 -0.33746655319E+03  0.33746655319E+03  0.00000000000E+00 0.  1.
         25    1    1    2    0    0  0.16235224386E+02  0.60763603430E+02  0.20029151114E+01  0.13994573835E+03  0.12500000000E+03 0.  0.
         25    1    1    2    0    0 -0.21729272239E+02 -0.10345966418E+03 -0.15567803818E+03  0.22591306947E+03  0.12500000000E+03 0.  0.
         25    1    1    2    0    0  0.54940478530E+01  0.42696060750E+02 -0.21463323591E+02  0.13393585190E+03  0.12500000000E+03 0.  0.
</event>
<event>
 5    0  0.5612316E-005  0.3879333E+03  0.7546771E-02  0.1048040E+00
         21   -1    0    0  502  501  0.00000000000E+00  0.00000000000E+00  0.15915176861E+03  0.15915176861E+03  0.00000000000E+00 0.  1.
         21   -1    0    0  501  502 -0.00000000000E+00 -0.00000000000E+00 -0.94558958801E+03  0.94558958801E+03  0.00000000000E+00 0.  1.
         25    1    1    2    0    0  0.12751521934E+03  0.53201611267E+02 -0.78198517393E+03  0.80387583298E+03  0.12500000000E+03 0.  0.
         25    1    1    2    0    0 -0.35158593446E+02 -0.40424754638E+02 -0.38309631190E+02  0.14129018127E+03  0.12500000000E+03 0.  0.
         25    1    1    2    0    0 -0.92356625897E+02 -0.12776856629E+02  0.33856985712E+02  0.15957534237E+03  0.12500000000E+03 0.  0.
</event>
<event>
 5    0  0.5612316E-005  0.3278916E+03  0.7546771E-02  0.1072074E+00
         21   -1    0    0  502  501  0.00000000000E+00  0.00000000000E+00  0.13879253875E+03  0.13879253875E+03  0.00000000000E+00 0. -1.
         21   -1    0    0  501  502 -0.00000000000E+00 -0.00000000000E+00 -0.77463038576E+03  0.77463038576E+03  0.00000000000E+00 0. -1.
         25    1    1    2    0    0 -0.10381001278E+03 -0.16264887617E+02 -0.15969820671E+03  0.22840661669E+03  0.12500000000E+03 0.  0.
         25    1    1    2    0    0  0.82185395767E+02 -0.81279517562E+02 -0.49539922027E+03  0.52383793934E+03  0.12500000000E+03 0.  0.
         25    1    1    2    0    0  0.21624617014E+02  0.97544405179E+02  0.19259579979E+02  0.16117836847E+03  0.12500000000E+03 0.  0.
</event>
<event>
 5    0  0.5612316E-005  0.6632278E+03  0.7546771E-02  0.9782270E-01
         21   -1    0    0  502  501  0.00000000000E+00  0.00000000000E+00  0.62851491088E+03  0.62851491088E+03  0.00000000000E+00 0. -1.
         21   -1    0    0  501  502 -0.00000000000E+00 -0.00000000000E+00 -0.69985782477E+03  0.69985782477E+03  0.00000000000E+00 0. -1.
         25    1    1    2    0    0 -0.33708424965E+03  0.22040095214E+03 -0.17942761483E+03  0.45828118010E+03  0.12500000000E+03 0.  0.
         25    1    1    2    0    0  0.41873215806E+02 -0.66494676467E+02 -0.29662580751E+03  0.33134087867E+03  0.12500000000E+03 0.  0.
         25    1    1    2    0    0  0.29521103384E+03 -0.15390627567E+03  0.40471050845E+03  0.53875067689E+03  0.12500000000E+03 0.  0.
</event>
<event>
 5    0  0.5612316E-005  0.3131017E+03  0.7546771E-02  0.1078869E+00
         21   -1    0    0  502  501  0.00000000000E+00  0.00000000000E+00  0.69646392120E+03  0.69646392120E+03  0.00000000000E+00 0.  1.
         21   -1    0    0  501  502 -0.00000000000E+00 -0.00000000000E+00 -0.14075771278E+03  0.14075771278E+03  0.00000000000E+00 0.  1.
         25    1    1    2    0    0 -0.50332344585E+02  0.68286454702E+02  0.62092380274E+02  0.16333048857E+03  0.12500000000E+03 0.  0.
         25    1    1    2    0    0 -0.68967717259E+02 -0.85130600177E+02  0.17531402579E+02  0.16714100391E+03  0.12500000000E+03 0.  0.
         25    1    1    2    0    0  0.11930006184E+03  0.16844145475E+02  0.47608242557E+03  0.50675014151E+03  0.12500000000E+03 0.  0.
</event>
<event>
 5    0  0.5612316E-005  0.2990230E+03  0.7546771E-02  0.1085730E+00
         21   -1    0    0  502  501  0.00000000000E+00  0.00000000000E+00  0.56059706825E+02  0.56059706825E+02  0.00000000000E+00 0. -1.
         21   -1    0    0  501  502 -0.00000000000E+00 -0.00000000000E+00 -0.15949916488E+04  0.15949916488E+04  0.00000000000E+00 0. -1.
         25    1    1    2    0    0  0.12688760074E+03  0.79203964858E+02 -0.42085537387E+03  0.46380812518E+03  0.12500000000E+03 0.  0.
         25    1    1    2    0    0 -0.63203043869E+02  0.41460008992E+01 -0.14907401994E+03  0.20459686581E+03  0.12500000000E+03 0.  0.
         25    1    1    2    0    0 -0.63684556872E+02 -0.83349965757E+02 -0.96900254813E+03  0.98264636460E+03  0.12500000000E+03 0.  0.
</event>
<event>
 5    0  0.5612316E-005  0.3625046E+03  0.7546771E-02  0.1057597E+00
         21   -1    0    0  502  501  0.00000000000E+00  0.00000000000E+00  0.91271099037E+02  0.91271099037E+02  0.00000000000E+00 0. -1.
         21   -1    0    0  501  502 -0.00000000000E+00 -0.00000000000E+00 -0.14397718504E+04  0.14397718504E+04  0.00000000000E+00 0. -1.
         25    1    1    2    0    0 -0.24353205374E+03 -0.84937804768E+02 -0.33720058418E+03  0.44255115619E+03  0.12500000000E+03 0.  0.
         25    1    1    2    0    0  0.19613136631E+03  0.11747812395E+03 -0.73520609357E+03  0.78001386044E+03  0.12500000000E+03 0.  0.
         25    1    1    2    0    0  0.47400687429E+02 -0.32540319183E+02 -0.27609407359E+03  0.30847793278E+03  0.12500000000E+03 0.  0.
</event>
<event>
 5    0  0.5612316E-005  0.3050779E+03  0.7546771E-02  0.1082729E+00
         21   -1    0    0  502  501  0.00000000000E+00  0.00000000000E+00  0.18190495448E+04  0.18190495448E+04  0.00000000000E+00 0.  1.
         21   -1    0    0  501  502 -0.00000000000E+00 -0.00000000000E+00 -0.51165460300E+02  0.51165460300E+02  0.00000000000E+00 0.  1.
         25    1    1    2    0    0 -0.18324905947E+02 -0.86146424356E+02  0.11310560009E+03  0.19019696469E+03  0.12500000000E+03 0.  0.
         25    1    1    2    0    0  0.55282394124E+02  0.59634254343E+01  0.74477402061E+03  0.75723513344E+03  0.12500000000E+03 0.  0.
         25    1    1    2    0    0 -0.36957488177E+02  0.80182998922E+02  0.91000446379E+03  0.92278290695E+03  0.12500000000E+03 0.  0.
</event>
<event>
 5    0  0.5612316E-005  0.3794916E+03  0.7546771E-02  0.1051122E+00
         21   -1    0    0  502  501  0.00000000000E+00  0.00000000000E+00  0.43720068836E+03  0.43720068836E+03  0.00000000000E+00 0. -1.
         21   -1    0    0  501  502 -0.00000000000E+00 -0.00000000000E+00 -0.32939987555E+03  0.32939987555E+03  0.00000000000E+00 0. -1.
         25    1    1    2    0    0 -0.18182662777E+03  0.21193195383E+02 -0.60614960989E+02  0.22980262747E+03  0.12500000000E+03 0.  0.
         25    1    1    2    0    0 -0.80049098383E+02  0.62221700004E+02  0.17103521383E+03  0.23485621659E+03  0.12500000000E+03 0.  0.
         25    1    1    2    0    0  0.26187572615E+03 -0.83414895386E+02 -0.26194400315E+01  0.30194171985E+03  0.12500000000E+03 0.  0.
</event>
<event>
 5    0  0.5612316E-005  0.4092387E+03  0.7546771E-02  0.1040627E+00
         21   -1    0    0  502  501  0.00000000000E+00  0.00000000000E+00  0.17240968369E+03  0.17240968369E+03  0.00000000000E+00 0. -1.
         21   -1    0    0  501  502 -0.00000000000E+00 -0.00000000000E+00 -0.97138597786E+03  0.97138597786E+03  0.00000000000E+00 0. -1.
         25    1    1    2    0    0  0.56139750205E+02  0.10276308332E+03  0.32293564759E+02  0.17429801253E+03  0.12500000000E+03 0.  0.
         25    1    1    2    0    0  0.12083225139E+03  0.99743726941E+01 -0.10520376326E+03  0.20345208991E+03  0.12500000000E+03 0.  0.
         25    1    1    2    0    0 -0.17697200159E+03 -0.11273745602E+03 -0.72606609568E+03  0.76604555911E+03  0.12500000000E+03 0.  0.
</event>
<event>
 5    0  0.5751395E-005  0.4223217E+03  0.7546771E-02  0.1036313E+00
         21   -1    0    0  502  501  0.00000000000E+00  0.00000000000E+00  0.14164581240E+03  0.14164581240E+03  0.00000000000E+00 0. -1.
         21   -1    0    0  501  502 -0.00000000000E+00 -0.00000000000E+00 -0.12591662189E+04  0.12591662189E+04  0.00000000000E+00 0. -1.
         25    1    1    2    0    0 -0.81881975844E+02 -0.21913425544E+03 -0.25216556668E+03  0.36597397844E+03  0.12500000000E+03 0.  0.
         25    1    1    2    0    0 -0.15822280889E+02  0.56904159262E+01 -0.72156590896E+03  0.73250603163E+03  0.12500000000E+03 0.  0.
         25    1    1    2    0    0  0.97704256733E+02  0.21344383952E+03 -0.14378893082E+03  0.30233202119E+03  0.12500000000E+03 0.  0.
</event>
<event>
 5    0  0.5612316E-005  0.2730125E+03  0.7546771E-02  0.1099568E+00
         21   -1    0    0  502  501  0.00000000000E+00  0.00000000000E+00  0.15461023937E+03  0.15461023937E+03  0.00000000000E+00 0. -1.
         21   -1    0    0  501  502 -0.00000000000E+00 -0.00000000000E+00 -0.48208852794E+03  0.48208852794E+03  0.00000000000E+00 0. -1.
         25    1    1    2    0    0  0.42752582603E+02  0.16208094306E+03 -0.51058486749E+02  0.21524401151E+03  0.12500000000E+03 0.  0.
         25    1    1    2    0    0 -0.23488942558E+02 -0.81018406834E+02 -0.20664325549E+03  0.25581662907E+03  0.12500000000E+03 0.  0.
         25    1    1    2    0    0 -0.19263640045E+02 -0.81062536228E+02 -0.69776546326E+02  0.16563812672E+03  0.12500000000E+03 0.  0.
</event>
<event>
 5    0  0.5612316E-005  0.3815244E+03  0.7546771E-02  0.1050372E+00
         21   -1    0    0  502  501  0.00000000000E+00  0.00000000000E+00  0.12717926750E+04  0.12717926750E+04  0.00000000000E+00 0.  1.
         21   -1    0    0  501  502 -0.00000000000E+00 -0.00000000000E+00 -0.11445328012E+03  0.11445328012E+03  0.00000000000E+00 0.  1.
         25    1    1    2    0    0  0.11972559406E+03  0.47561239165E+02  0.15085717968E+03  0.23447639115E+03  0.12500000000E+03 0.  0.
         25    1    1    2    0    0  0.33801818145E+02 -0.22299204892E+03  0.70507302037E+03  0.75074694860E+03  0.12500000000E+03 0.  0.
         25    1    1    2    0    0 -0.15352741221E+03  0.17543080976E+03  0.30140919485E+03  0.40102261539E+03  0.12500000000E+03 0.  0.
</event>
<event>
 5    0  0.5612316E-005  0.4790868E+03  0.7546771E-02  0.1019386E+00
         21   -1    0    0  502  501  0.00000000000E+00  0.00000000000E+00  0.15047730604E+03  0.15047730604E+03  0.00000000000E+00 0.  1.
         21   -1    0    0  501  502 -0.00000000000E+00 -0.00000000000E+00 -0.15253074750E+04  0.15253074750E+04  0.00000000000E+00 0.  1.
         25    1    1    2    0    0  0.45138089575E+02 -0.36353047688E+02 -0.45322159815E+02  0.14504512876E+03  0.12500000000E+03 0.  0.
         25    1    1    2    0    0  0.32453888299E+03  0.83753497988E+02 -0.74366998611E+03  0.82523341137E+03  0.12500000000E+03 0.  0.
         25    1    1    2    0    0 -0.36967697256E+03 -0.47400450300E+02 -0.58583802306E+03  0.70550624093E+03  0.12500000000E+03 0.  0.
</event>
<event>
 5    0  0.5612316E-005  0.4927396E+03  0.7546771E-02  0.1015692E+00
         21   -1    0    0  502  501  0.00000000000E+00  0.00000000000E+00  0.47854018788E+03  0.47854018788E+03  0.00000000000E+00 0. -1.
         21   -1    0    0  501  502 -0.00000000000E+00 -0.00000000000E+00 -0.50736025386E+03  0.50736025386E+03  0.00000000000E+00 0. -1.
         25    1    1    2    0    0 -0.35542495835E+03 -0.43124253867E+02  0.81624761035E+02  0.38791004615E+03  0.12500000000E+03 0.  0.
         25    1    1    2    0    0  0.14196291961E+03 -0.16695821930E+03  0.82381257738E+01  0.25243094948E+03  0.12500000000E+03 0.  0.
         25    1    1    2    0    0  0.21346203874E+03  0.21008247317E+03 -0.11868295279E+03  0.34555944611E+03  0.12500000000E+03 0.  0.
</event>
<event>
 5    0  0.9728670E-005  0.2999449E+03  0.7546771E-02  0.1085268E+00
         21   -1    0    0  502  501  0.00000000000E+00  0.00000000000E+00  0.13480351894E+03  0.13480351894E+03  0.00000000000E+00 0. -1.
         21   -1    0    0  501  502 -0.00000000000E+00 -0.00000000000E+00 -0.66739328107E+03  0.66739328107E+03  0.00000000000E+00 0. -1.
         25    1    1    2    0    0 -0.15675461396E+02  0.96350336039E+02 -0.74865811465E+02  0.17538243091E+03  0.12500000000E+03 0.  0.
         25    1    1    2    0    0  0.60379408182E+01  0.10444766060E+03 -0.30284493908E+03  0.34392706736E+03  0.12500000000E+03 0.  0.
         25    1    1    2    0    0  0.96375205776E+01 -0.20079799664E+03 -0.15487901159E+03  0.28288730175E+03  0.12500000000E+03 0.  0.
</event>
<event>
 5    0  0.5612316E-005  0.4394075E+03  0.7546771E-02  0.1030929E+00
         21   -1    0    0  502  501  0.00000000000E+00  0.00000000000E+00  0.66750763973E+03  0.66750763973E+03  0.00000000000E+00 0. -1.
         21   -1    0    0  501  502 -0.00000000000E+00 -0.00000000000E+00 -0.28925348847E+03  0.28925348847E+03  0.00000000000E+00 0. -1.
         25    1    1    2    0    0  0.75057294890E+02  0.53409924953E+01 -0.23884298483E+03  0.27988050150E+03  0.12500000000E+03 0.  0.
         25    1    1    2    0    0 -0.54197402655E+02  0.32775983445E+02  0.24907794822E+03  0.28579091630E+03  0.12500000000E+03 0.  0.
         25    1    1    2    0    0 -0.20859892235E+02 -0.38116975940E+02  0.36801918786E+03  0.39108971041E+03  0.12500000000E+03 0.  0.
</event>
<event>
 5    0  0.5612316E-005  0.4021943E+03  0.7546771E-02  0.1043022E+00
         21   -1    0    0  502  501  0.00000000000E+00  0.00000000000E+00  0.68490755063E+03  0.68490755063E+03  0.00000000000E+00 0. -1.
         21   -1    0    0  501  502 -0.00000000000E+00 -0.00000000000E+00 -0.23617826108E+03  0.23617826108E+03  0.00000000000E+00 0. -1.
         25    1    1    2    0    0 -0.11645825048E+03  0.54870943260E+02  0.26329779840E+03  0.31862842805E+03  0.12500000000E+03 0.  0.
         25    1    1    2    0    0  0.30987037718E+03  0.47106835027E+01  0.12723966651E+03  0.35757065585E+03  0.12500000000E+03 0.  0.
         25    1    1    2    0    0 -0.19341212670E+03 -0.59581626763E+02  0.58191824636E+02  0.24488672781E+03  0.12500000000E+03 0.  0.
</event>
<event>
 5    0  0.5612316E-005  0.5217704E+03  0.7546771E-02  0.1008248E+00
         21   -1    0    0  502  501  0.00000000000E+00  0.00000000000E+00  0.25984191697E+04  0.25984191697E+04  0.00000000000E+00 0.  1.
         21   -1    0    0  501  502 -0.00000000000E+00 -0.00000000000E+00 -0.10477305949E+03  0.10477305949E+03  0.00000000000E+00 0.  1.
         25    1    1    2    0    0  0.13065939351E+03 -0.24023252566E+03  0.46660013725E+03  0.55508939062E+03  0.12500000000E+03 0.  0.
         25    1    1    2    0    0 -0.62737618641E+02  0.43783820369E+03  0.14695698869E+04  0.15397723708E+04  0.12500000000E+03 0.  0.
         25    1    1    2    0    0 -0.67921774872E+02 -0.19760567803E+03  0.55747608598E+03  0.60833046770E+03  0.12500000000E+03 0.  0.
</event>
<event>
 5    0  0.5612316E-005  0.3144501E+03  0.7546771E-02  0.1078232E+00
         21   -1    0    0  502  501  0.00000000000E+00  0.00000000000E+00  0.83638925329E+03  0.83638925329E+03  0.00000000000E+00 0. -1.
         21   -1    0    0  501  502 -0.00000000000E+00 -0.00000000000E+00 -0.11822113720E+03  0.11822113720E+03  0.00000000000E+00 0. -1.
         25    1    1    2    0    0  0.12253871769E+02  0.25342827097E+02  0.36281794560E+02  0.13316825776E+03  0.12500000000E+03 0.  0.
         25    1    1    2    0    0  0.18100779989E+03 -0.46615096015E+02  0.29762778233E+03  0.37302022413E+03  0.12500000000E+03 0.  0.
         25    1    1    2    0    0 -0.19326167166E+03  0.21272268919E+02  0.38425853921E+03  0.44842190860E+03  0.12500000000E+03 0.  0.
</event>
<event>
 5    0  0.5612316E-005  0.3370322E+03  0.7546771E-02  0.1068067E+00
         21   -1    0    0  502  501  0.00000000000E+00  0.00000000000E+00  0.30871850033E+03  0.30871850033E+03  0.00000000000E+00 0. -1.
         21   -1    0    0  501  502 -0.00000000000E+00 -0.00000000000E+00 -0.36794263847E+03  0.36794263847E+03  0.00000000000E+00 0. -1.
         25    1    1    2    0    0 -0.22202388739E+02 -0.19265781963E+03  0.54918365869E+02  0.23717295048E+03  0.12500000000E+03 0.  0.
         25    1    1    2    0    0  0.12210512130E+03  0.17086667214E+03 -0.47723238959E+01  0.24444397184E+03  0.12500000000E+03 0.  0.
         25    1    1    2    0    0 -0.99902732563E+02  0.21791147495E+02 -0.10937018011E+03  0.19504421647E+03  0.12500000000E+03 0.  0.
</event>
<event>
 5    0  0.5612316E-005  0.2726223E+03  0.7546771E-02  0.1099788E+00
         21   -1    0    0  502  501  0.00000000000E+00  0.00000000000E+00  0.25262118024E+03  0.25262118024E+03  0.00000000000E+00 0. -1.
         21   -1    0    0  501  502 -0.00000000000E+00 -0.00000000000E+00 -0.29420707011E+03  0.29420707011E+03  0.00000000000E+00 0. -1.
         25    1    1    2    0    0  0.10892152824E+03 -0.44770057858E+02 -0.67158771307E+02  0.18440053676E+03  0.12500000000E+03 0.  0.
         25    1    1    2    0    0 -0.20595096819E+01  0.10140777523E+03  0.80564527487E+02  0.18000950404E+03  0.12500000000E+03 0.  0.
         25    1    1    2    0    0 -0.10686201855E+03 -0.56637717369E+02 -0.54991646055E+02  0.18241820955E+03  0.12500000000E+03 0.  0.
</event>
<event>
 5    0  0.5720247E-005  0.2923171E+03  0.7546771E-02  0.1089146E+00
         21   -1    0    0  502  501  0.00000000000E+00  0.00000000000E+00  0.65331116280E+03  0.65331116280E+03  0.00000000000E+00 0.  1.
         21   -1    0    0  501  502 -0.00000000000E+00 -0.00000000000E+00 -0.13079417033E+03  0.13079417033E+03  0.00000000000E+00 0.  1.
         25    1    1    2    0    0  0.50162957061E+02 -0.80587242726E+01  0.25383696556E+03  0.28747081658E+03  0.12500000000E+03 0.  0.
         25    1    1    2    0    0  0.13826381910E+03  0.64328518300E+00  0.83367303121E+02  0.20418718059E+03  0.12500000000E+03 0.  0.
         25    1    1    2    0    0 -0.18842677617E+03  0.74154390896E+01  0.18531272378E+03  0.29244733596E+03  0.12500000000E+03 0.  0.
</event>
<event>
 5    0  0.5612316E-005  0.3443610E+03  0.7546771E-02  0.1064954E+00
         21   -1    0    0  502  501  0.00000000000E+00  0.00000000000E+00  0.36537261368E+03  0.36537261368E+03  0.00000000000E+00 0.  1.
         21   -1    0    0  501  502 -0.00000000000E+00 -0.00000000000E+00 -0.32455778089E+03  0.32455778089E+03  0.00000000000E+00 0.  1.
         25    1    1    2    0    0  0.19663408157E+03 -0.61405872435E+02 -0.97977343752E+01  0.24115687592E+03  0.12500000000E+03 0.  0.
         25    1    1    2    0    0 -0.57669146147E+02 -0.82234027916E+02  0.12309423076E+03  0.20215181278E+03  0.12500000000E+03 0.  0.
         25    1    1    2    0    0 -0.13896493542E+03  0.14363990035E+03 -0.72481663592E+02  0.24662170587E+03  0.12500000000E+03 0.  0.
</event>
<event>
 5    0  0.5612316E-005  0.3536762E+03  0.7546771E-02  0.1061116E+00
         21   -1    0    0  502  501  0.00000000000E+00  0.00000000000E+00  0.10258340318E+03  0.10258340318E+03  0.00000000000E+00 0. -1.
         21   -1    0    0  501  502 -0.00000000000E+00 -0.00000000000E+00 -0.12193670925E+04  0.12193670925E+04  0.00000000000E+00 0. -1.
         25    1    1    2    0    0  0.28591734070E+02  0.12688179235E+03 -0.41533486923E+03  0.45281842949E+03  0.12500000000E+03 0.  0.
         25    1    1    2    0    0  0.18315469522E+03 -0.57660579128E+02 -0.19082570666E+03  0.29817752278E+03  0.12500000000E+03 0.  0.
         25    1    1    2    0    0 -0.21174642929E+03 -0.69221213226E+02 -0.51062311343E+03  0.57095454341E+03  0.12500000000E+03 0.  0.
</event>
<event>
 5    0  0.5612316E-005  0.3467857E+03  0.7546771E-02  0.1063942E+00
         21   -1    0    0  502  501  0.00000000000E+00  0.00000000000E+00  0.38515899334E+03  0.38515899334E+03  0.00000000000E+00 0. -1.
         21   -1    0    0  501  502 -0.00000000000E+00 -0.00000000000E+00 -0.31223560804E+03  0.31223560804E+03  0.00000000000E+00 0. -1.
         25    1    1    2    0    0 -0.68222459317E+02  0.10400000036E+03  0.20106623060E+03  0.26743771820E+03  0.12500000000E+03 0.  0.
         25    1    1    2    0    0  0.12705123071E+03  0.21503374060E+01  0.45517265740E+02  0.18396592254E+03  0.12500000000E+03 0.  0.
         25    1    1    2    0    0 -0.58828771392E+02 -0.10615033777E+03 -0.17366011103E+03  0.24599096064E+03  0.12500000000E+03 0.  0.
</event>
<event>
 5    0  0.5612316E-005  0.3913209E+03  0.7546771E-02  0.1046827E+00
         21   -1    0    0  502  501  0.00000000000E+00  0.00000000000E+00  0.57529847309E+03  0.57529847309E+03  0.00000000000E+00 0. -1.
         21   -1    0    0  501  502 -0.00000000000E+00 -0.00000000000E+00 -0.26617847744E+03  0.26617847744E+03  0.00000000000E+00 0. -1.
         25    1    1    2    0    0 -0.20771102405E+03  0.21563695526E+03  0.79743719092E+01  0.32454854274E+03  0.12500000000E+03 0.  0.
         25    1    1    2    0    0  0.17826492374E+02 -0.60841320131E+02  0.14030654798E+03  0.19831887826E+03  0.12500000000E+03 0.  0.
         25    1    1    2    0    0  0.18988453168E+03 -0.15479563513E+03  0.16083907575E+03  0.31860952954E+03  0.12500000000E+03 0.  0.
</event>
<event>
 5    0  0.5824215E-005  0.3391094E+03  0.7546771E-02  0.1067176E+00
         21   -1    0    0  502  501  0.00000000000E+00  0.00000000000E+00  0.56887642529E+03  0.56887642529E+03  0.00000000000E+00 0. -1.
         21   -1    0    0  501  502 -0.00000000000E+00 -0.00000000000E+00 -0.20214439183E+03  0.20214439183E+03  0.00000000000E+00 0. -1.
         25    1    1    2    0    0 -0.63969217108E+02  0.54514423793E+01  0.17804846725E+03  0.22682159432E+03  0.12500000000E+03 0.  0.
         25    1    1    2    0    0  0.24851876483E+03 -0.98912329487E+01  0.15535867700E+03  0.31878006757E+03  0.12500000000E+03 0.  0.
         25    1    1    2    0    0 -0.18454954772E+03  0.44397905694E+01  0.33324889206E+02  0.22541915523E+03  0.12500000000E+03 0.  0.
</event>
<event>
 5    0  0.5612316E-005  0.2459624E+03  0.7546771E-02  0.1115883E+00
         21   -1    0    0  502  501  0.00000000000E+00  0.00000000000E+00  0.94618390543E+02  0.94618390543E+02  0.00000000000E+00 0. -1.
         21   -1    0    0  501  502 -0.00000000000E+00 -0.00000000000E+00 -0.63938408953E+03  0.63938408953E+03  0.00000000000E+00 0. -1.
         25    1    1    2    0    0 -0.27121253027E+02 -0.57579552577E+01 -0.14808391755E+03  0.19576149532E+03  0.12500000000E+03 0.  0.
         25    1    1    2    0    0  0.76391794798E+02  0.37630756313E+02 -0.41022486217E+02  0.15671510619E+03  0.12500000000E+03 0.  0.
         25    1    1    2    0    0 -0.49270541770E+02 -0.31872801056E+02 -0.35565929522E+03  0.38152587856E+03  0.12500000000E+03 0.  0.
</event>
<event>
 5    0  0.5612316E-005  0.4707546E+03  0.7546771E-02  0.1021707E+00
         21   -1    0    0  502  501  0.00000000000E+00  0.00000000000E+00  0.11603923178E+04  0.11603923178E+04  0.00000000000E+00 0. -1.
         21   -1    0    0  501  502 -0.00000000000E+00 -0.00000000000E+00 -0.19097841814E+03  0.19097841814E+03  0.00000000000E+00 0. -1.
         25    1    1    2    0    0 -0.23059653395E+03 -0.15624970713E+03  0.69339555889E+03  0.75763522459E+03  0.12500000000E+03 0.  0.
         25    1    1    2    0    0  0.28971669934E+03  0.11459466021E+03  0.71266285517E+02  0.34317864950E+03  0.12500000000E+03 0.  0.
         25    1    1    2    0    0 -0.59120165387E+02  0.41655046919E+02  0.20475205521E+03  0.25055686182E+03  0.12500000000E+03 0.  0.
</event>
<event>
 5    0  0.5612316E-005  0.3237385E+03  0.7546771E-02  0.1073941E+00
         21   -1    0    0  502  501  0.00000000000E+00  0.00000000000E+00  0.97943962127E+03  0.97943962127E+03  0.00000000000E+00 0. -1.
         21   -1    0    0  501  502 -0.00000000000E+00 -0.00000000000E+00 -0.10700674523E+03  0.10700674523E+03  0.00000000000E+00 0. -1.
         25    1    1    2    0    0  0.13341910506E+03  0.28414183454E+02  0.33689786545E+03  0.38436076173E+03  0.12500000000E+03 0.  0.
         25    1    1    2    0    0 -0.23959286761E+03 -0.21728224275E+02  0.23120079055E+03  0.35630838257E+03  0.12500000000E+03 0.  0.
         25    1    1    2    0    0  0.10617376255E+03 -0.66859591786E+01  0.30433422004E+03  0.34577722220E+03  0.12500000000E+03 0.  0.
</event>
<event>
 5    0  0.5612316E-005  0.2743456E+03  0.7546771E-02  0.1098818E+00
         21   -1    0    0  502  501  0.00000000000E+00  0.00000000000E+00  0.83971803943E+03  0.83971803943E+03  0.00000000000E+00 0. -1.
         21   -1    0    0  501  502 -0.00000000000E+00 -0.00000000000E+00 -0.89631855554E+02  0.89631855554E+02  0.00000000000E+00 0. -1.
         25    1    1    2    0    0  0.75866010038E+01 -0.91909049790E+02  0.24210731093E+03  0.28765566213E+03  0.12500000000E+03 0.  0.
         25    1    1    2    0    0  0.82800204829E+02  0.15476596552E+03  0.21332733061E+03  0.30321927377E+03  0.12500000000E+03 0.  0.
         25    1    1    2    0    0 -0.90386805833E+02 -0.62856915731E+02  0.29465154234E+03  0.33847495908E+03  0.12500000000E+03 0.  0.
</event>
<event>
 5    0  0.5612316E-005  0.3380125E+03  0.7546771E-02  0.1067646E+00
         21   -1    0    0  502  501  0.00000000000E+00  0.00000000000E+00  0.61596398881E+03  0.61596398881E+03  0.00000000000E+00 0. -1.
         21   -1    0    0  501  502 -0.00000000000E+00 -0.00000000000E+00 -0.18548563895E+03  0.18548563895E+03  0.00000000000E+00 0. -1.
         25    1    1    2    0    0 -0.15075415846E+03  0.39527625878E+02 -0.56645909725E+02  0.20766080176E+03  0.12500000000E+03 0.  0.
         25    1    1    2    0    0  0.32377521468E+02  0.54913905207E+02  0.16568132663E+03  0.21711550584E+03  0.12500000000E+03 0.  0.
         25    1    1    2    0    0  0.11837663699E+03 -0.94441531085E+02  0.32144293295E+03  0.37667332016E+03  0.12500000000E+03 0.  0.
</event>
<event>
 5    0  0.5612316E-005  0.4353096E+03  0.7546771E-02  0.1032196E+00
         21   -1    0    0  502  501  0.00000000000E+00  0.00000000000E+00  0.23156577063E+03  0.23156577063E+03  0.00000000000E+00 0. -1.
         21   -1    0    0  501  502 -0.00000000000E+00 -0.00000000000E+00 -0.81831817067E+03  0.81831817067E+03  0.00000000000E+00 0. -1.
         25    1    1    2    0    0  0.73841473365E+02  0.27734394689E+03 -0.21824287385E+03  0.38161129445E+03  0.12500000000E+03 0.  0.
         25    1    1    2    0    0  0.77246911373E+02  0.23476287887E+02  0.66514446913E+01  0.14895456732E+03  0.12500000000E+03 0.  0.
         25    1    1    2    0    0 -0.15108838474E+03 -0.30082023477E+03 -0.37516097089E+03  0.51931807953E+03  0.12500000000E+03 0.  0.
</event>
<event>
 5    0  0.5612316E-005  0.3605510E+03  0.7546771E-02  0.1058366E+00
         21   -1    0    0  502  501  0.00000000000E+00  0.00000000000E+00  0.24860300480E+03  0.24860300480E+03  0.00000000000E+00 0.  1.
         21   -1    0    0  501  502 -0.00000000000E+00 -0.00000000000E+00 -0.52291012661E+03  0.52291012661E+03  0.00000000000E+00 0.  1.
         25    1    1    2    0    0 -0.84281179527E+02  0.10425470148E+03 -0.92727767928E+02  0.20541616039E+03  0.12500000000E+03 0.  0.
         25    1    1    2    0    0 -0.13514234944E+03 -0.18513234664E+03 -0.14435827028E+03  0.29833161177E+03  0.12500000000E+03 0.  0.
         25    1    1    2    0    0  0.21942352897E+03  0.80877645161E+02 -0.37221083600E+02  0.26776535925E+03  0.12500000000E+03 0.  0.
</event>
<event>
 5    0  0.5612316E-005  0.3141779E+03  0.7546771E-02  0.1078360E+00
         21   -1    0    0  502  501  0.00000000000E+00  0.00000000000E+00  0.71945357147E+02  0.71945357147E+02  0.00000000000E+00 0. -1.
         21   -1    0    0  501  502 -0.00000000000E+00 -0.00000000000E+00 -0.13719825811E+04  0.13719825811E+04  0.00000000000E+00 0. -1.
         25    1    1    2    0    0  0.93354505593E-01  0.23501640529E+03 -0.50256036392E+03  0.56870435100E+03  0.12500000000E+03 0.  0.
         25    1    1    2    0    0  0.14648921133E+02 -0.49154761632E+02 -0.26810604646E+03  0.30022763635E+03  0.12500000000E+03 0.  0.
         25    1    1    2    0    0 -0.14742275638E+02 -0.18586164366E+03 -0.52937081356E+03  0.57499595088E+03  0.12500000000E+03 0.  0.
</event>
<event>
 5    0  0.5612316E-005  0.2747175E+03  0.7546771E-02  0.1098610E+00
         21   -1    0    0  502  501  0.00000000000E+00  0.00000000000E+00  0.52063601608E+02  0.52063601608E+02  0.00000000000E+00 0.  1.
         21   -1    0    0  501  502 -0.00000000000E+00 -0.00000000000E+00 -0.14495671809E+04  0.14495671809E+04  0.00000000000E+00 0.  1.
         25    1    1    2    0    0  0.38332930741E+01  0.83689707485E+02 -0.92448296636E+03  0.93664956967E+03  0.12500000000E+03 0.  0.
         25    1    1    2    0    0 -0.52385561683E+02 -0.42535050716E+02 -0.12301143389E+03  0.18791032563E+03  0.12500000000E+03 0.  0.
         25    1    1    2    0    0  0.48552268609E+02 -0.41154656769E+02 -0.35000917902E+03  0.37707088718E+03  0.12500000000E+03 0.  0.
</event>
<event>
 5    0  0.5612316E-005  0.3498897E+03  0.7546771E-02  0.1062660E+00
         21   -1    0    0  502  501  0.00000000000E+00  0.00000000000E+00  0.55632654483E+03  0.55632654483E+03  0.00000000000E+00 0.  1.
         21   -1    0    0  501  502 -0.00000000000E+00 -0.00000000000E+00 -0.22005563031E+03  0.22005563031E+03  0.00000000000E+00 0.  1.
         25    1    1    2    0    0  0.11735712325E+03  0.16509484348E+02  0.36739991362E+03  0.40577451124E+03  0.12500000000E+03 0.  0.
         25    1    1    2    0    0 -0.19041278698E+02  0.10833156566E+03 -0.24711852607E+02  0.16832698557E+03  0.12500000000E+03 0.  0.
         25    1    1    2    0    0 -0.98315844552E+02 -0.12484105000E+03 -0.64171464909E+01  0.20228067833E+03  0.12500000000E+03 0.  0.
</event>
<event>
 5    0  0.5612316E-005  0.2191780E+03  0.7546771E-02  0.1134497E+00
         21   -1    0    0  502  501  0.00000000000E+00  0.00000000000E+00  0.60319449248E+03  0.60319449248E+03  0.00000000000E+00 0. -1.
         21   -1    0    0  501  502 -0.00000000000E+00 -0.00000000000E+00 -0.79640991345E+02  0.79640991345E+02  0.00000000000E+00 0. -1.
         25    1    1    2    0    0 -0.22554800216E+02  0.23776250755E+02  0.21602015041E+03  0.25172154158E+03  0.12500000000E+03 0.  0.
         25    1    1    2    0    0  0.85112176561E+02  0.23401583271E+02  0.13455314221E+03  0.20376767353E+03  0.12500000000E+03 0.  0.
         25    1    1    2    0    0 -0.62557376346E+02 -0.47177834026E+02  0.17298020852E+03  0.22734626871E+03  0.12500000000E+03 0.  0.
</event>
<event>
 5    0  0.5612316E-005  0.4280621E+03  0.7546771E-02  0.1034474E+00
         21   -1    0    0  502  501  0.00000000000E+00  0.00000000000E+00  0.16835213635E+03  0.16835213635E+03  0.00000000000E+00 0. -1.
         21   -1    0    0  501  502 -0.00000000000E+00 -0.00000000000E+00 -0.10884161488E+04  0.10884161488E+04  0.00000000000E+00 0. -1.
         25    1    1    2    0    0  0.35978245016E+03  0.29275006255E+02 -0.44626204573E+03  0.58743106055E+03  0.12500000000E+03 0.  0.
         25    1    1    2    0    0 -0.16046488331E+03  0.59968234283E+02 -0.28254897639E+03  0.35327622614E+03  0.12500000000E+03 0.  0.
         25    1    1    2    0    0 -0.19931756685E+03 -0.89243240538E+02 -0.19125299032E+03  0.31606099845E+03  0.12500000000E+03 0.  0.
</event>
<event>
 5    0  0.5612316E-005  0.4078760E+03  0.7546771E-02  0.1041086E+00
         21   -1    0    0  502  501  0.00000000000E+00  0.00000000000E+00  0.24431656877E+03  0.24431656877E+03  0.00000000000E+00 0. -1.
         21   -1    0    0  501  502 -0.00000000000E+00 -0.00000000000E+00 -0.68093135608E+03  0.68093135608E+03  0.00000000000E+00 0. -1.
         25    1    1    2    0    0 -0.23738795884E+03  0.70949523638E+02  0.35169804794E+02  0.27972985732E+03  0.12500000000E+03 0.  0.
         25    1    1    2    0    0  0.89040371316E+02  0.36497530308E+02 -0.36858155339E+03  0.40092096346E+03  0.12500000000E+03 0.  0.
         25    1    1    2    0    0  0.14834758752E+03 -0.10744705395E+03 -0.10320303871E+03  0.24459710408E+03  0.12500000000E+03 0.  0.
</event>
<event>
 5    0  0.5612316E-005  0.3906144E+03  0.7546771E-02  0.1047079E+00
         21   -1    0    0  502  501  0.00000000000E+00  0.00000000000E+00  0.67879826984E+03  0.67879826984E+03  0.00000000000E+00 0.  1.
         21   -1    0    0  501  502 -0.00000000000E+00 -0.00000000000E+00 -0.22477896538E+03  0.22477896538E+03  0.00000000000E+00 0.  1.
         25    1    1    2    0    0 -0.17730575697E+03  0.13403499415E+03 -0.15194515665E+02  0.25545759808E+03  0.12500000000E+03 0.  0.
         25    1    1    2    0    0  0.82658931581E+02  0.53732977303E+02  0.57595034127E+02  0.16929831593E+03  0.12500000000E+03 0.  0.
         25    1    1    2    0    0  0.94646825388E+02 -0.18776797145E+03  0.41161878600E+03  0.47882132121E+03  0.12500000000E+03 0.  0.
</event>
<event>
 5    0  0.5612316E-005  0.2717320E+03  0.7546771E-02  0.1100292E+00
         21   -1    0    0  502  501  0.00000000000E+00  0.00000000000E+00  0.12198394239E+03  0.12198394239E+03  0.00000000000E+00 0.  1.
         21   -1    0    0  501  502 -0.00000000000E+00 -0.00000000000E+00 -0.60531135317E+03  0.60531135317E+03  0.00000000000E+00 0.  1.
         25    1    1    2    0    0 -0.20284923147E+02  0.34005219610E+02 -0.11662957960E+03  0.17548587381E+03  0.12500000000E+03 0.  0.
         25    1    1    2    0    0  0.15704866654E+03 -0.31194989545E+02 -0.28331245295E+03  0.34860917520E+03  0.12500000000E+03 0.  0.
         25    1    1    2    0    0 -0.13676374339E+03 -0.28102300657E+01 -0.83385378227E+02  0.20320024656E+03  0.12500000000E+03 0.  0.
</event>
<event>
 5    0  0.8678617E-005  0.3130694E+03  0.7546771E-02  0.1078884E+00
         21   -1    0    0  502  501  0.00000000000E+00  0.00000000000E+00  0.25321027412E+03  0.25321027412E+03  0.00000000000E+00 0.  1.
         21   -1    0    0  501  502 -0.00000000000E+00 -0.00000000000E+00 -0.38707939429E+03  0.38707939429E+03  0.00000000000E+00 0.  1.
         25    1    1    2    0    0 -0.88886275195E+02 -0.91721574821E+01  0.13135006709E+02  0.15421552059E+03  0.12500000000E+03 0.  0.
         25    1    1    2    0    0  0.20739145279E+03  0.24723643785E+01  0.23897683804E+02  0.24333809107E+03  0.12500000000E+03 0.  0.
         25    1    1    2    0    0 -0.11850517760E+03  0.66997931036E+01 -0.17090181068E+03  0.24273605674E+03  0.12500000000E+03 0.  0.
</event>
<event>
 5    0  0.5612316E-005  0.3175352E+03  0.7546771E-02  0.1076789E+00
         21   -1    0    0  502  501  0.00000000000E+00  0.00000000000E+00  0.49565667415E+03  0.49565667415E+03  0.00000000000E+00 0.  1.
         21   -1    0    0  501  502 -0.00000000000E+00 -0.00000000000E+00 -0.20342428364E+03  0.20342428364E+03  0.00000000000E+00 0.  1.
         25    1    1    2    0    0  0.11963981230E+03  0.15100502807E+03  0.14196340844E+03  0.26999039340E+03  0.12500000000E+03 0.  0.
         25    1    1    2    0    0 -0.14498773506E+03  0.15613977305E+02  0.69805110939E+02  0.20435995967E+03  0.12500000000E+03 0.  0.
         25    1    1    2    0    0  0.25347922757E+02 -0.16661900538E+03  0.80463871130E+02  0.22473060472E+03  0.12500000000E+03 0.  0.
</event>
<event>
 5    0  0.5612316E-005  0.2614755E+03  0.7546771E-02  0.1106260E+00
         21   -1    0    0  502  501  0.00000000000E+00  0.00000000000E+00  0.53469342155E+02  0.53469342155E+02  0.00000000000E+00 0. -1.
         21   -1    0    0  501  502 -0.00000000000E+00 -0.00000000000E+00 -0.12786661654E+04  0.12786661654E+04  0.00000000000E+00 0. -1.
         25    1    1    2    0    0  0.45737927258E+02  0.82199458776E+02 -0.50518620242E+03  0.52885424091E+03  0.12500000000E+03 0.  0.
         25    1    1    2    0    0  0.31087222158E+01 -0.34887026683E+02 -0.91394437904E+02  0.15875991958E+03  0.12500000000E+03 0.  0.
         25    1    1    2    0    0 -0.48846649474E+02 -0.47312432093E+02 -0.62861618293E+03  0.64452134707E+03  0.12500000000E+03 0.  0.
</event>
<event>
 5    0  0.5612316E-005  0.2364487E+03  0.7546771E-02  0.1122181E+00
         21   -1    0    0  502  501  0.00000000000E+00  0.00000000000E+00  0.87974664400E+03  0.87974664400E+03  0.00000000000E+00 0. -1.
         21   -1    0    0  501  502 -0.00000000000E+00 -0.00000000000E+00 -0.63550091495E+02  0.63550091495E+02  0.00000000000E+00 0.  1.
         25    1    1    2    0    0  0.71935417809E+02 -0.86078697961E+02  0.19417610840E+03  0.25673645563E+03  0.12500000000E+03 0.  0.
         25    1    1    2    0    0 -0.65906968952E+01  0.11816611562E+02  0.34154138437E+03  0.36394860466E+03  0.12500000000E+03 0.  0.
         25    1    1    2    0    0 -0.65344720914E+02  0.74262086399E+02  0.28047905974E+03  0.32261167521E+03  0.12500000000E+03 0.  0.
</event>
<event>
 5    0  0.5612316E-005  0.2611621E+03  0.7546771E-02  0.1106447E+00
         21   -1    0    0  502  501  0.00000000000E+00  0.00000000000E+00  0.16957193631E+04  0.16957193631E+04  0.00000000000E+00 0.  1.
         21   -1    0    0  501  502 -0.00000000000E+00 -0.00000000000E+00 -0.40222259955E+02  0.40222259955E+02  0.00000000000E+00 0.  1.
         25    1    1    2    0    0 -0.11010972061E+03  0.41928466963E+02  0.48079731290E+03  0.51056165446E+03  0.12500000000E+03 0.  0.
         25    1    1    2    0    0 -0.28794797186E+02 -0.20129769346E+02  0.24969903074E+03  0.28144085331E+03  0.12500000000E+03 0.  0.
         25    1    1    2    0    0  0.13890451779E+03 -0.21798697616E+02  0.92500075955E+03  0.94393911533E+03  0.12500000000E+03 0.  0.
</event>
<event>
 5    0  0.7655615E-005  0.3396206E+03  0.7546771E-02  0.1066958E+00
         21   -1    0    0  502  501  0.00000000000E+00  0.00000000000E+00  0.19826540959E+03  0.19826540959E+03  0.00000000000E+00 0.  1.
         21   -1    0    0  501  502 -0.00000000000E+00 -0.00000000000E+00 -0.58175624048E+03  0.58175624048E+03  0.00000000000E+00 0.  1.
         25    1    1    2    0    0  0.82176581230E+02  0.21194689705E+02  0.69330182657E+02  0.16623441161E+03  0.12500000000E+03 0.  0.
         25    1    1    2    0    0 -0.31140060061E+02 -0.16114689029E+03 -0.31056400041E+03  0.37284450102E+03  0.12500000000E+03 0.  0.
         25    1    1    2    0    0 -0.51036521169E+02  0.13995220058E+03 -0.14225701314E+03  0.24094273745E+03  0.12500000000E+03 0.  0.
</event>
<event>
 5    0  0.5612316E-005  0.2580072E+03  0.7546771E-02  0.1108346E+00
         21   -1    0    0  502  501  0.00000000000E+00  0.00000000000E+00  0.30647698147E+04  0.30647698147E+04  0.00000000000E+00 0. -1.
         21   -1    0    0  501  502 -0.00000000000E+00 -0.00000000000E+00 -0.21720299460E+02  0.21720299460E+02  0.00000000000E+00 0. -1.
         25    1    1    2    0    0  0.22471924698E+02  0.23504665012E+02  0.52087745975E+03  0.53665238726E+03  0.12500000000E+03 0.  0.
         25    1    1    2    0    0 -0.92067166585E+02 -0.17774207387E+02  0.20618149535E+04  0.20677277839E+04  0.12500000000E+03 0.  0.
         25    1    1    2    0    0  0.69595241887E+02 -0.57304576242E+01  0.46035710198E+03  0.48210994304E+03  0.12500000000E+03 0.  0.
</event>
<event>
 5    0  0.5612316E-005  0.3253849E+03  0.7546771E-02  0.1073197E+00
         21   -1    0    0  502  501  0.00000000000E+00  0.00000000000E+00  0.22059618697E+03  0.22059618697E+03  0.00000000000E+00 0.  1.
         21   -1    0    0  501  502 -0.00000000000E+00 -0.00000000000E+00 -0.47995098838E+03  0.47995098838E+03  0.00000000000E+00 0.  1.
         25    1    1    2    0    0  0.18019504978E+02 -0.14051290193E+03 -0.20971170516E+03  0.28226331227E+03  0.12500000000E+03 0.  0.
         25    1    1    2    0    0  0.72115766379E+02  0.17258173774E+03  0.52014457233E+02  0.23090180537E+03  0.12500000000E+03 0.  0.
         25    1    1    2    0    0 -0.90135271357E+02 -0.32068835812E+02 -0.10165755348E+03  0.18738205771E+03  0.12500000000E+03 0.  0.
</event>
<event>
 5    0  0.5612316E-005  0.2065181E+03  0.7546771E-02  0.1144353E+00
         21   -1    0    0  502  501  0.00000000000E+00  0.00000000000E+00  0.77975488209E+03  0.77975488209E+03  0.00000000000E+00 0.  1.
         21   -1    0    0  501  502 -0.00000000000E+00 -0.00000000000E+00 -0.54696301438E+02  0.54696301438E+02  0.00000000000E+00 0.  1.
         25    1    1    2    0    0  0.49963695574E+02 -0.44504919639E+02  0.27776609179E+03  0.31185903946E+03  0.12500000000E+03 0.  0.
         25    1    1    2    0    0 -0.36508950175E+02  0.28242333064E+02  0.15763133922E+03  0.20640535827E+03  0.12500000000E+03 0.  0.
         25    1    1    2    0    0 -0.13454745399E+02  0.16262586575E+02  0.28966114965E+03  0.31618678580E+03  0.12500000000E+03 0.  0.
</event>
<event>
 5    0  0.5612316E-005  0.2711476E+03  0.7546771E-02  0.1100625E+00
         21   -1    0    0  502  501  0.00000000000E+00  0.00000000000E+00  0.86311079469E+03  0.86311079469E+03  0.00000000000E+00 0. -1.
         21   -1    0    0  501  502 -0.00000000000E+00 -0.00000000000E+00 -0.85181416221E+02  0.85181416221E+02  0.00000000000E+00 0. -1.
         25    1    1    2    0    0 -0.28194644488E+02 -0.90230769254E+02  0.71170030403E+02  0.17212409165E+03  0.12500000000E+03 0.  0.
         25    1    1    2    0    0  0.52450926310E+02 -0.35614731125E+02  0.27189831207E+03  0.30589736980E+03  0.12500000000E+03 0.  0.
         25    1    1    2    0    0 -0.24256281822E+02  0.12584550038E+03  0.43486103599E+03  0.47027074946E+03  0.12500000000E+03 0.  0.
</event>
<event>
 5    0  0.5745014E-005  0.2948185E+03  0.7546771E-02  0.1087860E+00
         21   -1    0    0  502  501  0.00000000000E+00  0.00000000000E+00  0.16848615626E+03  0.16848615626E+03  0.00000000000E+00 0. -1.
         21   -1    0    0  501  502 -0.00000000000E+00 -0.00000000000E+00 -0.51587604782E+03  0.51587604782E+03  0.00000000000E+00 0. -1.
         25    1    1    2    0    0  0.11026994438E+03 -0.88736328627E+02 -0.85706161044E+02  0.20737440221E+03  0.12500000000E+03 0.  0.
         25    1    1    2    0    0  0.18955877154E+02 -0.79726095565E+02 -0.71204357209E+02  0.16556157790E+03  0.12500000000E+03 0.  0.
         25    1    1    2    0    0 -0.12922582153E+03  0.16846242419E+03 -0.19047937331E+03  0.31142622396E+03  0.12500000000E+03 0.  0.
</event>
<event>
 5    0  0.5820825E-005  0.2976612E+03  0.7546771E-02  0.1086416E+00
         21   -1    0    0  502  501  0.00000000000E+00  0.00000000000E+00  0.16234848845E+03  0.16234848845E+03  0.00000000000E+00 0.  1.
         21   -1    0    0  501  502 -0.00000000000E+00 -0.00000000000E+00 -0.54575327016E+03  0.54575327016E+03  0.00000000000E+00 0.  1.
         25    1    1    2    0    0  0.20590910776E+02 -0.15479916126E+02 -0.49220883240E+01  0.12772173019E+03  0.12500000000E+03 0.  0.
         25    1    1    2    0    0  0.98203694999E+02  0.11338771089E+03 -0.31781966205E+03  0.37300814505E+03  0.12500000000E+03 0.  0.
         25    1    1    2    0    0 -0.11879460578E+03 -0.97907794763E+02 -0.60663031335E+02  0.20737188336E+03  0.12500000000E+03 0.  0.
</event>
<event>
 5    0  0.5612316E-005  0.2680554E+03  0.7546771E-02  0.1102398E+00
         21   -1    0    0  502  501  0.00000000000E+00  0.00000000000E+00  0.65600604429E+02  0.65600604429E+02  0.00000000000E+00 0. -1.
         21   -1    0    0  501  502 -0.00000000000E+00 -0.00000000000E+00 -0.10953209579E+04  0.10953209579E+04  0.00000000000E+00 0. -1.
         25    1    1    2    0    0 -0.13868163156E+03 -0.84184426863E+02 -0.43343109441E+03  0.47938202538E+03  0.12500000000E+03 0.  0.
         25    1    1    2    0    0  0.10898509438E+03 -0.13772059673E+02 -0.26429634477E+03  0.31232191451E+03  0.12500000000E+03 0.  0.
         25    1    1    2    0    0  0.29696537178E+02  0.97956486537E+02 -0.33199291425E+03  0.36921762239E+03  0.12500000000E+03 0.  0.
</event>
<event>
 5    0  0.5612316E-005  0.2538605E+03  0.7546771E-02  0.1110889E+00
         21   -1    0    0  502  501  0.00000000000E+00  0.00000000000E+00  0.44383845275E+03  0.44383845275E+03  0.00000000000E+00 0. -1.
         21   -1    0    0  501  502 -0.00000000000E+00 -0.00000000000E+00 -0.14519958577E+03  0.14519958577E+03  0.00000000000E+00 0. -1.
         25    1    1    2    0    0 -0.71578429711E+02  0.77640467057E+02  0.18515635445E+02  0.16467951445E+03  0.12500000000E+03 0.  0.
         25    1    1    2    0    0  0.90094257774E+01 -0.63420808204E+02  0.24026408764E+03  0.27830774419E+03  0.12500000000E+03 0.  0.
         25    1    1    2    0    0  0.62569003934E+02 -0.14219658853E+02  0.39859143894E+02  0.14605077988E+03  0.12500000000E+03 0.  0.
</event>
<event>
 5    0  0.5612316E-005  0.3176199E+03  0.7546771E-02  0.1076750E+00
         21   -1    0    0  502  501  0.00000000000E+00  0.00000000000E+00  0.24662882925E+03  0.24662882925E+03  0.00000000000E+00 0.  1.
         21   -1    0    0  501  502 -0.00000000000E+00 -0.00000000000E+00 -0.40904537200E+03  0.40904537200E+03  0.00000000000E+00 0.  1.
         25    1    1    2    0    0  0.16433905281E+02 -0.48764357123E+02 -0.66854392305E+02  0.15080631797E+03  0.12500000000E+03 0.  0.
         25    1    1    2    0    0  0.14370044995E+03 -0.31576383895E+02  0.94827140982E+02  0.21509085058E+03  0.12500000000E+03 0.  0.
         25    1    1    2    0    0 -0.16013435523E+03  0.80340741018E+02 -0.19038929143E+03  0.28977703271E+03  0.12500000000E+03 0.  0.
</event>
<event>
 5    0  0.5805032E-005  0.2852968E+03  0.7546771E-02  0.1092831E+00
         21   -1    0    0  502  501  0.00000000000E+00  0.00000000000E+00  0.40002431647E+03  0.40002431647E+03  0.00000000000E+00 0. -1.
         21   -1    0    0  501  502 -0.00000000000E+00 -0.00000000000E+00 -0.20347336170E+03  0.20347336170E+03  0.00000000000E+00 0. -1.
         25    1    1    2    0    0  0.12995079751E+03  0.66119309060E+02  0.11762935404E+03  0.22521242802E+03  0.12500000000E+03 0.  0.
         25    1    1    2    0    0 -0.11850719327E+03 -0.77022583326E+02  0.14317181400E+03  0.23685354446E+03  0.12500000000E+03 0.  0.
         25    1    1    2    0    0 -0.11443604236E+02  0.10903274266E+02 -0.64250213268E+02  0.14143170568E+03  0.12500000000E+03 0.  0.
</event>
<event>
 5    0  0.5612316E-005  0.3727728E+03  0.7546771E-02  0.1053638E+00
         21   -1    0    0  502  501  0.00000000000E+00  0.00000000000E+00  0.96651885108E+02  0.96651885108E+02  0.00000000000E+00 0.  1.
         21   -1    0    0  501  502 -0.00000000000E+00 -0.00000000000E+00 -0.14377325134E+04  0.14377325134E+04  0.00000000000E+00 0.  1.
         25    1    1    2    0    0 -0.30238394152E+02 -0.25059306707E+03 -0.54326876477E+03  0.61194541956E+03  0.12500000000E+03 0.  0.
         25    1    1    2    0    0 -0.39279035866E+02  0.28434638967E+03 -0.49233171901E+03  0.58344771276E+03  0.12500000000E+03 0.  0.
         25    1    1    2    0    0  0.69517430018E+02 -0.33753322607E+02 -0.30548014451E+03  0.33899126619E+03  0.12500000000E+03 0.  0.
</event>
<event>
 5    0  0.5612316E-005  0.3055491E+03  0.7546771E-02  0.1082499E+00
         21   -1    0    0  502  501  0.00000000000E+00  0.00000000000E+00  0.19919607700E+03  0.19919607700E+03  0.00000000000E+00 0.  1.
         21   -1    0    0  501  502 -0.00000000000E+00 -0.00000000000E+00 -0.46868515878E+03  0.46868515878E+03  0.00000000000E+00 0.  1.
         25    1    1    2    0    0  0.51800301141E+02  0.55211462515E+02  0.93444863047E+02  0.17346042552E+03  0.12500000000E+03 0.  0.
         25    1    1    2    0    0 -0.67853129377E+02  0.57299734610E+02 -0.10411482548E+03  0.18534347476E+03  0.12500000000E+03 0.  0.
         25    1    1    2    0    0  0.16052828236E+02 -0.11251119712E+03 -0.25881911935E+03  0.30907733549E+03  0.12500000000E+03 0.  0.
</event>
<event>
 5    0  0.5612316E-005  0.2402359E+03  0.7546771E-02  0.1119636E+00
         21   -1    0    0  502  501  0.00000000000E+00  0.00000000000E+00  0.23782635696E+03  0.23782635696E+03  0.00000000000E+00 0.  1.
         21   -1    0    0  501  502 -0.00000000000E+00 -0.00000000000E+00 -0.24266990837E+03  0.24266990837E+03  0.00000000000E+00 0.  1.
         25    1    1    2    0    0 -0.27176303928E+02 -0.38394869960E+02  0.96516991716E+02  0.16478242389E+03  0.12500000000E+03 0.  0.
         25    1    1    2    0    0  0.42905804074E+02  0.10805891151E+02 -0.12768682856E+03  0.18408313745E+03  0.12500000000E+03 0.  0.
         25    1    1    2    0    0 -0.15729500147E+02  0.27588978809E+02  0.26326285427E+02  0.13163070398E+03  0.12500000000E+03 0.  0.
</event>
<event>
 5    0  0.5612316E-005  0.4891244E+03  0.7546771E-02  0.1016657E+00
         21   -1    0    0  502  501  0.00000000000E+00  0.00000000000E+00  0.76457751995E+03  0.76457751995E+03  0.00000000000E+00 0.  1.
         21   -1    0    0  501  502 -0.00000000000E+00 -0.00000000000E+00 -0.31290828341E+03  0.31290828341E+03  0.00000000000E+00 0.  1.
         25    1    1    2    0    0  0.72730218062E+02  0.29870905239E+02  0.26732990245E+03  0.30540502999E+03  0.12500000000E+03 0.  0.
         25    1    1    2    0    0 -0.75324003425E+02  0.27913677905E+03 -0.10361112045E+03  0.33158906977E+03  0.12500000000E+03 0.  0.
         25    1    1    2    0    0  0.25937853628E+01 -0.30900768429E+03  0.28795045455E+03  0.44049170361E+03  0.12500000000E+03 0.  0.
</event>
<event>
 5    0  0.5612316E-005  0.3099591E+03  0.7546771E-02  0.1080365E+00
         21   -1    0    0  502  501  0.00000000000E+00  0.00000000000E+00  0.23588224610E+03  0.23588224610E+03  0.00000000000E+00 0. -1.
         21   -1    0    0  501  502 -0.00000000000E+00 -0.00000000000E+00 -0.40729917197E+03  0.40729917197E+03  0.00000000000E+00 0. -1.
         25    1    1    2    0    0  0.86875946552E+02  0.19359526270E+02 -0.25491451725E+03  0.29753761518E+03  0.12500000000E+03 0.  0.
         25    1    1    2    0    0 -0.10394505449E+03  0.63726658220E+02  0.33740816651E+01  0.17464834883E+03  0.12500000000E+03 0.  0.
         25    1    1    2    0    0  0.17069107941E+02 -0.83086184490E+02  0.80123509718E+02  0.17099545406E+03  0.12500000000E+03 0.  0.
</event>
<event>
 5    0  0.5612316E-005  0.2539338E+03  0.7546771E-02  0.1110844E+00
         21   -1    0    0  502  501  0.00000000000E+00  0.00000000000E+00  0.16043022975E+04  0.16043022975E+04  0.00000000000E+00 0.  1.
         21   -1    0    0  501  502 -0.00000000000E+00 -0.00000000000E+00 -0.40193393807E+02  0.40193393807E+02  0.00000000000E+00 0.  1.
         25    1    1    2    0    0 -0.53711148753E+02  0.80066753095E+02  0.58554165311E+03  0.60644834898E+03  0.12500000000E+03 0.  0.
         25    1    1    2    0    0 -0.66403657549E+02 -0.85097005971E+02  0.58701922735E+03  0.60980941239E+03  0.12500000000E+03 0.  0.
         25    1    1    2    0    0  0.12011480630E+03  0.50302528763E+01  0.39154802319E+03  0.42823792990E+03  0.12500000000E+03 0.  0.
</event>
<event>
 5    0  0.5612316E-005  0.4314406E+03  0.7546771E-02  0.1033406E+00
         21   -1    0    0  502  501  0.00000000000E+00  0.00000000000E+00  0.49966255468E+03  0.49966255468E+03  0.00000000000E+00 0.  1.
         21   -1    0    0  501  502 -0.00000000000E+00 -0.00000000000E+00 -0.37253340687E+03  0.37253340687E+03  0.00000000000E+00 0.  1.
         25    1    1    2    0    0  0.23050306220E+03 -0.13243736333E+03 -0.10353129193E+03  0.31147238289E+03  0.12500000000E+03 0.  0.
         25    1    1    2    0    0 -0.18341037823E+03  0.35100031386E+02 -0.54407971288E+02  0.23120684762E+03  0.12500000000E+03 0.  0.
         25    1    1    2    0    0 -0.47092683974E+02  0.97337331949E+02  0.28506841103E+03  0.32951673105E+03  0.12500000000E+03 0.  0.
</event>
<event>
 5    0  0.5612316E-005  0.3149809E+03  0.7546771E-02  0.1077983E+00
         21   -1    0    0  502  501  0.00000000000E+00  0.00000000000E+00  0.13846461415E+03  0.13846461415E+03  0.00000000000E+00 0.  1.
         21   -1    0    0  501  502 -0.00000000000E+00 -0.00000000000E+00 -0.71652233621E+03  0.71652233621E+03  0.00000000000E+00 0.  1.
         25    1    1    2    0    0 -0.10390524990E+03  0.83573767396E+02 -0.35008757530E+02  0.18609537516E+03  0.12500000000E+03 0.  0.
         25    1    1    2    0    0  0.73832856271E+02  0.54609395697E+02 -0.40890485323E+03  0.43733471822E+03  0.12500000000E+03 0.  0.
         25    1    1    2    0    0  0.30072393628E+02 -0.13818316309E+03 -0.13414411129E+03  0.23155685698E+03  0.12500000000E+03 0.  0.
</event>
<event>
 5    0  0.5612316E-005  0.3988705E+03  0.7546771E-02  0.1044171E+00
         21   -1    0    0  502  501  0.00000000000E+00  0.00000000000E+00  0.55017905367E+03  0.55017905367E+03  0.00000000000E+00 0. -1.
         21   -1    0    0  501  502 -0.00000000000E+00 -0.00000000000E+00 -0.28917433847E+03  0.28917433847E+03  0.00000000000E+00 0. -1.
         25    1    1    2    0    0 -0.20485405511E+03 -0.63333958829E+02  0.56546171907E+01  0.24826064717E+03  0.12500000000E+03 0.  0.
         25    1    1    2    0    0  0.32632757580E+03  0.26516006148E+02  0.13236698615E+03  0.37461821143E+03  0.12500000000E+03 0.  0.
         25    1    1    2    0    0 -0.12147352069E+03  0.36817952681E+02  0.12298311186E+03  0.21647453354E+03  0.12500000000E+03 0.  0.
</event>
<event>
 5    0  0.5612316E-005  0.2495150E+03  0.7546771E-02  0.1113612E+00
         21   -1    0    0  502  501  0.00000000000E+00  0.00000000000E+00  0.29741396699E+03  0.29741396699E+03  0.00000000000E+00 0.  1.
         21   -1    0    0  501  502 -0.00000000000E+00 -0.00000000000E+00 -0.20933025653E+03  0.20933025653E+03  0.00000000000E+00 0.  1.
         25    1    1    2    0    0 -0.97148634765E+02  0.79522183063E+02  0.10293152901E+03  0.20489395916E+03  0.12500000000E+03 0.  0.
         25    1    1    2    0    0  0.67069226885E+02 -0.63516539422E+02  0.41032922131E+02  0.16075239555E+03  0.12500000000E+03 0.  0.
         25    1    1    2    0    0  0.30079407879E+02 -0.16005643641E+02 -0.55880740671E+02  0.14109786882E+03  0.12500000000E+03 0.  0.
</event>
<event>
 5    0  0.5612316E-005  0.3385109E+03  0.7546771E-02  0.1067432E+00
         21   -1    0    0  502  501  0.00000000000E+00  0.00000000000E+00  0.55007248497E+03  0.55007248497E+03  0.00000000000E+00 0. -1.
         21   -1    0    0  501  502 -0.00000000000E+00 -0.00000000000E+00 -0.20831727704E+03  0.20831727704E+03  0.00000000000E+00 0. -1.
         25    1    1    2    0    0 -0.88413532891E+02  0.45639826336E+02  0.37817171746E+02  0.16418003845E+03  0.12500000000E+03 0.  0.
         25    1    1    2    0    0 -0.97339372059E+02 -0.44872575703E+02 -0.52896017377E+02  0.17294938583E+03  0.12500000000E+03 0.  0.
         25    1    1    2    0    0  0.18575290495E+03 -0.76725063315E+00  0.35683405356E+03  0.42126033774E+03  0.12500000000E+03 0.  0.
</event>
<event>
 5    0  0.5651417E-005  0.3987842E+03  0.7546771E-02  0.1044201E+00
         21   -1    0    0  502  501  0.00000000000E+00  0.00000000000E+00  0.77981591065E+03  0.77981591065E+03  0.00000000000E+00 0.  1.
         21   -1    0    0  501  502 -0.00000000000E+00 -0.00000000000E+00 -0.20393125344E+03  0.20393125344E+03  0.00000000000E+00 0.  1.
         25    1    1    2    0    0  0.18279270703E+03 -0.10596700499E+03  0.41061839512E+03  0.47840845133E+03  0.12500000000E+03 0.  0.
         25    1    1    2    0    0 -0.64055028371E+02  0.19619342781E+03  0.19274367517E+03  0.30882038808E+03  0.12500000000E+03 0.  0.
         25    1    1    2    0    0 -0.11873767866E+03 -0.90226422818E+02 -0.27477413069E+02  0.19651832469E+03  0.12500000000E+03 0.  0.
</event>
<event>
 5    0  0.5612316E-005  0.3037288E+03  0.7546771E-02  0.1083391E+00
         21   -1    0    0  502  501  0.00000000000E+00  0.00000000000E+00  0.15561530669E+03  0.15561530669E+03  0.00000000000E+00 0.  1.
         21   -1    0    0  501  502 -0.00000000000E+00 -0.00000000000E+00 -0.59281545019E+03  0.59281545019E+03  0.00000000000E+00 0.  1.
         25    1    1    2    0    0  0.60733925123E+02  0.18928558923E+03 -0.24095011313E+03  0.33645148382E+03  0.12500000000E+03 0.  0.
         25    1    1    2    0    0 -0.78833217837E+02 -0.20360126393E+02 -0.59508216538E+02  0.16060958507E+03  0.12500000000E+03 0.  0.
         25    1    1    2    0    0  0.18099292713E+02 -0.16892546283E+03 -0.13674181383E+03  0.25136968799E+03  0.12500000000E+03 0.  0.
</event>
<event>
 5    0  0.5612316E-005  0.2890491E+03  0.7546771E-02  0.1090847E+00
         21   -1    0    0  502  501  0.00000000000E+00  0.00000000000E+00  0.23917173040E+03  0.23917173040E+03  0.00000000000E+00 0. -1.
         21   -1    0    0  501  502 -0.00000000000E+00 -0.00000000000E+00 -0.34932808316E+03  0.34932808316E+03  0.00000000000E+00 0. -1.
         25    1    1    2    0    0 -0.53361673114E+02 -0.19292374184E+03 -0.79557155002E+02  0.24904091880E+03  0.12500000000E+03 0.  0.
         25    1    1    2    0    0  0.68552715316E+02  0.14396201136E+03 -0.10610504269E+02  0.20288449496E+03  0.12500000000E+03 0.  0.
         25    1    1    2    0    0 -0.15191042203E+02  0.48961730480E+02 -0.19988693492E+02  0.13657439981E+03  0.12500000000E+03 0.  0.
</event>
<event>
 5    0  0.5612316E-005  0.3339040E+03  0.7546771E-02  0.1069422E+00
         21   -1    0    0  502  501  0.00000000000E+00  0.00000000000E+00  0.21362563201E+04  0.21362563201E+04  0.00000000000E+00 0.  1.
         21   -1    0    0  501  502 -0.00000000000E+00 -0.00000000000E+00 -0.52190323504E+02  0.52190323504E+02  0.00000000000E+00 0.  1.
         25    1    1    2    0    0  0.65846748194E+02  0.17020140318E+03  0.83263409353E+03  0.86151543550E+03  0.12500000000E+03 0.  0.
         25    1    1    2    0    0 -0.48502229205E+02 -0.12016322540E+03  0.20969103605E+03  0.27638197766E+03  0.12500000000E+03 0.  0.
         25    1    1    2    0    0 -0.17344518989E+02 -0.50038177785E+02  0.10417408670E+04  0.10505492304E+04  0.12500000000E+03 0.  0.
</event>
<event>
 5    0  0.5612316E-005  0.3123689E+03  0.7546771E-02  0.1079216E+00
         21   -1    0    0  502  501  0.00000000000E+00  0.00000000000E+00  0.51207684617E+03  0.51207684617E+03  0.00000000000E+00 0.  1.
         21   -1    0    0  501  502 -0.00000000000E+00 -0.00000000000E+00 -0.19054624689E+03  0.19054624689E+03  0.00000000000E+00 0.  1.
         25    1    1    2    0    0  0.18044908098E+03  0.63368679726E+02  0.93831470481E+02  0.24699555714E+03  0.12500000000E+03 0.  0.
         25    1    1    2    0    0 -0.16779514138E+03 -0.10464531299E+03  0.22314660101E+03  0.32330365996E+03  0.12500000000E+03 0.  0.
         25    1    1    2    0    0 -0.12653939597E+02  0.41276633266E+02  0.45525277885E+01  0.13232387596E+03  0.12500000000E+03 0.  0.
</event>
<event>
 5    0  0.5612316E-005  0.3629957E+03  0.7546771E-02  0.1057404E+00
         21   -1    0    0  502  501  0.00000000000E+00  0.00000000000E+00  0.80842205870E+02  0.80842205870E+02  0.00000000000E+00 0. -1.
         21   -1    0    0  501  502 -0.00000000000E+00 -0.00000000000E+00 -0.16299142865E+04  0.16299142865E+04  0.00000000000E+00 0. -1.
         25    1    1    2    0    0 -0.48373505274E+02 -0.11962201645E+03 -0.51189460033E+03  0.54250392135E+03  0.12500000000E+03 0.  0.
         25    1    1    2    0    0  0.18973412478E+03  0.15876427204E+03 -0.87013551338E+03  0.91321735848E+03  0.12500000000E+03 0.  0.
         25    1    1    2    0    0 -0.14136061951E+03 -0.39142255594E+02 -0.16704196691E+03  0.25503521253E+03  0.12500000000E+03 0.  0.
</event>
<event>
 5    0  0.5612316E-005  0.2370757E+03  0.7546771E-02  0.1121756E+00
         21   -1    0    0  502  501  0.00000000000E+00  0.00000000000E+00  0.75815758244E+02  0.75815758244E+02  0.00000000000E+00 0. -1.
         21   -1    0    0  501  502 -0.00000000000E+00 -0.00000000000E+00 -0.74133485842E+03  0.74133485842E+03  0.00000000000E+00 0. -1.
         25    1    1    2    0    0  0.34213918339E+02  0.96436399947E+02 -0.19936455233E+03  0.25659656305E+03  0.12500000000E+03 0.  0.
         25    1    1    2    0    0  0.10038540337E+02 -0.24671454816E+02 -0.92917860123E+02  0.15801323269E+03  0.12500000000E+03 0.  0.
         25    1    1    2    0    0 -0.44252458676E+02 -0.71764945132E+02 -0.37323668772E+03  0.40254082092E+03  0.12500000000E+03 0.  0.
</event>
<event>
 5    0  0.5612316E-005  0.3699276E+03  0.7546771E-02  0.1054721E+00
         21   -1    0    0  502  501  0.00000000000E+00  0.00000000000E+00  0.73061192410E+03  0.73061192410E+03  0.00000000000E+00 0.  1.
         21   -1    0    0  501  502 -0.00000000000E+00 -0.00000000000E+00 -0.18730390071E+03  0.18730390071E+03  0.00000000000E+00 0.  1.
         25    1    1    2    0    0  0.36528807028E+02 -0.73759157970E+02  0.34102176929E+03  0.37241860085E+03  0.12500000000E+03 0.  0.
         25    1    1    2    0    0 -0.12009642227E+02 -0.81348005503E+01 -0.12963197861E+03  0.18066503913E+03  0.12500000000E+03 0.  0.
         25    1    1    2    0    0 -0.24519164801E+02  0.81893958520E+02  0.33191823270E+03  0.36483218483E+03  0.12500000000E+03 0.  0.
</event>
<event>
 5    0  0.5612316E-005  0.2622682E+03  0.7546771E-02  0.1105788E+00
         21   -1    0    0  502  501  0.00000000000E+00  0.00000000000E+00  0.39440649147E+03  0.39440649147E+03  0.00000000000E+00 0. -1.
         21   -1    0    0  501  502 -0.00000000000E+00 -0.00000000000E+00 -0.17440030091E+03  0.17440030091E+03  0.00000000000E+00 0. -1.
         25    1    1    2    0    0  0.58417144705E+02  0.13092337023E+03  0.85495421989E+02  0.20853766770E+03  0.12500000000E+03 0.  0.
         25    1    1    2    0    0  0.56956137248E+02 -0.59678060296E+02  0.58075350589E+02  0.16063380341E+03  0.12500000000E+03 0.  0.
         25    1    1    2    0    0 -0.11537328195E+03 -0.71245309934E+02  0.76435417988E+02  0.19963532127E+03  0.12500000000E+03 0.  0.
</event>
<event>
 5    0  0.5612316E-005  0.3029882E+03  0.7546771E-02  0.1083756E+00
         21   -1    0    0  502  501  0.00000000000E+00  0.00000000000E+00  0.25722423587E+03  0.25722423587E+03  0.00000000000E+00 0. -1.
         21   -1    0    0  501  502 -0.00000000000E+00 -0.00000000000E+00 -0.35689422621E+03  0.35689422621E+03  0.00000000000E+00 0. -1.
         25    1    1    2    0    0 -0.71890336530E+02 -0.19066537395E+03 -0.70223485567E+02  0.24915425590E+03  0.12500000000E+03 0.  0.
         25    1    1    2    0    0  0.41903368934E+02  0.61483014215E+02  0.65427924220E+02  0.15950506773E+03  0.12500000000E+03 0.  0.
         25    1    1    2    0    0  0.29986967596E+02  0.12918235973E+03 -0.94874428998E+02  0.20545913844E+03  0.12500000000E+03 0.  0.
</event>
<event>
 5    0  0.6564216E-005  0.3247159E+03  0.7546771E-02  0.1073499E+00
         21   -1    0    0  502  501  0.00000000000E+00  0.00000000000E+00  0.25862370035E+03  0.25862370035E+03  0.00000000000E+00 0. -1.
         21   -1    0    0  501  502 -0.00000000000E+00 -0.00000000000E+00 -0.40769812652E+03  0.40769812652E+03  0.00000000000E+00 0. -1.
         25    1    1    2    0    0  0.75849314405E+00 -0.54281490461E+02  0.69404954276E+02  0.15293496394E+03  0.12500000000E+03 0.  0.
         25    1    1    2    0    0  0.17960990588E+03  0.83123042758E+02 -0.16288234864E+03  0.28517506558E+03  0.12500000000E+03 0.  0.
         25    1    1    2    0    0 -0.18036839902E+03 -0.28841552298E+02 -0.55597031799E+02  0.22821179735E+03  0.12500000000E+03 0.  0.
</event>
<event>
 5    0  0.5612316E-005  0.2963727E+03  0.7546771E-02  0.1087068E+00
         21   -1    0    0  502  501  0.00000000000E+00  0.00000000000E+00  0.16419422581E+03  0.16419422581E+03  0.00000000000E+00 0.  1.
         21   -1    0    0  501  502 -0.00000000000E+00 -0.00000000000E+00 -0.53495643819E+03  0.53495643819E+03  0.00000000000E+00 0.  1.
         25    1    1    2    0    0  0.40470223254E+02 -0.18177553724E+02 -0.30757760010E+02  0.13615910631E+03  0.12500000000E+03 0.  0.
         25    1    1    2    0    0 -0.20100290288E+03  0.26786604239E+02 -0.13395906562E+03  0.27329420117E+03  0.12500000000E+03 0.  0.
         25    1    1    2    0    0  0.16053267962E+03 -0.86090505145E+01 -0.20604538675E+03  0.28969735653E+03  0.12500000000E+03 0.  0.
</event>
<event>
 5    0  0.5612316E-005  0.5621612E+03  0.7546771E-02  0.9987176E-01
         21   -1    0    0  502  501  0.00000000000E+00  0.00000000000E+00  0.31874927228E+03  0.31874927228E+03  0.00000000000E+00 0. -1.
         21   -1    0    0  501  502 -0.00000000000E+00 -0.00000000000E+00 -0.99145390532E+03  0.99145390532E+03  0.00000000000E+00 0. -1.
         25    1    1    2    0    0 -0.12700795147E+03 -0.60794561304E+02 -0.45641704761E+01  0.18834232151E+03  0.12500000000E+03 0.  0.
         25    1    1    2    0    0 -0.20663619594E+02 -0.33517858420E+03 -0.56531738279E+03  0.66931338831E+03  0.12500000000E+03 0.  0.
         25    1    1    2    0    0  0.14767157106E+03  0.39597314550E+03 -0.10282307978E+03  0.45254746778E+03  0.12500000000E+03 0.  0.
</event>
<event>
 5    0  0.5612316E-005  0.2793315E+03  0.7546771E-02  0.1096055E+00
         21   -1    0    0  502  501  0.00000000000E+00  0.00000000000E+00  0.43528782899E+03  0.43528782899E+03  0.00000000000E+00 0.  1.
         21   -1    0    0  501  502 -0.00000000000E+00 -0.00000000000E+00 -0.17925171946E+03  0.17925171946E+03  0.00000000000E+00 0.  1.
         25    1    1    2    0    0 -0.14384488631E+02 -0.40401061587E+02  0.12822366225E+03  0.18413437173E+03  0.12500000000E+03 0.  0.
         25    1    1    2    0    0 -0.79242576041E+02 -0.11700838422E+03  0.47357581192E+02  0.19452014891E+03  0.12500000000E+03 0.  0.
         25    1    1    2    0    0  0.93627064672E+02  0.15740944581E+03  0.80454866085E+02  0.23588502781E+03  0.12500000000E+03 0.  0.
</event>
<event>
 5    0  0.5612316E-005  0.2423782E+03  0.7546771E-02  0.1118219E+00
         21   -1    0    0  502  501  0.00000000000E+00  0.00000000000E+00  0.10130014348E+04  0.10130014348E+04  0.00000000000E+00 0.  1.
         21   -1    0    0  501  502 -0.00000000000E+00 -0.00000000000E+00 -0.57993181708E+02  0.57993181708E+02  0.00000000000E+00 0.  1.
         25    1    1    2    0    0  0.77385504804E+02  0.10212072766E+03  0.30134506494E+03  0.35050108065E+03  0.12500000000E+03 0.  0.
         25    1    1    2    0    0 -0.14062993947E+02 -0.12022365590E+02  0.19351535739E+03  0.23111793227E+03  0.12500000000E+03 0.  0.
         25    1    1    2    0    0 -0.63322510857E+02 -0.90098362068E+02  0.46014783074E+03  0.48937560356E+03  0.12500000000E+03 0.  0.
</event>
<event>
 5    0  0.5612316E-005  0.3303946E+03  0.7546771E-02  0.1070962E+00
         21   -1    0    0  502  501  0.00000000000E+00  0.00000000000E+00  0.10566630350E+03  0.10566630350E+03  0.00000000000E+00 0.  1.
         21   -1    0    0  501  502 -0.00000000000E+00 -0.00000000000E+00 -0.10330692147E+04  0.10330692147E+04  0.00000000000E+00 0.  1.
         25    1    1    2    0    0 -0.16265393976E+03 -0.12580022118E+03 -0.25367040238E+03  0.34965078695E+03  0.12500000000E+03 0.  0.
         25    1    1    2    0    0  0.28322991859E+02 -0.66103009312E+02 -0.26465535923E+03  0.30139551901E+03  0.12500000000E+03 0.  0.
         25    1    1    2    0    0  0.13433094790E+03  0.19190323049E+03 -0.40907714960E+03  0.48768921226E+03  0.12500000000E+03 0.  0.
</event>
<event>
 5    0  0.5612316E-005  0.3406492E+03  0.7546771E-02  0.1066520E+00
         21   -1    0    0  502  501  0.00000000000E+00  0.00000000000E+00  0.15838314598E+04  0.15838314598E+04  0.00000000000E+00 0.  1.
         21   -1    0    0  501  502 -0.00000000000E+00 -0.00000000000E+00 -0.73266542778E+02  0.73266542778E+02  0.00000000000E+00 0.  1.
         25    1    1    2    0    0  0.30121539583E+02  0.23572426849E+03  0.66902977846E+03  0.72090157606E+03  0.12500000000E+03 0.  0.
         25    1    1    2    0    0 -0.26518118596E+02 -0.24162135041E+03  0.67189602329E+03  0.72536429034E+03  0.12500000000E+03 0.  0.
         25    1    1    2    0    0 -0.36034209868E+01  0.58970819232E+01  0.16963911532E+03  0.21083213622E+03  0.12500000000E+03 0.  0.
</event>
<event>
 5    0  0.5612316E-005  0.3765859E+03  0.7546771E-02  0.1052203E+00
         21   -1    0    0  502  501  0.00000000000E+00  0.00000000000E+00  0.43221751517E+03  0.43221751517E+03  0.00000000000E+00 0. -1.
         21   -1    0    0  501  502 -0.00000000000E+00 -0.00000000000E+00 -0.32811478775E+03  0.32811478775E+03  0.00000000000E+00 0. -1.
         25    1    1    2    0    0 -0.15421957239E+03  0.98888125013E+01  0.11430543457E+03  0.22928627847E+03  0.12500000000E+03 0.  0.
         25    1    1    2    0    0  0.27521250487E+03 -0.79043089008E+02 -0.93527868179E+02  0.32613217395E+03  0.12500000000E+03 0.  0.
         25    1    1    2    0    0 -0.12099293248E+03  0.69154276507E+02  0.83325161026E+02  0.20491385050E+03  0.12500000000E+03 0.  0.
</event>
<event>
 5    0  0.5612316E-005  0.4408604E+03  0.7546771E-02  0.1030483E+00
         21   -1    0    0  502  501  0.00000000000E+00  0.00000000000E+00  0.21399716718E+03  0.21399716718E+03  0.00000000000E+00 0. -1.
         21   -1    0    0  501  502 -0.00000000000E+00 -0.00000000000E+00 -0.90822627597E+03  0.90822627597E+03  0.00000000000E+00 0. -1.
         25    1    1    2    0    0 -0.25552878572E+03  0.21343053378E+03 -0.38872795071E+03  0.52686048699E+03  0.12500000000E+03 0.  0.
         25    1    1    2    0    0  0.15527673276E+02 -0.19252979108E+03 -0.83609910943E+02  0.24479470235E+03  0.12500000000E+03 0.  0.
         25    1    1    2    0    0  0.24000111245E+03 -0.20900742704E+02 -0.22189124713E+03  0.35056825381E+03  0.12500000000E+03 0.  0.
</event>
<event>
 5    0  0.5612316E-005  0.3413284E+03  0.7546771E-02  0.1066232E+00
         21   -1    0    0  502  501  0.00000000000E+00  0.00000000000E+00  0.13286272220E+04  0.13286272220E+04  0.00000000000E+00 0. -1.
         21   -1    0    0  501  502 -0.00000000000E+00 -0.00000000000E+00 -0.87688296310E+02  0.87688296310E+02  0.00000000000E+00 0. -1.
         25    1    1    2    0    0 -0.52479497203E+02  0.20482078505E+03  0.18911156218E+03  0.30999005559E+03  0.12500000000E+03 0.  0.
         25    1    1    2    0    0  0.45512615777E+02 -0.14248219781E+03  0.48992763116E+03  0.52728233297E+03  0.12500000000E+03 0.  0.
         25    1    1    2    0    0  0.69668814254E+01 -0.62338587234E+02  0.56189973235E+03  0.57904312975E+03  0.12500000000E+03 0.  0.
</event>
<event>
 5    0  0.5630472E-005  0.2584501E+03  0.7546771E-02  0.1108078E+00
         21   -1    0    0  502  501  0.00000000000E+00  0.00000000000E+00  0.63736648208E+02  0.63736648208E+02  0.00000000000E+00 0. -1.
         21   -1    0    0  501  502 -0.00000000000E+00 -0.00000000000E+00 -0.10480070742E+04  0.10480070742E+04  0.00000000000E+00 0. -1.
         25    1    1    2    0    0  0.43808940798E+02 -0.79013062538E+01 -0.43469649557E+03  0.45449719163E+03  0.12500000000E+03 0.  0.
         25    1    1    2    0    0  0.78263804865E+02  0.16129283586E+02 -0.40163665824E+03  0.42816163091E+03  0.12500000000E+03 0.  0.
         25    1    1    2    0    0 -0.12207274566E+03 -0.82279773326E+01 -0.14793727215E+03  0.22908489984E+03  0.12500000000E+03 0.  0.
</event>
<event>
 5    0  0.5612316E-005  0.2375058E+03  0.7546771E-02  0.1121466E+00
         21   -1    0    0  502  501  0.00000000000E+00  0.00000000000E+00  0.32686166627E+03  0.32686166627E+03  0.00000000000E+00 0. -1.
         21   -1    0    0  501  502 -0.00000000000E+00 -0.00000000000E+00 -0.17257765351E+03  0.17257765351E+03  0.00000000000E+00 0. -1.
         25    1    1    2    0    0 -0.50327181122E+02 -0.33571497656E+02 -0.59575653016E+02  0.15110965901E+03  0.12500000000E+03 0.  0.
         25    1    1    2    0    0  0.70881491565E+02 -0.58621223128E+00  0.11503039319E+03  0.18406933707E+03  0.12500000000E+03 0.  0.
         25    1    1    2    0    0 -0.20554310443E+02  0.34157709888E+02  0.98829272584E+02  0.16426032370E+03  0.12500000000E+03 0.  0.
</event>
<event>
 5    0  0.5612316E-005  0.4966714E+03  0.7546771E-02  0.1014651E+00
         21   -1    0    0  502  501  0.00000000000E+00  0.00000000000E+00  0.10785173718E+03  0.10785173718E+03  0.00000000000E+00 0. -1.
         21   -1    0    0  501  502 -0.00000000000E+00 -0.00000000000E+00 -0.22872369963E+04  0.22872369963E+04  0.00000000000E+00 0. -1.
         25    1    1    2    0    0 -0.38595244156E+03  0.22730771700E+02 -0.64929353880E+03  0.76595239711E+03  0.12500000000E+03 0.  0.
         25    1    1    2    0    0  0.57234605366E+02 -0.34586530578E+02 -0.15638109903E+03  0.21107362764E+03  0.12500000000E+03 0.  0.
         25    1    1    2    0    0  0.32871783619E+03  0.11855758878E+02 -0.13737106212E+04  0.14180627087E+04  0.12500000000E+03 0.  0.
</event>
<event>
 5    0  0.5612316E-005  0.2012918E+03  0.7546771E-02  0.1148654E+00
         21   -1    0    0  502  501  0.00000000000E+00  0.00000000000E+00  0.32506864937E+03  0.32506864937E+03  0.00000000000E+00 0. -1.
         21   -1    0    0  501  502 -0.00000000000E+00 -0.00000000000E+00 -0.12464562588E+03  0.12464562588E+03  0.00000000000E+00 0. -1.
         25    1    1    2    0    0  0.27512766392E+02 -0.18664917136E+02  0.65274480144E+02  0.14488301903E+03  0.12500000000E+03 0.  0.
         25    1    1    2    0    0 -0.61225080001E+02 -0.10154758350E+02  0.55996283896E+02  0.15037357929E+03  0.12500000000E+03 0.  0.
         25    1    1    2    0    0  0.33712313609E+02  0.28819675486E+02  0.79152259459E+02  0.15445767693E+03  0.12500000000E+03 0.  0.
</event>
<event>
 5    0  0.5612316E-005  0.4597799E+03  0.7546771E-02  0.1024845E+00
         21   -1    0    0  502  501  0.00000000000E+00  0.00000000000E+00  0.18641288672E+04  0.18641288672E+04  0.00000000000E+00 0.  1.
         21   -1    0    0  501  502 -0.00000000000E+00 -0.00000000000E+00 -0.11340287208E+03  0.11340287208E+03  0.00000000000E+00 0.  1.
         25    1    1    2    0    0 -0.30702924653E+02  0.29613250183E+03  0.95437798578E+03  0.10075214479E+04  0.12500000000E+03 0.  0.
         25    1    1    2    0    0  0.41843812208E+01 -0.42409265192E+02  0.62380814360E+03  0.63763442099E+03  0.12500000000E+03 0.  0.
         25    1    1    2    0    0  0.26518543432E+02 -0.25372323664E+03  0.17253986579E+03  0.33237587043E+03  0.12500000000E+03 0.  0.
</event>
<event>
 5    0  0.5612316E-005  0.2615424E+03  0.7546771E-02  0.1106220E+00
         21   -1    0    0  502  501  0.00000000000E+00  0.00000000000E+00  0.35450657939E+02  0.35450657939E+02  0.00000000000E+00 0.  1.
         21   -1    0    0  501  502 -0.00000000000E+00 -0.00000000000E+00 -0.19295674907E+04  0.19295674907E+04  0.00000000000E+00 0.  1.
         25    1    1    2    0    0  0.27276387937E+02 -0.56691781175E+01 -0.23386364864E+03  0.26663335701E+03  0.12500000000E+03 0.  0.
         25    1    1    2    0    0 -0.18844663919E+02 -0.12431857599E+03 -0.81088939686E+03  0.83004629005E+03  0.12500000000E+03 0.  0.
         25    1    1    2    0    0 -0.84317240186E+01  0.12998775411E+03 -0.84936378723E+03  0.86833850153E+03  0.12500000000E+03 0.  0.
</event>
<event>
 5    0  0.5612316E-005  0.6285663E+03  0.7546771E-02  0.9847851E-01
         21   -1    0    0  502  501  0.00000000000E+00  0.00000000000E+00  0.28520538751E+04  0.28520538751E+04  0.00000000000E+00 0.  1.
         21   -1    0    0  501  502 -0.00000000000E+00 -0.00000000000E+00 -0.13853019981E+03  0.13853019981E+03  0.00000000000E+00 0.  1.
         25    1    1    2    0    0  0.50473554970E+03  0.71883322089E+02  0.12017830368E+04  0.13114239035E+04  0.12500000000E+03 0.  0.
         25    1    1    2    0    0 -0.19198040313E+03  0.19193856946E+03  0.53479445089E+03  0.61263936728E+03  0.12500000000E+03 0.  0.
         25    1    1    2    0    0 -0.31275514657E+03 -0.26382189155E+03  0.97694618755E+03  0.10665208041E+04  0.12500000000E+03 0.  0.
</event>
<event>
 5    0  0.5612316E-005  0.2214966E+03  0.7546771E-02  0.1132772E+00
         21   -1    0    0  502  501  0.00000000000E+00  0.00000000000E+00  0.79267452355E+02  0.79267452355E+02  0.00000000000E+00 0.  1.
         21   -1    0    0  501  502 -0.00000000000E+00 -0.00000000000E+00 -0.61892656477E+03  0.61892656477E+03  0.00000000000E+00 0.  1.
         25    1    1    2    0    0  0.17706251665E+02 -0.80024572664E+02 -0.27056374346E+03  0.30910707345E+03  0.12500000000E+03 0.  0.
         25    1    1    2    0    0 -0.12559925933E+02  0.63664221450E+02 -0.80630940078E+02  0.16228750208E+03  0.12500000000E+03 0.  0.
         25    1    1    2    0    0 -0.51463257317E+01  0.16360351213E+02 -0.18846442887E+03  0.22679944160E+03  0.12500000000E+03 0.  0.
</event>
<event>
 5    0  0.5612316E-005  0.3936360E+03  0.7546771E-02  0.1046006E+00
         21   -1    0    0  502  501  0.00000000000E+00  0.00000000000E+00  0.25977581977E+03  0.25977581977E+03  0.00000000000E+00 0.  1.
         21   -1    0    0  501  502 -0.00000000000E+00 -0.00000000000E+00 -0.59647316361E+03  0.59647316361E+03  0.00000000000E+00 0.  1.
         25    1    1    2    0    0  0.72496434316E+02 -0.22452128561E+03 -0.14089922622E+03  0.30189920939E+03  0.12500000000E+03 0.  0.
         25    1    1    2    0    0 -0.11809563296E+03  0.86687806676E+02 -0.28424575817E+03  0.34333948999E+03  0.12500000000E+03 0.  0.
         25    1    1    2    0    0  0.45599198646E+02  0.13783347893E+03  0.88447640552E+02  0.21101028399E+03  0.12500000000E+03 0.  0.
</event>
<event>
 5    0  0.5612316E-005  0.4042006E+03  0.7546771E-02  0.1042335E+00
         21   -1    0    0  502  501  0.00000000000E+00  0.00000000000E+00  0.78880096241E+03  0.78880096241E+03  0.00000000000E+00 0. -1.
         21   -1    0    0  501  502 -0.00000000000E+00 -0.00000000000E+00 -0.20712211286E+03  0.20712211286E+03  0.00000000000E+00 0. -1.
         25    1    1    2    0    0 -0.12392599168E+03  0.16672284423E+03  0.50773939425E+03  0.56265304645E+03  0.12500000000E+03 0.  0.
         25    1    1    2    0    0  0.23197217957E+02 -0.10507129635E+03  0.16952857599E+03  0.23652278181E+03  0.12500000000E+03 0.  0.
         25    1    1    2    0    0  0.10072877372E+03 -0.61651547881E+02 -0.95589120686E+02  0.19674724701E+03  0.12500000000E+03 0.  0.
</event>
<event>
 5    0  0.5612316E-005  0.2234735E+03  0.7546771E-02  0.1131320E+00
         21   -1    0    0  502  501  0.00000000000E+00  0.00000000000E+00  0.12005633543E+04  0.12005633543E+04  0.00000000000E+00 0.  1.
         21   -1    0    0  501  502 -0.00000000000E+00 -0.00000000000E+00 -0.41597458979E+02  0.41597458979E+02  0.00000000000E+00 0.  1.
         25    1    1    2    0    0  0.27868344091E+01 -0.34947628661E+02  0.25879697668E+03  0.28953407111E+03  0.12500000000E+03 0.  0.
         25    1    1    2    0    0  0.88154789213E+01  0.21021024121E+02  0.72850271120E+03  0.73950036940E+03  0.12500000000E+03 0.  0.
         25    1    1    2    0    0 -0.11602313330E+02  0.13926604540E+02  0.17166620742E+03  0.21312637275E+03  0.12500000000E+03 0.  0.
</event>
<event>
 5    0  0.5612316E-005  0.2520509E+03  0.7546771E-02  0.1112016E+00
         21   -1    0    0  502  501  0.00000000000E+00  0.00000000000E+00  0.51955960265E+02  0.51955960265E+02  0.00000000000E+00 0.  1.
         21   -1    0    0  501  502 -0.00000000000E+00 -0.00000000000E+00 -0.12227594263E+04  0.12227594263E+04  0.00000000000E+00 0.  1.
         25    1    1    2    0    0 -0.73830065066E+01  0.10842591954E+03 -0.61917940326E+03  0.64095149757E+03  0.12500000000E+03 0.  0.
         25    1    1    2    0    0 -0.67838587011E+02 -0.36267145820E+02 -0.30182761368E+03  0.33562224023E+03  0.12500000000E+03 0.  0.
         25    1    1    2    0    0  0.75221593518E+02 -0.72158773722E+02 -0.24979644914E+03  0.29814164882E+03  0.12500000000E+03 0.  0.
</event>
<event>
 5    0  0.5612316E-005  0.4145034E+03  0.7546771E-02  0.1038870E+00
         21   -1    0    0  502  501  0.00000000000E+00  0.00000000000E+00  0.10925204767E+04  0.10925204767E+04  0.00000000000E+00 0.  1.
         21   -1    0    0  501  502 -0.00000000000E+00 -0.00000000000E+00 -0.15726303070E+03  0.15726303070E+03  0.00000000000E+00 0.  1.
         25    1    1    2    0    0  0.36741558321E+02  0.29907046888E+03  0.25203543805E+03  0.41223773420E+03  0.12500000000E+03 0.  0.
         25    1    1    2    0    0 -0.27675170266E+01 -0.22462802465E+03  0.62744956256E+03  0.67807327198E+03  0.12500000000E+03 0.  0.
         25    1    1    2    0    0 -0.33974041294E+02 -0.74442444226E+02  0.55772445407E+02  0.15947250124E+03  0.12500000000E+03 0.  0.
</event>
<event>
 5    0  0.5612316E-005  0.2495707E+03  0.7546771E-02  0.1113576E+00
         21   -1    0    0  502  501  0.00000000000E+00  0.00000000000E+00  0.29042943240E+03  0.29042943240E+03  0.00000000000E+00 0.  1.
         21   -1    0    0  501  502 -0.00000000000E+00 -0.00000000000E+00 -0.21446007104E+03  0.21446007104E+03  0.00000000000E+00 0.  1.
         25    1    1    2    0    0 -0.16150988155E+02 -0.64507198677E+02  0.64463771639E+02  0.15557188356E+03  0.12500000000E+03 0.  0.
         25    1    1    2    0    0 -0.84479253012E+02 -0.34354747739E+02  0.37070341515E+02  0.15911066307E+03  0.12500000000E+03 0.  0.
         25    1    1    2    0    0  0.10063024117E+03  0.98861946417E+02 -0.25564751801E+02  0.19020695682E+03  0.12500000000E+03 0.  0.
</event>
<event>
 5    0  0.5612316E-005  0.4737185E+03  0.7546771E-02  0.1020876E+00
         21   -1    0    0  502  501  0.00000000000E+00  0.00000000000E+00  0.10241435048E+04  0.10241435048E+04  0.00000000000E+00 0. -1.
         21   -1    0    0  501  502 -0.00000000000E+00 -0.00000000000E+00 -0.21911892420E+03  0.21911892420E+03  0.00000000000E+00 0. -1.
         25    1    1    2    0    0  0.25100358370E+02  0.22297736141E+03  0.73929180504E+03  0.78264059740E+03  0.12500000000E+03 0.  0.
         25    1    1    2    0    0  0.87039191932E+02 -0.12838535223E+03 -0.84361974335E+02  0.21633437617E+03  0.12500000000E+03 0.  0.
         25    1    1    2    0    0 -0.11213955030E+03 -0.94592009175E+02  0.15009474994E+03  0.24428745547E+03  0.12500000000E+03 0.  0.
</event>
<event>
 5    0  0.5612316E-005  0.3230535E+03  0.7546771E-02  0.1074252E+00
         21   -1    0    0  502  501  0.00000000000E+00  0.00000000000E+00  0.23517408365E+03  0.23517408365E+03  0.00000000000E+00 0. -1.
         21   -1    0    0  501  502 -0.00000000000E+00 -0.00000000000E+00 -0.44377162187E+03  0.44377162187E+03  0.00000000000E+00 0. -1.
         25    1    1    2    0    0  0.75603997987E+02 -0.21935972953E+02  0.94961317439E+02  0.17561265111E+03  0.12500000000E+03 0.  0.
         25    1    1    2    0    0 -0.19051535989E+03  0.19798424850E+02 -0.20408812034E+03  0.30653717694E+03  0.12500000000E+03 0.  0.
         25    1    1    2    0    0  0.11491136190E+03  0.21375481023E+01 -0.99470735314E+02  0.19679587747E+03  0.12500000000E+03 0.  0.
</event>
<event>
 5    0  0.5612316E-005  0.3121796E+03  0.7546771E-02  0.1079306E+00
         21   -1    0    0  502  501  0.00000000000E+00  0.00000000000E+00  0.28229116480E+03  0.28229116480E+03  0.00000000000E+00 0.  1.
         21   -1    0    0  501  502 -0.00000000000E+00 -0.00000000000E+00 -0.34523255197E+03  0.34523255197E+03  0.00000000000E+00 0.  1.
         25    1    1    2    0    0  0.10720503689E+02 -0.15376709328E+03  0.11856469465E+03  0.23117490130E+03  0.12500000000E+03 0.  0.
         25    1    1    2    0    0  0.90847620760E+02  0.77784939968E+02 -0.10620146267E+03  0.20299639838E+03  0.12500000000E+03 0.  0.
         25    1    1    2    0    0 -0.10156812445E+03  0.75982153313E+02 -0.75304619154E+02  0.19335241708E+03  0.12500000000E+03 0.  0.
</event>
<event>
 5    0  0.5612316E-005  0.3376597E+03  0.7546771E-02  0.1067797E+00
         21   -1    0    0  502  501  0.00000000000E+00  0.00000000000E+00  0.71640781826E+03  0.71640781826E+03  0.00000000000E+00 0. -1.
         21   -1    0    0  501  502 -0.00000000000E+00 -0.00000000000E+00 -0.15914689043E+03  0.15914689043E+03  0.00000000000E+00 0. -1.
         25    1    1    2    0    0  0.29037955692E+02 -0.19182460339E+03  0.20598538875E+03  0.30934586100E+03  0.12500000000E+03 0.  0.
         25    1    1    2    0    0  0.74975734228E+01  0.15948147248E+03  0.14037404532E+02  0.20325501814E+03  0.12500000000E+03 0.  0.
         25    1    1    2    0    0 -0.36535529115E+02  0.32343130911E+02  0.33723813454E+03  0.36295382956E+03  0.12500000000E+03 0.  0.
</event>
<event>
 5    0  0.6110151E-005  0.2832708E+03  0.7546771E-02  0.1093916E+00
         21   -1    0    0  502  501  0.00000000000E+00  0.00000000000E+00  0.10341512366E+03  0.10341512366E+03  0.00000000000E+00 0. -1.
         21   -1    0    0  501  502 -0.00000000000E+00 -0.00000000000E+00 -0.77592491083E+03  0.77592491083E+03  0.00000000000E+00 0. -1.
         25    1    1    2    0    0 -0.85947227255E+02  0.14517284732E+03 -0.14612698383E+03  0.25581277700E+03  0.12500000000E+03 0.  0.
         25    1    1    2    0    0  0.23285283569E+02 -0.10231686641E+03 -0.15791395796E+03  0.22709637536E+03  0.12500000000E+03 0.  0.
         25    1    1    2    0    0  0.62661943686E+02 -0.42855980906E+02 -0.36846884539E+03  0.39643088213E+03  0.12500000000E+03 0.  0.
</event>
<event>
 5    0  0.6654265E-005  0.2937993E+03  0.7546771E-02  0.1088382E+00
         21   -1    0    0  502  501  0.00000000000E+00  0.00000000000E+00  0.48092534441E+03  0.48092534441E+03  0.00000000000E+00 0.  1.
         21   -1    0    0  501  502 -0.00000000000E+00 -0.00000000000E+00 -0.17948326935E+03  0.17948326935E+03  0.00000000000E+00 0.  1.
         25    1    1    2    0    0 -0.22025769015E+01 -0.15305083203E+02 -0.63680573991E+02  0.14113579426E+03  0.12500000000E+03 0.  0.
         25    1    1    2    0    0 -0.22906212914E+02 -0.10314328529E+03  0.72935907956E+02  0.17918671424E+03  0.12500000000E+03 0.  0.
         25    1    1    2    0    0  0.25108789815E+02  0.11844836849E+03  0.29218674109E+03  0.34008610526E+03  0.12500000000E+03 0.  0.
</event>
<event>
 5    0  0.5612316E-005  0.2642554E+03  0.7546771E-02  0.1104613E+00
         21   -1    0    0  502  501  0.00000000000E+00  0.00000000000E+00  0.70876004262E+02  0.70876004262E+02  0.00000000000E+00 0. -1.
         21   -1    0    0  501  502 -0.00000000000E+00 -0.00000000000E+00 -0.98525436995E+03  0.98525436995E+03  0.00000000000E+00 0. -1.
         25    1    1    2    0    0 -0.75744223762E+02  0.91746583581E+01 -0.14049900056E+03  0.20294415722E+03  0.12500000000E+03 0.  0.
         25    1    1    2    0    0  0.11998860310E+03  0.19123650027E+02 -0.20847964222E+03  0.27175676640E+03  0.12500000000E+03 0.  0.
         25    1    1    2    0    0 -0.44244379335E+02 -0.28298308386E+02 -0.56539972291E+03  0.58142945060E+03  0.12500000000E+03 0.  0.
</event>
<event>
 5    0  0.5612316E-005  0.2954985E+03  0.7546771E-02  0.1087513E+00
         21   -1    0    0  502  501  0.00000000000E+00  0.00000000000E+00  0.95194635029E+03  0.95194635029E+03  0.00000000000E+00 0.  1.
         21   -1    0    0  501  502 -0.00000000000E+00 -0.00000000000E+00 -0.91727188355E+02  0.91727188355E+02  0.00000000000E+00 0.  1.
         25    1    1    2    0    0 -0.20694386577E+02 -0.51440319448E+01  0.24226841104E+02  0.12909941336E+03  0.12500000000E+03 0.  0.
         25    1    1    2    0    0 -0.11679545866E+03 -0.47719675824E+02  0.41095030429E+03  0.44768683164E+03  0.12500000000E+03 0.  0.
         25    1    1    2    0    0  0.13748984524E+03  0.52863707768E+02  0.42504201653E+03  0.46688729364E+03  0.12500000000E+03 0.  0.
</event>
<event>
 5    0  0.5612316E-005  0.2915990E+03  0.7546771E-02  0.1089517E+00
         21   -1    0    0  502  501  0.00000000000E+00  0.00000000000E+00  0.14544581184E+03  0.14544581184E+03  0.00000000000E+00 0. -1.
         21   -1    0    0  501  502 -0.00000000000E+00 -0.00000000000E+00 -0.58461619388E+03  0.58461619388E+03  0.00000000000E+00 0. -1.
         25    1    1    2    0    0  0.78315974559E+02 -0.66846158612E+02 -0.43273224105E+02  0.16762867510E+03  0.12500000000E+03 0.  0.
         25    1    1    2    0    0 -0.11264766430E+03  0.25612710542E+02 -0.31001902237E+02  0.17300758699E+03  0.12500000000E+03 0.  0.
         25    1    1    2    0    0  0.34331689745E+02  0.41233448069E+02 -0.36489525571E+03  0.38942574362E+03  0.12500000000E+03 0.  0.
</event>
<event>
 5    0  0.5612316E-005  0.3290585E+03  0.7546771E-02  0.1071554E+00
         21   -1    0    0  502  501  0.00000000000E+00  0.00000000000E+00  0.10523557610E+04  0.10523557610E+04  0.00000000000E+00 0.  1.
         21   -1    0    0  501  502 -0.00000000000E+00 -0.00000000000E+00 -0.10289248303E+03  0.10289248303E+03  0.00000000000E+00 0.  1.
         25    1    1    2    0    0 -0.90732427622E+02  0.42355812533E+02  0.57830057549E+03  0.60006911592E+03  0.12500000000E+03 0.  0.
         25    1    1    2    0    0  0.34416149170E+02  0.11110786779E+03  0.57755455593E+02  0.18025016577E+03  0.12500000000E+03 0.  0.
         25    1    1    2    0    0  0.56316278452E+02 -0.15346368032E+03  0.31340724691E+03  0.37492896236E+03  0.12500000000E+03 0.  0.
</event>
<event>
 5    0  0.5612316E-005  0.4038465E+03  0.7546771E-02  0.1042456E+00
         21   -1    0    0  502  501  0.00000000000E+00  0.00000000000E+00  0.17488558216E+03  0.17488558216E+03  0.00000000000E+00 0.  1.
         21   -1    0    0  501  502 -0.00000000000E+00 -0.00000000000E+00 -0.93256378776E+03  0.93256378776E+03  0.00000000000E+00 0.  1.
         25    1    1    2    0    0 -0.27329312967E+03  0.59491721867E+02 -0.14274316486E+03  0.33797782592E+03  0.12500000000E+03 0.  0.
         25    1    1    2    0    0  0.11640305522E+03 -0.39170616585E+02 -0.70479396821E+02  0.18888185155E+03  0.12500000000E+03 0.  0.
         25    1    1    2    0    0  0.15689007445E+03 -0.20321105282E+02 -0.54445564392E+03  0.58058969245E+03  0.12500000000E+03 0.  0.
</event>
<event>
 5    0  0.5612316E-005  0.2629301E+03  0.7546771E-02  0.1105395E+00
         21   -1    0    0  502  501  0.00000000000E+00  0.00000000000E+00  0.44634072224E+03  0.44634072224E+03  0.00000000000E+00 0.  1.
         21   -1    0    0  501  502 -0.00000000000E+00 -0.00000000000E+00 -0.15488668162E+03  0.15488668162E+03  0.00000000000E+00 0.  1.
         25    1    1    2    0    0 -0.59700261245E+02  0.27826292902E+02 -0.32508696167E+02  0.14498358216E+03  0.12500000000E+03 0.  0.
         25    1    1    2    0    0  0.10199764946E+03 -0.73094738308E+02  0.21898424102E+03  0.28164775710E+03  0.12500000000E+03 0.  0.
         25    1    1    2    0    0 -0.42297388213E+02  0.45268445406E+02  0.10497849578E+03  0.17459606460E+03  0.12500000000E+03 0.  0.
</event>
<event>
 5    0  0.5612316E-005  0.4049452E+03  0.7546771E-02  0.1042081E+00
         21   -1    0    0  502  501  0.00000000000E+00  0.00000000000E+00  0.57165912656E+03  0.57165912656E+03  0.00000000000E+00 0.  1.
         21   -1    0    0  501  502 -0.00000000000E+00 -0.00000000000E+00 -0.28685030470E+03  0.28685030470E+03  0.00000000000E+00 0.  1.
         25    1    1    2    0    0 -0.32771719663E+02  0.23990578461E+03 -0.12516828537E+03  0.29986808894E+03  0.12500000000E+03 0.  0.
         25    1    1    2    0    0 -0.26666859214E+02 -0.19604299132E+03  0.24312462823E+03  0.33745897628E+03  0.12500000000E+03 0.  0.
         25    1    1    2    0    0  0.59438578878E+02 -0.43862793299E+02  0.16685247901E+03  0.22118236604E+03  0.12500000000E+03 0.  0.
</event>
<event>
 5    0  0.5612316E-005  0.3500419E+03  0.7546771E-02  0.1062598E+00
         21   -1    0    0  502  501  0.00000000000E+00  0.00000000000E+00  0.45885618260E+03  0.45885618260E+03  0.00000000000E+00 0. -1.
         21   -1    0    0  501  502 -0.00000000000E+00 -0.00000000000E+00 -0.26703206934E+03  0.26703206934E+03  0.00000000000E+00 0. -1.
         25    1    1    2    0    0 -0.21891433852E+03  0.81743167638E+02  0.90231990071E+02  0.27995043329E+03  0.12500000000E+03 0.  0.
         25    1    1    2    0    0 -0.34337777015E+02 -0.51719479248E+00 -0.13503826815E+02  0.13033304938E+03  0.12500000000E+03 0.  0.
         25    1    1    2    0    0  0.25325211553E+03 -0.81225972846E+02  0.11509595000E+03  0.31560476928E+03  0.12500000000E+03 0.  0.
</event>
<event>
 5    0  0.5612316E-005  0.2366057E+03  0.7546771E-02  0.1122075E+00
         21   -1    0    0  502  501  0.00000000000E+00  0.00000000000E+00  0.31058542606E+02  0.31058542606E+02  0.00000000000E+00 0.  1.
         21   -1    0    0  501  502 -0.00000000000E+00 -0.00000000000E+00 -0.18024756647E+04  0.18024756647E+04  0.00000000000E+00 0.  1.
         25    1    1    2    0    0  0.15587215013E+02  0.68042242716E+02 -0.45302122261E+03  0.47510623676E+03  0.12500000000E+03 0.  0.
         25    1    1    2    0    0 -0.40540910277E+02 -0.89475164999E+02 -0.10325408878E+04  0.10447081198E+04  0.12500000000E+03 0.  0.
         25    1    1    2    0    0  0.24953695264E+02  0.21432922283E+02 -0.28585501171E+03  0.31371985079E+03  0.12500000000E+03 0.  0.
</event>
<event>
 5    0  0.5612316E-005  0.2469006E+03  0.7546771E-02  0.1115279E+00
         21   -1    0    0  502  501  0.00000000000E+00  0.00000000000E+00  0.32680767872E+03  0.32680767872E+03  0.00000000000E+00 0.  1.
         21   -1    0    0  501  502 -0.00000000000E+00 -0.00000000000E+00 -0.18653147703E+03  0.18653147703E+03  0.00000000000E+00 0.  1.
         25    1    1    2    0    0 -0.66187138897E+01  0.10265145665E+03  0.24631916891E+02  0.16374632898E+03  0.12500000000E+03 0.  0.
         25    1    1    2    0    0  0.47873370928E+02  0.23297776882E+01  0.12197073356E+03  0.18110534877E+03  0.12500000000E+03 0.  0.
         25    1    1    2    0    0 -0.41254657038E+02 -0.10498123434E+03 -0.63264487632E+01  0.16848747800E+03  0.12500000000E+03 0.  0.
</event>
<event>
 5    0  0.5612316E-005  0.2959309E+03  0.7546771E-02  0.1087293E+00
         21   -1    0    0  502  501  0.00000000000E+00  0.00000000000E+00  0.34249544747E+02  0.34249544747E+02  0.00000000000E+00 0. -1.
         21   -1    0    0  501  502 -0.00000000000E+00 -0.00000000000E+00 -0.25569708260E+04  0.25569708260E+04  0.00000000000E+00 0. -1.
         25    1    1    2    0    0  0.86489697846E+02  0.10109118500E+02 -0.12383631636E+04  0.12476982756E+04  0.12500000000E+03 0.  0.
         25    1    1    2    0    0 -0.40290960322E+02  0.11810170983E+03 -0.36178135007E+03  0.40259423817E+03  0.12500000000E+03 0.  0.
         25    1    1    2    0    0 -0.46198737524E+02 -0.12821082833E+03 -0.92257676765E+03  0.94092785698E+03  0.12500000000E+03 0.  0.
</event>
<event>
 5    0  0.5612316E-005  0.3248161E+03  0.7546771E-02  0.1073454E+00
         21   -1    0    0  502  501  0.00000000000E+00  0.00000000000E+00  0.22642091554E+03  0.22642091554E+03  0.00000000000E+00 0. -1.
         21   -1    0    0  501  502 -0.00000000000E+00 -0.00000000000E+00 -0.46597062109E+03  0.46597062109E+03  0.00000000000E+00 0. -1.
         25    1    1    2    0    0 -0.13853740424E+03 -0.52920781934E+02 -0.20333470710E+03  0.28100395842E+03  0.12500000000E+03 0.  0.
         25    1    1    2    0    0  0.16600266369E+03  0.73288591703E+02 -0.12590832381E+03  0.25378338801E+03  0.12500000000E+03 0.  0.
         25    1    1    2    0    0 -0.27465259443E+02 -0.20367809769E+02  0.89693325365E+02  0.15760419019E+03  0.12500000000E+03 0.  0.
</event>
<event>
 5    0  0.5612316E-005  0.2389745E+03  0.7546771E-02  0.1120478E+00
         21   -1    0    0  502  501  0.00000000000E+00  0.00000000000E+00  0.65950441060E+03  0.65950441060E+03  0.00000000000E+00 0.  1.
         21   -1    0    0  501  502 -0.00000000000E+00 -0.00000000000E+00 -0.86593497992E+02  0.86593497992E+02  0.00000000000E+00 0.  1.
         25    1    1    2    0    0 -0.58351806570E+02  0.46118031016E+02  0.76408275331E+02  0.16430164532E+03  0.12500000000E+03 0.  0.
         25    1    1    2    0    0  0.36726799147E+02  0.39690716294E+02  0.32199345057E+03  0.34961263270E+03  0.12500000000E+03 0.  0.
         25    1    1    2    0    0  0.21625007422E+02 -0.85808747310E+02  0.17450918671E+03  0.23218363057E+03  0.12500000000E+03 0.  0.
</event>
<event>
 5    0  0.5612316E-005  0.2353498E+03  0.7546771E-02  0.1122930E+00
         21   -1    0    0  502  501  0.00000000000E+00  0.00000000000E+00  0.23502663485E+03  0.23502663485E+03  0.00000000000E+00 0. -1.
         21   -1    0    0  501  502 -0.00000000000E+00 -0.00000000000E+00 -0.23567336579E+03  0.23567336579E+03  0.00000000000E+00 0. -1.
         25    1    1    2    0    0  0.11906826944E+03 -0.32324586685E+02 -0.11001577177E+01  0.17563696092E+03  0.12500000000E+03 0.  0.
         25    1    1    2    0    0 -0.99984617345E+02  0.20276546610E+02  0.31287363385E+02  0.16435315986E+03  0.12500000000E+03 0.  0.
         25    1    1    2    0    0 -0.19083652099E+02  0.12048040075E+02 -0.30833936612E+02  0.13070987986E+03  0.12500000000E+03 0.  0.
</event>
<event>
 5    0  0.5612316E-005  0.3770288E+03  0.7546771E-02  0.1052037E+00
         21   -1    0    0  502  501  0.00000000000E+00  0.00000000000E+00  0.37527036950E+03  0.37527036950E+03  0.00000000000E+00 0.  1.
         21   -1    0    0  501  502 -0.00000000000E+00 -0.00000000000E+00 -0.37879555182E+03  0.37879555182E+03  0.00000000000E+00 0.  1.
         25    1    1    2    0    0  0.10375846832E+03  0.16581862333E+03  0.11716470481E+03  0.26002731327E+03  0.12500000000E+03 0.  0.
         25    1    1    2    0    0  0.12109269435E+02  0.97922619150E+02 -0.77346830675E+02  0.17703956045E+03  0.12500000000E+03 0.  0.
         25    1    1    2    0    0 -0.11586773775E+03 -0.26374124248E+03 -0.43343056459E+02  0.31699904760E+03  0.12500000000E+03 0.  0.
</event>
<event>
 5    0  0.5612316E-005  0.2425795E+03  0.7546771E-02  0.1118086E+00
         21   -1    0    0  502  501  0.00000000000E+00  0.00000000000E+00  0.39602641769E+03  0.39602641769E+03  0.00000000000E+00 0.  1.
         21   -1    0    0  501  502 -0.00000000000E+00 -0.00000000000E+00 -0.14858808513E+03  0.14858808513E+03  0.00000000000E+00 0.  1.
         25    1    1    2    0    0  0.16560327517E+02 -0.55866503187E+02  0.28435238474E+02  0.14081503262E+03  0.12500000000E+03 0.  0.
         25    1    1    2    0    0 -0.57754582495E+02  0.91606715562E+02  0.25912890663E+02  0.16740328562E+03  0.12500000000E+03 0.  0.
         25    1    1    2    0    0  0.41194254978E+02 -0.35740212376E+02  0.19309020342E+03  0.23639618457E+03  0.12500000000E+03 0.  0.
</event>
<event>
 5    0  0.5612316E-005  0.2049635E+03  0.7546771E-02  0.1145618E+00
         21   -1    0    0  502  501  0.00000000000E+00  0.00000000000E+00  0.21478497867E+03  0.21478497867E+03  0.00000000000E+00 0.  1.
         21   -1    0    0  501  502 -0.00000000000E+00 -0.00000000000E+00 -0.19559107722E+03  0.19559107722E+03  0.00000000000E+00 0.  1.
         25    1    1    2    0    0  0.49622530288E+02  0.17735786216E+00  0.21210852080E+02  0.13615185351E+03  0.12500000000E+03 0.  0.
         25    1    1    2    0    0 -0.16308107749E+02 -0.49813678891E+02  0.29390815738E+01  0.13557652888E+03  0.12500000000E+03 0.  0.
         25    1    1    2    0    0 -0.33314422539E+02  0.49636321028E+02 -0.49560322037E+01  0.13864767351E+03  0.12500000000E+03 0.  0.
</event>
<event>
 5    0  0.5612316E-005  0.3685469E+03  0.7546771E-02  0.1055250E+00
         21   -1    0    0  502  501  0.00000000000E+00  0.00000000000E+00  0.14093939963E+04  0.14093939963E+04  0.00000000000E+00 0.  1.
         21   -1    0    0  501  502 -0.00000000000E+00 -0.00000000000E+00 -0.96372476472E+02  0.96372476472E+02  0.00000000000E+00 0.  1.
         25    1    1    2    0    0 -0.10776715407E+03  0.35095004098E+02  0.66283053808E+02  0.18128392657E+03  0.12500000000E+03 0.  0.
         25    1    1    2    0    0 -0.14414471201E+02  0.12535778384E+02  0.93918429749E+02  0.15751379040E+03  0.12500000000E+03 0.  0.
         25    1    1    2    0    0  0.12218162527E+03 -0.47630782482E+02  0.11528200363E+04  0.11669687558E+04  0.12500000000E+03 0.  0.
</event>
<event>
 5    0  0.5612316E-005  0.2765740E+03  0.7546771E-02  0.1097575E+00
         21   -1    0    0  502  501  0.00000000000E+00  0.00000000000E+00  0.20406576265E+03  0.20406576265E+03  0.00000000000E+00 0. -1.
         21   -1    0    0  501  502 -0.00000000000E+00 -0.00000000000E+00 -0.37484582384E+03  0.37484582384E+03  0.00000000000E+00 0. -1.
         25    1    1    2    0    0 -0.39646262776E+02 -0.88241539461E+02  0.48476055522E+02  0.16532792685E+03  0.12500000000E+03 0.  0.
         25    1    1    2    0    0  0.78188047244E+02 -0.48933911789E+02 -0.13635485818E+03  0.20670158636E+03  0.12500000000E+03 0.  0.
         25    1    1    2    0    0 -0.38541784468E+02  0.13717545125E+03 -0.82901258534E+02  0.20688207327E+03  0.12500000000E+03 0.  0.
</event>
<event>
 5    0  0.5612316E-005  0.3269043E+03  0.7546771E-02  0.1072515E+00
         21   -1    0    0  502  501  0.00000000000E+00  0.00000000000E+00  0.35543802717E+03  0.35543802717E+03  0.00000000000E+00 0. -1.
         21   -1    0    0  501  502 -0.00000000000E+00 -0.00000000000E+00 -0.30066119379E+03  0.30066119379E+03  0.00000000000E+00 0. -1.
         25    1    1    2    0    0  0.37387279803E+02 -0.13780088662E+03 -0.87719553229E+02  0.20906126629E+03  0.12500000000E+03 0.  0.
         25    1    1    2    0    0  0.18529910104E+02 -0.86244129931E+02  0.11036253306E+02  0.15338906872E+03  0.12500000000E+03 0.  0.
         25    1    1    2    0    0 -0.55917189907E+02  0.22404501656E+03  0.13146013331E+03  0.29364888595E+03  0.12500000000E+03 0.  0.
</event>
<event>
 5    0  0.5612316E-005  0.2614781E+03  0.7546771E-02  0.1106258E+00
         21   -1    0    0  502  501  0.00000000000E+00  0.00000000000E+00  0.21367053896E+03  0.21367053896E+03  0.00000000000E+00 0.  1.
         21   -1    0    0  501  502 -0.00000000000E+00 -0.00000000000E+00 -0.31998237686E+03  0.31998237686E+03  0.00000000000E+00 0.  1.
         25    1    1    2    0    0  0.51779156741E+02 -0.10781134576E+03 -0.36256136332E+02  0.17675936968E+03  0.12500000000E+03 0.  0.
         25    1    1    2    0    0 -0.38091885788E+01  0.17142751185E+02 -0.13300948258E+03  0.18337095270E+03  0.12500000000E+03 0.  0.
         25    1    1    2    0    0 -0.47969968162E+02  0.90668594580E+02  0.62953781017E+02  0.17352259344E+03  0.12500000000E+03 0.  0.
</event>
<event>
 5    0  0.5612316E-005  0.2836237E+03  0.7546771E-02  0.1093726E+00
         21   -1    0    0  502  501  0.00000000000E+00  0.00000000000E+00  0.75476640736E+03  0.75476640736E+03  0.00000000000E+00 0. -1.
         21   -1    0    0  501  502 -0.00000000000E+00 -0.00000000000E+00 -0.10657923794E+03  0.10657923794E+03  0.00000000000E+00 0. -1.
         25    1    1    2    0    0  0.46564205104E+02 -0.14771414682E+02  0.21497035071E+03  0.25342389701E+03  0.12500000000E+03 0.  0.
         25    1    1    2    0    0 -0.43091840787E+02 -0.18178933865E+02 -0.21491604367E+02  0.13518235623E+03  0.12500000000E+03 0.  0.
         25    1    1    2    0    0 -0.34723643169E+01  0.32950348548E+02  0.45470842307E+03  0.47273939205E+03  0.12500000000E+03 0.  0.
</event>
<event>
 5    0  0.5612316E-005  0.3389996E+03  0.7546771E-02  0.1067223E+00
         21   -1    0    0  502  501  0.00000000000E+00  0.00000000000E+00  0.91881408177E+03  0.91881408177E+03  0.00000000000E+00 0.  1.
         21   -1    0    0  501  502 -0.00000000000E+00 -0.00000000000E+00 -0.12507504194E+03  0.12507504194E+03  0.00000000000E+00 0.  1.
         25    1    1    2    0    0 -0.92484613131E+02 -0.18350133792E+02  0.49781929307E+03  0.52186126473E+03  0.12500000000E+03 0.  0.
         25    1    1    2    0    0  0.88474686639E+02 -0.15358329281E+03  0.13617076837E+03  0.25609192912E+03  0.12500000000E+03 0.  0.
         25    1    1    2    0    0  0.40099264919E+01  0.17193342660E+03  0.15974897839E+03  0.26593592986E+03  0.12500000000E+03 0.  0.
</event>
<event>
 5    0  0.5612316E-005  0.2668376E+03  0.7546771E-02  0.1103103E+00
         21   -1    0    0  502  501  0.00000000000E+00  0.00000000000E+00  0.21774838745E+03  0.21774838745E+03  0.00000000000E+00 0. -1.
         21   -1    0    0  501  502 -0.00000000000E+00 -0.00000000000E+00 -0.32699341643E+03  0.32699341643E+03  0.00000000000E+00 0. -1.
         25    1    1    2    0    0 -0.39355019994E+02 -0.64798869927E+02 -0.10926283718E+03  0.18251322892E+03  0.12500000000E+03 0.  0.
         25    1    1    2    0    0 -0.50855086783E+00 -0.93297913926E+02  0.11933034536E+02  0.15643579092E+03  0.12500000000E+03 0.  0.
         25    1    1    2    0    0  0.39863570862E+02  0.15809678385E+03 -0.11915226341E+02  0.20579278405E+03  0.12500000000E+03 0.  0.
</event>
<event>
 5    0  0.5612316E-005  0.2325591E+03  0.7546771E-02  0.1124851E+00
         21   -1    0    0  502  501  0.00000000000E+00  0.00000000000E+00  0.53464434873E+03  0.53464434873E+03  0.00000000000E+00 0.  1.
         21   -1    0    0  501  502 -0.00000000000E+00 -0.00000000000E+00 -0.10115836094E+03  0.10115836094E+03  0.00000000000E+00 0.  1.
         25    1    1    2    0    0 -0.47790263475E+02 -0.99612006947E+02  0.15935315047E+03  0.23070519668E+03  0.12500000000E+03 0.  0.
         25    1    1    2    0    0  0.69657698124E+02  0.84247371151E+02  0.12011088358E+03  0.20494252562E+03  0.12500000000E+03 0.  0.
         25    1    1    2    0    0 -0.21867434648E+02  0.15364635796E+02  0.15402195374E+03  0.20015498736E+03  0.12500000000E+03 0.  0.
</event>
<event>
 5    0  0.5612316E-005  0.4320169E+03  0.7546771E-02  0.1033225E+00
         21   -1    0    0  502  501  0.00000000000E+00  0.00000000000E+00  0.96549833293E+03  0.96549833293E+03  0.00000000000E+00 0.  1.
         21   -1    0    0  501  502 -0.00000000000E+00 -0.00000000000E+00 -0.19330802786E+03  0.19330802786E+03  0.00000000000E+00 0.  1.
         25    1    1    2    0    0 -0.15796155878E+03  0.10934285736E+03  0.74299693361E+02  0.24094223154E+03  0.12500000000E+03 0.  0.
         25    1    1    2    0    0 -0.89536349434E+01 -0.28912212840E+03  0.43534505715E+03  0.53742170731E+03  0.12500000000E+03 0.  0.
         25    1    1    2    0    0  0.16691519372E+03  0.17977927104E+03  0.26254555457E+03  0.38044242194E+03  0.12500000000E+03 0.  0.
</event>
<event>
 5    0  0.5612316E-005  0.4327327E+03  0.7546771E-02  0.1033000E+00
         21   -1    0    0  502  501  0.00000000000E+00  0.00000000000E+00  0.14716728905E+03  0.14716728905E+03  0.00000000000E+00 0.  1.
         21   -1    0    0  501  502 -0.00000000000E+00 -0.00000000000E+00 -0.12724132437E+04  0.12724132437E+04  0.00000000000E+00 0.  1.
         25    1    1    2    0    0  0.27224152185E+03  0.54454927380E+02 -0.29932539588E+03  0.42696777156E+03  0.12500000000E+03 0.  0.
         25    1    1    2    0    0 -0.91929074922E+02 -0.21854004600E+03 -0.32128421920E+03  0.41840083177E+03  0.12500000000E+03 0.  0.
         25    1    1    2    0    0 -0.18031244693E+03  0.16408511862E+03 -0.50463633956E+03  0.57421192941E+03  0.12500000000E+03 0.  0.
</event>
<event>
 5    0  0.5612316E-005  0.3729633E+03  0.7546771E-02  0.1053566E+00
         21   -1    0    0  502  501  0.00000000000E+00  0.00000000000E+00  0.63830021946E+03  0.63830021946E+03  0.00000000000E+00 0. -1.
         21   -1    0    0  501  502 -0.00000000000E+00 -0.00000000000E+00 -0.21792503703E+03  0.21792503703E+03  0.00000000000E+00 0. -1.
         25    1    1    2    0    0  0.16061210348E-02 -0.11626741299E+03  0.23724439031E+03  0.29228070765E+03  0.12500000000E+03 0.  0.
         25    1    1    2    0    0 -0.13862142618E+02 -0.15154369612E+03  0.18187666084E+03  0.26807045826E+03  0.12500000000E+03 0.  0.
         25    1    1    2    0    0  0.13860536497E+02  0.26781110911E+03  0.12541312798E+01  0.29587409059E+03  0.12500000000E+03 0.  0.
</event>
<event>
 5    0  0.5612316E-005  0.2547746E+03  0.7546771E-02  0.1110324E+00
         21   -1    0    0  502  501  0.00000000000E+00  0.00000000000E+00  0.10395720924E+03  0.10395720924E+03  0.00000000000E+00 0.  1.
         21   -1    0    0  501  502 -0.00000000000E+00 -0.00000000000E+00 -0.62439235420E+03  0.62439235420E+03  0.00000000000E+00 0.  1.
         25    1    1    2    0    0  0.30037635311E+02  0.11225178977E+02 -0.31188394837E+02  0.13276287188E+03  0.12500000000E+03 0.  0.
         25    1    1    2    0    0 -0.12771028953E+02 -0.41734039596E+02 -0.43532014260E+03  0.45500929199E+03  0.12500000000E+03 0.  0.
         25    1    1    2    0    0 -0.17266606358E+02  0.30508860619E+02 -0.53926607521E+02  0.14057739957E+03  0.12500000000E+03 0.  0.
</event>
<event>
 5    0  0.5612316E-005  0.2317886E+03  0.7546771E-02  0.1125387E+00
         21   -1    0    0  502  501  0.00000000000E+00  0.00000000000E+00  0.61083337327E+03  0.61083337327E+03  0.00000000000E+00 0. -1.
         21   -1    0    0  501  502 -0.00000000000E+00 -0.00000000000E+00 -0.87955156397E+02  0.87955156397E+02  0.00000000000E+00 0. -1.
         25    1    1    2    0    0 -0.21158115113E+01 -0.17546258185E+02  0.30458394928E+03  0.32971006960E+03  0.12500000000E+03 0.  0.
         25    1    1    2    0    0 -0.72010112015E+02  0.26353897184E+02  0.14440147997E+03  0.20580760809E+03  0.12500000000E+03 0.  0.
         25    1    1    2    0    0  0.74125923526E+02 -0.88076389989E+01  0.73892787616E+02  0.16327085198E+03  0.12500000000E+03 0.  0.
</event>
<event>
 5    0  0.5612316E-005  0.2929073E+03  0.7546771E-02  0.1088841E+00
         21   -1    0    0  502  501  0.00000000000E+00  0.00000000000E+00  0.86499719886E+03  0.86499719886E+03  0.00000000000E+00 0. -1.
         21   -1    0    0  501  502 -0.00000000000E+00 -0.00000000000E+00 -0.99184902069E+02  0.99184902069E+02  0.00000000000E+00 0. -1.
         25    1    1    2    0    0  0.88056392900E+02 -0.10604839687E+03  0.52959156503E+03  0.56133093319E+03  0.12500000000E+03 0.  0.
         25    1    1    2    0    0 -0.11646977711E+03  0.71161193246E+02  0.18134010170E+03  0.25911070393E+03  0.12500000000E+03 0.  0.
         25    1    1    2    0    0  0.28413384213E+02  0.34887203623E+02  0.54880630057E+02  0.14374046380E+03  0.12500000000E+03 0.  0.
</event>
<event>
 5    0  0.5612316E-005  0.3161590E+03  0.7546771E-02  0.1077431E+00
         21   -1    0    0  502  501  0.00000000000E+00  0.00000000000E+00  0.15794485459E+03  0.15794485459E+03  0.00000000000E+00 0. -1.
         21   -1    0    0  501  502 -0.00000000000E+00 -0.00000000000E+00 -0.63285693906E+03  0.63285693906E+03  0.00000000000E+00 0. -1.
         25    1    1    2    0    0 -0.35888067675E+02  0.31736126843E+00 -0.99088633717E+02  0.16349804724E+03  0.12500000000E+03 0.  0.
         25    1    1    2    0    0 -0.73020011793E+02  0.30788988337E+02  0.60208615761E+02  0.15978097927E+03  0.12500000000E+03 0.  0.
         25    1    1    2    0    0  0.10890807947E+03 -0.31106349605E+02 -0.43603206651E+03  0.46752276713E+03  0.12500000000E+03 0.  0.
</event>
<event>
 5    0  0.5612316E-005  0.4121844E+03  0.7546771E-02  0.1039640E+00
         21   -1    0    0  502  501  0.00000000000E+00  0.00000000000E+00  0.93381843085E+02  0.93381843085E+02  0.00000000000E+00 0.  1.
         21   -1    0    0  501  502 -0.00000000000E+00 -0.00000000000E+00 -0.18193686392E+04  0.18193686392E+04  0.00000000000E+00 0.  1.
         25    1    1    2    0    0 -0.30321519776E+03  0.10531993305E+03 -0.51221632458E+03  0.61727004432E+03  0.12500000000E+03 0.  0.
         25    1    1    2    0    0  0.67521078712E+02 -0.11300235039E+03 -0.40539002913E+03  0.44417868362E+03  0.12500000000E+03 0.  0.
         25    1    1    2    0    0  0.23569411905E+03  0.76824173427E+01 -0.80838044245E+03  0.85130175439E+03  0.12500000000E+03 0.  0.
</event>
<event>
 5    0  0.5612316E-005  0.5106015E+03  0.7546771E-02  0.1011048E+00
         21   -1    0    0  502  501  0.00000000000E+00  0.00000000000E+00  0.13217455892E+03  0.13217455892E+03  0.00000000000E+00 0. -1.
         21   -1    0    0  501  502 -0.00000000000E+00 -0.00000000000E+00 -0.19724966923E+04  0.19724966923E+04  0.00000000000E+00 0. -1.
         25    1    1    2    0    0  0.40589595127E+03 -0.14338875547E+03 -0.10896914717E+04  0.11782887430E+04  0.12500000000E+03 0.  0.
         25    1    1    2    0    0 -0.28405828539E+03  0.14158441263E+03 -0.62251980511E+03  0.70985291656E+03  0.12500000000E+03 0.  0.
         25    1    1    2    0    0 -0.12183766588E+03  0.18043428405E+01 -0.12811085659E+03  0.21652959164E+03  0.12500000000E+03 0.  0.
</event>
<event>
 5    0  0.5612316E-005  0.2125864E+03  0.7546771E-02  0.1139534E+00
         21   -1    0    0  502  501  0.00000000000E+00  0.00000000000E+00  0.17860018087E+04  0.17860018087E+04  0.00000000000E+00 0.  1.
         21   -1    0    0  501  502 -0.00000000000E+00 -0.00000000000E+00 -0.25304004905E+02  0.25304004905E+02  0.00000000000E+00 0.  1.
         25    1    1    2    0    0  0.30842853334E+02  0.33191342046E+02  0.56467061023E+03  0.58011278631E+03  0.12500000000E+03 0.  0.
         25    1    1    2    0    0 -0.49404108154E+02 -0.39964743501E+02  0.37288478585E+03  0.39837922905E+03  0.12500000000E+03 0.  0.
         25    1    1    2    0    0  0.18561254820E+02  0.67734014554E+01  0.82314240768E+03  0.83281379820E+03  0.12500000000E+03 0.  0.
</event>
<event>
 5    0  0.5612316E-005  0.3300230E+03  0.7546771E-02  0.1071127E+00
         21   -1    0    0  502  501  0.00000000000E+00  0.00000000000E+00  0.26499035395E+03  0.26499035395E+03  0.00000000000E+00 0. -1.
         21   -1    0    0  501  502 -0.00000000000E+00 -0.00000000000E+00 -0.41101567910E+03  0.41101567910E+03  0.00000000000E+00 0. -1.
         25    1    1    2    0    0 -0.24576120001E+02 -0.89601711705E+02 -0.30448304472E+03  0.34200493700E+03  0.12500000000E+03 0.  0.
         25    1    1    2    0    0  0.35610413954E+02  0.99294459326E+02  0.60052106913E+02  0.17423761586E+03  0.12500000000E+03 0.  0.
         25    1    1    2    0    0 -0.11034293952E+02 -0.96927476206E+01  0.98405612655E+02  0.15976348019E+03  0.12500000000E+03 0.  0.
</event>
<event>
 5    0  0.5612316E-005  0.2804325E+03  0.7546771E-02  0.1095453E+00
         21   -1    0    0  502  501  0.00000000000E+00  0.00000000000E+00  0.21774883486E+03  0.21774883486E+03  0.00000000000E+00 0. -1.
         21   -1    0    0  501  502 -0.00000000000E+00 -0.00000000000E+00 -0.36116090252E+03  0.36116090252E+03  0.00000000000E+00 0. -1.
         25    1    1    2    0    0  0.41016853282E+02 -0.34832020144E+02 -0.18580929562E+03  0.23031662168E+03  0.12500000000E+03 0.  0.
         25    1    1    2    0    0 -0.16665066885E+02  0.13328902942E+03  0.61618170082E+01  0.18359373030E+03  0.12500000000E+03 0.  0.
         25    1    1    2    0    0 -0.24351786397E+02 -0.98457009273E+02  0.36235410954E+02  0.16499938540E+03  0.12500000000E+03 0.  0.
</event>
<event>
 5    0  0.5860156E-005  0.3538194E+03  0.7546771E-02  0.1061058E+00
         21   -1    0    0  502  501  0.00000000000E+00  0.00000000000E+00  0.27589728030E+03  0.27589728030E+03  0.00000000000E+00 0.  1.
         21   -1    0    0  501  502 -0.00000000000E+00 -0.00000000000E+00 -0.45374927652E+03  0.45374927652E+03  0.00000000000E+00 0.  1.
         25    1    1    2    0    0 -0.39398790312E+02  0.15271485595E+03 -0.86865006770E+02  0.21919083308E+03  0.12500000000E+03 0.  0.
         25    1    1    2    0    0 -0.93145057529E+02 -0.12006756937E+03 -0.21205725335E+03  0.28928446494E+03  0.12500000000E+03 0.  0.
         25    1    1    2    0    0  0.13254384784E+03 -0.32647286585E+02  0.12107026390E+03  0.22117125881E+03  0.12500000000E+03 0.  0.
</event>
<event>
 5    0  0.5754274E-005  0.3478692E+03  0.7546771E-02  0.1063493E+00
         21   -1    0    0  502  501  0.00000000000E+00  0.00000000000E+00  0.70033255481E+03  0.70033255481E+03  0.00000000000E+00 0.  1.
         21   -1    0    0  501  502 -0.00000000000E+00 -0.00000000000E+00 -0.17279358299E+03  0.17279358299E+03  0.00000000000E+00 0.  1.
         25    1    1    2    0    0  0.16837452422E+03 -0.20688933103E+03  0.20445975938E+03  0.35858328029E+03  0.12500000000E+03 0.  0.
         25    1    1    2    0    0 -0.14160483074E+03  0.87231471799E+02  0.24883649716E+03  0.32435452838E+03  0.12500000000E+03 0.  0.
         25    1    1    2    0    0 -0.26769693484E+02  0.11965785923E+03  0.74242715282E+02  0.19018832913E+03  0.12500000000E+03 0.  0.
</event>
<event>
 5    0  0.5612316E-005  0.3207589E+03  0.7546771E-02  0.1075301E+00
         21   -1    0    0  502  501  0.00000000000E+00  0.00000000000E+00  0.33979248671E+03  0.33979248671E+03  0.00000000000E+00 0.  1.
         21   -1    0    0  501  502 -0.00000000000E+00 -0.00000000000E+00 -0.30279139912E+03  0.30279139912E+03  0.00000000000E+00 0.  1.
         25    1    1    2    0    0  0.12903237754E+03 -0.62581455580E+00  0.80570677121E+02  0.19689179797E+03  0.12500000000E+03 0.  0.
         25    1    1    2    0    0  0.36488054445E+02  0.75666900784E+02 -0.13938338324E+03  0.20520620243E+03  0.12500000000E+03 0.  0.
         25    1    1    2    0    0 -0.16552043198E+03 -0.75041086228E+02  0.95813793709E+02  0.24048588543E+03  0.12500000000E+03 0.  0.
</event>
<event>
 5    0  0.5612316E-005  0.3894938E+03  0.7546771E-02  0.1047480E+00
         21   -1    0    0  502  501  0.00000000000E+00  0.00000000000E+00  0.94909428460E+02  0.94909428460E+02  0.00000000000E+00 0.  1.
         21   -1    0    0  501  502 -0.00000000000E+00 -0.00000000000E+00 -0.15984228012E+04  0.15984228012E+04  0.00000000000E+00 0.  1.
         25    1    1    2    0    0 -0.12264414088E+03  0.17397742834E+02 -0.57503812968E+02  0.18513766568E+03  0.12500000000E+03 0.  0.
         25    1    1    2    0    0  0.18990827246E+03 -0.11191077278E+03 -0.75234347637E+03  0.79387333967E+03  0.12500000000E+03 0.  0.
         25    1    1    2    0    0 -0.67264131577E+02  0.94513029944E+02 -0.69366608340E+03  0.71432122430E+03  0.12500000000E+03 0.  0.
</event>
<event>
 5    0  0.5612316E-005  0.2554034E+03  0.7546771E-02  0.1109937E+00
         21   -1    0    0  502  501  0.00000000000E+00  0.00000000000E+00  0.10262226267E+04  0.10262226267E+04  0.00000000000E+00 0.  1.
         21   -1    0    0  501  502 -0.00000000000E+00 -0.00000000000E+00 -0.63564081873E+02  0.63564081873E+02  0.00000000000E+00 0. -1.
         25    1    1    2    0    0 -0.33270254238E+02 -0.39452753963E+02  0.21943359076E+03  0.25775866690E+03  0.12500000000E+03 0.  0.
         25    1    1    2    0    0  0.96446272527E+01  0.15207677125E+03  0.31811421745E+03  0.37422188409E+03  0.12500000000E+03 0.  0.
         25    1    1    2    0    0  0.23625626985E+02 -0.11262401729E+03  0.42511073657E+03  0.45780615753E+03  0.12500000000E+03 0.  0.
</event>
<event>
 5    0  0.6210348E-005  0.2865516E+03  0.7546771E-02  0.1092163E+00
         21   -1    0    0  502  501  0.00000000000E+00  0.00000000000E+00  0.30727910591E+03  0.30727910591E+03  0.00000000000E+00 0.  1.
         21   -1    0    0  501  502 -0.00000000000E+00 -0.00000000000E+00 -0.26722224353E+03  0.26722224353E+03  0.00000000000E+00 0.  1.
         25    1    1    2    0    0  0.62986943656E+01 -0.10310930543E+03 -0.42996688713E+02  0.16776447078E+03  0.12500000000E+03 0.  0.
         25    1    1    2    0    0  0.97591656453E+02  0.14731856071E+03  0.98057277813E+02  0.23762811170E+03  0.12500000000E+03 0.  0.
         25    1    1    2    0    0 -0.10389035082E+03 -0.44209255284E+02 -0.15003726717E+02  0.16910876696E+03  0.12500000000E+03 0.  0.
</event>
<event>
 5    0  0.5612316E-005  0.3172740E+03  0.7546771E-02  0.1076911E+00
         21   -1    0    0  502  501  0.00000000000E+00  0.00000000000E+00  0.55122885710E+03  0.55122885710E+03  0.00000000000E+00 0. -1.
         21   -1    0    0  501  502 -0.00000000000E+00 -0.00000000000E+00 -0.18261528221E+03  0.18261528221E+03  0.00000000000E+00 0. -1.
         25    1    1    2    0    0  0.13517795185E+03  0.10519132725E+03  0.15646059953E+03  0.26352080221E+03  0.12500000000E+03 0.  0.
         25    1    1    2    0    0  0.27471197739E+02 -0.14506079307E+03  0.16915360964E+03  0.25697323605E+03  0.12500000000E+03 0.  0.
         25    1    1    2    0    0 -0.16264914959E+03  0.39869465824E+02  0.42999365725E+02  0.21335010105E+03  0.12500000000E+03 0.  0.
</event>
<event>
 5    0  0.5612316E-005  0.2433057E+03  0.7546771E-02  0.1117610E+00
         21   -1    0    0  502  501  0.00000000000E+00  0.00000000000E+00  0.34249505415E+03  0.34249505415E+03  0.00000000000E+00 0.  1.
         21   -1    0    0  501  502 -0.00000000000E+00 -0.00000000000E+00 -0.17284245021E+03  0.17284245021E+03  0.00000000000E+00 0.  1.
         25    1    1    2    0    0 -0.89307612273E+02  0.67357364887E+02  0.55481053447E+02  0.17668053516E+03  0.12500000000E+03 0.  0.
         25    1    1    2    0    0  0.85357032869E+02 -0.42298367133E+02 -0.14063459867E+02  0.15779022728E+03  0.12500000000E+03 0.  0.
         25    1    1    2    0    0  0.39505794035E+01 -0.25058997753E+02  0.12823501037E+03  0.18086674191E+03  0.12500000000E+03 0.  0.
</event>
<event>
 5    0  0.5612316E-005  0.2725637E+03  0.7546771E-02  0.1099821E+00
         21   -1    0    0  502  501  0.00000000000E+00  0.00000000000E+00  0.45589845317E+03  0.45589845317E+03  0.00000000000E+00 0. -1.
         21   -1    0    0  501  502 -0.00000000000E+00 -0.00000000000E+00 -0.16295513049E+03  0.16295513049E+03  0.00000000000E+00 0. -1.
         25    1    1    2    0    0  0.36294136081E+02 -0.18567421905E+02  0.23144643138E+03  0.26618501849E+03  0.12500000000E+03 0.  0.
         25    1    1    2    0    0  0.40618805086E+02 -0.57036265488E+02 -0.51893251745E+02  0.15238416087E+03  0.12500000000E+03 0.  0.
         25    1    1    2    0    0 -0.76912941167E+02  0.75603687394E+02  0.11339014305E+03  0.20028440431E+03  0.12500000000E+03 0.  0.
</event>
<event>
 5    0  0.5612316E-005  0.3504963E+03  0.7546771E-02  0.1062412E+00
         21   -1    0    0  502  501  0.00000000000E+00  0.00000000000E+00  0.24420698772E+03  0.24420698772E+03  0.00000000000E+00 0. -1.
         21   -1    0    0  501  502 -0.00000000000E+00 -0.00000000000E+00 -0.50304727563E+03  0.50304727563E+03  0.00000000000E+00 0. -1.
         25    1    1    2    0    0 -0.87262645418E+02  0.53677483733E+02  0.47702212452E+02  0.16851273726E+03  0.12500000000E+03 0.  0.
         25    1    1    2    0    0 -0.14789989105E+03 -0.50618860090E+02 -0.22290520353E+03  0.29958033402E+03  0.12500000000E+03 0.  0.
         25    1    1    2    0    0  0.23516253647E+03 -0.30586236427E+01 -0.83637296821E+02  0.27916119207E+03  0.12500000000E+03 0.  0.
</event>
<event>
 5    0  0.6642805E-005  0.2627140E+03  0.7546771E-02  0.1105524E+00
         21   -1    0    0  502  501  0.00000000000E+00  0.00000000000E+00  0.53722896536E+03  0.53722896536E+03  0.00000000000E+00 0.  1.
         21   -1    0    0  501  502 -0.00000000000E+00 -0.00000000000E+00 -0.12847152122E+03  0.12847152122E+03  0.00000000000E+00 0.  1.
         25    1    1    2    0    0 -0.88438121780E+02 -0.66584249111E+02  0.31846333901E+03  0.35958123130E+03  0.12500000000E+03 0.  0.
         25    1    1    2    0    0  0.40970467073E+02  0.32578140430E+02  0.99079437591E+02  0.16787390911E+03  0.12500000000E+03 0.  0.
         25    1    1    2    0    0  0.47467654707E+02  0.34006108682E+02 -0.87853324558E+01  0.13824534617E+03  0.12500000000E+03 0.  0.
</event>
<event>
 5    0  0.5612316E-005  0.2869513E+03  0.7546771E-02  0.1091952E+00
         21   -1    0    0  502  501  0.00000000000E+00  0.00000000000E+00  0.23085842997E+03  0.23085842997E+03  0.00000000000E+00 0.  1.
         21   -1    0    0  501  502 -0.00000000000E+00 -0.00000000000E+00 -0.35667329616E+03  0.35667329616E+03  0.00000000000E+00 0.  1.
         25    1    1    2    0    0  0.36811798810E+02  0.57068006099E+02  0.56418793216E+02  0.15303576732E+03  0.12500000000E+03 0.  0.
         25    1    1    2    0    0 -0.51107499395E+02 -0.16910720248E+03 -0.54757074403E+02  0.22323207570E+03  0.12500000000E+03 0.  0.
         25    1    1    2    0    0  0.14295700585E+02  0.11203919638E+03 -0.12747658501E+03  0.21126388311E+03  0.12500000000E+03 0.  0.
</event>
<event>
 5    0  0.5612316E-005  0.2915423E+03  0.7546771E-02  0.1089547E+00
         21   -1    0    0  502  501  0.00000000000E+00  0.00000000000E+00  0.28518347265E+03  0.28518347265E+03  0.00000000000E+00 0.  1.
         21   -1    0    0  501  502 -0.00000000000E+00 -0.00000000000E+00 -0.29804285129E+03  0.29804285129E+03  0.00000000000E+00 0.  1.
         25    1    1    2    0    0 -0.12414882338E+03 -0.12866039315E+01  0.77328710245E+02  0.19240404134E+03  0.12500000000E+03 0.  0.
         25    1    1    2    0    0 -0.19893185166E+02 -0.87605825286E+02 -0.94012285917E+02  0.18037136509E+03  0.12500000000E+03 0.  0.
         25    1    1    2    0    0  0.14404200855E+03  0.88892429218E+02  0.38241970260E+01  0.21045091751E+03  0.12500000000E+03 0.  0.
</event>
<event>
 5    0  0.5612316E-005  0.4313605E+03  0.7546771E-02  0.1033431E+00
         21   -1    0    0  502  501  0.00000000000E+00  0.00000000000E+00  0.92534330806E+03  0.92534330806E+03  0.00000000000E+00 0.  1.
         21   -1    0    0  501  502 -0.00000000000E+00 -0.00000000000E+00 -0.20108415526E+03  0.20108415526E+03  0.00000000000E+00 0.  1.
         25    1    1    2    0    0 -0.87452334895E+02  0.12744244272E+03  0.49592009975E+02  0.20487521700E+03  0.12500000000E+03 0.  0.
         25    1    1    2    0    0  0.84033913826E+02 -0.18639013459E+03  0.70215085695E+01  0.23974420228E+03  0.12500000000E+03 0.  0.
         25    1    1    2    0    0  0.34184210693E+01  0.58947691869E+02  0.66764563426E+03  0.68180804404E+03  0.12500000000E+03 0.  0.
</event>
<event>
 5    0  0.5612316E-005  0.4396971E+03  0.7546771E-02  0.1030840E+00
         21   -1    0    0  502  501  0.00000000000E+00  0.00000000000E+00  0.14778633608E+03  0.14778633608E+03  0.00000000000E+00 0.  1.
         21   -1    0    0  501  502 -0.00000000000E+00 -0.00000000000E+00 -0.13081965905E+04  0.13081965905E+04  0.00000000000E+00 0.  1.
         25    1    1    2    0    0 -0.15969362152E+03  0.10591045337E+03 -0.10623992737E+04  0.10867549372E+04  0.12500000000E+03 0.  0.
         25    1    1    2    0    0  0.13107169844E+03 -0.87029528592E+02 -0.12524402883E+03  0.23678048006E+03  0.12500000000E+03 0.  0.
         25    1    1    2    0    0  0.28621923082E+02 -0.18880924782E+02  0.27233048115E+02  0.13244750927E+03  0.12500000000E+03 0.  0.
</event>
<event>
 5    0  0.5612316E-005  0.3979512E+03  0.7546771E-02  0.1044491E+00
         21   -1    0    0  502  501  0.00000000000E+00  0.00000000000E+00  0.56469577661E+03  0.56469577661E+03  0.00000000000E+00 0. -1.
         21   -1    0    0  501  502 -0.00000000000E+00 -0.00000000000E+00 -0.28044334235E+03  0.28044334235E+03  0.00000000000E+00 0. -1.
         25    1    1    2    0    0 -0.39269140669E+02  0.36903075309E+02  0.28735162195E+03  0.31796203707E+03  0.12500000000E+03 0.  0.
         25    1    1    2    0    0  0.18903482906E+03 -0.17341608490E+03 -0.32764891498E+02  0.28723830388E+03  0.12500000000E+03 0.  0.
         25    1    1    2    0    0 -0.14976568840E+03  0.13651300960E+03  0.29665703800E+02  0.23993877801E+03  0.12500000000E+03 0.  0.
</event>
<event>
 5    0  0.5612316E-005  0.3721095E+03  0.7546771E-02  0.1053889E+00
         21   -1    0    0  502  501  0.00000000000E+00  0.00000000000E+00  0.18749029822E+03  0.18749029822E+03  0.00000000000E+00 0. -1.
         21   -1    0    0  501  502 -0.00000000000E+00 -0.00000000000E+00 -0.73852069133E+03  0.73852069133E+03  0.00000000000E+00 0. -1.
         25    1    1    2    0    0  0.15075536893E+03 -0.86799361644E+02 -0.24017921560E+03  0.32182660867E+03  0.12500000000E+03 0.  0.
         25    1    1    2    0    0  0.12997721595E+03 -0.16378601720E+02 -0.17782141577E+03  0.25378690109E+03  0.12500000000E+03 0.  0.
         25    1    1    2    0    0 -0.28073258488E+03  0.10317796336E+03 -0.13302976175E+03  0.35039747979E+03  0.12500000000E+03 0.  0.
</event>
<event>
 5    0  0.5612316E-005  0.5192528E+03  0.7546771E-02  0.1008872E+00
         21   -1    0    0  502  501  0.00000000000E+00  0.00000000000E+00  0.21081476871E+03  0.21081476871E+03  0.00000000000E+00 0.  1.
         21   -1    0    0  501  502 -0.00000000000E+00 -0.00000000000E+00 -0.12789593225E+04  0.12789593225E+04  0.00000000000E+00 0.  1.
         25    1    1    2    0    0 -0.34181535771E+03 -0.77850519155E+02 -0.54226053933E+03  0.65770049006E+03  0.12500000000E+03 0.  0.
         25    1    1    2    0    0  0.54290232475E+02 -0.18099577013E+03 -0.26658687960E+03  0.34985777470E+03  0.12500000000E+03 0.  0.
         25    1    1    2    0    0  0.28752512524E+03  0.25884628928E+03 -0.25929713482E+03  0.48221582642E+03  0.12500000000E+03 0.  0.
</event>
<event>
 5    0  0.5612316E-005  0.4440394E+03  0.7546771E-02  0.1029515E+00
         21   -1    0    0  502  501  0.00000000000E+00  0.00000000000E+00  0.23073501303E+03  0.23073501303E+03  0.00000000000E+00 0.  1.
         21   -1    0    0  501  502 -0.00000000000E+00 -0.00000000000E+00 -0.85453416049E+03  0.85453416049E+03  0.00000000000E+00 0.  1.
         25    1    1    2    0    0  0.13919786713E+02  0.50248881469E+02  0.15066083271E+03  0.20258923235E+03  0.12500000000E+03 0.  0.
         25    1    1    2    0    0  0.30033838034E+02  0.11797403275E+03 -0.17938319489E+03  0.25024634750E+03  0.12500000000E+03 0.  0.
         25    1    1    2    0    0 -0.43953624747E+02 -0.16822291422E+03 -0.59507678529E+03  0.63243359366E+03  0.12500000000E+03 0.  0.
</event>
<event>
 5    0  0.5612316E-005  0.2460887E+03  0.7546771E-02  0.1115802E+00
         21   -1    0    0  502  501  0.00000000000E+00  0.00000000000E+00  0.30367066341E+03  0.30367066341E+03  0.00000000000E+00 0. -1.
         21   -1    0    0  501  502 -0.00000000000E+00 -0.00000000000E+00 -0.19942542237E+03  0.19942542237E+03  0.00000000000E+00 0. -1.
         25    1    1    2    0    0  0.56115388282E+02  0.51363375805E+02  0.36653713171E+01  0.14637475234E+03  0.12500000000E+03 0.  0.
         25    1    1    2    0    0  0.15627413931E+02 -0.87486489798E+02 -0.33042952219E+02  0.15689148688E+03  0.12500000000E+03 0.  0.
         25    1    1    2    0    0 -0.71742802213E+02  0.36123113993E+02  0.13362282194E+03  0.19982984656E+03  0.12500000000E+03 0.  0.
</event>
<event>
 5    0  0.5612316E-005  0.3312712E+03  0.7546771E-02  0.1070576E+00
         21   -1    0    0  502  501  0.00000000000E+00  0.00000000000E+00  0.17814100475E+04  0.17814100475E+04  0.00000000000E+00 0.  1.
         21   -1    0    0  501  502 -0.00000000000E+00 -0.00000000000E+00 -0.61603243079E+02  0.61603243079E+02  0.00000000000E+00 0.  1.
         25    1    1    2    0    0 -0.17929896400E+03 -0.54570805650E+02  0.27328201010E+03  0.35416683691E+03  0.12500000000E+03 0.  0.
         25    1    1    2    0    0  0.22294301862E+02 -0.27636994092E+02  0.67633814953E+03  0.68870830680E+03  0.12500000000E+03 0.  0.
         25    1    1    2    0    0  0.15700466214E+03  0.82207799742E+02  0.77018664481E+03  0.80013814690E+03  0.12500000000E+03 0.  0.
</event>
<event>
 5    0  0.5612316E-005  0.3170553E+03  0.7546771E-02  0.1077013E+00
         21   -1    0    0  502  501  0.00000000000E+00  0.00000000000E+00  0.28648382334E+03  0.28648382334E+03  0.00000000000E+00 0. -1.
         21   -1    0    0  501  502 -0.00000000000E+00 -0.00000000000E+00 -0.35088921058E+03  0.35088921058E+03  0.00000000000E+00 0. -1.
         25    1    1    2    0    0 -0.63140925411E+02 -0.11561708085E+03 -0.91965294019E+02  0.20356006767E+03  0.12500000000E+03 0.  0.
         25    1    1    2    0    0  0.11512582520E+03  0.12617498114E+02  0.14774160795E+03  0.22553434241E+03  0.12500000000E+03 0.  0.
         25    1    1    2    0    0 -0.51984899794E+02  0.10299958274E+03 -0.12018170117E+03  0.20827862383E+03  0.12500000000E+03 0.  0.
</event>
<event>
 5    0  0.5612316E-005  0.2853064E+03  0.7546771E-02  0.1092825E+00
         21   -1    0    0  502  501  0.00000000000E+00  0.00000000000E+00  0.64756951496E+02  0.64756951496E+02  0.00000000000E+00 0. -1.
         21   -1    0    0  501  502 -0.00000000000E+00 -0.00000000000E+00 -0.12570041607E+04  0.12570041607E+04  0.00000000000E+00 0. -1.
         25    1    1    2    0    0 -0.12910079286E+03  0.11826376911E+03 -0.34373951187E+03  0.40550608605E+03  0.12500000000E+03 0.  0.
         25    1    1    2    0    0  0.33131066903E+02 -0.10460039957E+03 -0.59176301947E+03  0.61469291715E+03  0.12500000000E+03 0.  0.
         25    1    1    2    0    0  0.95969725960E+02 -0.13663369545E+02 -0.25674467785E+03  0.30156210898E+03  0.12500000000E+03 0.  0.
</event>
<event>
 5    0  0.5612316E-005  0.3394182E+03  0.7546771E-02  0.1067044E+00
         21   -1    0    0  502  501  0.00000000000E+00  0.00000000000E+00  0.27968968563E+03  0.27968968563E+03  0.00000000000E+00 0. -1.
         21   -1    0    0  501  502 -0.00000000000E+00 -0.00000000000E+00 -0.41190190837E+03  0.41190190837E+03  0.00000000000E+00 0. -1.
         25    1    1    2    0    0  0.76718426014E+02  0.94818818446E+02 -0.21622858168E+02  0.17597975229E+03  0.12500000000E+03 0.  0.
         25    1    1    2    0    0  0.45527648694E+02  0.12731004488E+03  0.49595825443E+02  0.19069703780E+03  0.12500000000E+03 0.  0.
         25    1    1    2    0    0 -0.12224607471E+03 -0.22212886333E+03 -0.16018519001E+03  0.32491480391E+03  0.12500000000E+03 0.  0.
</event>
<event>
 5    0  0.5612316E-005  0.2636145E+03  0.7546771E-02  0.1104991E+00
         21   -1    0    0  502  501  0.00000000000E+00  0.00000000000E+00  0.72752508089E+03  0.72752508089E+03  0.00000000000E+00 0. -1.
         21   -1    0    0  501  502 -0.00000000000E+00 -0.00000000000E+00 -0.95519159867E+02  0.95519159867E+02  0.00000000000E+00 0. -1.
         25    1    1    2    0    0  0.91697447616E+02  0.32199906728E+02  0.33041693610E+03  0.36639542513E+03  0.12500000000E+03 0.  0.
         25    1    1    2    0    0  0.21474978690E+02  0.70169208933E+02  0.14201465771E+03  0.20292376795E+03  0.12500000000E+03 0.  0.
         25    1    1    2    0    0 -0.11317242631E+03 -0.10236911566E+03  0.15957432721E+03  0.25372504768E+03  0.12500000000E+03 0.  0.
</event>
<event>
 5    0  0.5612316E-005  0.2414811E+03  0.7546771E-02  0.1118810E+00
         21   -1    0    0  502  501  0.00000000000E+00  0.00000000000E+00  0.14677024418E+03  0.14677024418E+03  0.00000000000E+00 0.  1.
         21   -1    0    0  501  502 -0.00000000000E+00 -0.00000000000E+00 -0.39730897702E+03  0.39730897702E+03  0.00000000000E+00 0.  1.
         25    1    1    2    0    0 -0.10190074939E+03  0.55983888319E+02 -0.15726377793E+03  0.23210957397E+03  0.12500000000E+03 0.  0.
         25    1    1    2    0    0  0.88815821174E+02 -0.37829493046E+02 -0.96235889542E+02  0.18494774146E+03  0.12500000000E+03 0.  0.
         25    1    1    2    0    0  0.13084928217E+02 -0.18154395273E+02  0.29609346320E+01  0.12702190578E+03  0.12500000000E+03 0.  0.
</event>
<event>
 5    0  0.5612316E-005  0.4754331E+03  0.7546771E-02  0.1020398E+00
         21   -1    0    0  502  501  0.00000000000E+00  0.00000000000E+00  0.74191947608E+03  0.74191947608E+03  0.00000000000E+00 0.  1.
         21   -1    0    0  501  502 -0.00000000000E+00 -0.00000000000E+00 -0.30466460771E+03  0.30466460771E+03  0.00000000000E+00 0.  1.
         25    1    1    2    0    0 -0.14756399032E+02  0.21672318272E+03  0.38281471166E+03  0.45755742012E+03  0.12500000000E+03 0.  0.
         25    1    1    2    0    0  0.37997923433E+02 -0.24223918323E+03 -0.17452084064E+03  0.32589290863E+03  0.12500000000E+03 0.  0.
         25    1    1    2    0    0 -0.23241524401E+02  0.25516000507E+02  0.22896099734E+03  0.26313375504E+03  0.12500000000E+03 0.  0.
</event>
<event>
 5    0  0.6149050E-005  0.3223111E+03  0.7546771E-02  0.1074591E+00
         21   -1    0    0  502  501  0.00000000000E+00  0.00000000000E+00  0.32588143675E+03  0.32588143675E+03  0.00000000000E+00 0.  1.
         21   -1    0    0  501  502 -0.00000000000E+00 -0.00000000000E+00 -0.31877988413E+03  0.31877988413E+03  0.00000000000E+00 0.  1.
         25    1    1    2    0    0 -0.11725397497E+03  0.11514837486E+03 -0.13083756623E+03  0.24444040504E+03  0.12500000000E+03 0.  0.
         25    1    1    2    0    0  0.49526520618E+02 -0.13438210510E+03 -0.14799836081E+02  0.19067108214E+03  0.12500000000E+03 0.  0.
         25    1    1    2    0    0  0.67727454349E+02  0.19233730235E+02  0.15273895494E+03  0.20954983371E+03  0.12500000000E+03 0.  0.
</event>
<event>
 5    0  0.5612316E-005  0.3767677E+03  0.7546771E-02  0.1052135E+00
         21   -1    0    0  502  501  0.00000000000E+00  0.00000000000E+00  0.30124543461E+03  0.30124543461E+03  0.00000000000E+00 0.  1.
         21   -1    0    0  501  502 -0.00000000000E+00 -0.00000000000E+00 -0.47122337046E+03  0.47122337046E+03  0.00000000000E+00 0.  1.
         25    1    1    2    0    0 -0.24229659186E+03 -0.34718716266E+02 -0.26721833637E+03  0.38333231925E+03  0.12500000000E+03 0.  0.
         25    1    1    2    0    0  0.93795436108E+02 -0.29909821810E+02  0.93431853912E+02  0.18451745880E+03  0.12500000000E+03 0.  0.
         25    1    1    2    0    0  0.14850115575E+03  0.64628538076E+02  0.38085466130E+01  0.20461902703E+03  0.12500000000E+03 0.  0.
</event>
<event>
 5    0  0.5612316E-005  0.4811219E+03  0.7546771E-02  0.1018827E+00
         21   -1    0    0  502  501  0.00000000000E+00  0.00000000000E+00  0.42593340204E+03  0.42593340204E+03  0.00000000000E+00 0.  1.
         21   -1    0    0  501  502 -0.00000000000E+00 -0.00000000000E+00 -0.54346127547E+03  0.54346127547E+03  0.00000000000E+00 0. -1.
         25    1    1    2    0    0 -0.23171591134E+03  0.30031544663E+03 -0.21887566723E+02  0.39998212039E+03  0.12500000000E+03 0.  0.
         25    1    1    2    0    0  0.30894317437E+02 -0.30680477404E+02  0.95266494228E+02  0.16308419748E+03  0.12500000000E+03 0.  0.
         25    1    1    2    0    0  0.20082159391E+03 -0.26963496922E+03 -0.19090680094E+03  0.40632835964E+03  0.12500000000E+03 0.  0.
</event>
<event>
 5    0  0.5612316E-005  0.3639875E+03  0.7546771E-02  0.1057016E+00
         21   -1    0    0  502  501  0.00000000000E+00  0.00000000000E+00  0.54277704629E+03  0.54277704629E+03  0.00000000000E+00 0. -1.
         21   -1    0    0  501  502 -0.00000000000E+00 -0.00000000000E+00 -0.24409083344E+03  0.24409083344E+03  0.00000000000E+00 0. -1.
         25    1    1    2    0    0 -0.16902624607E+02  0.77163072880E+02  0.19804744717E+03  0.24715911851E+03  0.12500000000E+03 0.  0.
         25    1    1    2    0    0 -0.88950222440E+02 -0.23261303634E+02 -0.16276586871E+03  0.22487987534E+03  0.12500000000E+03 0.  0.
         25    1    1    2    0    0  0.10585284705E+03 -0.53901769246E+02  0.26340463440E+03  0.31482888587E+03  0.12500000000E+03 0.  0.
</event>
<event>
 5    0  0.5612316E-005  0.2193213E+03  0.7546771E-02  0.1134390E+00
         21   -1    0    0  502  501  0.00000000000E+00  0.00000000000E+00  0.14110161638E+04  0.14110161638E+04  0.00000000000E+00 0. -1.
         21   -1    0    0  501  502 -0.00000000000E+00 -0.00000000000E+00 -0.34090196628E+02  0.34090196628E+02  0.00000000000E+00 0. -1.
         25    1    1    2    0    0 -0.87099176186E+02 -0.73795035007E+01  0.42693970074E+03  0.45336875900E+03  0.12500000000E+03 0.  0.
         25    1    1    2    0    0  0.57240407567E+02  0.48012141297E+02  0.57873976077E+03  0.59677997676E+03  0.12500000000E+03 0.  0.
         25    1    1    2    0    0  0.29858768618E+02 -0.40632637796E+02  0.37124650564E+03  0.39495762465E+03  0.12500000000E+03 0.  0.
</event>
<event>
 5    0  0.5612316E-005  0.2522491E+03  0.7546771E-02  0.1111892E+00
         21   -1    0    0  502  501  0.00000000000E+00  0.00000000000E+00  0.18595845556E+03  0.18595845556E+03  0.00000000000E+00 0.  1.
         21   -1    0    0  501  502 -0.00000000000E+00 -0.00000000000E+00 -0.34217104744E+03  0.34217104744E+03  0.00000000000E+00 0.  1.
         25    1    1    2    0    0  0.39741506684E+01  0.10774607938E+03 -0.33830369191E+02  0.16850669237E+03  0.12500000000E+03 0.  0.
         25    1    1    2    0    0 -0.48797214140E+02  0.30346726622E+02 -0.10998027861E+02  0.13801466785E+03  0.12500000000E+03 0.  0.
         25    1    1    2    0    0  0.44823063472E+02 -0.13809280600E+03 -0.11138419483E+03  0.22160814278E+03  0.12500000000E+03 0.  0.
</event>
<event>
 5    0  0.5612316E-005  0.2833492E+03  0.7546771E-02  0.1093874E+00
         21   -1    0    0  502  501  0.00000000000E+00  0.00000000000E+00  0.11467790696E+03  0.11467790696E+03  0.00000000000E+00 0. -1.
         21   -1    0    0  501  502 -0.00000000000E+00 -0.00000000000E+00 -0.70010662188E+03  0.70010662188E+03  0.00000000000E+00 0. -1.
         25    1    1    2    0    0 -0.34929111371E+02  0.10581220559E+03 -0.11734138051E+02  0.16786588596E+03  0.12500000000E+03 0.  0.
         25    1    1    2    0    0 -0.28102376872E+02 -0.41470062306E+02 -0.18516362347E+03  0.22895431227E+03  0.12500000000E+03 0.  0.
         25    1    1    2    0    0  0.63031488243E+02 -0.64342143280E+02 -0.38853095340E+03  0.41796433061E+03  0.12500000000E+03 0.  0.
</event>
<event>
 5    0  0.5612316E-005  0.4521409E+03  0.7546771E-02  0.1027086E+00
         21   -1    0    0  502  501  0.00000000000E+00  0.00000000000E+00  0.17405113506E+04  0.17405113506E+04  0.00000000000E+00 0.  1.
         21   -1    0    0  501  502 -0.00000000000E+00 -0.00000000000E+00 -0.11745477501E+03  0.11745477501E+03  0.00000000000E+00 0.  1.
         25    1    1    2    0    0 -0.11510050082E+03  0.23083373508E+03  0.71785715445E+03  0.77296586777E+03  0.12500000000E+03 0.  0.
         25    1    1    2    0    0  0.90208295255E+02  0.51606401569E+02  0.42042487384E+02  0.16790868936E+03  0.12500000000E+03 0.  0.
         25    1    1    2    0    0  0.24892205567E+02 -0.28244013665E+03  0.86315693381E+03  0.91709156853E+03  0.12500000000E+03 0.  0.
</event>
<event>
 5    0  0.5612316E-005  0.2868654E+03  0.7546771E-02  0.1091997E+00
         21   -1    0    0  502  501  0.00000000000E+00  0.00000000000E+00  0.50563682406E+02  0.50563682406E+02  0.00000000000E+00 0. -1.
         21   -1    0    0  501  502 -0.00000000000E+00 -0.00000000000E+00 -0.16274878965E+04  0.16274878965E+04  0.00000000000E+00 0. -1.
         25    1    1    2    0    0 -0.33856541789E+02 -0.54722766326E+02 -0.82434520210E+03  0.83624808449E+03  0.12500000000E+03 0.  0.
         25    1    1    2    0    0  0.10435263051E+03 -0.23526926182E+02 -0.58505568294E+03  0.60774841826E+03  0.12500000000E+03 0.  0.
         25    1    1    2    0    0 -0.70496088723E+02  0.78249692508E+02 -0.16752332905E+03  0.23405507617E+03  0.12500000000E+03 0.  0.
</event>
<event>
 5    0  0.6437226E-005  0.2860503E+03  0.7546771E-02  0.1092430E+00
         21   -1    0    0  502  501  0.00000000000E+00  0.00000000000E+00  0.12067645474E+03  0.12067645474E+03  0.00000000000E+00 0.  1.
         21   -1    0    0  501  502 -0.00000000000E+00 -0.00000000000E+00 -0.67805077925E+03  0.67805077925E+03  0.00000000000E+00 0.  1.
         25    1    1    2    0    0 -0.91271206321E+01  0.87934064999E+02 -0.49397267025E+02  0.16087508852E+03  0.12500000000E+03 0.  0.
         25    1    1    2    0    0 -0.84850428530E+02  0.67293512962E+02 -0.22184288953E+03  0.27670793220E+03  0.12500000000E+03 0.  0.
         25    1    1    2    0    0  0.93977549162E+02 -0.15522757796E+03 -0.28613416796E+03  0.36114421327E+03  0.12500000000E+03 0.  0.
</event>
<event>
 5    0  0.3682125E-004  0.6257304E+03  0.7546771E-02  0.9853416E-01
         21   -1    0    0  502  501  0.00000000000E+00  0.00000000000E+00  0.13915363496E+04  0.13915363496E+04  0.00000000000E+00 0.  1.
         21   -1    0    0  501  502 -0.00000000000E+00 -0.00000000000E+00 -0.28137144557E+03  0.28137144557E+03  0.00000000000E+00 0.  1.
         25    1    1    2    0    0  0.23015316402E+03  0.10409052447E+02 -0.14797542955E+03  0.30099926085E+03  0.12500000000E+03 0.  0.
         25    1    1    2    0    0 -0.32626810804E+03  0.82665052168E+02  0.74316249883E+03  0.82534834394E+03  0.12500000000E+03 0.  0.
         25    1    1    2    0    0  0.96114944015E+02 -0.93074104615E+02  0.51497783480E+03  0.54656019042E+03  0.12500000000E+03 0.  0.
</event>
<event>
 5    0  0.5612316E-005  0.2700384E+03  0.7546771E-02  0.1101258E+00
         21   -1    0    0  502  501  0.00000000000E+00  0.00000000000E+00  0.60285120806E+02  0.60285120806E+02  0.00000000000E+00 0. -1.
         21   -1    0    0  501  502 -0.00000000000E+00 -0.00000000000E+00 -0.12095979177E+04  0.12095979177E+04  0.00000000000E+00 0. -1.
         25    1    1    2    0    0  0.14185292841E+02  0.68113590745E+02 -0.36040327666E+03  0.38775792139E+03  0.12500000000E+03 0.  0.
         25    1    1    2    0    0  0.10995758388E+03  0.56421398223E+02 -0.29952623484E+03  0.34729671721E+03  0.12500000000E+03 0.  0.
         25    1    1    2    0    0 -0.12414287672E+03 -0.12453498897E+03 -0.48938328543E+03  0.53482839993E+03  0.12500000000E+03 0.  0.
</event>
<event>
 5    0  0.5757092E-005  0.2793080E+03  0.7546771E-02  0.1096067E+00
         21   -1    0    0  502  501  0.00000000000E+00  0.00000000000E+00  0.11647346214E+03  0.11647346214E+03  0.00000000000E+00 0. -1.
         21   -1    0    0  501  502 -0.00000000000E+00 -0.00000000000E+00 -0.66979182710E+03  0.66979182710E+03  0.00000000000E+00 0. -1.
         25    1    1    2    0    0  0.25376337023E+02 -0.16479026331E+03 -0.37804635224E+03  0.43167561178E+03  0.12500000000E+03 0.  0.
         25    1    1    2    0    0 -0.25115791399E+02  0.11575820787E+03 -0.11714201103E+03  0.20827389758E+03  0.12500000000E+03 0.  0.
         25    1    1    2    0    0 -0.26054562399E+00  0.49032055438E+02 -0.58130001690E+02  0.14631577988E+03  0.12500000000E+03 0.  0.
</event>
<event>
 5    0  0.5612316E-005  0.2702431E+03  0.7546771E-02  0.1101141E+00
         21   -1    0    0  502  501  0.00000000000E+00  0.00000000000E+00  0.19823049606E+03  0.19823049606E+03  0.00000000000E+00 0. -1.
         21   -1    0    0  501  502 -0.00000000000E+00 -0.00000000000E+00 -0.36841619209E+03  0.36841619209E+03  0.00000000000E+00 0. -1.
         25    1    1    2    0    0  0.83649105133E+02  0.75162901618E+02 -0.13451742460E+03  0.21532898572E+03  0.12500000000E+03 0.  0.
         25    1    1    2    0    0  0.76230467321E+01  0.53488429517E+02  0.30323103203E+02  0.13951205511E+03  0.12500000000E+03 0.  0.
         25    1    1    2    0    0 -0.91272151865E+02 -0.12865133114E+03 -0.65991374629E+02  0.21180564731E+03  0.12500000000E+03 0.  0.
</event>
<event>
 5    0  0.5612316E-005  0.2701940E+03  0.7546771E-02  0.1101169E+00
         21   -1    0    0  502  501  0.00000000000E+00  0.00000000000E+00  0.11174173704E+04  0.11174173704E+04  0.00000000000E+00 0.  1.
         21   -1    0    0  501  502 -0.00000000000E+00 -0.00000000000E+00 -0.65333519226E+02  0.65333519226E+02  0.00000000000E+00 0.  1.
         25    1    1    2    0    0 -0.54545473422E+02  0.88097237853E+02  0.19425344353E+03  0.25317134971E+03  0.12500000000E+03 0.  0.
         25    1    1    2    0    0 -0.75778853162E+01 -0.10333763458E+03  0.20340138664E+03  0.26025605690E+03  0.12500000000E+03 0.  0.
         25    1    1    2    0    0  0.62123358738E+02  0.15240396722E+02  0.65442902104E+03  0.66932348306E+03  0.12500000000E+03 0.  0.
</event>
<event>
 5    0  0.5612316E-005  0.3106814E+03  0.7546771E-02  0.1080020E+00
         21   -1    0    0  502  501  0.00000000000E+00  0.00000000000E+00  0.55308791568E+03  0.55308791568E+03  0.00000000000E+00 0.  1.
         21   -1    0    0  501  502 -0.00000000000E+00 -0.00000000000E+00 -0.17451648017E+03  0.17451648017E+03  0.00000000000E+00 0.  1.
         25    1    1    2    0    0 -0.25608166841E+02 -0.20869637980E+02  0.17231938296E+03  0.21543047543E+03  0.12500000000E+03 0.  0.
         25    1    1    2    0    0  0.22120387461E+02  0.10157043035E+03  0.29648154842E+03  0.33813040741E+03  0.12500000000E+03 0.  0.
         25    1    1    2    0    0  0.34877793798E+01 -0.80700792372E+02 -0.90229495878E+02  0.17404351301E+03  0.12500000000E+03 0.  0.
</event>
<event>
 5    0  0.5612316E-005  0.2531409E+03  0.7546771E-02  0.1111336E+00
         21   -1    0    0  502  501  0.00000000000E+00  0.00000000000E+00  0.58546854355E+03  0.58546854355E+03  0.00000000000E+00 0.  1.
         21   -1    0    0  501  502 -0.00000000000E+00 -0.00000000000E+00 -0.10945137696E+03  0.10945137696E+03  0.00000000000E+00 0.  1.
         25    1    1    2    0    0 -0.10960042607E+03  0.71490255716E+02  0.11971384872E+03  0.21697814552E+03  0.12500000000E+03 0.  0.
         25    1    1    2    0    0  0.89525611159E+02 -0.10668178656E+03  0.20719251536E+03  0.27919451473E+03  0.12500000000E+03 0.  0.
         25    1    1    2    0    0  0.20074814910E+02  0.35191530841E+02  0.14911080251E+03  0.19874726026E+03  0.12500000000E+03 0.  0.
</event>
<event>
 5    0  0.5612316E-005  0.2995147E+03  0.7546771E-02  0.1085483E+00
         21   -1    0    0  502  501  0.00000000000E+00  0.00000000000E+00  0.56985967857E+02  0.56985967857E+02  0.00000000000E+00 0. -1.
         21   -1    0    0  501  502 -0.00000000000E+00 -0.00000000000E+00 -0.15742308095E+04  0.15742308095E+04  0.00000000000E+00 0. -1.
         25    1    1    2    0    0  0.75624590165E+02  0.15653895538E+03 -0.26600842169E+03  0.34148060501E+03  0.12500000000E+03 0.  0.
         25    1    1    2    0    0 -0.51040749714E+02 -0.11265814976E+03 -0.63181492193E+03  0.65582933177E+03  0.12500000000E+03 0.  0.
         25    1    1    2    0    0 -0.24583840451E+02 -0.43880805624E+02 -0.61942149803E+03  0.63390684058E+03  0.12500000000E+03 0.  0.
</event>
<event>
 5    0  0.7165048E-005  0.2872500E+03  0.7546771E-02  0.1091794E+00
         21   -1    0    0  502  501  0.00000000000E+00  0.00000000000E+00  0.56330913855E+03  0.56330913855E+03  0.00000000000E+00 0. -1.
         21   -1    0    0  501  502 -0.00000000000E+00 -0.00000000000E+00 -0.14647824966E+03  0.14647824966E+03  0.00000000000E+00 0. -1.
         25    1    1    2    0    0 -0.36312626996E+02 -0.69250367790E+02  0.45311918865E+01  0.14751187077E+03  0.12500000000E+03 0.  0.
         25    1    1    2    0    0  0.14360270170E+03  0.35190795711E+02  0.30970499052E+03  0.36524280854E+03  0.12500000000E+03 0.  0.
         25    1    1    2    0    0 -0.10729007470E+03  0.34059572078E+02  0.10259470649E+03  0.19703270891E+03  0.12500000000E+03 0.  0.
</event>
<event>
 5    0  0.5612316E-005  0.2867694E+03  0.7546771E-02  0.1092048E+00
         21   -1    0    0  502  501  0.00000000000E+00  0.00000000000E+00  0.11835360973E+03  0.11835360973E+03  0.00000000000E+00 0. -1.
         21   -1    0    0  501  502 -0.00000000000E+00 -0.00000000000E+00 -0.69483863096E+03  0.69483863096E+03  0.00000000000E+00 0. -1.
         25    1    1    2    0    0 -0.13410448508E+03  0.13027115865E+02 -0.10148337932E+03  0.20994664785E+03  0.12500000000E+03 0.  0.
         25    1    1    2    0    0 -0.21053993558E+02 -0.92921615102E+02 -0.19771625701E+03  0.25257556391E+03  0.12500000000E+03 0.  0.
         25    1    1    2    0    0  0.15515847864E+03  0.79894499237E+02 -0.27728538490E+03  0.35067002892E+03  0.12500000000E+03 0.  0.
</event>
<event>
 5    0  0.5612316E-005  0.4602047E+03  0.7546771E-02  0.1024722E+00
         21   -1    0    0  502  501  0.00000000000E+00  0.00000000000E+00  0.67144428715E+03  0.67144428715E+03  0.00000000000E+00 0.  1.
         21   -1    0    0  501  502 -0.00000000000E+00 -0.00000000000E+00 -0.31542216014E+03  0.31542216014E+03  0.00000000000E+00 0.  1.
         25    1    1    2    0    0 -0.30417168414E+03  0.67008422979E+02 -0.10114251876E+02  0.33576456077E+03  0.12500000000E+03 0.  0.
         25    1    1    2    0    0  0.29765480031E+03  0.25383266834E+02  0.37475646540E+03  0.49528789481E+03  0.12500000000E+03 0.  0.
         25    1    1    2    0    0  0.65168838287E+01 -0.92391689813E+02 -0.86200865180E+01  0.15581399171E+03  0.12500000000E+03 0.  0.
</event>
<event>
 5    0  0.5612316E-005  0.2580577E+03  0.7546771E-02  0.1108316E+00
         21   -1    0    0  502  501  0.00000000000E+00  0.00000000000E+00  0.56163504246E+02  0.56163504246E+02  0.00000000000E+00 0. -1.
         21   -1    0    0  501  502 -0.00000000000E+00 -0.00000000000E+00 -0.11857128643E+04  0.11857128643E+04  0.00000000000E+00 0. -1.
         25    1    1    2    0    0 -0.18332524290E+02  0.78816099925E+02 -0.55944485831E+03  0.57892280016E+03  0.12500000000E+03 0.  0.
         25    1    1    2    0    0 -0.77956033484E+02  0.97931322286E+01 -0.17915179753E+03  0.23214955342E+03  0.12500000000E+03 0.  0.
         25    1    1    2    0    0  0.96288557773E+02 -0.88609232153E+02 -0.39095270424E+03  0.43080401500E+03  0.12500000000E+03 0.  0.
</event>
<event>
 5    0  0.5612316E-005  0.2182756E+03  0.7546771E-02  0.1135175E+00
         21   -1    0    0  502  501  0.00000000000E+00  0.00000000000E+00  0.83604664752E+02  0.83604664752E+02  0.00000000000E+00 0.  1.
         21   -1    0    0  501  502 -0.00000000000E+00 -0.00000000000E+00 -0.56987510144E+03  0.56987510144E+03  0.00000000000E+00 0.  1.
         25    1    1    2    0    0  0.79803430684E+02  0.56954462671E+02 -0.21110688124E+03  0.26420354591E+03  0.12500000000E+03 0.  0.
         25    1    1    2    0    0 -0.18436815592E+02 -0.29602714670E+02 -0.99954571394E+02  0.16380522955E+03  0.12500000000E+03 0.  0.
         25    1    1    2    0    0 -0.61366615091E+02 -0.27351748001E+02 -0.17520898405E+03  0.22547099073E+03  0.12500000000E+03 0.  0.
</event>
<event>
 5    0  0.5612316E-005  0.2483086E+03  0.7546771E-02  0.1114378E+00
         21   -1    0    0  502  501  0.00000000000E+00  0.00000000000E+00  0.48723202339E+02  0.48723202339E+02  0.00000000000E+00 0.  1.
         21   -1    0    0  501  502 -0.00000000000E+00 -0.00000000000E+00 -0.12654577718E+04  0.12654577718E+04  0.00000000000E+00 0.  1.
         25    1    1    2    0    0  0.66351475091E+02 -0.15544038539E+02 -0.79786422947E+03  0.81046681859E+03  0.12500000000E+03 0.  0.
         25    1    1    2    0    0  0.40113074989E+00 -0.75024548603E+01 -0.26596747694E+03  0.29397303707E+03  0.12500000000E+03 0.  0.
         25    1    1    2    0    0 -0.66752605841E+02  0.23046493399E+02 -0.15290286302E+03  0.20974111844E+03  0.12500000000E+03 0.  0.
</event>
<event>
 5    0  0.5612316E-005  0.2591050E+03  0.7546771E-02  0.1107682E+00
         21   -1    0    0  502  501  0.00000000000E+00  0.00000000000E+00  0.27565209691E+03  0.27565209691E+03  0.00000000000E+00 0. -1.
         21   -1    0    0  501  502 -0.00000000000E+00 -0.00000000000E+00 -0.24355116060E+03  0.24355116060E+03  0.00000000000E+00 0. -1.
         25    1    1    2    0    0  0.14429904320E+03  0.17538276634E+02 -0.19110543622E+02  0.19266555970E+03  0.12500000000E+03 0.  0.
         25    1    1    2    0    0 -0.38537069339E+02 -0.57377190983E+02 -0.18777203607E+02  0.14406537104E+03  0.12500000000E+03 0.  0.
         25    1    1    2    0    0 -0.10576197386E+03  0.39838914349E+02  0.69988683543E+02  0.18247232677E+03  0.12500000000E+03 0.  0.
</event>
<event>
 5    0  0.5612316E-005  0.2290128E+03  0.7546771E-02  0.1127337E+00
         21   -1    0    0  502  501  0.00000000000E+00  0.00000000000E+00  0.17944390657E+04  0.17944390657E+04  0.00000000000E+00 0. -1.
         21   -1    0    0  501  502 -0.00000000000E+00 -0.00000000000E+00 -0.29227429820E+02  0.29227429820E+02  0.00000000000E+00 0. -1.
         25    1    1    2    0    0 -0.22063038128E+02  0.93812551185E+02  0.47483537335E+03  0.50038105899E+03  0.12500000000E+03 0.  0.
         25    1    1    2    0    0 -0.58297444898E+01  0.13807848025E+02  0.53727256629E+03  0.55182556399E+03  0.12500000000E+03 0.  0.
         25    1    1    2    0    0  0.27892782618E+02 -0.10762039921E+03  0.75310369629E+03  0.77145987259E+03  0.12500000000E+03 0.  0.
</event>
<event>
 5    0  0.5612316E-005  0.3980181E+03  0.7546771E-02  0.1044468E+00
         21   -1    0    0  502  501  0.00000000000E+00  0.00000000000E+00  0.99698220288E+03  0.99698220288E+03  0.00000000000E+00 0.  1.
         21   -1    0    0  501  502 -0.00000000000E+00 -0.00000000000E+00 -0.15889796643E+03  0.15889796643E+03  0.00000000000E+00 0.  1.
         25    1    1    2    0    0  0.16579895929E+03 -0.10477521428E+03  0.76670974860E+02  0.24488891118E+03  0.12500000000E+03 0.  0.
         25    1    1    2    0    0 -0.14315858935E+03  0.13459226021E+03  0.74369786635E+03  0.77930801012E+03  0.12500000000E+03 0.  0.
         25    1    1    2    0    0 -0.22640369948E+02 -0.29817045928E+02  0.17715395239E+02  0.13168324801E+03  0.12500000000E+03 0.  0.
</event>
<event>
 5    0  0.5612316E-005  0.3625205E+03  0.7546771E-02  0.1057590E+00
         21   -1    0    0  502  501  0.00000000000E+00  0.00000000000E+00  0.39507415996E+03  0.39507415996E+03  0.00000000000E+00 0. -1.
         21   -1    0    0  501  502 -0.00000000000E+00 -0.00000000000E+00 -0.33264921773E+03  0.33264921773E+03  0.00000000000E+00 0. -1.
         25    1    1    2    0    0 -0.34697366722E+02  0.13879322123E+03  0.96624681540E+02  0.21314031669E+03  0.12500000000E+03 0.  0.
         25    1    1    2    0    0  0.20241218401E+03 -0.13348771242E+03 -0.10702172706E+03  0.29303295321E+03  0.12500000000E+03 0.  0.
         25    1    1    2    0    0 -0.16771481729E+03 -0.53055088086E+01  0.72821987754E+02  0.22155010779E+03  0.12500000000E+03 0.  0.
</event>
<event>
 5    0  0.5612316E-005  0.6018606E+03  0.7546771E-02  0.9901553E-01
         21   -1    0    0  502  501  0.00000000000E+00  0.00000000000E+00  0.16289533884E+03  0.16289533884E+03  0.00000000000E+00 0. -1.
         21   -1    0    0  501  502 -0.00000000000E+00 -0.00000000000E+00 -0.22237359470E+04  0.22237359470E+04  0.00000000000E+00 0. -1.
         25    1    1    2    0    0 -0.38247639827E+02 -0.22188014756E+03 -0.32439742443E+02  0.25955927786E+03  0.12500000000E+03 0.  0.
         25    1    1    2    0    0 -0.68759924998E+02  0.37010322402E+03 -0.15491940957E+04  0.15991659295E+04  0.12500000000E+03 0.  0.
         25    1    1    2    0    0  0.10700756483E+03 -0.14822307646E+03 -0.47920676998E+03  0.52790607850E+03  0.12500000000E+03 0.  0.
</event>
<event>
 5    0  0.5612316E-005  0.2875146E+03  0.7546771E-02  0.1091654E+00
         21   -1    0    0  502  501  0.00000000000E+00  0.00000000000E+00  0.54017200290E+03  0.54017200290E+03  0.00000000000E+00 0.  1.
         21   -1    0    0  501  502 -0.00000000000E+00 -0.00000000000E+00 -0.15303390521E+03  0.15303390521E+03  0.00000000000E+00 0.  1.
         25    1    1    2    0    0 -0.45083307078E+02  0.12008526318E+02 -0.62450668627E+02  0.14731529212E+03  0.12500000000E+03 0.  0.
         25    1    1    2    0    0  0.61872709895E+02  0.31374030996E+02  0.10794666275E+03  0.17913694217E+03  0.12500000000E+03 0.  0.
         25    1    1    2    0    0 -0.16789402817E+02 -0.43382557314E+02  0.34164210357E+03  0.36675367381E+03  0.12500000000E+03 0.  0.
</event>
<event>
 5    0  0.5612316E-005  0.1122267E+04  0.7546771E-02  0.9183756E-01
         21   -1    0    0  502  501  0.00000000000E+00  0.00000000000E+00  0.34800665486E+04  0.34800665486E+04  0.00000000000E+00 0.  1.
         21   -1    0    0  501  502 -0.00000000000E+00 -0.00000000000E+00 -0.36191371439E+03  0.36191371439E+03  0.00000000000E+00 0.  1.
         25    1    1    2    0    0 -0.71016559201E+02 -0.86437814996E+03  0.10521721153E+04  0.13692640717E+04  0.12500000000E+03 0.  0.
         25    1    1    2    0    0 -0.38323831109E+02 -0.22304864654E+03  0.38059834949E+03  0.46010815944E+03  0.12500000000E+03 0.  0.
         25    1    1    2    0    0  0.10934039031E+03  0.10874267965E+04  0.16853823694E+04  0.20126080318E+04  0.12500000000E+03 0.  0.
</event>
<event>
 5    0  0.5612316E-005  0.4435271E+03  0.7546771E-02  0.1029670E+00
         21   -1    0    0  502  501  0.00000000000E+00  0.00000000000E+00  0.29301231471E+03  0.29301231471E+03  0.00000000000E+00 0. -1.
         21   -1    0    0  501  502 -0.00000000000E+00 -0.00000000000E+00 -0.67135843356E+03  0.67135843356E+03  0.00000000000E+00 0. -1.
         25    1    1    2    0    0 -0.16402855082E+03  0.23987789283E+03 -0.16000207705E+03  0.35450307983E+03  0.12500000000E+03 0.  0.
         25    1    1    2    0    0 -0.97313637135E+02 -0.12978169223E+03 -0.21916675476E+03  0.29995382645E+03  0.12500000000E+03 0.  0.
         25    1    1    2    0    0  0.26134218796E+03 -0.11009620060E+03  0.82271296397E+00  0.30991384198E+03  0.12500000000E+03 0.  0.
</event>
<event>
 5    0  0.5612316E-005  0.6602432E+03  0.7546771E-02  0.9787746E-01
         21   -1    0    0  502  501  0.00000000000E+00  0.00000000000E+00  0.13573924617E+04  0.13573924617E+04  0.00000000000E+00 0. -1.
         21   -1    0    0  501  502 -0.00000000000E+00 -0.00000000000E+00 -0.32114596569E+03  0.32114596569E+03  0.00000000000E+00 0. -1.
         25    1    1    2    0    0 -0.44794960966E+03  0.14332337050E+03  0.74739989336E+03  0.89186996918E+03  0.12500000000E+03 0.  0.
         25    1    1    2    0    0  0.27109956172E+03 -0.27354451020E+03  0.34014143144E+03  0.52881259895E+03  0.12500000000E+03 0.  0.
         25    1    1    2    0    0  0.17685004794E+03  0.13022113970E+03 -0.51294828818E+02  0.25785585924E+03  0.12500000000E+03 0.  0.
</event>
<event>
 5    0  0.5612316E-005  0.2663261E+03  0.7546771E-02  0.1103401E+00
         21   -1    0    0  502  501  0.00000000000E+00  0.00000000000E+00  0.53716963873E+03  0.53716963873E+03  0.00000000000E+00 0.  1.
         21   -1    0    0  501  502 -0.00000000000E+00 -0.00000000000E+00 -0.13204318184E+03  0.13204318184E+03  0.00000000000E+00 0.  1.
         25    1    1    2    0    0 -0.74666456769E+02  0.10766302965E+03  0.12742921113E+03  0.22142631182E+03  0.12500000000E+03 0.  0.
         25    1    1    2    0    0  0.47597022199E+02 -0.13729033820E+03  0.24755662866E+03  0.31308688551E+03  0.12500000000E+03 0.  0.
         25    1    1    2    0    0  0.27069434571E+02  0.29627308549E+02  0.30140617099E+02  0.13469962323E+03  0.12500000000E+03 0.  0.
</event>
<event>
 5    0  0.5612316E-005  0.3231523E+03  0.7546771E-02  0.1074208E+00
         21   -1    0    0  502  501  0.00000000000E+00  0.00000000000E+00  0.54273809728E+03  0.54273809728E+03  0.00000000000E+00 0.  1.
         21   -1    0    0  501  502 -0.00000000000E+00 -0.00000000000E+00 -0.19240843045E+03  0.19240843045E+03  0.00000000000E+00 0.  1.
         25    1    1    2    0    0  0.75675533404E+02 -0.41973619400E+02 -0.36716551113E+02  0.15640228965E+03  0.12500000000E+03 0.  0.
         25    1    1    2    0    0  0.94993561250E+02  0.99968010217E+02  0.82906172194E+02  0.20375429599E+03  0.12500000000E+03 0.  0.
         25    1    1    2    0    0 -0.17066909465E+03 -0.57994390818E+02  0.30414004575E+03  0.37498994209E+03  0.12500000000E+03 0.  0.
</event>
<event>
 5    0  0.5612316E-005  0.2496792E+03  0.7546771E-02  0.1113508E+00
         21   -1    0    0  502  501  0.00000000000E+00  0.00000000000E+00  0.30864525408E+02  0.30864525408E+02  0.00000000000E+00 0. -1.
         21   -1    0    0  501  502 -0.00000000000E+00 -0.00000000000E+00 -0.20197854167E+04  0.20197854167E+04  0.00000000000E+00 0. -1.
         25    1    1    2    0    0  0.77411897001E+02  0.98126541880E+02 -0.65722457536E+03  0.68058104769E+03  0.12500000000E+03 0.  0.
         25    1    1    2    0    0 -0.78651538371E+02  0.19316416677E+02 -0.68569233059E+03  0.70168237877E+03  0.12500000000E+03 0.  0.
         25    1    1    2    0    0  0.12396413701E+01 -0.11744295856E+03 -0.64600398529E+03  0.66838651560E+03  0.12500000000E+03 0.  0.
</event>
<event>
 5    0  0.5612316E-005  0.2540227E+03  0.7546771E-02  0.1110789E+00
         21   -1    0    0  502  501  0.00000000000E+00  0.00000000000E+00  0.53004031569E+03  0.53004031569E+03  0.00000000000E+00 0.  1.
         21   -1    0    0  501  502 -0.00000000000E+00 -0.00000000000E+00 -0.12174081187E+03  0.12174081187E+03  0.00000000000E+00 0.  1.
         25    1    1    2    0    0 -0.82911637157E+02 -0.92390332539E+02  0.16179513881E+03  0.23919234951E+03  0.12500000000E+03 0.  0.
         25    1    1    2    0    0  0.70821448098E+02 -0.38216398678E+02  0.95208056148E+02  0.17653822417E+03  0.12500000000E+03 0.  0.
         25    1    1    2    0    0  0.12090189059E+02  0.13060673122E+03  0.15129630886E+03  0.23605055388E+03  0.12500000000E+03 0.  0.
</event>
<event>
 5    0  0.5612316E-005  0.1987704E+03  0.7546771E-02  0.1150781E+00
         21   -1    0    0  502  501  0.00000000000E+00  0.00000000000E+00  0.17862708973E+04  0.17862708973E+04  0.00000000000E+00 0.  1.
         21   -1    0    0  501  502 -0.00000000000E+00 -0.00000000000E+00 -0.22118520787E+02  0.22118520787E+02  0.00000000000E+00 0.  1.
         25    1    1    2    0    0  0.18846105906E+02  0.22346620902E+02  0.47707845758E+03  0.49404797526E+03  0.12500000000E+03 0.  0.
         25    1    1    2    0    0 -0.19733071536E+02  0.29918286015E+02  0.68156150471E+03  0.69385559207E+03  0.12500000000E+03 0.  0.
         25    1    1    2    0    0  0.88696563073E+00 -0.52264906917E+02  0.60551241420E+03  0.62048585073E+03  0.12500000000E+03 0.  0.
</event>
<event>
 5    0  0.5612316E-005  0.2760654E+03  0.7546771E-02  0.1097858E+00
         21   -1    0    0  502  501  0.00000000000E+00  0.00000000000E+00  0.12167945269E+04  0.12167945269E+04  0.00000000000E+00 0.  1.
         21   -1    0    0  501  502 -0.00000000000E+00 -0.00000000000E+00 -0.62633501739E+02  0.62633501739E+02  0.00000000000E+00 0.  1.
         25    1    1    2    0    0 -0.26105809542E+02  0.54880740110E+02  0.84629769074E+03  0.85763523148E+03  0.12500000000E+03 0.  0.
         25    1    1    2    0    0  0.53626753430E+02 -0.68364224162E+02  0.21344942412E+03  0.26217389742E+03  0.12500000000E+03 0.  0.
         25    1    1    2    0    0 -0.27520943888E+02  0.13483484052E+02  0.94413910284E+02  0.15961889973E+03  0.12500000000E+03 0.  0.
</event>
<event>
 5    0  0.5612316E-005  0.2848437E+03  0.7546771E-02  0.1093072E+00
         21   -1    0    0  502  501  0.00000000000E+00  0.00000000000E+00  0.12807175682E+04  0.12807175682E+04  0.00000000000E+00 0.  1.
         21   -1    0    0  501  502 -0.00000000000E+00 -0.00000000000E+00 -0.63351928748E+02  0.63351928748E+02  0.00000000000E+00 0.  1.
         25    1    1    2    0    0  0.18108383699E+03 -0.34222861022E+02  0.46213902900E+03  0.51299126928E+03  0.12500000000E+03 0.  0.
         25    1    1    2    0    0 -0.11081332844E+03  0.92755925546E+02  0.38679329505E+03  0.43141315300E+03  0.12500000000E+03 0.  0.
         25    1    1    2    0    0 -0.70270508553E+02 -0.58533064524E+02  0.36843331545E+03  0.39966507472E+03  0.12500000000E+03 0.  0.
</event>
<event>
 5    0  0.5612316E-005  0.3214279E+03  0.7546771E-02  0.1074994E+00
         21   -1    0    0  502  501  0.00000000000E+00  0.00000000000E+00  0.13417240999E+03  0.13417240999E+03  0.00000000000E+00 0. -1.
         21   -1    0    0  501  502 -0.00000000000E+00 -0.00000000000E+00 -0.77002326043E+03  0.77002326043E+03  0.00000000000E+00 0. -1.
         25    1    1    2    0    0  0.66095874836E+02 -0.11399841060E+03 -0.46641447157E+03  0.50053147911E+03  0.12500000000E+03 0.  0.
         25    1    1    2    0    0  0.17783167739E+02  0.11218319684E+03  0.10297658121E+02  0.16921097030E+03  0.12500000000E+03 0.  0.
         25    1    1    2    0    0 -0.83879042576E+02  0.18152137555E+01 -0.17973403699E+03  0.23445322100E+03  0.12500000000E+03 0.  0.
</event>
<event>
 5    0  0.5713288E-005  0.2743999E+03  0.7546771E-02  0.1098787E+00
         21   -1    0    0  502  501  0.00000000000E+00  0.00000000000E+00  0.47996462922E+03  0.47996462922E+03  0.00000000000E+00 0. -1.
         21   -1    0    0  501  502 -0.00000000000E+00 -0.00000000000E+00 -0.15687682374E+03  0.15687682374E+03  0.00000000000E+00 0. -1.
         25    1    1    2    0    0 -0.31480455901E+02  0.41674644713E+02 -0.30657267638E+02  0.13889803157E+03  0.12500000000E+03 0.  0.
         25    1    1    2    0    0  0.44935314302E+02 -0.10462510210E+03  0.73431543114E+02  0.18434420519E+03  0.12500000000E+03 0.  0.
         25    1    1    2    0    0 -0.13454858401E+02  0.62950457391E+02  0.28031353000E+03  0.31359921620E+03  0.12500000000E+03 0.  0.
</event>
<event>
 5    0  0.5612316E-005  0.6848349E+03  0.7546771E-02  0.9743524E-01
         21   -1    0    0  502  501  0.00000000000E+00  0.00000000000E+00  0.38791529006E+03  0.38791529006E+03  0.00000000000E+00 0.  1.
         21   -1    0    0  501  502 -0.00000000000E+00 -0.00000000000E+00 -0.12090237493E+04  0.12090237493E+04  0.00000000000E+00 0.  1.
         25    1    1    2    0    0  0.47958474198E+02  0.27890767789E+03  0.22298732244E+03  0.38136315240E+03  0.12500000000E+03 0.  0.
         25    1    1    2    0    0  0.38378489902E+02  0.10628180466E+03 -0.13253853607E+03  0.21438328767E+03  0.12500000000E+03 0.  0.
         25    1    1    2    0    0 -0.86336964100E+02 -0.38518948255E+03 -0.91155724560E+03  0.10011925993E+04  0.12500000000E+03 0.  0.
</event>
<event>
 5    0  0.5612316E-005  0.4545044E+03  0.7546771E-02  0.1026387E+00
         21   -1    0    0  502  501  0.00000000000E+00  0.00000000000E+00  0.15183459380E+03  0.15183459380E+03  0.00000000000E+00 0.  1.
         21   -1    0    0  501  502 -0.00000000000E+00 -0.00000000000E+00 -0.13605216956E+04  0.13605216956E+04  0.00000000000E+00 0.  1.
         25    1    1    2    0    0 -0.21846871269E+03 -0.51122962912E+02 -0.69108561003E+02  0.26597580522E+03  0.12500000000E+03 0.  0.
         25    1    1    2    0    0  0.68595444361E+02 -0.16060036043E+03 -0.43144282297E+03  0.48193954004E+03  0.12500000000E+03 0.  0.
         25    1    1    2    0    0  0.14987326832E+03  0.21172332335E+03 -0.70813571782E+03  0.76444094413E+03  0.12500000000E+03 0.  0.
</event>
<event>
 5    0  0.5612316E-005  0.3677096E+03  0.7546771E-02  0.1055572E+00
         21   -1    0    0  502  501  0.00000000000E+00  0.00000000000E+00  0.32109043378E+03  0.32109043378E+03  0.00000000000E+00 0.  1.
         21   -1    0    0  501  502 -0.00000000000E+00 -0.00000000000E+00 -0.42109743275E+03  0.42109743275E+03  0.00000000000E+00 0.  1.
         25    1    1    2    0    0 -0.13217938399E+03  0.11692567918E+02 -0.69965181045E+02  0.19526451868E+03  0.12500000000E+03 0.  0.
         25    1    1    2    0    0 -0.73994043006E+01  0.49349242325E+02  0.20185085122E+03  0.24260846037E+03  0.12500000000E+03 0.  0.
         25    1    1    2    0    0  0.13957878829E+03 -0.61041810242E+02 -0.23189266915E+03  0.30431488748E+03  0.12500000000E+03 0.  0.
</event>
<event>
 5    0  0.5612316E-005  0.3784216E+03  0.7546771E-02  0.1051519E+00
         21   -1    0    0  502  501  0.00000000000E+00  0.00000000000E+00  0.74822244807E+03  0.74822244807E+03  0.00000000000E+00 0. -1.
         21   -1    0    0  501  502 -0.00000000000E+00 -0.00000000000E+00 -0.19139079637E+03  0.19139079637E+03  0.00000000000E+00 0. -1.
         25    1    1    2    0    0  0.11936531662E+03  0.10714295321E+03  0.29672477903E+03  0.35971973218E+03  0.12500000000E+03 0.  0.
         25    1    1    2    0    0 -0.10022470672E+03  0.70615311359E+02 -0.66364268930E+02  0.18724510735E+03  0.12500000000E+03 0.  0.
         25    1    1    2    0    0 -0.19140609897E+02 -0.17775826457E+03  0.32647114160E+03  0.39264840490E+03  0.12500000000E+03 0.  0.
</event>
<event>
 5    0  0.5612316E-005  0.4371204E+03  0.7546771E-02  0.1031634E+00
         21   -1    0    0  502  501  0.00000000000E+00  0.00000000000E+00  0.13024685238E+04  0.13024685238E+04  0.00000000000E+00 0.  1.
         21   -1    0    0  501  502 -0.00000000000E+00 -0.00000000000E+00 -0.14670161121E+03  0.14670161121E+03  0.00000000000E+00 0.  1.
         25    1    1    2    0    0  0.18006615820E+02 -0.16499659168E+03 -0.42740381300E+01  0.20782536150E+03  0.12500000000E+03 0.  0.
         25    1    1    2    0    0  0.14124836035E+03  0.14046985662E+03  0.55178085890E+03  0.59980829952E+03  0.12500000000E+03 0.  0.
         25    1    1    2    0    0 -0.15925497617E+03  0.24526735061E+02  0.60826009178E+03  0.64153647396E+03  0.12500000000E+03 0.  0.
</event>
<event>
 5    0  0.5612316E-005  0.3429177E+03  0.7546771E-02  0.1065560E+00
         21   -1    0    0  502  501  0.00000000000E+00  0.00000000000E+00  0.20527292438E+03  0.20527292438E+03  0.00000000000E+00 0. -1.
         21   -1    0    0  501  502 -0.00000000000E+00 -0.00000000000E+00 -0.57285957088E+03  0.57285957088E+03  0.00000000000E+00 0. -1.
         25    1    1    2    0    0 -0.13878299234E+00 -0.41949892174E+02 -0.97315469787E+02  0.16387529824E+03  0.12500000000E+03 0.  0.
         25    1    1    2    0    0 -0.21895974753E+03 -0.37474117180E+02 -0.29471332266E+02  0.25659547916E+03  0.12500000000E+03 0.  0.
         25    1    1    2    0    0  0.21909853053E+03  0.79424009354E+02 -0.24079984445E+03  0.35766171787E+03  0.12500000000E+03 0.  0.
</event>
<event>
 5    0  0.5612316E-005  0.3185748E+03  0.7546771E-02  0.1076307E+00
         21   -1    0    0  502  501  0.00000000000E+00  0.00000000000E+00  0.34305700443E+03  0.34305700443E+03  0.00000000000E+00 0. -1.
         21   -1    0    0  501  502 -0.00000000000E+00 -0.00000000000E+00 -0.29583978798E+03  0.29583978798E+03  0.00000000000E+00 0. -1.
         25    1    1    2    0    0 -0.13044877394E+03 -0.43904194177E+02 -0.18546579496E+02  0.18685137543E+03  0.12500000000E+03 0.  0.
         25    1    1    2    0    0  0.17904221727E+03 -0.10860678151E+03  0.43656686123E+02  0.24775482800E+03  0.12500000000E+03 0.  0.
         25    1    1    2    0    0 -0.48593443328E+02  0.15251097568E+03  0.22107109824E+02  0.20429058897E+03  0.12500000000E+03 0.  0.
</event>
<event>
 5    0  0.5612316E-005  0.2528129E+03  0.7546771E-02  0.1111540E+00
         21   -1    0    0  502  501  0.00000000000E+00  0.00000000000E+00  0.52547752798E+03  0.52547752798E+03  0.00000000000E+00 0.  1.
         21   -1    0    0  501  502 -0.00000000000E+00 -0.00000000000E+00 -0.12163101046E+03  0.12163101046E+03  0.00000000000E+00 0.  1.
         25    1    1    2    0    0 -0.13392436543E+03  0.42800178599E+02  0.12889890736E+03  0.22805157150E+03  0.12500000000E+03 0.  0.
         25    1    1    2    0    0  0.30190015880E+02 -0.60970134735E+02  0.75213700696E+02  0.16096861545E+03  0.12500000000E+03 0.  0.
         25    1    1    2    0    0  0.10373434955E+03  0.18169956136E+02  0.19973390946E+03  0.25808835149E+03  0.12500000000E+03 0.  0.
</event>
<event>
 5    0  0.5612316E-005  0.4397054E+03  0.7546771E-02  0.1030837E+00
         21   -1    0    0  502  501  0.00000000000E+00  0.00000000000E+00  0.91549113258E+03  0.91549113258E+03  0.00000000000E+00 0.  1.
         21   -1    0    0  501  502 -0.00000000000E+00 -0.00000000000E+00 -0.21118814835E+03  0.21118814835E+03  0.00000000000E+00 0.  1.
         25    1    1    2    0    0  0.17307554605E+02  0.10550788791E+03  0.25593587647E+03  0.30423615617E+03  0.12500000000E+03 0.  0.
         25    1    1    2    0    0 -0.29751288601E+03 -0.18570521667E+03  0.23876452525E+03  0.44230514733E+03  0.12500000000E+03 0.  0.
         25    1    1    2    0    0  0.28020533140E+03  0.80197328761E+02  0.20960258251E+03  0.38013797742E+03  0.12500000000E+03 0.  0.
</event>
<event>
 5    0  0.5612316E-005  0.4765077E+03  0.7546771E-02  0.1020099E+00
         21   -1    0    0  502  501  0.00000000000E+00  0.00000000000E+00  0.65286787149E+03  0.65286787149E+03  0.00000000000E+00 0.  1.
         21   -1    0    0  501  502 -0.00000000000E+00 -0.00000000000E+00 -0.34778791646E+03  0.34778791646E+03  0.00000000000E+00 0.  1.
         25    1    1    2    0    0  0.26551785404E+03 -0.31449280413E+03  0.16662784170E+03  0.46129740113E+03  0.12500000000E+03 0.  0.
         25    1    1    2    0    0 -0.19676286927E+03  0.12002118704E+03  0.14193352136E+03  0.29814566330E+03  0.12500000000E+03 0.  0.
         25    1    1    2    0    0 -0.68754984769E+02  0.19447161709E+03 -0.34814080203E+01  0.24121272352E+03  0.12500000000E+03 0.  0.
</event>
<event>
 5    0  0.8305723E-005  0.9080298E+03  0.7546771E-02  0.9415599E-01
         21   -1    0    0  502  501  0.00000000000E+00  0.00000000000E+00  0.15160312824E+04  0.15160312824E+04  0.00000000000E+00 0.  1.
         21   -1    0    0  501  502 -0.00000000000E+00 -0.00000000000E+00 -0.54386619549E+03  0.54386619549E+03  0.00000000000E+00 0.  1.
         25    1    1    2    0    0 -0.15555940281E+03 -0.35878084883E+03  0.78831834721E+02  0.41804531268E+03  0.12500000000E+03 0.  0.
         25    1    1    2    0    0  0.59927030214E+03 -0.16318646650E+03  0.21324892077E+03  0.66847200397E+03  0.12500000000E+03 0.  0.
         25    1    1    2    0    0 -0.44371089933E+03  0.52196731534E+03  0.68008433143E+03  0.97338016125E+03  0.12500000000E+03 0.  0.
</event>
<event>
 5    0  0.5612316E-005  0.4901810E+03  0.7546771E-02  0.1016374E+00
         21   -1    0    0  502  501  0.00000000000E+00  0.00000000000E+00  0.42679037342E+03  0.42679037342E+03  0.00000000000E+00 0.  1.
         21   -1    0    0  501  502 -0.00000000000E+00 -0.00000000000E+00 -0.56298687855E+03  0.56298687855E+03  0.00000000000E+00 0.  1.
         25    1    1    2    0    0 -0.21753374977E+03  0.63225989384E+02  0.30591038830E+03  0.40065524294E+03  0.12500000000E+03 0.  0.
         25    1    1    2    0    0  0.20068139777E+03 -0.84235261017E+02 -0.35355979002E+03  0.43358750874E+03  0.12500000000E+03 0.  0.
         25    1    1    2    0    0  0.16852351994E+02  0.21009271633E+02 -0.88547103412E+02  0.15553450030E+03  0.12500000000E+03 0.  0.
</event>
<event>
 5    0  0.5612316E-005  0.4249592E+03  0.7546771E-02  0.1035464E+00
         21   -1    0    0  502  501  0.00000000000E+00  0.00000000000E+00  0.16847813187E+03  0.16847813187E+03  0.00000000000E+00 0. -1.
         21   -1    0    0  501  502 -0.00000000000E+00 -0.00000000000E+00 -0.10718917462E+04  0.10718917462E+04  0.00000000000E+00 0. -1.
         25    1    1    2    0    0 -0.23865850650E+03 -0.23538237526E+03 -0.20622621160E+03  0.41293703594E+03  0.12500000000E+03 0.  0.
         25    1    1    2    0    0  0.20002560645E+03  0.15840357191E+03 -0.36790868118E+03  0.46484807467E+03  0.12500000000E+03 0.  0.
         25    1    1    2    0    0  0.38632900043E+02  0.76978803342E+02 -0.32927872153E+03  0.36258476745E+03  0.12500000000E+03 0.  0.
</event>
<event>
 5    0  0.5612316E-005  0.2145650E+03  0.7546771E-02  0.1138001E+00
         21   -1    0    0  502  501  0.00000000000E+00  0.00000000000E+00  0.10670570234E+03  0.10670570234E+03  0.00000000000E+00 0. -1.
         21   -1    0    0  501  502 -0.00000000000E+00 -0.00000000000E+00 -0.43144954838E+03  0.43144954838E+03  0.00000000000E+00 0. -1.
         25    1    1    2    0    0  0.27257352437E+02 -0.19380426689E+02 -0.59370164968E+02  0.14236706322E+03  0.12500000000E+03 0.  0.
         25    1    1    2    0    0 -0.71696619713E+02 -0.38105860227E+02 -0.13542165328E+03  0.20138640977E+03  0.12500000000E+03 0.  0.
         25    1    1    2    0    0  0.44439267276E+02  0.57486286916E+02 -0.12995202779E+03  0.19440177773E+03  0.12500000000E+03 0.  0.
</event>
<event>
 5    0  0.5612316E-005  0.4919740E+03  0.7546771E-02  0.1015895E+00
         21   -1    0    0  502  501  0.00000000000E+00  0.00000000000E+00  0.91703985178E+02  0.91703985178E+02  0.00000000000E+00 0.  1.
         21   -1    0    0  501  502 -0.00000000000E+00 -0.00000000000E+00 -0.26393448738E+04  0.26393448738E+04  0.00000000000E+00 0.  1.
         25    1    1    2    0    0 -0.16599465820E+03 -0.25125778579E+03 -0.16470450946E+04  0.16790078157E+04  0.12500000000E+03 0.  0.
         25    1    1    2    0    0 -0.56248768541E+02  0.10309604468E+03 -0.62605531914E+03  0.64912478077E+03  0.12500000000E+03 0.  0.
         25    1    1    2    0    0  0.22224342674E+03  0.14816174111E+03 -0.27454047489E+03  0.40291626253E+03  0.12500000000E+03 0.  0.
</event>
<event>
 5    0  0.5612316E-005  0.4403556E+03  0.7546771E-02  0.1030638E+00
         21   -1    0    0  502  501  0.00000000000E+00  0.00000000000E+00  0.16301714512E+03  0.16301714512E+03  0.00000000000E+00 0. -1.
         21   -1    0    0  501  502 -0.00000000000E+00 -0.00000000000E+00 -0.11895257528E+04  0.11895257528E+04  0.00000000000E+00 0. -1.
         25    1    1    2    0    0 -0.34684732264E+03 -0.93469665892E+02 -0.30185015779E+03  0.48556993463E+03  0.12500000000E+03 0.  0.
         25    1    1    2    0    0  0.16295919660E+03 -0.49577404786E+02 -0.30756973624E+03  0.37314576438E+03  0.12500000000E+03 0.  0.
         25    1    1    2    0    0  0.18388812604E+03  0.14304707068E+03 -0.41708871367E+03  0.49382719893E+03  0.12500000000E+03 0.  0.
</event>
<event>
 5    0  0.5612316E-005  0.2677707E+03  0.7546771E-02  0.1102562E+00
         21   -1    0    0  502  501  0.00000000000E+00  0.00000000000E+00  0.26577438372E+03  0.26577438372E+03  0.00000000000E+00 0. -1.
         21   -1    0    0  501  502 -0.00000000000E+00 -0.00000000000E+00 -0.26978195097E+03  0.26978195097E+03  0.00000000000E+00 0. -1.
         25    1    1    2    0    0  0.27705615758E+01 -0.73341196008E+02 -0.60215894051E+02  0.15696356564E+03  0.12500000000E+03 0.  0.
         25    1    1    2    0    0 -0.28693297586E+02  0.16552837610E+03 -0.54902555471E+01  0.20947098016E+03  0.12500000000E+03 0.  0.
         25    1    1    2    0    0  0.25922736011E+02 -0.92187180093E+02  0.61698582350E+02  0.16912178890E+03  0.12500000000E+03 0.  0.
</event>
<event>
 5    0  0.5612316E-005  0.2954577E+03  0.7546771E-02  0.1087534E+00
         21   -1    0    0  502  501  0.00000000000E+00  0.00000000000E+00  0.41097987875E+03  0.41097987875E+03  0.00000000000E+00 0.  1.
         21   -1    0    0  501  502 -0.00000000000E+00 -0.00000000000E+00 -0.21240754919E+03  0.21240754919E+03  0.00000000000E+00 0.  1.
         25    1    1    2    0    0 -0.46028888971E+02  0.42756718645E+02  0.80475355334E+01  0.14013050502E+03  0.12500000000E+03 0.  0.
         25    1    1    2    0    0 -0.11528103801E+03 -0.12316592697E+03  0.31457153328E+02  0.21230665507E+03  0.12500000000E+03 0.  0.
         25    1    1    2    0    0  0.16130992698E+03  0.80409208324E+02  0.15906764070E+03  0.27095026785E+03  0.12500000000E+03 0.  0.
</event>
<event>
 5    0  0.5612316E-005  0.2902984E+03  0.7546771E-02  0.1090193E+00
         21   -1    0    0  502  501  0.00000000000E+00  0.00000000000E+00  0.33163324358E+03  0.33163324358E+03  0.00000000000E+00 0. -1.
         21   -1    0    0  501  502 -0.00000000000E+00 -0.00000000000E+00 -0.25411546313E+03  0.25411546313E+03  0.00000000000E+00 0. -1.
         25    1    1    2    0    0  0.32915724006E+02 -0.13607288223E+03 -0.48891550420E+02  0.19394498670E+03  0.12500000000E+03 0.  0.
         25    1    1    2    0    0  0.81017113206E+02  0.88972343120E+02  0.12901412326E+03  0.21621631407E+03  0.12500000000E+03 0.  0.
         25    1    1    2    0    0 -0.11393283721E+03  0.47100539106E+02 -0.26047923801E+01  0.17558740593E+03  0.12500000000E+03 0.  0.
</event>
<event>
 5    0  0.6009927E-005  0.2856646E+03  0.7546771E-02  0.1092635E+00
         21   -1    0    0  502  501  0.00000000000E+00  0.00000000000E+00  0.30951047940E+03  0.30951047940E+03  0.00000000000E+00 0.  1.
         21   -1    0    0  501  502 -0.00000000000E+00 -0.00000000000E+00 -0.26365594473E+03  0.26365594473E+03  0.00000000000E+00 0.  1.
         25    1    1    2    0    0 -0.34726637859E+02 -0.12936924522E+03 -0.11507383796E+03  0.21635463750E+03  0.12500000000E+03 0.  0.
         25    1    1    2    0    0  0.75189957302E+02  0.44275893114E+02  0.12266809205E+03  0.19566896840E+03  0.12500000000E+03 0.  0.
         25    1    1    2    0    0 -0.40463319443E+02  0.85093352108E+02  0.38260280584E+02  0.16114281822E+03  0.12500000000E+03 0.  0.
</event>
<event>
 5    0  0.5612316E-005  0.2017560E+03  0.7546771E-02  0.1148266E+00
         21   -1    0    0  502  501  0.00000000000E+00  0.00000000000E+00  0.71637071492E+02  0.71637071492E+02  0.00000000000E+00 0. -1.
         21   -1    0    0  501  502 -0.00000000000E+00 -0.00000000000E+00 -0.56821811235E+03  0.56821811235E+03  0.00000000000E+00 0. -1.
         25    1    1    2    0    0 -0.28637632617E+01 -0.22198478013E+00 -0.13442370726E+03  0.18358372338E+03  0.12500000000E+03 0.  0.
         25    1    1    2    0    0 -0.25708522992E+02  0.47573555204E+02 -0.13916800215E+03  0.19472263384E+03  0.12500000000E+03 0.  0.
         25    1    1    2    0    0  0.28572286254E+02 -0.47351570423E+02 -0.22298933145E+03  0.26154882661E+03  0.12500000000E+03 0.  0.
</event>
<event>
 5    0  0.5612316E-005  0.2701844E+03  0.7546771E-02  0.1101174E+00
         21   -1    0    0  502  501  0.00000000000E+00  0.00000000000E+00  0.12520426699E+04  0.12520426699E+04  0.00000000000E+00 0.  1.
         21   -1    0    0  501  502 -0.00000000000E+00 -0.00000000000E+00 -0.58304401558E+02  0.58304401558E+02  0.00000000000E+00 0.  1.
         25    1    1    2    0    0 -0.16937322486E+02 -0.12163432395E+03  0.25104443714E+03  0.30615370498E+03  0.12500000000E+03 0.  0.
         25    1    1    2    0    0  0.15200500717E+02  0.80988764379E+02  0.19932059979E+03  0.24928685621E+03  0.12500000000E+03 0.  0.
         25    1    1    2    0    0  0.17368217687E+01  0.40645559572E+02  0.74337323144E+03  0.75490651029E+03  0.12500000000E+03 0.  0.
</event>
<event>
 5    0  0.5612316E-005  0.3127375E+03  0.7546771E-02  0.1079041E+00
         21   -1    0    0  502  501  0.00000000000E+00  0.00000000000E+00  0.66053694792E+03  0.66053694792E+03  0.00000000000E+00 0. -1.
         21   -1    0    0  501  502 -0.00000000000E+00 -0.00000000000E+00 -0.14806852756E+03  0.14806852756E+03  0.00000000000E+00 0. -1.
         25    1    1    2    0    0  0.12745737542E+03  0.18298154980E+03  0.31853307804E+03  0.40843108589E+03  0.12500000000E+03 0.  0.
         25    1    1    2    0    0 -0.75293043457E+02 -0.12789449911E+03  0.15637183518E+03  0.24920512863E+03  0.12500000000E+03 0.  0.
         25    1    1    2    0    0 -0.52164331966E+02 -0.55087050690E+02  0.37563507138E+02  0.15096926095E+03  0.12500000000E+03 0.  0.
</event>
<event>
 5    0  0.5612316E-005  0.3145678E+03  0.7546771E-02  0.1078177E+00
         21   -1    0    0  502  501  0.00000000000E+00  0.00000000000E+00  0.68825180033E+03  0.68825180033E+03  0.00000000000E+00 0.  1.
         21   -1    0    0  501  502 -0.00000000000E+00 -0.00000000000E+00 -0.14377425262E+03  0.14377425262E+03  0.00000000000E+00 0.  1.
         25    1    1    2    0    0 -0.12007969644E+03  0.13574216736E+03  0.17545239606E+03  0.28152018184E+03  0.12500000000E+03 0.  0.
         25    1    1    2    0    0 -0.67738782284E+02 -0.58058410686E+02  0.72294754871E+02  0.16973760119E+03  0.12500000000E+03 0.  0.
         25    1    1    2    0    0  0.18781847873E+03 -0.77683756675E+02  0.29673039678E+03  0.38076826992E+03  0.12500000000E+03 0.  0.
</event>
<event>
 5    0  0.5612316E-005  0.3455892E+03  0.7546771E-02  0.1064440E+00
         21   -1    0    0  502  501  0.00000000000E+00  0.00000000000E+00  0.54999125973E+03  0.54999125973E+03  0.00000000000E+00 0. -1.
         21   -1    0    0  501  502 -0.00000000000E+00 -0.00000000000E+00 -0.21715236977E+03  0.21715236977E+03  0.00000000000E+00 0. -1.
         25    1    1    2    0    0  0.66852868665E+02 -0.17606675396E+03  0.23494808493E+03  0.32602823576E+03  0.12500000000E+03 0.  0.
         25    1    1    2    0    0 -0.62499295140E+02  0.22589241465E+03  0.13971820027E+03  0.30013283788E+03  0.12500000000E+03 0.  0.
         25    1    1    2    0    0 -0.43535735255E+01 -0.49825660682E+02 -0.41827395242E+02  0.14098255586E+03  0.12500000000E+03 0.  0.
</event>
<event>
 5    0  0.5612316E-005  0.3404082E+03  0.7546771E-02  0.1066622E+00
         21   -1    0    0  502  501  0.00000000000E+00  0.00000000000E+00  0.27636699099E+03  0.27636699099E+03  0.00000000000E+00 0. -1.
         21   -1    0    0  501  502 -0.00000000000E+00 -0.00000000000E+00 -0.41928944319E+03  0.41928944319E+03  0.00000000000E+00 0. -1.
         25    1    1    2    0    0  0.19815448955E+03  0.44348425932E+02 -0.25608208368E+03  0.34990715654E+03  0.12500000000E+03 0.  0.
         25    1    1    2    0    0 -0.87444777780E+02  0.43636714236E+01  0.47556715410E+02  0.15985078032E+03  0.12500000000E+03 0.  0.
         25    1    1    2    0    0 -0.11070971177E+03 -0.48712097356E+02  0.65602916072E+02  0.18589849732E+03  0.12500000000E+03 0.  0.
</event>
<event>
 5    0  0.5763462E-005  0.3392229E+03  0.7546771E-02  0.1067127E+00
         21   -1    0    0  502  501  0.00000000000E+00  0.00000000000E+00  0.21549385492E+03  0.21549385492E+03  0.00000000000E+00 0.  1.
         21   -1    0    0  501  502 -0.00000000000E+00 -0.00000000000E+00 -0.53399280528E+03  0.53399280528E+03  0.00000000000E+00 0.  1.
         25    1    1    2    0    0  0.61069865434E+02  0.10377620573E+03 -0.95068087052E+02  0.19789383648E+03  0.12500000000E+03 0.  0.
         25    1    1    2    0    0  0.16258861159E+03 -0.14363732332E+02 -0.91006490194E+01  0.20578920098E+03  0.12500000000E+03 0.  0.
         25    1    1    2    0    0 -0.22365847703E+03 -0.89412473396E+02 -0.21433021429E+03  0.34580362274E+03  0.12500000000E+03 0.  0.
</event>
<event>
 5    0  0.5612316E-005  0.3180876E+03  0.7546771E-02  0.1076533E+00
         21   -1    0    0  502  501  0.00000000000E+00  0.00000000000E+00  0.15089053502E+03  0.15089053502E+03  0.00000000000E+00 0. -1.
         21   -1    0    0  501  502 -0.00000000000E+00 -0.00000000000E+00 -0.67055030734E+03  0.67055030734E+03  0.00000000000E+00 0. -1.
         25    1    1    2    0    0 -0.17870783533E+03 -0.93904850146E+02 -0.26301566393E+03  0.35434002139E+03  0.12500000000E+03 0.  0.
         25    1    1    2    0    0 -0.17016108535E+02  0.63073216241E+02 -0.36646186182E+02  0.14572481435E+03  0.12500000000E+03 0.  0.
         25    1    1    2    0    0  0.19572394386E+03  0.30831633905E+02 -0.21999792222E+03  0.32137600662E+03  0.12500000000E+03 0.  0.
</event>
<event>
 5    0  0.5635478E-005  0.2607724E+03  0.7546771E-02  0.1106680E+00
         21   -1    0    0  502  501  0.00000000000E+00  0.00000000000E+00  0.59590399983E+03  0.59590399983E+03  0.00000000000E+00 0.  1.
         21   -1    0    0  501  502 -0.00000000000E+00 -0.00000000000E+00 -0.11411613705E+03  0.11411613705E+03  0.00000000000E+00 0.  1.
         25    1    1    2    0    0 -0.81246455620E+02 -0.12697782811E+02  0.15378462896E+03  0.21456218759E+03  0.12500000000E+03 0.  0.
         25    1    1    2    0    0  0.94054653462E+02 -0.45862774413E+02  0.28585944326E+02  0.16550476769E+03  0.12500000000E+03 0.  0.
         25    1    1    2    0    0 -0.12808197842E+02  0.58560557224E+02  0.29941728950E+03  0.32995318160E+03  0.12500000000E+03 0.  0.
</event>
<event>
 5    0  0.5612316E-005  0.3549361E+03  0.7546771E-02  0.1060607E+00
         21   -1    0    0  502  501  0.00000000000E+00  0.00000000000E+00  0.14335129589E+03  0.14335129589E+03  0.00000000000E+00 0. -1.
         21   -1    0    0  501  502 -0.00000000000E+00 -0.00000000000E+00 -0.87881736694E+03  0.87881736694E+03  0.00000000000E+00 0. -1.
         25    1    1    2    0    0  0.11383653290E+02 -0.88531916433E+02 -0.57368095431E+01  0.15370555869E+03  0.12500000000E+03 0.  0.
         25    1    1    2    0    0  0.23945554841E+02  0.15742684580E+03 -0.10772685964E+03  0.22931785291E+03  0.12500000000E+03 0.  0.
         25    1    1    2    0    0 -0.35329208131E+02 -0.68894929368E+02 -0.62200240186E+03  0.63914525122E+03  0.12500000000E+03 0.  0.
</event>
<event>
 5    0  0.5612316E-005  0.3217905E+03  0.7546771E-02  0.1074828E+00
         21   -1    0    0  502  501  0.00000000000E+00  0.00000000000E+00  0.20243019111E+03  0.20243019111E+03  0.00000000000E+00 0. -1.
         21   -1    0    0  501  502 -0.00000000000E+00 -0.00000000000E+00 -0.51153014131E+03  0.51153014131E+03  0.00000000000E+00 0. -1.
         25    1    1    2    0    0  0.14314571428E+02 -0.19727103091E+03 -0.43302706188E+02  0.23795144663E+03  0.12500000000E+03 0.  0.
         25    1    1    2    0    0  0.73245096279E+02  0.15891791078E+02 -0.15998536131E+03  0.21642021390E+03  0.12500000000E+03 0.  0.
         25    1    1    2    0    0 -0.87559667706E+02  0.18137923983E+03 -0.10581188270E+03  0.25958867189E+03  0.12500000000E+03 0.  0.
</event>
<event>
 5    0  0.5612316E-005  0.3811925E+03  0.7546771E-02  0.1050494E+00
         21   -1    0    0  502  501  0.00000000000E+00  0.00000000000E+00  0.25248664310E+03  0.25248664310E+03  0.00000000000E+00 0. -1.
         21   -1    0    0  501  502 -0.00000000000E+00 -0.00000000000E+00 -0.57550645815E+03  0.57550645815E+03  0.00000000000E+00 0. -1.
         25    1    1    2    0    0 -0.79345544667E+02  0.27386479337E+03  0.10527542428E+02  0.31150195771E+03  0.12500000000E+03 0.  0.
         25    1    1    2    0    0  0.18984616552E+02 -0.96568135153E+02 -0.19673989182E+03  0.25301661097E+03  0.12500000000E+03 0.  0.
         25    1    1    2    0    0  0.60360928115E+02 -0.17729665822E+03 -0.13680746565E+03  0.26347453258E+03  0.12500000000E+03 0.  0.
</event>
<event>
 5    0  0.5612316E-005  0.3314061E+03  0.7546771E-02  0.1070516E+00
         21   -1    0    0  502  501  0.00000000000E+00  0.00000000000E+00  0.11053534921E+04  0.11053534921E+04  0.00000000000E+00 0. -1.
         21   -1    0    0  501  502 -0.00000000000E+00 -0.00000000000E+00 -0.99361901516E+02  0.99361901516E+02  0.00000000000E+00 0. -1.
         25    1    1    2    0    0  0.22912360164E+02  0.19110882285E+03  0.36807249340E+03  0.43376251430E+03  0.12500000000E+03 0.  0.
         25    1    1    2    0    0 -0.71902976060E+02 -0.22192628633E+03  0.54178900154E+03  0.60297731028E+03  0.12500000000E+03 0.  0.
         25    1    1    2    0    0  0.48990615896E+02  0.30817463478E+02  0.96130095658E+02  0.16797556903E+03  0.12500000000E+03 0.  0.
</event>
<event>
 5    0  0.5612316E-005  0.3562257E+03  0.7546771E-02  0.1060088E+00
         21   -1    0    0  502  501  0.00000000000E+00  0.00000000000E+00  0.43137081231E+03  0.43137081231E+03  0.00000000000E+00 0. -1.
         21   -1    0    0  501  502 -0.00000000000E+00 -0.00000000000E+00 -0.29417092034E+03  0.29417092034E+03  0.00000000000E+00 0. -1.
         25    1    1    2    0    0  0.21270894426E+03 -0.96105938597E+02  0.16184143415E+03  0.31032095677E+03  0.12500000000E+03 0.  0.
         25    1    1    2    0    0 -0.54151253793E+02 -0.69690896786E+02 -0.15590631444E+02  0.15380912577E+03  0.12500000000E+03 0.  0.
         25    1    1    2    0    0 -0.15855769047E+03  0.16579683538E+03 -0.90509107316E+01  0.26141165011E+03  0.12500000000E+03 0.  0.
</event>
<event>
 5    0  0.5612316E-005  0.3100354E+03  0.7546771E-02  0.1080329E+00
         21   -1    0    0  502  501  0.00000000000E+00  0.00000000000E+00  0.72662152678E+03  0.72662152678E+03  0.00000000000E+00 0.  1.
         21   -1    0    0  501  502 -0.00000000000E+00 -0.00000000000E+00 -0.13228616157E+03  0.13228616157E+03  0.00000000000E+00 0.  1.
         25    1    1    2    0    0  0.10677400495E+03 -0.12753729572E+03  0.13589009941E+03  0.24851070209E+03  0.12500000000E+03 0.  0.
         25    1    1    2    0    0 -0.13729898917E+03 -0.70991552794E+01  0.34630334733E+03  0.39300434960E+03  0.12500000000E+03 0.  0.
         25    1    1    2    0    0  0.30524984215E+02  0.13463645100E+03  0.11214191847E+03  0.21739263667E+03  0.12500000000E+03 0.  0.
</event>
<event>
 5    0  0.5612316E-005  0.7853689E+03  0.7546771E-02  0.9581440E-01
         21   -1    0    0  502  501  0.00000000000E+00  0.00000000000E+00  0.18590959485E+04  0.18590959485E+04  0.00000000000E+00 0. -1.
         21   -1    0    0  501  502 -0.00000000000E+00 -0.00000000000E+00 -0.33177647076E+03  0.33177647076E+03  0.00000000000E+00 0. -1.
         25    1    1    2    0    0 -0.17631738360E+03  0.31271800969E+03 -0.85448899516E+02  0.38962403387E+03  0.12500000000E+03 0.  0.
         25    1    1    2    0    0 -0.14843647389E+03  0.78476911505E+01  0.10456827059E+03  0.22057764223E+03  0.12500000000E+03 0.  0.
         25    1    1    2    0    0  0.32475385749E+03 -0.32056570084E+03  0.15082001066E+04  0.15806707431E+04  0.12500000000E+03 0.  0.
</event>
<event>
 5    0  0.5612316E-005  0.4128177E+03  0.7546771E-02  0.1039430E+00
         21   -1    0    0  502  501  0.00000000000E+00  0.00000000000E+00  0.25488933301E+03  0.25488933301E+03  0.00000000000E+00 0.  1.
         21   -1    0    0  501  502 -0.00000000000E+00 -0.00000000000E+00 -0.66859786885E+03  0.66859786885E+03  0.00000000000E+00 0.  1.
         25    1    1    2    0    0 -0.62218107692E+01  0.12709223143E+03  0.37513743150E+02  0.18227294683E+03  0.12500000000E+03 0.  0.
         25    1    1    2    0    0  0.32260641259E+01  0.13619857012E+03 -0.40618042466E+03  0.44628241660E+03  0.12500000000E+03 0.  0.
         25    1    1    2    0    0  0.29957466433E+01 -0.26329080155E+03 -0.45041854328E+02  0.29493183843E+03  0.12500000000E+03 0.  0.
</event>
<event>
 5    0  0.5612316E-005  0.3259661E+03  0.7546771E-02  0.1072936E+00
         21   -1    0    0  502  501  0.00000000000E+00  0.00000000000E+00  0.48652428286E+03  0.48652428286E+03  0.00000000000E+00 0.  1.
         21   -1    0    0  501  502 -0.00000000000E+00 -0.00000000000E+00 -0.21839375906E+03  0.21839375906E+03  0.00000000000E+00 0.  1.
         25    1    1    2    0    0 -0.21228413098E+03 -0.67750389882E+01  0.84165858818E+02  0.26042147609E+03  0.12500000000E+03 0.  0.
         25    1    1    2    0    0  0.24906137764E+02 -0.92276677257E+02  0.55023156700E+02  0.16669687651E+03  0.12500000000E+03 0.  0.
         25    1    1    2    0    0  0.18737799321E+03  0.99051716245E+02  0.12894150828E+03  0.27779968932E+03  0.12500000000E+03 0.  0.
</event>
<event>
 5    0  0.5612316E-005  0.3742965E+03  0.7546771E-02  0.1053062E+00
         21   -1    0    0  502  501  0.00000000000E+00  0.00000000000E+00  0.29849311638E+03  0.29849311638E+03  0.00000000000E+00 0. -1.
         21   -1    0    0  501  502 -0.00000000000E+00 -0.00000000000E+00 -0.46935048848E+03  0.46935048848E+03  0.00000000000E+00 0. -1.
         25    1    1    2    0    0 -0.50895961817E+02  0.17521051692E+03  0.72695889287E+02  0.23280639271E+03  0.12500000000E+03 0.  0.
         25    1    1    2    0    0 -0.81144783445E+02 -0.23221188714E+03 -0.19657536794E+03  0.33878269095E+03  0.12500000000E+03 0.  0.
         25    1    1    2    0    0  0.13204074526E+03  0.57001370218E+02 -0.46977893447E+02  0.19625452119E+03  0.12500000000E+03 0.  0.
</event>
<event>
 5    0  0.5612316E-005  0.2787548E+03  0.7546771E-02  0.1096371E+00
         21   -1    0    0  502  501  0.00000000000E+00  0.00000000000E+00  0.11788284574E+03  0.11788284574E+03  0.00000000000E+00 0. -1.
         21   -1    0    0  501  502 -0.00000000000E+00 -0.00000000000E+00 -0.65916481059E+03  0.65916481059E+03  0.00000000000E+00 0. -1.
         25    1    1    2    0    0  0.93423538052E+02 -0.56846590842E+02 -0.16904455225E+03  0.23698217865E+03  0.12500000000E+03 0.  0.
         25    1    1    2    0    0 -0.12440592689E+03 -0.51031617266E+02 -0.74357430456E+02  0.19807848967E+03  0.12500000000E+03 0.  0.
         25    1    1    2    0    0  0.30982388841E+02  0.10787820811E+03 -0.29787998215E+03  0.34198698801E+03  0.12500000000E+03 0.  0.
</event>
<event>
 5    0  0.5612316E-005  0.2383274E+03  0.7546771E-02  0.1120912E+00
         21   -1    0    0  502  501  0.00000000000E+00  0.00000000000E+00  0.11338139669E+03  0.11338139669E+03  0.00000000000E+00 0.  1.
         21   -1    0    0  501  502 -0.00000000000E+00 -0.00000000000E+00 -0.50096375493E+03  0.50096375493E+03  0.00000000000E+00 0.  1.
         25    1    1    2    0    0  0.27459973528E+02 -0.13639899526E+03 -0.13571648294E+03  0.23109024167E+03  0.12500000000E+03 0.  0.
         25    1    1    2    0    0 -0.48410827058E+01  0.54052288733E+02 -0.10183311781E+03  0.17011781177E+03  0.12500000000E+03 0.  0.
         25    1    1    2    0    0 -0.22618890822E+02  0.82346706525E+02 -0.15003275750E+03  0.21313709818E+03  0.12500000000E+03 0.  0.
</event>
<event>
 5    0  0.5612316E-005  0.3947283E+03  0.7546771E-02  0.1045621E+00
         21   -1    0    0  502  501  0.00000000000E+00  0.00000000000E+00  0.20724906519E+04  0.20724906519E+04  0.00000000000E+00 0.  1.
         21   -1    0    0  501  502 -0.00000000000E+00 -0.00000000000E+00 -0.75180274569E+02  0.75180274569E+02  0.00000000000E+00 0.  1.
         25    1    1    2    0    0  0.12805623141E+03 -0.16043018439E+03  0.19116293524E+03  0.30709039431E+03  0.12500000000E+03 0.  0.
         25    1    1    2    0    0 -0.92866686377E+02  0.44142651224E+02  0.58212503016E+03  0.60420803192E+03  0.12500000000E+03 0.  0.
         25    1    1    2    0    0 -0.35189545035E+02  0.11628753317E+03  0.12240224119E+04  0.12363725002E+04  0.12500000000E+03 0.  0.
</event>
<event>
 5    0  0.5612316E-005  0.3072820E+03  0.7546771E-02  0.1081656E+00
         21   -1    0    0  502  501  0.00000000000E+00  0.00000000000E+00  0.10660427593E+03  0.10660427593E+03  0.00000000000E+00 0.  1.
         21   -1    0    0  501  502 -0.00000000000E+00 -0.00000000000E+00 -0.88572635750E+03  0.88572635750E+03  0.00000000000E+00 0.  1.
         25    1    1    2    0    0  0.13516779521E+03 -0.10047306083E+03 -0.14917347241E+03  0.25737694863E+03  0.12500000000E+03 0.  0.
         25    1    1    2    0    0 -0.10574027881E+03  0.13667353036E+03 -0.52009999782E+03  0.56212958310E+03  0.12500000000E+03 0.  0.
         25    1    1    2    0    0 -0.29427516401E+02 -0.36200469524E+02 -0.10984861135E+03  0.17282410170E+03  0.12500000000E+03 0.  0.
</event>
<event>
 5    0  0.5612316E-005  0.3134754E+03  0.7546771E-02  0.1078692E+00
         21   -1    0    0  502  501  0.00000000000E+00  0.00000000000E+00  0.42050667089E+03  0.42050667089E+03  0.00000000000E+00 0.  1.
         21   -1    0    0  501  502 -0.00000000000E+00 -0.00000000000E+00 -0.23368667709E+03  0.23368667709E+03  0.00000000000E+00 0.  1.
         25    1    1    2    0    0  0.89382256176E+02 -0.54556760865E+01  0.21905503723E+03  0.26763606158E+03  0.12500000000E+03 0.  0.
         25    1    1    2    0    0 -0.99426830742E+02  0.10879969879E+03  0.56582871388E+02  0.20136953708E+03  0.12500000000E+03 0.  0.
         25    1    1    2    0    0  0.10044574567E+02 -0.10334402270E+03 -0.88817914823E+02  0.18518774933E+03  0.12500000000E+03 0.  0.
</event>
<event>
 5    0  0.5612316E-005  0.3294265E+03  0.7546771E-02  0.1071391E+00
         21   -1    0    0  502  501  0.00000000000E+00  0.00000000000E+00  0.11821824282E+04  0.11821824282E+04  0.00000000000E+00 0.  1.
         21   -1    0    0  501  502 -0.00000000000E+00 -0.00000000000E+00 -0.91797834174E+02  0.91797834174E+02  0.00000000000E+00 0.  1.
         25    1    1    2    0    0  0.19897987331E+03 -0.75889323626E+02  0.41278214139E+03  0.48100548403E+03  0.12500000000E+03 0.  0.
         25    1    1    2    0    0 -0.84807284678E+02 -0.71012769631E+02  0.41743488377E+03  0.44956865012E+03  0.12500000000E+03 0.  0.
         25    1    1    2    0    0 -0.11417258863E+03  0.14690209326E+03  0.26016756882E+03  0.34340612817E+03  0.12500000000E+03 0.  0.
</event>
<event>
 5    0  0.5612316E-005  0.3775377E+03  0.7546771E-02  0.1051848E+00
         21   -1    0    0  502  501  0.00000000000E+00  0.00000000000E+00  0.28138686329E+04  0.28138686329E+04  0.00000000000E+00 0.  1.
         21   -1    0    0  501  502 -0.00000000000E+00 -0.00000000000E+00 -0.50654350632E+02  0.50654350632E+02  0.00000000000E+00 0.  1.
         25    1    1    2    0    0 -0.21328078284E+02 -0.21565503808E+03  0.39228428160E+03  0.46526760038E+03  0.12500000000E+03 0.  0.
         25    1    1    2    0    0 -0.42558556172E+02  0.32131691475E+02  0.81147342558E+03  0.82277445070E+03  0.12500000000E+03 0.  0.
         25    1    1    2    0    0  0.63886634456E+02  0.18352334660E+03  0.15594565751E+04  0.15764809324E+04  0.12500000000E+03 0.  0.
</event>
<event>
 5    0  0.5612316E-005  0.2379057E+03  0.7546771E-02  0.1121196E+00
         21   -1    0    0  502  501  0.00000000000E+00  0.00000000000E+00  0.38272457160E+03  0.38272457160E+03  0.00000000000E+00 0.  1.
         21   -1    0    0  501  502 -0.00000000000E+00 -0.00000000000E+00 -0.14788478665E+03  0.14788478665E+03  0.00000000000E+00 0.  1.
         25    1    1    2    0    0  0.61307464287E+02 -0.33373768990E+02  0.56614805870E+02  0.15395664935E+03  0.12500000000E+03 0.  0.
         25    1    1    2    0    0 -0.12652194944E+03  0.61201286751E+02  0.99122538882E+02  0.21261156814E+03  0.12500000000E+03 0.  0.
         25    1    1    2    0    0  0.65214485158E+02 -0.27827517760E+02  0.79102440196E+02  0.16404114077E+03  0.12500000000E+03 0.  0.
</event>
<event>
 5    0  0.5612316E-005  0.4399539E+03  0.7546771E-02  0.1030761E+00
         21   -1    0    0  502  501  0.00000000000E+00  0.00000000000E+00  0.14832800893E+03  0.14832800893E+03  0.00000000000E+00 0.  1.
         21   -1    0    0  501  502 -0.00000000000E+00 -0.00000000000E+00 -0.13049419745E+04  0.13049419745E+04  0.00000000000E+00 0.  1.
         25    1    1    2    0    0 -0.17186567194E+03 -0.13310619285E+03 -0.23366740531E+03  0.34275432027E+03  0.12500000000E+03 0.  0.
         25    1    1    2    0    0  0.27820396120E+03  0.24649153523E+03 -0.44802725765E+03  0.59540653722E+03  0.12500000000E+03 0.  0.
         25    1    1    2    0    0 -0.10633828927E+03 -0.11338534238E+03 -0.47491930264E+03  0.51510912597E+03  0.12500000000E+03 0.  0.
</event>
<event>
 5    0  0.5612316E-005  0.3918544E+03  0.7546771E-02  0.1046637E+00
         21   -1    0    0  502  501  0.00000000000E+00  0.00000000000E+00  0.32428922142E+03  0.32428922142E+03  0.00000000000E+00 0.  1.
         21   -1    0    0  501  502 -0.00000000000E+00 -0.00000000000E+00 -0.47349674892E+03  0.47349674892E+03  0.00000000000E+00 0.  1.
         25    1    1    2    0    0  0.18262472156E+03 -0.42366695936E+02 -0.19349049764E+03  0.29700218606E+03  0.12500000000E+03 0.  0.
         25    1    1    2    0    0  0.42899141970E+01  0.48867954027E+02 -0.15158479807E+03  0.20250785491E+03  0.12500000000E+03 0.  0.
         25    1    1    2    0    0 -0.18691463576E+03 -0.65012580905E+01  0.19586776821E+03  0.29827592937E+03  0.12500000000E+03 0.  0.
</event>
<event>
 5    0  0.5612316E-005  0.2779129E+03  0.7546771E-02  0.1096834E+00
         21   -1    0    0  502  501  0.00000000000E+00  0.00000000000E+00  0.11932983079E+03  0.11932983079E+03  0.00000000000E+00 0. -1.
         21   -1    0    0  501  502 -0.00000000000E+00 -0.00000000000E+00 -0.64724463739E+03  0.64724463739E+03  0.00000000000E+00 0. -1.
         25    1    1    2    0    0  0.94620880012E+02 -0.12448261636E+03 -0.25638428568E+03  0.32527977904E+03  0.12500000000E+03 0.  0.
         25    1    1    2    0    0 -0.11964948984E+03  0.10924694419E+03 -0.10203703344E+03  0.22866449533E+03  0.12500000000E+03 0.  0.
         25    1    1    2    0    0  0.25028609826E+02  0.15235672162E+02 -0.16949348749E+03  0.21263019380E+03  0.12500000000E+03 0.  0.
</event>
<event>
 5    0  0.5612316E-005  0.2429820E+03  0.7546771E-02  0.1117822E+00
         21   -1    0    0  502  501  0.00000000000E+00  0.00000000000E+00  0.37766100347E+03  0.37766100347E+03  0.00000000000E+00 0. -1.
         21   -1    0    0  501  502 -0.00000000000E+00 -0.00000000000E+00 -0.15633135157E+03  0.15633135157E+03  0.00000000000E+00 0. -1.
         25    1    1    2    0    0  0.18389598829E+02  0.12788048899E+02  0.17255352593E+02  0.12815794448E+03  0.12500000000E+03 0.  0.
         25    1    1    2    0    0 -0.11763090761E+03  0.43630111806E+02  0.13633372889E+03  0.22350056535E+03  0.12500000000E+03 0.  0.
         25    1    1    2    0    0  0.99241308781E+02 -0.56418160704E+02  0.67740570419E+02  0.18233384520E+03  0.12500000000E+03 0.  0.
</event>
<event>
 5    0  0.5612316E-005  0.2601590E+03  0.7546771E-02  0.1107048E+00
         21   -1    0    0  502  501  0.00000000000E+00  0.00000000000E+00  0.43641327575E+03  0.43641327575E+03  0.00000000000E+00 0. -1.
         21   -1    0    0  501  502 -0.00000000000E+00 -0.00000000000E+00 -0.15508857033E+03  0.15508857033E+03  0.00000000000E+00 0. -1.
         25    1    1    2    0    0  0.95136946214E+02 -0.86153913128E+02  0.17860529175E+02  0.18004869837E+03  0.12500000000E+03 0.  0.
         25    1    1    2    0    0 -0.27118469344E+02 -0.12611802412E+02  0.53401827300E+02  0.13918054497E+03  0.12500000000E+03 0.  0.
         25    1    1    2    0    0 -0.68018476870E+02  0.98765715540E+02  0.21006234894E+03  0.27227260274E+03  0.12500000000E+03 0.  0.
</event>
<event>
 5    0  0.5612316E-005  0.2485167E+03  0.7546771E-02  0.1114246E+00
         21   -1    0    0  502  501  0.00000000000E+00  0.00000000000E+00  0.14136483566E+03  0.14136483566E+03  0.00000000000E+00 0. -1.
         21   -1    0    0  501  502 -0.00000000000E+00 -0.00000000000E+00 -0.43688766859E+03  0.43688766859E+03  0.00000000000E+00 0. -1.
         25    1    1    2    0    0  0.61913062998E+02  0.64396399212E+02 -0.84017835583E+02  0.17511173661E+03  0.12500000000E+03 0.  0.
         25    1    1    2    0    0 -0.65052784759E+02  0.55349558279E+02 -0.33961094323E+02  0.15515732124E+03  0.12500000000E+03 0.  0.
         25    1    1    2    0    0  0.31397217614E+01 -0.11974595749E+03 -0.17754390302E+03  0.24798344640E+03  0.12500000000E+03 0.  0.
</event>
<event>
 5    0  0.6579066E-005  0.2799356E+03  0.7546771E-02  0.1095724E+00
         21   -1    0    0  502  501  0.00000000000E+00  0.00000000000E+00  0.24164295721E+03  0.24164295721E+03  0.00000000000E+00 0.  1.
         21   -1    0    0  501  502 -0.00000000000E+00 -0.00000000000E+00 -0.32429644823E+03  0.32429644823E+03  0.00000000000E+00 0.  1.
         25    1    1    2    0    0 -0.15717143104E+03  0.46855686393E+02 -0.11996142430E+03  0.23856667287E+03  0.12500000000E+03 0.  0.
         25    1    1    2    0    0  0.55352974019E+02 -0.74837109148E+02  0.48871986599E+02  0.16333406170E+03  0.12500000000E+03 0.  0.
         25    1    1    2    0    0  0.10181845702E+03  0.27981422756E+02 -0.11564053317E+02  0.16403867086E+03  0.12500000000E+03 0.  0.
</event>
<event>
 5    0  0.5612316E-005  0.3182335E+03  0.7546771E-02  0.1076465E+00
         21   -1    0    0  502  501  0.00000000000E+00  0.00000000000E+00  0.86606479186E+03  0.86606479186E+03  0.00000000000E+00 0.  1.
         21   -1    0    0  501  502 -0.00000000000E+00 -0.00000000000E+00 -0.11693414895E+03  0.11693414895E+03  0.00000000000E+00 0.  1.
         25    1    1    2    0    0 -0.51677770047E+02  0.12368713984E+03  0.12446730856E+03  0.22155408229E+03  0.12500000000E+03 0.  0.
         25    1    1    2    0    0 -0.75375819034E+02 -0.65003061345E+02  0.52540035814E+03  0.54916067632E+03  0.12500000000E+03 0.  0.
         25    1    1    2    0    0  0.12705358908E+03 -0.58684078493E+02  0.99262976205E+02  0.21228418220E+03  0.12500000000E+03 0.  0.
</event>
<event>
 5    0  0.5612316E-005  0.2793488E+03  0.7546771E-02  0.1096045E+00
         21   -1    0    0  502  501  0.00000000000E+00  0.00000000000E+00  0.10960725801E+04  0.10960725801E+04  0.00000000000E+00 0.  1.
         21   -1    0    0  501  502 -0.00000000000E+00 -0.00000000000E+00 -0.71195777185E+02  0.71195777185E+02  0.00000000000E+00 0.  1.
         25    1    1    2    0    0  0.69272991908E+02  0.83602455344E+02  0.14375950369E+03  0.21927132245E+03  0.12500000000E+03 0.  0.
         25    1    1    2    0    0 -0.13170598387E+03 -0.10089052722E+03  0.56374012956E+03  0.60079389007E+03  0.12500000000E+03 0.  0.
         25    1    1    2    0    0  0.62432991961E+02  0.17288071874E+02  0.31737716970E+03  0.34720314481E+03  0.12500000000E+03 0.  0.
</event>
<event>
 5    0  0.5612316E-005  0.2599505E+03  0.7546771E-02  0.1107173E+00
         21   -1    0    0  502  501  0.00000000000E+00  0.00000000000E+00  0.30283372817E+03  0.30283372817E+03  0.00000000000E+00 0.  1.
         21   -1    0    0  501  502 -0.00000000000E+00 -0.00000000000E+00 -0.22313980405E+03  0.22313980405E+03  0.00000000000E+00 0.  1.
         25    1    1    2    0    0 -0.13654171369E+03 -0.67054832245E+02  0.38332366234E+02  0.20058504532E+03  0.12500000000E+03 0.  0.
         25    1    1    2    0    0  0.79123090356E+02  0.10306791700E+03  0.29541063385E+02  0.18270504473E+03  0.12500000000E+03 0.  0.
         25    1    1    2    0    0  0.57418623338E+02 -0.36013084755E+02  0.11820494501E+02  0.14268344217E+03  0.12500000000E+03 0.  0.
</event>
<event>
 5    0  0.5612316E-005  0.2321951E+03  0.7546771E-02  0.1125104E+00
         21   -1    0    0  502  501  0.00000000000E+00  0.00000000000E+00  0.10767971332E+04  0.10767971332E+04  0.00000000000E+00 0.  1.
         21   -1    0    0  501  502 -0.00000000000E+00 -0.00000000000E+00 -0.50069367508E+02  0.50069367508E+02  0.00000000000E+00 0.  1.
         25    1    1    2    0    0  0.41183258651E+02 -0.26739472038E+01  0.42719303856E+03  0.44701465634E+03  0.12500000000E+03 0.  0.
         25    1    1    2    0    0  0.46045350796E+02  0.32197878059E+02  0.14493068313E+03  0.19946623924E+03  0.12500000000E+03 0.  0.
         25    1    1    2    0    0 -0.87228609447E+02 -0.29523930855E+02  0.45460404400E+03  0.48038560513E+03  0.12500000000E+03 0.  0.
</event>
<event>
 5    0  0.5612316E-005  0.3326141E+03  0.7546771E-02  0.1069986E+00
         21   -1    0    0  502  501  0.00000000000E+00  0.00000000000E+00  0.25546690129E+03  0.25546690129E+03  0.00000000000E+00 0. -1.
         21   -1    0    0  501  502 -0.00000000000E+00 -0.00000000000E+00 -0.43305851824E+03  0.43305851824E+03  0.00000000000E+00 0. -1.
         25    1    1    2    0    0 -0.82373284520E+02 -0.22783550829E+03 -0.86002581554E+02  0.28585979233E+03  0.12500000000E+03 0.  0.
         25    1    1    2    0    0  0.96803833206E+02  0.17837004428E+03  0.17737149085E+01  0.23835897484E+03  0.12500000000E+03 0.  0.
         25    1    1    2    0    0 -0.14430548685E+02  0.49465464004E+02 -0.93362750301E+02  0.16430665236E+03  0.12500000000E+03 0.  0.
</event>
<event>
 5    0  0.5612316E-005  0.5847490E+03  0.7546771E-02  0.9937562E-01
         21   -1    0    0  502  501  0.00000000000E+00  0.00000000000E+00  0.21469080610E+04  0.21469080610E+04  0.00000000000E+00 0. -1.
         21   -1    0    0  501  502 -0.00000000000E+00 -0.00000000000E+00 -0.15926690982E+03  0.15926690982E+03  0.00000000000E+00 0. -1.
         25    1    1    2    0    0  0.91173006684E+02  0.72780983765E+01 -0.78612489291E+01  0.15508799792E+03  0.12500000000E+03 0.  0.
         25    1    1    2    0    0 -0.11021547591E+03  0.26524171055E+02  0.20120933743E+04  0.20191571830E+04  0.12500000000E+03 0.  0.
         25    1    1    2    0    0  0.19042469228E+02 -0.33802269431E+02 -0.16590974130E+02  0.13192978995E+03  0.12500000000E+03 0.  0.
</event>
<event>
 5    0  0.5612316E-005  0.3590439E+03  0.7546771E-02  0.1058963E+00
         21   -1    0    0  502  501  0.00000000000E+00  0.00000000000E+00  0.33696236518E+03  0.33696236518E+03  0.00000000000E+00 0. -1.
         21   -1    0    0  501  502 -0.00000000000E+00 -0.00000000000E+00 -0.38257246912E+03  0.38257246912E+03  0.00000000000E+00 0. -1.
         25    1    1    2    0    0  0.36796180441E+02 -0.15636295110E+03  0.69969330626E+01  0.20365973692E+03  0.12500000000E+03 0.  0.
         25    1    1    2    0    0 -0.95755020592E+02  0.16077050673E+03 -0.20899951451E+03  0.30711883184E+03  0.12500000000E+03 0.  0.
         25    1    1    2    0    0  0.58958840151E+02 -0.44075556335E+01  0.15639247751E+03  0.20875626553E+03  0.12500000000E+03 0.  0.
</event>
<event>
 5    0  0.5612316E-005  0.2225703E+03  0.7546771E-02  0.1131981E+00
         21   -1    0    0  502  501  0.00000000000E+00  0.00000000000E+00  0.14386241059E+03  0.14386241059E+03  0.00000000000E+00 0.  1.
         21   -1    0    0  501  502 -0.00000000000E+00 -0.00000000000E+00 -0.34433956193E+03  0.34433956193E+03  0.00000000000E+00 0.  1.
         25    1    1    2    0    0  0.12605515775E+02  0.73353474605E+02 -0.96789831344E+02  0.17473666678E+03  0.12500000000E+03 0.  0.
         25    1    1    2    0    0  0.21924551198E+02 -0.81785842666E+02 -0.63748174894E+01  0.15111336243E+03  0.12500000000E+03 0.  0.
         25    1    1    2    0    0 -0.34530066973E+02  0.84323680603E+01 -0.97312502506E+02  0.16235194332E+03  0.12500000000E+03 0.  0.
</event>
<event>
 5    0  0.5612316E-005  0.4202380E+03  0.7546771E-02  0.1036989E+00
         21   -1    0    0  502  501  0.00000000000E+00  0.00000000000E+00  0.15645975169E+03  0.15645975169E+03  0.00000000000E+00 0. -1.
         21   -1    0    0  501  502 -0.00000000000E+00 -0.00000000000E+00 -0.11287244584E+04  0.11287244584E+04  0.00000000000E+00 0. -1.
         25    1    1    2    0    0  0.98925233732E+02  0.13544326653E+03 -0.27278550298E+03  0.34375574316E+03  0.12500000000E+03 0.  0.
         25    1    1    2    0    0  0.33544967297E+02 -0.33222713654E+03 -0.45933094628E+03  0.58147231516E+03  0.12500000000E+03 0.  0.
         25    1    1    2    0    0 -0.13247020103E+03  0.19678387000E+03 -0.24014825747E+03  0.35995615180E+03  0.12500000000E+03 0.  0.
</event>
<event>
 5    0  0.5612316E-005  0.2369214E+03  0.7546771E-02  0.1121861E+00
         21   -1    0    0  502  501  0.00000000000E+00  0.00000000000E+00  0.42038834909E+03  0.42038834909E+03  0.00000000000E+00 0. -1.
         21   -1    0    0  501  502 -0.00000000000E+00 -0.00000000000E+00 -0.13352359020E+03  0.13352359020E+03  0.00000000000E+00 0. -1.
         25    1    1    2    0    0  0.48865307325E+01  0.36424173563E+02  0.10863328846E+03  0.16963723048E+03  0.12500000000E+03 0.  0.
         25    1    1    2    0    0  0.29113580755E+02 -0.80746859792E+02  0.19425078567E+03  0.24642650767E+03  0.12500000000E+03 0.  0.
         25    1    1    2    0    0 -0.34000111488E+02  0.44322686229E+02 -0.16019315247E+02  0.13784820114E+03  0.12500000000E+03 0.  0.
</event>
<event>
 5    0  0.5612316E-005  0.4502499E+03  0.7546771E-02  0.1027648E+00
         21   -1    0    0  502  501  0.00000000000E+00  0.00000000000E+00  0.13886781043E+03  0.13886781043E+03  0.00000000000E+00 0. -1.
         21   -1    0    0  501  502 -0.00000000000E+00 -0.00000000000E+00 -0.14598411285E+04  0.14598411285E+04  0.00000000000E+00 0. -1.
         25    1    1    2    0    0  0.14272706975E+03  0.99681272156E+02 -0.38368895055E+03  0.43948786472E+03  0.12500000000E+03 0.  0.
         25    1    1    2    0    0 -0.23535716057E+03  0.90032125217E+02 -0.11984565037E+03  0.30575604085E+03  0.12500000000E+03 0.  0.
         25    1    1    2    0    0  0.92630090824E+02 -0.18971339737E+03 -0.81743871720E+03  0.85346503341E+03  0.12500000000E+03 0.  0.
</event>
<event>
 5    0  0.5612316E-005  0.4760938E+03  0.7546771E-02  0.1020214E+00
         21   -1    0    0  502  501  0.00000000000E+00  0.00000000000E+00  0.68947404984E+02  0.68947404984E+02  0.00000000000E+00 0.  1.
         21   -1    0    0  501  502 -0.00000000000E+00 -0.00000000000E+00 -0.32875097930E+04  0.32875097930E+04  0.00000000000E+00 0.  1.
         25    1    1    2    0    0  0.34199859260E+03  0.16231249134E+03 -0.88416619093E+03  0.96988825922E+03  0.12500000000E+03 0.  0.
         25    1    1    2    0    0 -0.79758968292E+02 -0.18302484262E+02 -0.11082642916E+04  0.11182894142E+04  0.12500000000E+03 0.  0.
         25    1    1    2    0    0 -0.26223962431E+03 -0.14401000708E+03 -0.12261319055E+04  0.12682795245E+04  0.12500000000E+03 0.  0.
</event>
<event>
 5    0  0.5612316E-005  0.3157177E+03  0.7546771E-02  0.1077637E+00
         21   -1    0    0  502  501  0.00000000000E+00  0.00000000000E+00  0.55484612471E+03  0.55484612471E+03  0.00000000000E+00 0.  1.
         21   -1    0    0  501  502 -0.00000000000E+00 -0.00000000000E+00 -0.17964925259E+03  0.17964925259E+03  0.00000000000E+00 0.  1.
         25    1    1    2    0    0  0.12602234228E+03 -0.13149737421E+03  0.56002908767E+01  0.22097410128E+03  0.12500000000E+03 0.  0.
         25    1    1    2    0    0 -0.92785622935E+02  0.14129395670E+03  0.29995818178E+03  0.36629641663E+03  0.12500000000E+03 0.  0.
         25    1    1    2    0    0 -0.33236719345E+02 -0.97965824914E+01  0.69638399469E+02  0.14722485939E+03  0.12500000000E+03 0.  0.
</event>
<event>
 5    0  0.5612316E-005  0.5031370E+03  0.7546771E-02  0.1012963E+00
         21   -1    0    0  502  501  0.00000000000E+00  0.00000000000E+00  0.16318902756E+03  0.16318902756E+03  0.00000000000E+00 0.  1.
         21   -1    0    0  501  502 -0.00000000000E+00 -0.00000000000E+00 -0.15512491987E+04  0.15512491987E+04  0.00000000000E+00 0.  1.
         25    1    1    2    0    0 -0.65141570320E+01 -0.20272871212E+03 -0.89406622113E+03  0.92526794645E+03  0.12500000000E+03 0.  0.
         25    1    1    2    0    0 -0.16247439060E+03 -0.74527062663E+02 -0.35047058675E+03  0.41280363715E+03  0.12500000000E+03 0.  0.
         25    1    1    2    0    0  0.16898854763E+03  0.27725577479E+03 -0.14352336323E+03  0.37636664262E+03  0.12500000000E+03 0.  0.
</event>
<event>
 5    0  0.5612316E-005  0.2774859E+03  0.7546771E-02  0.1097070E+00
         21   -1    0    0  502  501  0.00000000000E+00  0.00000000000E+00  0.46800036535E+03  0.46800036535E+03  0.00000000000E+00 0. -1.
         21   -1    0    0  501  502 -0.00000000000E+00 -0.00000000000E+00 -0.16452638520E+03  0.16452638520E+03  0.00000000000E+00 0. -1.
         25    1    1    2    0    0  0.11697669288E+03 -0.12719899633E+02  0.11801589323E+03  0.20832209095E+03  0.12500000000E+03 0.  0.
         25    1    1    2    0    0  0.34643625844E+02  0.88021301071E+02  0.13716693384E+03  0.20829713871E+03  0.12500000000E+03 0.  0.
         25    1    1    2    0    0 -0.15162031873E+03 -0.75301401438E+02  0.48291153078E+02  0.21590752089E+03  0.12500000000E+03 0.  0.
</event>
<event>
 5    0  0.5612316E-005  0.3998033E+03  0.7546771E-02  0.1043848E+00
         21   -1    0    0  502  501  0.00000000000E+00  0.00000000000E+00  0.43947278843E+03  0.43947278843E+03  0.00000000000E+00 0. -1.
         21   -1    0    0  501  502 -0.00000000000E+00 -0.00000000000E+00 -0.36371466469E+03  0.36371466469E+03  0.00000000000E+00 0. -1.
         25    1    1    2    0    0 -0.66909362575E+02 -0.47682169681E+02  0.14355241392E+03  0.20732281025E+03  0.12500000000E+03 0.  0.
         25    1    1    2    0    0  0.30065024307E+02  0.28659453502E+02 -0.30071010021E+03  0.32829382317E+03  0.12500000000E+03 0.  0.
         25    1    1    2    0    0  0.36844338268E+02  0.19022716178E+02  0.23291581004E+03  0.26757081971E+03  0.12500000000E+03 0.  0.
</event>
<event>
 5    0  0.5612316E-005  0.2539212E+03  0.7546771E-02  0.1110852E+00
         21   -1    0    0  502  501  0.00000000000E+00  0.00000000000E+00  0.19743829423E+04  0.19743829423E+04  0.00000000000E+00 0. -1.
         21   -1    0    0  501  502 -0.00000000000E+00 -0.00000000000E+00 -0.32656260848E+02  0.32656260848E+02  0.00000000000E+00 0. -1.
         25    1    1    2    0    0 -0.94273428554E+02 -0.10141710466E+03  0.56682109403E+03  0.59672779480E+03  0.12500000000E+03 0.  0.
         25    1    1    2    0    0 -0.12533561698E+02  0.10305308205E+02  0.54819363440E+03  0.56249848920E+03  0.12500000000E+03 0.  0.
         25    1    1    2    0    0  0.10680699025E+03  0.91111796454E+02  0.82671195303E+03  0.84781291917E+03  0.12500000000E+03 0.  0.
</event>
<event>
 5    0  0.5612316E-005  0.3678816E+03  0.7546771E-02  0.1055506E+00
         21   -1    0    0  502  501  0.00000000000E+00  0.00000000000E+00  0.45177230189E+03  0.45177230189E+03  0.00000000000E+00 0. -1.
         21   -1    0    0  501  502 -0.00000000000E+00 -0.00000000000E+00 -0.29956880531E+03  0.29956880531E+03  0.00000000000E+00 0. -1.
         25    1    1    2    0    0  0.38051174570E+02  0.69961557818E+01  0.12010920071E+03  0.17761773047E+03  0.12500000000E+03 0.  0.
         25    1    1    2    0    0 -0.16655253228E+03 -0.14043222363E+03 -0.14371543777E+03  0.28937878723E+03  0.12500000000E+03 0.  0.
         25    1    1    2    0    0  0.12850135771E+03  0.13343606785E+03  0.17580973364E+03  0.28434458950E+03  0.12500000000E+03 0.  0.
</event>
<event>
 5    0  0.5612316E-005  0.2902816E+03  0.7546771E-02  0.1090202E+00
         21   -1    0    0  502  501  0.00000000000E+00  0.00000000000E+00  0.83395687567E+02  0.83395687567E+02  0.00000000000E+00 0.  1.
         21   -1    0    0  501  502 -0.00000000000E+00 -0.00000000000E+00 -0.10104049262E+04  0.10104049262E+04  0.00000000000E+00 0.  1.
         25    1    1    2    0    0 -0.13015655036E+03  0.34038705027E+02 -0.65207780930E+03  0.67744359944E+03  0.12500000000E+03 0.  0.
         25    1    1    2    0    0  0.92125853187E+02  0.32150709507E+02 -0.18834736312E+03  0.24621244920E+03  0.12500000000E+03 0.  0.
         25    1    1    2    0    0  0.38030697173E+02 -0.66189414535E+02 -0.86584066238E+02  0.17014456515E+03  0.12500000000E+03 0.  0.
</event>
<event>
 5    0  0.5612316E-005  0.4648552E+03  0.7546771E-02  0.1023382E+00
         21   -1    0    0  502  501  0.00000000000E+00  0.00000000000E+00  0.61106160131E+03  0.61106160131E+03  0.00000000000E+00 0.  1.
         21   -1    0    0  501  502 -0.00000000000E+00 -0.00000000000E+00 -0.35363100269E+03  0.35363100269E+03  0.00000000000E+00 0.  1.
         25    1    1    2    0    0  0.31412120250E+03  0.98369838338E+02  0.24762478868E+03  0.43045532977E+03  0.12500000000E+03 0.  0.
         25    1    1    2    0    0 -0.97155444127E+02  0.11216157051E+03  0.60398368557E+02  0.20320521929E+03  0.12500000000E+03 0.  0.
         25    1    1    2    0    0 -0.21696575837E+03 -0.21053140885E+03 -0.50592558620E+02  0.33103205495E+03  0.12500000000E+03 0.  0.
</event>
<event>
 5    0  0.5612316E-005  0.2939485E+03  0.7546771E-02  0.1088305E+00
         21   -1    0    0  502  501  0.00000000000E+00  0.00000000000E+00  0.25289529830E+03  0.25289529830E+03  0.00000000000E+00 0. -1.
         21   -1    0    0  501  502 -0.00000000000E+00 -0.00000000000E+00 -0.34166605736E+03  0.34166605736E+03  0.00000000000E+00 0. -1.
         25    1    1    2    0    0 -0.20144757336E+03 -0.91860607936E+01 -0.12784337146E+03  0.26950776640E+03  0.12500000000E+03 0.  0.
         25    1    1    2    0    0  0.91192691141E+02 -0.25734126965E+01  0.69758248163E+01  0.15490768703E+03  0.12500000000E+03 0.  0.
         25    1    1    2    0    0  0.11025488222E+03  0.11759473490E+02  0.32096787589E+02  0.17014590222E+03  0.12500000000E+03 0.  0.
</event>
<event>
 5    0  0.5612316E-005  0.3898163E+03  0.7546771E-02  0.1047364E+00
         21   -1    0    0  502  501  0.00000000000E+00  0.00000000000E+00  0.14350223004E+04  0.14350223004E+04  0.00000000000E+00 0.  1.
         21   -1    0    0  501  502 -0.00000000000E+00 -0.00000000000E+00 -0.10589153849E+03  0.10589153849E+03  0.00000000000E+00 0.  1.
         25    1    1    2    0    0  0.84077718260E+02 -0.26049914363E+03  0.65914055410E+03  0.72458273275E+03  0.12500000000E+03 0.  0.
         25    1    1    2    0    0  0.93050229637E+02  0.12348880911E+03  0.20677470287E+03  0.28685991173E+03  0.12500000000E+03 0.  0.
         25    1    1    2    0    0 -0.17712794790E+03  0.13701033452E+03  0.46321550496E+03  0.52947119443E+03  0.12500000000E+03 0.  0.
</event>
<event>
 5    0  0.5612316E-005  0.4087726E+03  0.7546771E-02  0.1040784E+00
         21   -1    0    0  502  501  0.00000000000E+00  0.00000000000E+00  0.73702159843E+03  0.73702159843E+03  0.00000000000E+00 0. -1.
         21   -1    0    0  501  502 -0.00000000000E+00 -0.00000000000E+00 -0.22671658602E+03  0.22671658602E+03  0.00000000000E+00 0. -1.
         25    1    1    2    0    0  0.28374481923E+03 -0.91025207100E+02  0.20066254943E+03  0.38037766695E+03  0.12500000000E+03 0.  0.
         25    1    1    2    0    0 -0.15793399875E+02  0.62110060604E+02  0.24021434951E+03  0.27827149480E+03  0.12500000000E+03 0.  0.
         25    1    1    2    0    0 -0.26795141936E+03  0.28915146496E+02  0.69428113473E+02  0.30508902270E+03  0.12500000000E+03 0.  0.
</event>
<event>
 5    0  0.5612316E-005  0.4915107E+03  0.7546771E-02  0.1016019E+00
         21   -1    0    0  502  501  0.00000000000E+00  0.00000000000E+00  0.17772597915E+04  0.17772597915E+04  0.00000000000E+00 0. -1.
         21   -1    0    0  501  502 -0.00000000000E+00 -0.00000000000E+00 -0.13592989180E+03  0.13592989180E+03  0.00000000000E+00 0. -1.
         25    1    1    2    0    0  0.21177457523E+03 -0.28274708404E+03  0.11606105893E+04  0.12196049870E+04  0.12500000000E+03 0.  0.
         25    1    1    2    0    0 -0.25527759739E+02  0.23443162698E+03  0.21669247380E+03  0.34378842687E+03  0.12500000000E+03 0.  0.
         25    1    1    2    0    0 -0.18624681549E+03  0.48315457065E+02  0.26402683655E+03  0.34979626941E+03  0.12500000000E+03 0.  0.
</event>
<event>
 5    0  0.5612316E-005  0.3791117E+03  0.7546771E-02  0.1051263E+00
         21   -1    0    0  502  501  0.00000000000E+00  0.00000000000E+00  0.39930770117E+03  0.39930770117E+03  0.00000000000E+00 0.  1.
         21   -1    0    0  501  502 -0.00000000000E+00 -0.00000000000E+00 -0.35993720971E+03  0.35993720971E+03  0.00000000000E+00 0.  1.
         25    1    1    2    0    0 -0.15136230464E+03 -0.93143954042E+01 -0.87779793586E+02  0.21523846633E+03  0.12500000000E+03 0.  0.
         25    1    1    2    0    0 -0.11199357810E+03 -0.11514952621E+03  0.97395661720E+02  0.22563884826E+03  0.12500000000E+03 0.  0.
         25    1    1    2    0    0  0.26335588274E+03  0.12446392161E+03  0.29754623330E+02  0.31836759629E+03  0.12500000000E+03 0.  0.
</event>
<event>
 5    0  0.5612316E-005  0.4298934E+03  0.7546771E-02  0.1033894E+00
         21   -1    0    0  502  501  0.00000000000E+00  0.00000000000E+00  0.49686636596E+03  0.49686636596E+03  0.00000000000E+00 0.  1.
         21   -1    0    0  501  502 -0.00000000000E+00 -0.00000000000E+00 -0.37194772510E+03  0.37194772510E+03  0.00000000000E+00 0.  1.
         25    1    1    2    0    0 -0.97826064172E+02  0.47673882230E+02  0.83559558333E+02  0.18560694402E+03  0.12500000000E+03 0.  0.
         25    1    1    2    0    0  0.46482663390E+02  0.13564076818E+03 -0.24953401226E+03  0.31376946834E+03  0.12500000000E+03 0.  0.
         25    1    1    2    0    0  0.51343400782E+02 -0.18331465041E+03  0.29089309479E+03  0.36943767871E+03  0.12500000000E+03 0.  0.
</event>
<event>
 5    0  0.5612316E-005  0.2473781E+03  0.7546771E-02  0.1114973E+00
         21   -1    0    0  502  501  0.00000000000E+00  0.00000000000E+00  0.93995661193E+03  0.93995661193E+03  0.00000000000E+00 0.  1.
         21   -1    0    0  501  502 -0.00000000000E+00 -0.00000000000E+00 -0.65105028574E+02  0.65105028574E+02  0.00000000000E+00 0.  1.
         25    1    1    2    0    0 -0.56555302721E+02 -0.89902328262E+02  0.41381966701E+03  0.44514340128E+03  0.12500000000E+03 0.  0.
         25    1    1    2    0    0  0.55967534696E+01  0.12015233755E+03  0.30903615867E+03  0.35439561966E+03  0.12500000000E+03 0.  0.
         25    1    1    2    0    0  0.50958549252E+02 -0.30250009289E+02  0.15199575767E+03  0.20552261957E+03  0.12500000000E+03 0.  0.
</event>
<event>
 5    0  0.5612316E-005  0.3884533E+03  0.7546771E-02  0.1047853E+00
         21   -1    0    0  502  501  0.00000000000E+00  0.00000000000E+00  0.81507757244E+03  0.81507757244E+03  0.00000000000E+00 0. -1.
         21   -1    0    0  501  502 -0.00000000000E+00 -0.00000000000E+00 -0.18513080423E+03  0.18513080423E+03  0.00000000000E+00 0. -1.
         25    1    1    2    0    0 -0.21751592449E+03 -0.98082397223E+02  0.27511105351E+03  0.38502522750E+03  0.12500000000E+03 0.  0.
         25    1    1    2    0    0  0.29825014520E+02  0.21328500197E+03  0.16531623803E+03  0.29888874538E+03  0.12500000000E+03 0.  0.
         25    1    1    2    0    0  0.18769090997E+03 -0.11520260475E+03  0.18951947668E+03  0.31629440379E+03  0.12500000000E+03 0.  0.
</event>
<event>
 5    0  0.5612316E-005  0.2734720E+03  0.7546771E-02  0.1099309E+00
         21   -1    0    0  502  501  0.00000000000E+00  0.00000000000E+00  0.84193062277E+03  0.84193062277E+03  0.00000000000E+00 0.  1.
         21   -1    0    0  501  502 -0.00000000000E+00 -0.00000000000E+00 -0.88827920706E+02  0.88827920706E+02  0.00000000000E+00 0.  1.
         25    1    1    2    0    0  0.10031891485E+03  0.58891024182E+02  0.54632665780E+03  0.57238960021E+03  0.12500000000E+03 0.  0.
         25    1    1    2    0    0 -0.34911645276E+02 -0.24103653930E+01  0.47489548541E+02  0.13822044009E+03  0.12500000000E+03 0.  0.
         25    1    1    2    0    0 -0.65407269579E+02 -0.56480658789E+02  0.15928649572E+03  0.22014850317E+03  0.12500000000E+03 0.  0.
</event>
<event>
 5    0  0.5612316E-005  0.2867235E+03  0.7546771E-02  0.1092072E+00
         21   -1    0    0  502  501  0.00000000000E+00  0.00000000000E+00  0.13639607815E+03  0.13639607815E+03  0.00000000000E+00 0. -1.
         21   -1    0    0  501  502 -0.00000000000E+00 -0.00000000000E+00 -0.60273263528E+03  0.60273263528E+03  0.00000000000E+00 0. -1.
         25    1    1    2    0    0  0.10306911386E+03 -0.67992652837E+02 -0.85784442674E+02  0.19552548089E+03  0.12500000000E+03 0.  0.
         25    1    1    2    0    0 -0.81239123509E+02  0.15565146352E+03 -0.13718655930E+03  0.25548449138E+03  0.12500000000E+03 0.  0.
         25    1    1    2    0    0 -0.21829990353E+02 -0.87658810683E+02 -0.24336555516E+03  0.28811874116E+03  0.12500000000E+03 0.  0.
</event>
<event>
 5    0  0.5612316E-005  0.2745176E+03  0.7546771E-02  0.1098722E+00
         21   -1    0    0  502  501  0.00000000000E+00  0.00000000000E+00  0.11135251443E+03  0.11135251443E+03  0.00000000000E+00 0. -1.
         21   -1    0    0  501  502 -0.00000000000E+00 -0.00000000000E+00 -0.67676872246E+03  0.67676872246E+03  0.00000000000E+00 0. -1.
         25    1    1    2    0    0 -0.17953513133E+02 -0.14560167824E+03 -0.16750083446E+03  0.25535016524E+03  0.12500000000E+03 0.  0.
         25    1    1    2    0    0  0.11809570442E+02  0.28419467130E+02 -0.31907299208E+03  0.34406352079E+03  0.12500000000E+03 0.  0.
         25    1    1    2    0    0  0.61439426907E+01  0.11718221111E+03 -0.78842381491E+02  0.18870755086E+03  0.12500000000E+03 0.  0.
</event>
<event>
 5    0  0.5807720E-005  0.4447249E+03  0.7546771E-02  0.1029307E+00
         21   -1    0    0  502  501  0.00000000000E+00  0.00000000000E+00  0.44584781969E+03  0.44584781969E+03  0.00000000000E+00 0. -1.
         21   -1    0    0  501  502 -0.00000000000E+00 -0.00000000000E+00 -0.44360486554E+03  0.44360486554E+03  0.00000000000E+00 0. -1.
         25    1    1    2    0    0 -0.22013047450E+03 -0.22776818873E+02 -0.86704400977E+02  0.26854955303E+03  0.12500000000E+03 0.  0.
         25    1    1    2    0    0  0.24160347084E+03 -0.14640160430E+03 -0.11259251712E+03  0.32879741753E+03  0.12500000000E+03 0.  0.
         25    1    1    2    0    0 -0.21472996336E+02  0.16917842318E+03  0.20153987224E+03  0.29210571467E+03  0.12500000000E+03 0.  0.
</event>
<event>
 5    0  0.5612316E-005  0.2820528E+03  0.7546771E-02  0.1094573E+00
         21   -1    0    0  502  501  0.00000000000E+00  0.00000000000E+00  0.18663832235E+03  0.18663832235E+03  0.00000000000E+00 0. -1.
         21   -1    0    0  501  502 -0.00000000000E+00 -0.00000000000E+00 -0.42624556361E+03  0.42624556361E+03  0.00000000000E+00 0. -1.
         25    1    1    2    0    0 -0.11942914508E+03  0.67084730377E+01 -0.78662835740E+02  0.19005569192E+03  0.12500000000E+03 0.  0.
         25    1    1    2    0    0  0.18492536344E+03  0.57262104475E+02 -0.13083150627E+03  0.26498721042E+03  0.12500000000E+03 0.  0.
         25    1    1    2    0    0 -0.65496218361E+02 -0.63970577513E+02 -0.30112899252E+02  0.15784098361E+03  0.12500000000E+03 0.  0.
</event>
<event>
 5    0  0.5612316E-005  0.2521934E+03  0.7546771E-02  0.1111926E+00
         21   -1    0    0  502  501  0.00000000000E+00  0.00000000000E+00  0.53581504590E+02  0.53581504590E+02  0.00000000000E+00 0. -1.
         21   -1    0    0  501  502 -0.00000000000E+00 -0.00000000000E+00 -0.11870048421E+04  0.11870048421E+04  0.00000000000E+00 0. -1.
         25    1    1    2    0    0 -0.64085871399E+02 -0.29273468273E+02 -0.80641336204E+03  0.81907963309E+03  0.12500000000E+03 0.  0.
         25    1    1    2    0    0  0.57549660643E+02  0.16002534017E+02 -0.19390025072E+03  0.23830726335E+03  0.12500000000E+03 0.  0.
         25    1    1    2    0    0  0.65362107557E+01  0.13270934256E+02 -0.13310972470E+03  0.18319945021E+03  0.12500000000E+03 0.  0.
</event>
<event>
 5    0  0.5612316E-005  0.3978646E+03  0.7546771E-02  0.1044522E+00
         21   -1    0    0  502  501  0.00000000000E+00  0.00000000000E+00  0.44165084211E+03  0.44165084211E+03  0.00000000000E+00 0.  1.
         21   -1    0    0  501  502 -0.00000000000E+00 -0.00000000000E+00 -0.35841942968E+03  0.35841942968E+03  0.00000000000E+00 0.  1.
         25    1    1    2    0    0 -0.78143206687E+02  0.14502698036E+03  0.18026039234E+03  0.27433190633E+03  0.12500000000E+03 0.  0.
         25    1    1    2    0    0  0.17648045915E+03  0.88084806836E+02 -0.60168400728E+02  0.24114212014E+03  0.12500000000E+03 0.  0.
         25    1    1    2    0    0 -0.98337252463E+02 -0.23311178720E+03 -0.36860579186E+02  0.28459624532E+03  0.12500000000E+03 0.  0.
</event>
<event>
 5    0  0.5612316E-005  0.3187467E+03  0.7546771E-02  0.1076228E+00
         21   -1    0    0  502  501  0.00000000000E+00  0.00000000000E+00  0.45296689815E+02  0.45296689815E+02  0.00000000000E+00 0. -1.
         21   -1    0    0  501  502 -0.00000000000E+00 -0.00000000000E+00 -0.22429778231E+04  0.22429778231E+04  0.00000000000E+00 0. -1.
         25    1    1    2    0    0 -0.95289793200E+02 -0.89959745023E+02 -0.23472125204E+03  0.29646579326E+03  0.12500000000E+03 0.  0.
         25    1    1    2    0    0  0.13103645715E+03  0.32153374948E+01 -0.10991536992E+04  0.11139769953E+04  0.12500000000E+03 0.  0.
         25    1    1    2    0    0 -0.35746663954E+02  0.86744407528E+02 -0.86380618203E+03  0.87783172438E+03  0.12500000000E+03 0.  0.
</event>
<event>
 5    0  0.5612316E-005  0.3971144E+03  0.7546771E-02  0.1044783E+00
         21   -1    0    0  502  501  0.00000000000E+00  0.00000000000E+00  0.12088052831E+03  0.12088052831E+03  0.00000000000E+00 0. -1.
         21   -1    0    0  501  502 -0.00000000000E+00 -0.00000000000E+00 -0.13045928686E+04  0.13045928686E+04  0.00000000000E+00 0. -1.
         25    1    1    2    0    0 -0.16368511918E+03  0.22556088830E+02 -0.11245942164E+03  0.23574078328E+03  0.12500000000E+03 0.  0.
         25    1    1    2    0    0  0.13073493643E+03  0.19406538860E+03 -0.54354528071E+03  0.60483011734E+03  0.12500000000E+03 0.  0.
         25    1    1    2    0    0  0.32950182752E+02 -0.21662147743E+03 -0.52770763795E+03  0.58490249630E+03  0.12500000000E+03 0.  0.
</event>
<event>
 5    0  0.5612316E-005  0.5740430E+03  0.7546771E-02  0.9960772E-01
         21   -1    0    0  502  501  0.00000000000E+00  0.00000000000E+00  0.68519798388E+03  0.68519798388E+03  0.00000000000E+00 0.  1.
         21   -1    0    0  501  502 -0.00000000000E+00 -0.00000000000E+00 -0.48091999493E+03  0.48091999493E+03  0.00000000000E+00 0.  1.
         25    1    1    2    0    0  0.42748574056E+03  0.25037409128E+03  0.15060515021E+03  0.53267077565E+03  0.12500000000E+03 0.  0.
         25    1    1    2    0    0 -0.11670383772E+03  0.28246040527E+02  0.91690072010E+02  0.19608593486E+03  0.12500000000E+03 0.  0.
         25    1    1    2    0    0 -0.31078190284E+03 -0.27862013181E+03 -0.38017233267E+02  0.43736126830E+03  0.12500000000E+03 0.  0.
</event>
<event>
 5    0  0.5612316E-005  0.3465875E+03  0.7546771E-02  0.1064024E+00
         21   -1    0    0  502  501  0.00000000000E+00  0.00000000000E+00  0.92151663170E+02  0.92151663170E+02  0.00000000000E+00 0. -1.
         21   -1    0    0  501  502 -0.00000000000E+00 -0.00000000000E+00 -0.13035347508E+04  0.13035347508E+04  0.00000000000E+00 0. -1.
         25    1    1    2    0    0 -0.94206252131E+02 -0.71143364858E+02 -0.70993949342E+03  0.73046237454E+03  0.12500000000E+03 0.  0.
         25    1    1    2    0    0  0.18704997892E+03 -0.49217527562E+02 -0.34011335917E+03  0.41074585417E+03  0.12500000000E+03 0.  0.
         25    1    1    2    0    0 -0.92843726794E+02  0.12036089242E+03 -0.16133023503E+03  0.25447818524E+03  0.12500000000E+03 0.  0.
</event>
<event>
 5    0  0.5612316E-005  0.2709672E+03  0.7546771E-02  0.1100727E+00
         21   -1    0    0  502  501  0.00000000000E+00  0.00000000000E+00  0.13805932870E+03  0.13805932870E+03  0.00000000000E+00 0.  1.
         21   -1    0    0  501  502 -0.00000000000E+00 -0.00000000000E+00 -0.53182363523E+03  0.53182363523E+03  0.00000000000E+00 0.  1.
         25    1    1    2    0    0  0.75452938884E+02  0.30016999209E+02 -0.22046554711E+03  0.26612820912E+03  0.12500000000E+03 0.  0.
         25    1    1    2    0    0 -0.57613324764E+02  0.88204519404E+02 -0.67212973871E+01  0.16361390000E+03  0.12500000000E+03 0.  0.
         25    1    1    2    0    0 -0.17839614120E+02 -0.11822151861E+03 -0.16657746203E+03  0.24014085481E+03  0.12500000000E+03 0.  0.
</event>
<event>
 5    0  0.5612316E-005  0.3792351E+03  0.7546771E-02  0.1051217E+00
         21   -1    0    0  502  501  0.00000000000E+00  0.00000000000E+00  0.62441497800E+03  0.62441497800E+03  0.00000000000E+00 0. -1.
         21   -1    0    0  501  502 -0.00000000000E+00 -0.00000000000E+00 -0.23032643852E+03  0.23032643852E+03  0.00000000000E+00 0. -1.
         25    1    1    2    0    0  0.18733682346E+03  0.20107973811E+03  0.13583118199E+03  0.33106382543E+03  0.12500000000E+03 0.  0.
         25    1    1    2    0    0  0.66106027097E+01 -0.15627829444E+03  0.19674450494E+03  0.28071338694E+03  0.12500000000E+03 0.  0.
         25    1    1    2    0    0 -0.19394742617E+03 -0.44801443676E+02  0.61512852552E+02  0.24296420416E+03  0.12500000000E+03 0.  0.
</event>
<event>
 5    0  0.5612316E-005  0.2742017E+03  0.7546771E-02  0.1098899E+00
         21   -1    0    0  502  501  0.00000000000E+00  0.00000000000E+00  0.83347281876E+03  0.83347281876E+03  0.00000000000E+00 0.  1.
         21   -1    0    0  501  502 -0.00000000000E+00 -0.00000000000E+00 -0.90208785282E+02  0.90208785282E+02  0.00000000000E+00 0.  1.
         25    1    1    2    0    0 -0.73030429587E+01 -0.21444087147E+02  0.27127293421E+03  0.29954496848E+03  0.12500000000E+03 0.  0.
         25    1    1    2    0    0  0.81987860481E+02 -0.46994063802E+02  0.37945813566E+02  0.16123069207E+03  0.12500000000E+03 0.  0.
         25    1    1    2    0    0 -0.74684817522E+02  0.68438150949E+02  0.43404528571E+03  0.46290594349E+03  0.12500000000E+03 0.  0.
</event>
<event>
 5    0  0.5612316E-005  0.3593844E+03  0.7546771E-02  0.1058828E+00
         21   -1    0    0  502  501  0.00000000000E+00  0.00000000000E+00  0.32639166359E+03  0.32639166359E+03  0.00000000000E+00 0.  1.
         21   -1    0    0  501  502 -0.00000000000E+00 -0.00000000000E+00 -0.39571220572E+03  0.39571220572E+03  0.00000000000E+00 0.  1.
         25    1    1    2    0    0  0.13463384428E+03  0.55341528761E+02 -0.11620176033E+03  0.22431407877E+03  0.12500000000E+03 0.  0.
         25    1    1    2    0    0 -0.52791162698E+02 -0.20139411768E+02 -0.17848733317E+03  0.22511159648E+03  0.12500000000E+03 0.  0.
         25    1    1    2    0    0 -0.81842681580E+02 -0.35202116993E+02  0.22536855137E+03  0.27267819406E+03  0.12500000000E+03 0.  0.
</event>
<event>
 5    0  0.5612316E-005  0.3046087E+03  0.7546771E-02  0.1082959E+00
         21   -1    0    0  502  501  0.00000000000E+00  0.00000000000E+00  0.50032010773E+03  0.50032010773E+03  0.00000000000E+00 0.  1.
         21   -1    0    0  501  502 -0.00000000000E+00 -0.00000000000E+00 -0.18545423917E+03  0.18545423917E+03  0.00000000000E+00 0.  1.
         25    1    1    2    0    0  0.93569368350E+02 -0.10644387252E+03  0.67694261796E+01  0.18909349492E+03  0.12500000000E+03 0.  0.
         25    1    1    2    0    0 -0.33537411498E+02 -0.15117745235E+02 -0.81941227803E+01  0.13055821628E+03  0.12500000000E+03 0.  0.
         25    1    1    2    0    0 -0.60031956852E+02  0.12156161775E+03  0.31629056517E+03  0.36612263569E+03  0.12500000000E+03 0.  0.
</event>
<event>
 5    0  0.5612316E-005  0.2497834E+03  0.7546771E-02  0.1113442E+00
         21   -1    0    0  502  501  0.00000000000E+00  0.00000000000E+00  0.91303471625E+02  0.91303471625E+02  0.00000000000E+00 0.  1.
         21   -1    0    0  501  502 -0.00000000000E+00 -0.00000000000E+00 -0.68334485760E+03  0.68334485760E+03  0.00000000000E+00 0.  1.
         25    1    1    2    0    0  0.29850387804E+02 -0.72128856203E+02 -0.15671170746E+03  0.21512130718E+03  0.12500000000E+03 0.  0.
         25    1    1    2    0    0 -0.39849529887E+01  0.11748350752E+03 -0.37266070499E+03  0.41026729754E+03  0.12500000000E+03 0.  0.
         25    1    1    2    0    0 -0.25865434815E+02 -0.45354651318E+02 -0.62668973525E+02  0.14925972450E+03  0.12500000000E+03 0.  0.
</event>
<event>
 5    0  0.5612316E-005  0.4052270E+03  0.7546771E-02  0.1041985E+00
         21   -1    0    0  502  501  0.00000000000E+00  0.00000000000E+00  0.28239446379E+03  0.28239446379E+03  0.00000000000E+00 0. -1.
         21   -1    0    0  501  502 -0.00000000000E+00 -0.00000000000E+00 -0.58148766455E+03  0.58148766455E+03  0.00000000000E+00 0. -1.
         25    1    1    2    0    0  0.17634822390E+01  0.16920763440E+03 -0.11455063597E+03  0.23954369457E+03  0.12500000000E+03 0.  0.
         25    1    1    2    0    0 -0.23321090848E+03  0.58525568070E+01 -0.13420252963E+02  0.26500317629E+03  0.12500000000E+03 0.  0.
         25    1    1    2    0    0  0.23144742624E+03 -0.17506019120E+03 -0.17112231182E+03  0.35933525747E+03  0.12500000000E+03 0.  0.
</event>
<event>
 5    0  0.5612316E-005  0.5471219E+03  0.7546771E-02  0.1002162E+00
         21   -1    0    0  502  501  0.00000000000E+00  0.00000000000E+00  0.39173214615E+03  0.39173214615E+03  0.00000000000E+00 0. -1.
         21   -1    0    0  501  502 -0.00000000000E+00 -0.00000000000E+00 -0.76415061338E+03  0.76415061338E+03  0.00000000000E+00 0. -1.
         25    1    1    2    0    0 -0.97577690872E+02  0.19143247250E+02 -0.28585132462E+03  0.32745052978E+03  0.12500000000E+03 0.  0.
         25    1    1    2    0    0  0.21233546070E+03 -0.34697323409E+03 -0.15517154669E+03  0.45296797011E+03  0.12500000000E+03 0.  0.
         25    1    1    2    0    0 -0.11475776983E+03  0.32782998684E+03  0.68604404074E+02  0.37546425964E+03  0.12500000000E+03 0.  0.
</event>
<event>
 5    0  0.5612316E-005  0.3288614E+03  0.7546771E-02  0.1071642E+00
         21   -1    0    0  502  501  0.00000000000E+00  0.00000000000E+00  0.21259412921E+03  0.21259412921E+03  0.00000000000E+00 0. -1.
         21   -1    0    0  501  502 -0.00000000000E+00 -0.00000000000E+00 -0.50871496407E+03  0.50871496407E+03  0.00000000000E+00 0. -1.
         25    1    1    2    0    0  0.30444237346E+02  0.15689887314E+02 -0.14849540762E+03  0.19710126899E+03  0.12500000000E+03 0.  0.
         25    1    1    2    0    0 -0.10295442164E+03  0.11462821765E+03 -0.23783396780E+03  0.30972445408E+03  0.12500000000E+03 0.  0.
         25    1    1    2    0    0  0.72510184290E+02 -0.13031810496E+03  0.90208540559E+02  0.21448337021E+03  0.12500000000E+03 0.  0.
</event>
<event>
 5    0  0.5612316E-005  0.5020486E+03  0.7546771E-02  0.1013246E+00
         21   -1    0    0  502  501  0.00000000000E+00  0.00000000000E+00  0.20434472339E+03  0.20434472339E+03  0.00000000000E+00 0.  1.
         21   -1    0    0  501  502 -0.00000000000E+00 -0.00000000000E+00 -0.12334686205E+04  0.12334686205E+04  0.00000000000E+00 0.  1.
         25    1    1    2    0    0 -0.12885179033E+03  0.30564586893E+03 -0.49112116640E+03  0.60567910741E+03  0.12500000000E+03 0.  0.
         25    1    1    2    0    0 -0.13525194852E+03 -0.26027997749E+03 -0.17423516629E+03  0.36334783532E+03  0.12500000000E+03 0.  0.
         25    1    1    2    0    0  0.26410373885E+03 -0.45365891443E+02 -0.36376756437E+03  0.46878640112E+03  0.12500000000E+03 0.  0.
</event>
<event>
 5    0  0.5612316E-005  0.2819207E+03  0.7546771E-02  0.1094644E+00
         21   -1    0    0  502  501  0.00000000000E+00  0.00000000000E+00  0.47910043764E+03  0.47910043764E+03  0.00000000000E+00 0.  1.
         21   -1    0    0  501  502 -0.00000000000E+00 -0.00000000000E+00 -0.16589273687E+03  0.16589273687E+03  0.00000000000E+00 0.  1.
         25    1    1    2    0    0  0.10384063665E+03  0.67124216157E+02  0.50827671278E+02  0.18302183035E+03  0.12500000000E+03 0.  0.
         25    1    1    2    0    0 -0.48984315306E+02 -0.15288970965E+03  0.21014179584E+03  0.29250521504E+03  0.12500000000E+03 0.  0.
         25    1    1    2    0    0 -0.54856321349E+02  0.85765493497E+02  0.52238233640E+02  0.16946612912E+03  0.12500000000E+03 0.  0.
</event>
<event>
 5    0  0.5612316E-005  0.2133283E+03  0.7546771E-02  0.1138957E+00
         21   -1    0    0  502  501  0.00000000000E+00  0.00000000000E+00  0.60174790707E+03  0.60174790707E+03  0.00000000000E+00 0.  1.
         21   -1    0    0  501  502 -0.00000000000E+00 -0.00000000000E+00 -0.75627960845E+02  0.75627960845E+02  0.00000000000E+00 0.  1.
         25    1    1    2    0    0 -0.77850818441E+01  0.86204759852E+02  0.17226753394E+03  0.22976721126E+03  0.12500000000E+03 0.  0.
         25    1    1    2    0    0 -0.84935667965E+01 -0.31061781653E+02  0.11978630720E+03  0.17609864948E+03  0.12500000000E+03 0.  0.
         25    1    1    2    0    0  0.16278648641E+02 -0.55142978199E+02  0.23406610509E+03  0.27151000718E+03  0.12500000000E+03 0.  0.
</event>
<event>
 5    0  0.5612316E-005  0.3605863E+03  0.7546771E-02  0.1058352E+00
         21   -1    0    0  502  501  0.00000000000E+00  0.00000000000E+00  0.82412725388E+02  0.82412725388E+02  0.00000000000E+00 0.  1.
         21   -1    0    0  501  502 -0.00000000000E+00 -0.00000000000E+00 -0.15776994338E+04  0.15776994338E+04  0.00000000000E+00 0.  1.
         25    1    1    2    0    0  0.11586956890E+03 -0.18104292072E+03 -0.46027272914E+03  0.52314269691E+03  0.12500000000E+03 0.  0.
         25    1    1    2    0    0 -0.18525434390E+03  0.17671072102E+03 -0.88485646510E+03  0.92959228412E+03  0.12500000000E+03 0.  0.
         25    1    1    2    0    0  0.69384774997E+02  0.43321996960E+01 -0.15015751413E+03  0.20737717812E+03  0.12500000000E+03 0.  0.
</event>
<event>
 5    0  0.7135454E-005  0.4533681E+03  0.7546771E-02  0.1026722E+00
         21   -1    0    0  502  501  0.00000000000E+00  0.00000000000E+00  0.80094225551E+03  0.80094225551E+03  0.00000000000E+00 0. -1.
         21   -1    0    0  501  502 -0.00000000000E+00 -0.00000000000E+00 -0.25662607594E+03  0.25662607594E+03  0.00000000000E+00 0. -1.
         25    1    1    2    0    0  0.21603391289E+03  0.14240167204E+03  0.42935901180E+03  0.51664596072E+03  0.12500000000E+03 0.  0.
         25    1    1    2    0    0 -0.21981197851E+03 -0.12478985576E+03  0.23470846929E+03  0.36688265093E+03  0.12500000000E+03 0.  0.
         25    1    1    2    0    0  0.37780656127E+01 -0.17611816281E+02 -0.11975130152E+03  0.17403971980E+03  0.12500000000E+03 0.  0.
</event>
<event>
 5    0  0.5612316E-005  0.4521159E+03  0.7546771E-02  0.1027093E+00
         21   -1    0    0  502  501  0.00000000000E+00  0.00000000000E+00  0.89056089265E+02  0.89056089265E+02  0.00000000000E+00 0. -1.
         21   -1    0    0  501  502 -0.00000000000E+00 -0.00000000000E+00 -0.22952818072E+04  0.22952818072E+04  0.00000000000E+00 0. -1.
         25    1    1    2    0    0  0.38556629753E+02 -0.23119033027E+03 -0.32378667092E+03  0.41880591062E+03  0.12500000000E+03 0.  0.
         25    1    1    2    0    0 -0.21682351518E+03  0.95090515648E+01 -0.72166633198E+03  0.76389145401E+03  0.12500000000E+03 0.  0.
         25    1    1    2    0    0  0.17826688543E+03  0.22168127870E+03 -0.11607727150E+04  0.12016405318E+04  0.12500000000E+03 0.  0.
</event>
<event>
 5    0  0.5612316E-005  0.2683713E+03  0.7546771E-02  0.1102215E+00
         21   -1    0    0  502  501  0.00000000000E+00  0.00000000000E+00  0.66151407939E+02  0.66151407939E+02  0.00000000000E+00 0.  1.
         21   -1    0    0  501  502 -0.00000000000E+00 -0.00000000000E+00 -0.10887623768E+04  0.10887623768E+04  0.00000000000E+00 0.  1.
         25    1    1    2    0    0  0.13236527732E+03  0.73765609279E+02 -0.63257872743E+03  0.66237661353E+03  0.12500000000E+03 0.  0.
         25    1    1    2    0    0 -0.75842737331E+02 -0.73095134825E+02 -0.20486043312E+03  0.26208360612E+03  0.12500000000E+03 0.  0.
         25    1    1    2    0    0 -0.56522539993E+02 -0.67047445459E+00 -0.18517180826E+03  0.23045356504E+03  0.12500000000E+03 0.  0.
</event>
<event>
 5    0  0.5612316E-005  0.5532581E+03  0.7546771E-02  0.1000743E+00
         21   -1    0    0  502  501  0.00000000000E+00  0.00000000000E+00  0.25019521655E+03  0.25019521655E+03  0.00000000000E+00 0. -1.
         21   -1    0    0  501  502 -0.00000000000E+00 -0.00000000000E+00 -0.12234228489E+04  0.12234228489E+04  0.00000000000E+00 0. -1.
         25    1    1    2    0    0  0.18761916046E+03  0.71115921487E+01 -0.99297463542E+03  0.10182706667E+04  0.12500000000E+03 0.  0.
         25    1    1    2    0    0 -0.14548396712E+03 -0.28420137743E+02 -0.14580032679E+03  0.24260260553E+03  0.12500000000E+03 0.  0.
         25    1    1    2    0    0 -0.42135193338E+02  0.21308545594E+02  0.16554732983E+03  0.21274479323E+03  0.12500000000E+03 0.  0.
</event>
<event>
 5    0  0.5612316E-005  0.2697260E+03  0.7546771E-02  0.1101437E+00
         21   -1    0    0  502  501  0.00000000000E+00  0.00000000000E+00  0.19490429550E+03  0.19490429550E+03  0.00000000000E+00 0. -1.
         21   -1    0    0  501  502 -0.00000000000E+00 -0.00000000000E+00 -0.37327108071E+03  0.37327108071E+03  0.00000000000E+00 0. -1.
         25    1    1    2    0    0 -0.39913946807E+02 -0.23427779526E+02  0.54377459218E+02  0.14395795245E+03  0.12500000000E+03 0.  0.
         25    1    1    2    0    0 -0.37688916662E+02 -0.26909039742E+02 -0.23331874537E+03  0.26871395163E+03  0.12500000000E+03 0.  0.
         25    1    1    2    0    0  0.77602863469E+02  0.50336819267E+02  0.57450094994E+00  0.15550347213E+03  0.12500000000E+03 0.  0.
</event>
<event>
 5    0  0.5851839E-005  0.3614698E+03  0.7546771E-02  0.1058003E+00
         21   -1    0    0  502  501  0.00000000000E+00  0.00000000000E+00  0.13824522789E+03  0.13824522789E+03  0.00000000000E+00 0.  1.
         21   -1    0    0  501  502 -0.00000000000E+00 -0.00000000000E+00 -0.94513506253E+03  0.94513506253E+03  0.00000000000E+00 0.  1.
         25    1    1    2    0    0 -0.44347440020E+02 -0.13470783296E+03 -0.72258191763E+02  0.20238365046E+03  0.12500000000E+03 0.  0.
         25    1    1    2    0    0 -0.14993448607E+03  0.92021555150E+02 -0.51911420535E+03  0.56218580107E+03  0.12500000000E+03 0.  0.
         25    1    1    2    0    0  0.19428192609E+03  0.42686277806E+02 -0.21551743753E+03  0.31881083889E+03  0.12500000000E+03 0.  0.
</event>
<event>
 5    0  0.5612316E-005  0.3360985E+03  0.7546771E-02  0.1068470E+00
         21   -1    0    0  502  501  0.00000000000E+00  0.00000000000E+00  0.15059164094E+03  0.15059164094E+03  0.00000000000E+00 0. -1.
         21   -1    0    0  501  502 -0.00000000000E+00 -0.00000000000E+00 -0.75012267513E+03  0.75012267513E+03  0.00000000000E+00 0. -1.
         25    1    1    2    0    0  0.37198839734E+02 -0.93734329886E+02  0.18273829096E+02  0.16164408776E+03  0.12500000000E+03 0.  0.
         25    1    1    2    0    0  0.10258677450E+03  0.13774880200E+03 -0.34393845163E+03  0.40424922667E+03  0.12500000000E+03 0.  0.
         25    1    1    2    0    0 -0.13978561423E+03 -0.44014472110E+02 -0.27386641166E+03  0.33482100164E+03  0.12500000000E+03 0.  0.
</event>
<event>
 5    0  0.5778065E-005  0.2552593E+03  0.7546771E-02  0.1110025E+00
         21   -1    0    0  502  501  0.00000000000E+00  0.00000000000E+00  0.18824353265E+03  0.18824353265E+03  0.00000000000E+00 0.  1.
         21   -1    0    0  501  502 -0.00000000000E+00 -0.00000000000E+00 -0.34613310295E+03  0.34613310295E+03  0.00000000000E+00 0.  1.
         25    1    1    2    0    0  0.84980821768E+02 -0.49829711201E+02 -0.18791987018E+03  0.24625924915E+03  0.12500000000E+03 0.  0.
         25    1    1    2    0    0 -0.86088143914E+02  0.25370027448E+02  0.43813935446E+02  0.15999833672E+03  0.12500000000E+03 0.  0.
         25    1    1    2    0    0  0.11073221453E+01  0.24459683753E+02 -0.13783635573E+02  0.12811904972E+03  0.12500000000E+03 0.  0.
</event>
<event>
 5    0  0.5612316E-005  0.3723063E+03  0.7546771E-02  0.1053815E+00
         21   -1    0    0  502  501  0.00000000000E+00  0.00000000000E+00  0.11724073299E+03  0.11724073299E+03  0.00000000000E+00 0.  1.
         21   -1    0    0  501  502 -0.00000000000E+00 -0.00000000000E+00 -0.11822852296E+04  0.11822852296E+04  0.00000000000E+00 0.  1.
         25    1    1    2    0    0  0.16307939779E+03 -0.16450370021E+03 -0.33067111299E+03  0.42264020435E+03  0.12500000000E+03 0.  0.
         25    1    1    2    0    0 -0.23442906385E+03  0.33739937827E+02 -0.53553676660E+03  0.59876539459E+03  0.12500000000E+03 0.  0.
         25    1    1    2    0    0  0.71349666065E+02  0.13076376238E+03 -0.19883661700E+03  0.27812036362E+03  0.12500000000E+03 0.  0.
</event>
<event>
 5    0  0.5612316E-005  0.3301295E+03  0.7546771E-02  0.1071080E+00
         21   -1    0    0  502  501  0.00000000000E+00  0.00000000000E+00  0.15499642920E+04  0.15499642920E+04  0.00000000000E+00 0.  1.
         21   -1    0    0  501  502 -0.00000000000E+00 -0.00000000000E+00 -0.70314822778E+02  0.70314822778E+02  0.00000000000E+00 0.  1.
         25    1    1    2    0    0  0.10353560636E+02 -0.53915203459E+02  0.13779145037E+03  0.19397301146E+03  0.12500000000E+03 0.  0.
         25    1    1    2    0    0 -0.30317901608E+02  0.11130255643E+03  0.15125777514E+03  0.22762106398E+03  0.12500000000E+03 0.  0.
         25    1    1    2    0    0  0.19964340972E+02 -0.57387352974E+02  0.11906002437E+04  0.11986850394E+04  0.12500000000E+03 0.  0.
</event>
<event>
 5    0  0.5612316E-005  0.2460674E+03  0.7546771E-02  0.1115816E+00
         21   -1    0    0  502  501  0.00000000000E+00  0.00000000000E+00  0.13643432141E+03  0.13643432141E+03  0.00000000000E+00 0. -1.
         21   -1    0    0  501  502 -0.00000000000E+00 -0.00000000000E+00 -0.44379711328E+03  0.44379711328E+03  0.00000000000E+00 0. -1.
         25    1    1    2    0    0  0.55183591472E+02 -0.20476590484E+02 -0.27475645115E+03  0.30753963481E+03  0.12500000000E+03 0.  0.
         25    1    1    2    0    0 -0.46419734870E+02 -0.65430302347E+01 -0.51558670086E+02  0.14311149322E+03  0.12500000000E+03 0.  0.
         25    1    1    2    0    0 -0.87638566015E+01  0.27019620719E+02  0.18952329372E+02  0.12958030666E+03  0.12500000000E+03 0.  0.
</event>
<event>
 5    0  0.5612316E-005  0.3310918E+03  0.7546771E-02  0.1070655E+00
         21   -1    0    0  502  501  0.00000000000E+00  0.00000000000E+00  0.22023484226E+04  0.22023484226E+04  0.00000000000E+00 0. -1.
         21   -1    0    0  501  502 -0.00000000000E+00 -0.00000000000E+00 -0.49774952230E+02  0.49774952230E+02  0.00000000000E+00 0. -1.
         25    1    1    2    0    0  0.19185850594E+03  0.49796020485E+01  0.15044661901E+04  0.15218009068E+04  0.12500000000E+03 0.  0.
         25    1    1    2    0    0 -0.30891159081E+02 -0.17674808294E+02  0.29624878569E+03  0.32350425899E+03  0.12500000000E+03 0.  0.
         25    1    1    2    0    0 -0.16096734686E+03  0.12695206245E+02  0.35185849457E+03  0.40681820905E+03  0.12500000000E+03 0.  0.
</event>
<event>
 5    0  0.5612316E-005  0.5285597E+03  0.7546771E-02  0.1006582E+00
         21   -1    0    0  502  501  0.00000000000E+00  0.00000000000E+00  0.23147517080E+04  0.23147517080E+04  0.00000000000E+00 0. -1.
         21   -1    0    0  501  502 -0.00000000000E+00 -0.00000000000E+00 -0.12069344148E+03  0.12069344148E+03  0.00000000000E+00 0. -1.
         25    1    1    2    0    0  0.17080208197E+03  0.19880807093E+03  0.21026565926E+03  0.35851729071E+03  0.12500000000E+03 0.  0.
         25    1    1    2    0    0 -0.44026289757E+02 -0.41122155805E+02  0.17043141620E+04  0.17099535400E+04  0.12500000000E+03 0.  0.
         25    1    1    2    0    0 -0.12677579222E+03 -0.15768591512E+03  0.27947844520E+03  0.36697431879E+03  0.12500000000E+03 0.  0.
</event>
<event>
 5    0  0.5612316E-005  0.2361175E+03  0.7546771E-02  0.1122407E+00
         21   -1    0    0  502  501  0.00000000000E+00  0.00000000000E+00  0.36788149266E+02  0.36788149266E+02  0.00000000000E+00 0.  1.
         21   -1    0    0  501  502 -0.00000000000E+00 -0.00000000000E+00 -0.15154738192E+04  0.15154738192E+04  0.00000000000E+00 0.  1.
         25    1    1    2    0    0  0.29921889550E+02 -0.94066166563E+02 -0.71200199677E+03  0.72959962073E+03  0.12500000000E+03 0.  0.
         25    1    1    2    0    0 -0.12338056524E+02  0.70985808812E+02 -0.23536323229E+03  0.27606532525E+03  0.12500000000E+03 0.  0.
         25    1    1    2    0    0 -0.17583833026E+02  0.23080357751E+02 -0.53132044086E+03  0.54659702247E+03  0.12500000000E+03 0.  0.
</event>
<event>
 5    0  0.5612316E-005  0.3396804E+03  0.7546771E-02  0.1066932E+00
         21   -1    0    0  502  501  0.00000000000E+00  0.00000000000E+00  0.55280302496E+03  0.55280302496E+03  0.00000000000E+00 0.  1.
         21   -1    0    0  501  502 -0.00000000000E+00 -0.00000000000E+00 -0.20872316858E+03  0.20872316858E+03  0.00000000000E+00 0.  1.
         25    1    1    2    0    0 -0.18248325825E+03  0.93023952682E+02 -0.16138032328E+02  0.24049746652E+03  0.12500000000E+03 0.  0.
         25    1    1    2    0    0  0.41264589836E+02 -0.95656649300E+02  0.75206323686E+02  0.17925945457E+03  0.12500000000E+03 0.  0.
         25    1    1    2    0    0  0.14121866841E+03  0.26326966184E+01  0.28501156502E+03  0.34176927246E+03  0.12500000000E+03 0.  0.
</event>
<event>
 5    0  0.5612316E-005  0.2479268E+03  0.7546771E-02  0.1114622E+00
         21   -1    0    0  502  501  0.00000000000E+00  0.00000000000E+00  0.51652734033E+03  0.51652734033E+03  0.00000000000E+00 0.  1.
         21   -1    0    0  501  502 -0.00000000000E+00 -0.00000000000E+00 -0.11900180542E+03  0.11900180542E+03  0.00000000000E+00 0.  1.
         25    1    1    2    0    0  0.29950252196E+02 -0.67745369550E+02  0.17584428483E+03  0.22810669699E+03  0.12500000000E+03 0.  0.
         25    1    1    2    0    0 -0.39027130048E+02 -0.73772472837E+02  0.73956077761E+02  0.16751118191E+03  0.12500000000E+03 0.  0.
         25    1    1    2    0    0  0.90768778520E+01  0.14151784239E+03  0.14772517231E+03  0.23991126685E+03  0.12500000000E+03 0.  0.
</event>
<event>
 5    0  0.5612316E-005  0.3117110E+03  0.7546771E-02  0.1079529E+00
         21   -1    0    0  502  501  0.00000000000E+00  0.00000000000E+00  0.37222886663E+03  0.37222886663E+03  0.00000000000E+00 0. -1.
         21   -1    0    0  501  502 -0.00000000000E+00 -0.00000000000E+00 -0.26103228423E+03  0.26103228423E+03  0.00000000000E+00 0. -1.
         25    1    1    2    0    0 -0.87010636537E+02  0.38890067068E+02  0.15008012657E+03  0.21733000846E+03  0.12500000000E+03 0.  0.
         25    1    1    2    0    0  0.16753030051E+03 -0.89259656505E+02 -0.98887470996E+02  0.24786572936E+03  0.12500000000E+03 0.  0.
         25    1    1    2    0    0 -0.80519663975E+02  0.50369589437E+02  0.60003926829E+02  0.16806541304E+03  0.12500000000E+03 0.  0.
</event>
<event>
 5    0  0.5612316E-005  0.6407237E+03  0.7546771E-02  0.9824343E-01
         21   -1    0    0  502  501  0.00000000000E+00  0.00000000000E+00  0.86200530460E+03  0.86200530460E+03  0.00000000000E+00 0. -1.
         21   -1    0    0  501  502 -0.00000000000E+00 -0.00000000000E+00 -0.47624630174E+03  0.47624630174E+03  0.00000000000E+00 0. -1.
         25    1    1    2    0    0 -0.13191810665E+03  0.19221871699E+03  0.15953990721E+03  0.30891488151E+03  0.12500000000E+03 0.  0.
         25    1    1    2    0    0  0.23851021631E+03 -0.14574714870E+03 -0.32842144783E+03  0.44901559220E+03  0.12500000000E+03 0.  0.
         25    1    1    2    0    0 -0.10659210966E+03 -0.46471568296E+02  0.55464054348E+03  0.58032113263E+03  0.12500000000E+03 0.  0.
</event>
<event>
 5    0  0.6285323E-005  0.2866737E+03  0.7546771E-02  0.1092099E+00
         21   -1    0    0  502  501  0.00000000000E+00  0.00000000000E+00  0.27360038310E+03  0.27360038310E+03  0.00000000000E+00 0.  1.
         21   -1    0    0  501  502 -0.00000000000E+00 -0.00000000000E+00 -0.30037166120E+03  0.30037166120E+03  0.00000000000E+00 0.  1.
         25    1    1    2    0    0  0.22685598728E+02 -0.10617973608E+03 -0.26912440514E+02  0.16774400794E+03  0.12500000000E+03 0.  0.
         25    1    1    2    0    0  0.26693949585E+02  0.19967060173E+03  0.32641564966E+02  0.23931441224E+03  0.12500000000E+03 0.  0.
         25    1    1    2    0    0 -0.49379548314E+02 -0.93490865649E+02 -0.32500402551E+02  0.16691362412E+03  0.12500000000E+03 0.  0.
</event>
<event>
 5    0  0.5612316E-005  0.4978073E+03  0.7546771E-02  0.1014353E+00
         21   -1    0    0  502  501  0.00000000000E+00  0.00000000000E+00  0.20984637832E+03  0.20984637832E+03  0.00000000000E+00 0. -1.
         21   -1    0    0  501  502 -0.00000000000E+00 -0.00000000000E+00 -0.11809214405E+04  0.11809214405E+04  0.00000000000E+00 0.  1.
         25    1    1    2    0    0 -0.12349479688E+03 -0.30170623859E+03 -0.21031123630E+03  0.40759469497E+03  0.12500000000E+03 0.  0.
         25    1    1    2    0    0  0.15620874231E+03  0.68988683176E+02 -0.66891057411E+03  0.70158888655E+03  0.12500000000E+03 0.  0.
         25    1    1    2    0    0 -0.32713945425E+02  0.23271755541E+03 -0.91853251750E+02  0.28158423727E+03  0.12500000000E+03 0.  0.
</event>
<event>
 5    0  0.5612316E-005  0.1960763E+03  0.7546771E-02  0.1153092E+00
         21   -1    0    0  502  501  0.00000000000E+00  0.00000000000E+00  0.23991063242E+03  0.23991063242E+03  0.00000000000E+00 0. -1.
         21   -1    0    0  501  502 -0.00000000000E+00 -0.00000000000E+00 -0.16025091906E+03  0.16025091906E+03  0.00000000000E+00 0. -1.
         25    1    1    2    0    0  0.25416074801E+02 -0.14298538336E+02  0.39858104199E+02  0.13440272887E+03  0.12500000000E+03 0.  0.
         25    1    1    2    0    0 -0.37207033579E+02 -0.59351891416E+01  0.46029577134E+02  0.13843161412E+03  0.12500000000E+03 0.  0.
         25    1    1    2    0    0  0.11790958778E+02  0.20233727478E+02 -0.62279679673E+01  0.12732720849E+03  0.12500000000E+03 0.  0.
</event>
<event>
 5    0  0.5612316E-005  0.4138193E+03  0.7546771E-02  0.1039097E+00
         21   -1    0    0  502  501  0.00000000000E+00  0.00000000000E+00  0.62779225776E+03  0.62779225776E+03  0.00000000000E+00 0.  1.
         21   -1    0    0  501  502 -0.00000000000E+00 -0.00000000000E+00 -0.27277563065E+03  0.27277563065E+03  0.00000000000E+00 0.  1.
         25    1    1    2    0    0 -0.27114100986E+03 -0.94523254860E+02  0.25369181854E+03  0.40303428109E+03  0.12500000000E+03 0.  0.
         25    1    1    2    0    0  0.13816536236E+03  0.17822732914E+03 -0.26998973657E+02  0.25924620110E+03  0.12500000000E+03 0.  0.
         25    1    1    2    0    0  0.13297564750E+03 -0.83704074279E+02  0.12832378223E+03  0.23828740622E+03  0.12500000000E+03 0.  0.
</event>
<event>
 5    0  0.5612316E-005  0.2644802E+03  0.7546771E-02  0.1104481E+00
         21   -1    0    0  502  501  0.00000000000E+00  0.00000000000E+00  0.59788072959E+03  0.59788072959E+03  0.00000000000E+00 0. -1.
         21   -1    0    0  501  502 -0.00000000000E+00 -0.00000000000E+00 -0.11699616488E+03  0.11699616488E+03  0.00000000000E+00 0. -1.
         25    1    1    2    0    0  0.59206438377E+01 -0.11308056123E+03  0.29774956063E+03  0.34220179457E+03  0.12500000000E+03 0.  0.
         25    1    1    2    0    0  0.71038354637E+02  0.90673493793E+02  0.61630815832E+02  0.18080787529E+03  0.12500000000E+03 0.  0.
         25    1    1    2    0    0 -0.76958998475E+02  0.22407067442E+02  0.12150418825E+03  0.19186722461E+03  0.12500000000E+03 0.  0.
</event>
<event>
 5    0  0.5612316E-005  0.2633176E+03  0.7546771E-02  0.1105166E+00
         21   -1    0    0  502  501  0.00000000000E+00  0.00000000000E+00  0.16391182609E+03  0.16391182609E+03  0.00000000000E+00 0. -1.
         21   -1    0    0  501  502 -0.00000000000E+00 -0.00000000000E+00 -0.42300879442E+03  0.42300879442E+03  0.00000000000E+00 0. -1.
         25    1    1    2    0    0 -0.11748989581E+03 -0.72440170120E+02 -0.23068837559E+03  0.29646851519E+03  0.12500000000E+03 0.  0.
         25    1    1    2    0    0  0.35569782828E+02  0.30252168769E+02 -0.20050934667E+02  0.13493495895E+03  0.12500000000E+03 0.  0.
         25    1    1    2    0    0  0.81920112982E+02  0.42188001351E+02 -0.83576580683E+01  0.15551714638E+03  0.12500000000E+03 0.  0.
</event>
<event>
 5    0  0.5612316E-005  0.2181934E+03  0.7546771E-02  0.1135237E+00
         21   -1    0    0  502  501  0.00000000000E+00  0.00000000000E+00  0.36498833976E+03  0.36498833976E+03  0.00000000000E+00 0.  1.
         21   -1    0    0  501  502 -0.00000000000E+00 -0.00000000000E+00 -0.13043803240E+03  0.13043803240E+03  0.00000000000E+00 0.  1.
         25    1    1    2    0    0 -0.54182481770E+02  0.16161665196E+02  0.86526744559E+02  0.16219993303E+03  0.12500000000E+03 0.  0.
         25    1    1    2    0    0 -0.23977867817E+02 -0.65421277115E+02  0.71032325166E+02  0.15976693295E+03  0.12500000000E+03 0.  0.
         25    1    1    2    0    0  0.78160349587E+02  0.49259611919E+02  0.76991237633E+02  0.17345950619E+03  0.12500000000E+03 0.  0.
</event>
<event>
 5    0  0.5612316E-005  0.3925479E+03  0.7546771E-02  0.1046391E+00
         21   -1    0    0  502  501  0.00000000000E+00  0.00000000000E+00  0.13765792385E+03  0.13765792385E+03  0.00000000000E+00 0. -1.
         21   -1    0    0  501  502 -0.00000000000E+00 -0.00000000000E+00 -0.11193968666E+04  0.11193968666E+04  0.00000000000E+00 0. -1.
         25    1    1    2    0    0 -0.31360782590E+02  0.22353677057E+03 -0.77689022534E+02  0.26946756893E+03  0.12500000000E+03 0.  0.
         25    1    1    2    0    0  0.11205662447E+03 -0.12504224515E+03 -0.59472466022E+03  0.63048764590E+03  0.12500000000E+03 0.  0.
         25    1    1    2    0    0 -0.80695841880E+02 -0.98494525427E+02 -0.30932525995E+03  0.35709957558E+03  0.12500000000E+03 0.  0.
</event>
<event>
 5    0  0.5612316E-005  0.5680500E+03  0.7546771E-02  0.9974003E-01
         21   -1    0    0  502  501  0.00000000000E+00  0.00000000000E+00  0.81220509573E+03  0.81220509573E+03  0.00000000000E+00 0.  1.
         21   -1    0    0  501  502 -0.00000000000E+00 -0.00000000000E+00 -0.39728986535E+03  0.39728986535E+03  0.00000000000E+00 0.  1.
         25    1    1    2    0    0 -0.15476053603E+03 -0.24049915673E+03  0.10062031154E+03  0.32793309530E+03  0.12500000000E+03 0.  0.
         25    1    1    2    0    0 -0.17478074609E+03 -0.10065554348E+03 -0.81900070395E+02  0.25102284591E+03  0.12500000000E+03 0.  0.
         25    1    1    2    0    0  0.32954128211E+03  0.34115470021E+03  0.39619498923E+03  0.63053901988E+03  0.12500000000E+03 0.  0.
</event>
<event>
 5    0  0.5612316E-005  0.3690468E+03  0.7546771E-02  0.1055058E+00
         21   -1    0    0  502  501  0.00000000000E+00  0.00000000000E+00  0.10316838050E+04  0.10316838050E+04  0.00000000000E+00 0.  1.
         21   -1    0    0  501  502 -0.00000000000E+00 -0.00000000000E+00 -0.13201287644E+03  0.13201287644E+03  0.00000000000E+00 0.  1.
         25    1    1    2    0    0 -0.17030273785E+03  0.14576532293E+03  0.65802783532E+03  0.70631167621E+03  0.12500000000E+03 0.  0.
         25    1    1    2    0    0  0.82093341597E+01  0.14970339178E+02  0.57981939044E+02  0.13884671216E+03  0.12500000000E+03 0.  0.
         25    1    1    2    0    0  0.16209340369E+03 -0.16073566211E+03  0.18366115418E+03  0.31853829306E+03  0.12500000000E+03 0.  0.
</event>
<event>
 5    0  0.5612316E-005  0.5196732E+03  0.7546771E-02  0.1008768E+00
         21   -1    0    0  502  501  0.00000000000E+00  0.00000000000E+00  0.34758413256E+03  0.34758413256E+03  0.00000000000E+00 0.  1.
         21   -1    0    0  501  502 -0.00000000000E+00 -0.00000000000E+00 -0.77696352514E+03  0.77696352514E+03  0.00000000000E+00 0.  1.
         25    1    1    2    0    0  0.35906585403E+03 -0.60091661536E+02 -0.75502265736E+02  0.39225615029E+03  0.12500000000E+03 0.  0.
         25    1    1    2    0    0  0.98081874982E+02  0.49934180992E+02 -0.79170658543E+02  0.18440843203E+03  0.12500000000E+03 0.  0.
         25    1    1    2    0    0 -0.45714772901E+03  0.10157480544E+02 -0.27470646830E+03  0.54788307537E+03  0.12500000000E+03 0.  0.
</event>
<event>
 5    0  0.5612316E-005  0.4215467E+03  0.7546771E-02  0.1036564E+00
         21   -1    0    0  502  501  0.00000000000E+00  0.00000000000E+00  0.37608447691E+03  0.37608447691E+03  0.00000000000E+00 0.  1.
         21   -1    0    0  501  502 -0.00000000000E+00 -0.00000000000E+00 -0.47250447919E+03  0.47250447919E+03  0.00000000000E+00 0.  1.
         25    1    1    2    0    0  0.12609320083E+03  0.57826798456E+02 -0.26836907230E+03  0.32694096238E+03  0.12500000000E+03 0.  0.
         25    1    1    2    0    0 -0.23879086558E+01  0.13736019626E+03  0.18020525375E+03  0.25879037676E+03  0.12500000000E+03 0.  0.
         25    1    1    2    0    0 -0.12370529218E+03 -0.19518699472E+03 -0.82561837223E+01  0.26285761695E+03  0.12500000000E+03 0.  0.
</event>
<event>
 5    0  0.5612316E-005  0.3216135E+03  0.7546771E-02  0.1074909E+00
         21   -1    0    0  502  501  0.00000000000E+00  0.00000000000E+00  0.72777871631E+03  0.72777871631E+03  0.00000000000E+00 0.  1.
         21   -1    0    0  501  502 -0.00000000000E+00 -0.00000000000E+00 -0.14212458890E+03  0.14212458890E+03  0.00000000000E+00 0.  1.
         25    1    1    2    0    0  0.25983612081E+02  0.81931239461E+02  0.33934678237E+02  0.15544915080E+03  0.12500000000E+03 0.  0.
         25    1    1    2    0    0  0.13009775570E+03 -0.15402711501E+03  0.33876675494E+03  0.41356703501E+03  0.12500000000E+03 0.  0.
         25    1    1    2    0    0 -0.15608136778E+03  0.72095875549E+02  0.21295269423E+03  0.30088711940E+03  0.12500000000E+03 0.  0.
</event>
<event>
 5    0  0.5612316E-005  0.3978868E+03  0.7546771E-02  0.1044514E+00
         21   -1    0    0  502  501  0.00000000000E+00  0.00000000000E+00  0.11925384178E+04  0.11925384178E+04  0.00000000000E+00 0. -1.
         21   -1    0    0  501  502 -0.00000000000E+00 -0.00000000000E+00 -0.13275370618E+03  0.13275370618E+03  0.00000000000E+00 0. -1.
         25    1    1    2    0    0  0.13146507519E+03 -0.65022046636E+02 -0.19795430709E+02  0.19372091168E+03  0.12500000000E+03 0.  0.
         25    1    1    2    0    0  0.36884429003E+01  0.23897460456E+02  0.65073117205E+03  0.66306919059E+03  0.12500000000E+03 0.  0.
         25    1    1    2    0    0 -0.13515351809E+03  0.41124586181E+02  0.42884897027E+03  0.46850202171E+03  0.12500000000E+03 0.  0.
</event>
<event>
 5    0  0.5612316E-005  0.2422316E+03  0.7546771E-02  0.1118315E+00
         21   -1    0    0  502  501  0.00000000000E+00  0.00000000000E+00  0.13554447226E+03  0.13554447226E+03  0.00000000000E+00 0. -1.
         21   -1    0    0  501  502 -0.00000000000E+00 -0.00000000000E+00 -0.43289216580E+03  0.43289216580E+03  0.00000000000E+00 0. -1.
         25    1    1    2    0    0 -0.73642171747E+02  0.37223342360E+02 -0.23136824833E+03  0.27561751216E+03  0.12500000000E+03 0.  0.
         25    1    1    2    0    0  0.82290075519E+02 -0.38765495226E+02 -0.64478305928E+02  0.16750185696E+03  0.12500000000E+03 0.  0.
         25    1    1    2    0    0 -0.86479037722E+01  0.15421528658E+01 -0.15011392882E+01  0.12531726894E+03  0.12500000000E+03 0.  0.
</event>
<event>
 5    0  0.5612316E-005  0.2797416E+03  0.7546771E-02  0.1095830E+00
         21   -1    0    0  502  501  0.00000000000E+00  0.00000000000E+00  0.35997758911E+03  0.35997758911E+03  0.00000000000E+00 0.  1.
         21   -1    0    0  501  502 -0.00000000000E+00 -0.00000000000E+00 -0.21738951181E+03  0.21738951181E+03  0.00000000000E+00 0.  1.
         25    1    1    2    0    0  0.75455642562E+01 -0.16072748087E+03  0.86149305072E+02  0.22121700073E+03  0.12500000000E+03 0.  0.
         25    1    1    2    0    0 -0.78755372700E+01  0.22791751257E+02 -0.55565547828E+02  0.13890290896E+03  0.12500000000E+03 0.  0.
         25    1    1    2    0    0  0.32997301382E+00  0.13793572961E+03  0.11200432006E+03  0.21724719123E+03  0.12500000000E+03 0.  0.
</event>
<event>
 5    0  0.5612316E-005  0.4700666E+03  0.7546771E-02  0.1021901E+00
         21   -1    0    0  502  501  0.00000000000E+00  0.00000000000E+00  0.11024724363E+04  0.11024724363E+04  0.00000000000E+00 0. -1.
         21   -1    0    0  501  502 -0.00000000000E+00 -0.00000000000E+00 -0.20042463078E+03  0.20042463078E+03  0.00000000000E+00 0. -1.
         25    1    1    2    0    0 -0.37033309676E+03  0.75234542158E+01  0.31881466907E+03  0.50445118508E+03  0.12500000000E+03 0.  0.
         25    1    1    2    0    0  0.29659308479E+03 -0.13560570851E+03  0.33806071115E+03  0.48607243344E+03  0.12500000000E+03 0.  0.
         25    1    1    2    0    0  0.73740011974E+02  0.12808225430E+03  0.24517242528E+03  0.31237344853E+03  0.12500000000E+03 0.  0.
</event>
<event>
 5    0  0.5612316E-005  0.2826467E+03  0.7546771E-02  0.1094252E+00
         21   -1    0    0  502  501  0.00000000000E+00  0.00000000000E+00  0.10171958415E+04  0.10171958415E+04  0.00000000000E+00 0.  1.
         21   -1    0    0  501  502 -0.00000000000E+00 -0.00000000000E+00 -0.78538629167E+02  0.78538629167E+02  0.00000000000E+00 0.  1.
         25    1    1    2    0    0 -0.37302003264E+02 -0.65395311812E+02  0.63334926647E+03  0.64994175092E+03  0.12500000000E+03 0.  0.
         25    1    1    2    0    0 -0.31942080788E+02 -0.49316612030E+02  0.99496991653E+02  0.17022654345E+03  0.12500000000E+03 0.  0.
         25    1    1    2    0    0  0.69244084053E+02  0.11471192384E+03  0.20581095423E+03  0.27556617632E+03  0.12500000000E+03 0.  0.
</event>
<event>
 5    0  0.5612316E-005  0.2961940E+03  0.7546771E-02  0.1087159E+00
         21   -1    0    0  502  501  0.00000000000E+00  0.00000000000E+00  0.10068062707E+04  0.10068062707E+04  0.00000000000E+00 0. -1.
         21   -1    0    0  501  502 -0.00000000000E+00 -0.00000000000E+00 -0.87137772979E+02  0.87137772979E+02  0.00000000000E+00 0. -1.
         25    1    1    2    0    0 -0.71008663404E+02  0.10393686252E+03  0.46298650018E+03  0.49580903684E+03  0.12500000000E+03 0.  0.
         25    1    1    2    0    0  0.22558458289E+02 -0.16382627926E+03  0.14314253034E+03  0.25191807757E+03  0.12500000000E+03 0.  0.
         25    1    1    2    0    0  0.48450205115E+02  0.59889416741E+02  0.31353946716E+03  0.34621692923E+03  0.12500000000E+03 0.  0.
</event>
<event>
 5    0  0.5612316E-005  0.4422426E+03  0.7546771E-02  0.1030061E+00
         21   -1    0    0  502  501  0.00000000000E+00  0.00000000000E+00  0.18187515998E+03  0.18187515998E+03  0.00000000000E+00 0. -1.
         21   -1    0    0  501  502 -0.00000000000E+00 -0.00000000000E+00 -0.10753446304E+04  0.10753446304E+04  0.00000000000E+00 0. -1.
         25    1    1    2    0    0  0.71702446114E+02  0.65173843851E+02 -0.21032357929E+03  0.26315371688E+03  0.12500000000E+03 0.  0.
         25    1    1    2    0    0  0.25570518593E+03 -0.19768517942E+03 -0.30318738690E+03  0.46044778623E+03  0.12500000000E+03 0.  0.
         25    1    1    2    0    0 -0.32740763204E+03  0.13251133557E+03 -0.37995850427E+03  0.53361828730E+03  0.12500000000E+03 0.  0.
</event>
<event>
 5    0  0.5612316E-005  0.2496127E+03  0.7546771E-02  0.1113550E+00
         21   -1    0    0  502  501  0.00000000000E+00  0.00000000000E+00  0.12566549687E+03  0.12566549687E+03  0.00000000000E+00 0.  1.
         21   -1    0    0  501  502 -0.00000000000E+00 -0.00000000000E+00 -0.49581221786E+03  0.49581221786E+03  0.00000000000E+00 0.  1.
         25    1    1    2    0    0 -0.11371972217E+03  0.49212810639E+02 -0.16154427921E+03  0.23890506500E+03  0.12500000000E+03 0.  0.
         25    1    1    2    0    0  0.13973447477E+03 -0.17042917465E+02 -0.10961894762E+03  0.21784741943E+03  0.12500000000E+03 0.  0.
         25    1    1    2    0    0 -0.26014752602E+02 -0.32169893174E+02 -0.98983494163E+02  0.16472523030E+03  0.12500000000E+03 0.  0.
</event>
<event>
 5    0  0.5612316E-005  0.2238687E+03  0.7546771E-02  0.1131031E+00
         21   -1    0    0  502  501  0.00000000000E+00  0.00000000000E+00  0.13212182819E+04  0.13212182819E+04  0.00000000000E+00 0.  1.
         21   -1    0    0  501  502 -0.00000000000E+00 -0.00000000000E+00 -0.37932551002E+02  0.37932551002E+02  0.00000000000E+00 0.  1.
         25    1    1    2    0    0 -0.75598677857E+02  0.76002455441E+02  0.50800141094E+03  0.53402431297E+03  0.12500000000E+03 0.  0.
         25    1    1    2    0    0  0.86397217002E+01 -0.21128090517E+02  0.29098835282E+03  0.31752206613E+03  0.12500000000E+03 0.  0.
         25    1    1    2    0    0  0.66958956157E+02 -0.54874364924E+02  0.48429596710E+03  0.50760445377E+03  0.12500000000E+03 0.  0.
</event>
<event>
 5    0  0.5612316E-005  0.3739062E+03  0.7546771E-02  0.1053209E+00
         21   -1    0    0  502  501  0.00000000000E+00  0.00000000000E+00  0.10355454414E+03  0.10355454414E+03  0.00000000000E+00 0.  1.
         21   -1    0    0  501  502 -0.00000000000E+00 -0.00000000000E+00 -0.13500699150E+04  0.13500699150E+04  0.00000000000E+00 0.  1.
         25    1    1    2    0    0  0.45401291899E+02 -0.91677849820E+02 -0.45131262404E+03  0.47934767139E+03  0.12500000000E+03 0.  0.
         25    1    1    2    0    0 -0.19891134996E+03  0.80222006900E+02 -0.72101917918E+03  0.76255816321E+03  0.12500000000E+03 0.  0.
         25    1    1    2    0    0  0.15351005806E+03  0.11455842920E+02 -0.74183567634E+02  0.21171862452E+03  0.12500000000E+03 0.  0.
</event>
<event>
 5    0  0.5612316E-005  0.2041743E+03  0.7546771E-02  0.1146264E+00
         21   -1    0    0  502  501  0.00000000000E+00  0.00000000000E+00  0.19621283679E+03  0.19621283679E+03  0.00000000000E+00 0.  1.
         21   -1    0    0  501  502 -0.00000000000E+00 -0.00000000000E+00 -0.21245882768E+03  0.21245882768E+03  0.00000000000E+00 0.  1.
         25    1    1    2    0    0  0.40559134769E+01 -0.56456269786E+02 -0.51386390144E+01  0.13731411596E+03  0.12500000000E+03 0.  0.
         25    1    1    2    0    0 -0.22382294139E+02  0.66012682048E+02  0.74178012758E+01  0.14331317126E+03  0.12500000000E+03 0.  0.
         25    1    1    2    0    0  0.18326380663E+02 -0.95564122619E+01 -0.18525153153E+02  0.12804437724E+03  0.12500000000E+03 0.  0.
</event>
<event>
 5    0  0.5648011E-005  0.6674951E+03  0.7546771E-02  0.9774494E-01
         21   -1    0    0  502  501  0.00000000000E+00  0.00000000000E+00  0.87744117669E+03  0.87744117669E+03  0.00000000000E+00 0. -1.
         21   -1    0    0  501  502 -0.00000000000E+00 -0.00000000000E+00 -0.50778295260E+03  0.50778295260E+03  0.00000000000E+00 0. -1.
         25    1    1    2    0    0  0.23040339016E+03 -0.19720472269E+03 -0.29410604458E+03  0.44056644256E+03  0.12500000000E+03 0.  0.
         25    1    1    2    0    0 -0.31099710655E+02  0.32520693204E+03  0.18408009233E+03  0.39526854294E+03  0.12500000000E+03 0.  0.
         25    1    1    2    0    0 -0.19930367951E+03 -0.12800220935E+03  0.47968417635E+03  0.54938914378E+03  0.12500000000E+03 0.  0.
</event>
<event>
 5    0  0.5612316E-005  0.4745372E+03  0.7546771E-02  0.1020647E+00
         21   -1    0    0  502  501  0.00000000000E+00  0.00000000000E+00  0.52441843949E+03  0.52441843949E+03  0.00000000000E+00 0.  1.
         21   -1    0    0  501  502 -0.00000000000E+00 -0.00000000000E+00 -0.42940054215E+03  0.42940054215E+03  0.00000000000E+00 0.  1.
         25    1    1    2    0    0  0.15170078882E+03 -0.22076481276E+03 -0.34533592209E+02  0.29760342886E+03  0.12500000000E+03 0.  0.
         25    1    1    2    0    0 -0.21304862596E+03  0.29467629221E+03 -0.81236350053E+02  0.39299895520E+03  0.12500000000E+03 0.  0.
         25    1    1    2    0    0  0.61347837143E+02 -0.73911479454E+02  0.21078783960E+03  0.26321659758E+03  0.12500000000E+03 0.  0.
</event>
<event>
 5    0  0.5612316E-005  0.3190415E+03  0.7546771E-02  0.1076091E+00
         21   -1    0    0  502  501  0.00000000000E+00  0.00000000000E+00  0.11618202638E+04  0.11618202638E+04  0.00000000000E+00 0. -1.
         21   -1    0    0  501  502 -0.00000000000E+00 -0.00000000000E+00 -0.87610371216E+02  0.87610371216E+02  0.00000000000E+00 0. -1.
         25    1    1    2    0    0  0.17640639960E+03  0.97144156269E+01  0.32194019501E+03  0.38792277176E+03  0.12500000000E+03 0.  0.
         25    1    1    2    0    0 -0.35764256916E+02  0.78635384149E+02  0.11319285287E+03  0.18947355397E+03  0.12500000000E+03 0.  0.
         25    1    1    2    0    0 -0.14064214268E+03 -0.88349799776E+02  0.63907684471E+03  0.67203430929E+03  0.12500000000E+03 0.  0.
</event>
<event>
 5    0  0.5612316E-005  0.3372490E+03  0.7546771E-02  0.1067974E+00
         21   -1    0    0  502  501  0.00000000000E+00  0.00000000000E+00  0.23795027775E+03  0.23795027775E+03  0.00000000000E+00 0.  1.
         21   -1    0    0  501  502 -0.00000000000E+00 -0.00000000000E+00 -0.47798602161E+03  0.47798602161E+03  0.00000000000E+00 0.  1.
         25    1    1    2    0    0  0.11490891656E+03  0.14285468805E+03 -0.14151091616E+03  0.26317648146E+03  0.12500000000E+03 0.  0.
         25    1    1    2    0    0  0.46151085466E+02 -0.17914839417E+03 -0.10242531555E+03  0.24564204666E+03  0.12500000000E+03 0.  0.
         25    1    1    2    0    0 -0.16106000203E+03  0.36293706116E+02  0.39004878430E+01  0.20711777124E+03  0.12500000000E+03 0.  0.
</event>
<event>
 5    0  0.5612316E-005  0.2884452E+03  0.7546771E-02  0.1091164E+00
         21   -1    0    0  502  501  0.00000000000E+00  0.00000000000E+00  0.20313311429E+04  0.20313311429E+04  0.00000000000E+00 0. -1.
         21   -1    0    0  501  502 -0.00000000000E+00 -0.00000000000E+00 -0.40958671293E+02  0.40958671293E+02  0.00000000000E+00 0. -1.
         25    1    1    2    0    0 -0.56819004862E+02 -0.76435073375E+02  0.37093936450E+03  0.40285447980E+03  0.12500000000E+03 0.  0.
         25    1    1    2    0    0  0.10917800197E+03  0.14423727979E+03  0.12649706663E+04  0.12839392569E+04  0.12500000000E+03 0.  0.
         25    1    1    2    0    0 -0.52358997110E+02 -0.67802206413E+02  0.35446244089E+03  0.38549607751E+03  0.12500000000E+03 0.  0.
</event>
<event>
 5    0  0.5612316E-005  0.3651072E+03  0.7546771E-02  0.1056580E+00
         21   -1    0    0  502  501  0.00000000000E+00  0.00000000000E+00  0.42359783964E+03  0.42359783964E+03  0.00000000000E+00 0.  1.
         21   -1    0    0  501  502 -0.00000000000E+00 -0.00000000000E+00 -0.31469298142E+03  0.31469298142E+03  0.00000000000E+00 0.  1.
         25    1    1    2    0    0  0.21339585958E+03 -0.16848559114E+01  0.13789612321E+03  0.28316244882E+03  0.12500000000E+03 0.  0.
         25    1    1    2    0    0 -0.73891007913E+02 -0.15324130935E+03 -0.11857481478E+02  0.21144356176E+03  0.12500000000E+03 0.  0.
         25    1    1    2    0    0 -0.13950485167E+03  0.15492616526E+03 -0.17133783505E+02  0.24368481048E+03  0.12500000000E+03 0.  0.
</event>
<event>
 5    0  0.5612316E-005  0.2511213E+03  0.7546771E-02  0.1112598E+00
         21   -1    0    0  502  501  0.00000000000E+00  0.00000000000E+00  0.37119628041E+02  0.37119628041E+02  0.00000000000E+00 0. -1.
         21   -1    0    0  501  502 -0.00000000000E+00 -0.00000000000E+00 -0.16988835714E+04  0.16988835714E+04  0.00000000000E+00 0. -1.
         25    1    1    2    0    0 -0.92263900867E+02  0.45773273283E+02 -0.47252935811E+03  0.49951658053E+03  0.12500000000E+03 0.  0.
         25    1    1    2    0    0  0.87794932907E+01 -0.10957149789E+03 -0.74010577527E+03  0.75859379858E+03  0.12500000000E+03 0.  0.
         25    1    1    2    0    0  0.83484407576E+02  0.63798224610E+02 -0.44912880998E+03  0.47789282033E+03  0.12500000000E+03 0.  0.
</event>
<event>
 5    0  0.5612316E-005  0.9091729E+03  0.7546771E-02  0.9414187E-01
         21   -1    0    0  502  501  0.00000000000E+00  0.00000000000E+00  0.39927640189E+03  0.39927640189E+03  0.00000000000E+00 0. -1.
         21   -1    0    0  501  502 -0.00000000000E+00 -0.00000000000E+00 -0.20702333487E+04  0.20702333487E+04  0.00000000000E+00 0. -1.
         25    1    1    2    0    0 -0.67894771562E+03 -0.33384410101E+03 -0.83883676756E+03  0.11365271695E+04  0.12500000000E+03 0.  0.
         25    1    1    2    0    0 -0.58761625368E+02 -0.78376375599E+02 -0.30921252251E+02  0.16179279560E+03  0.12500000000E+03 0.  0.
         25    1    1    2    0    0  0.73770934099E+03  0.41222047661E+03 -0.80119892704E+03  0.11711897856E+04  0.12500000000E+03 0.  0.
</event>
<event>
 5    0  0.5612316E-005  0.2764307E+03  0.7546771E-02  0.1097655E+00
         21   -1    0    0  502  501  0.00000000000E+00  0.00000000000E+00  0.42852953862E+03  0.42852953862E+03  0.00000000000E+00 0.  1.
         21   -1    0    0  501  502 -0.00000000000E+00 -0.00000000000E+00 -0.17831665707E+03  0.17831665707E+03  0.00000000000E+00 0.  1.
         25    1    1    2    0    0  0.11653792327E+02  0.37185571931E+02  0.27001402411E+02  0.13368864338E+03  0.12500000000E+03 0.  0.
         25    1    1    2    0    0 -0.76037334842E+02 -0.16723791796E+03  0.89406891076E+02  0.23951782745E+03  0.12500000000E+03 0.  0.
         25    1    1    2    0    0  0.64383542515E+02  0.13005234603E+03  0.13380458806E+03  0.23363972487E+03  0.12500000000E+03 0.  0.
</event>
<event>
 5    0  0.5612316E-005  0.3372132E+03  0.7546771E-02  0.1067989E+00
         21   -1    0    0  502  501  0.00000000000E+00  0.00000000000E+00  0.86884207430E+02  0.86884207430E+02  0.00000000000E+00 0. -1.
         21   -1    0    0  501  502 -0.00000000000E+00 -0.00000000000E+00 -0.13087847990E+04  0.13087847990E+04  0.00000000000E+00 0. -1.
         25    1    1    2    0    0 -0.88027932630E+02  0.15859741299E+03 -0.18725331098E+03  0.28912083772E+03  0.12500000000E+03 0.  0.
         25    1    1    2    0    0  0.14087018550E+03 -0.48704797423E+02 -0.72926396381E+03  0.75476320483E+03  0.12500000000E+03 0.  0.
         25    1    1    2    0    0 -0.52842252874E+02 -0.10989261556E+03 -0.30538331675E+03  0.35178496386E+03  0.12500000000E+03 0.  0.
</event>
<event>
 5    0  0.5612316E-005  0.2561567E+03  0.7546771E-02  0.1109475E+00
         21   -1    0    0  502  501  0.00000000000E+00  0.00000000000E+00  0.20312907095E+03  0.20312907095E+03  0.00000000000E+00 0.  1.
         21   -1    0    0  501  502 -0.00000000000E+00 -0.00000000000E+00 -0.32302742174E+03  0.32302742174E+03  0.00000000000E+00 0.  1.
         25    1    1    2    0    0 -0.11739577265E+03 -0.22206436576E+02 -0.14952050962E+03  0.22859631681E+03  0.12500000000E+03 0.  0.
         25    1    1    2    0    0  0.69970088446E+02  0.61555929110E+02  0.26553967952E+02  0.15816149626E+03  0.12500000000E+03 0.  0.
         25    1    1    2    0    0  0.47425684206E+02 -0.39349492534E+02  0.30681908774E+01  0.13939867962E+03  0.12500000000E+03 0.  0.
</event>
<event>
 5    0  0.5612316E-005  0.4766991E+03  0.7546771E-02  0.1020046E+00
         21   -1    0    0  502  501  0.00000000000E+00  0.00000000000E+00  0.33000796099E+03  0.33000796099E+03  0.00000000000E+00 0.  1.
         21   -1    0    0  501  502 -0.00000000000E+00 -0.00000000000E+00 -0.68859562727E+03  0.68859562727E+03  0.00000000000E+00 0.  1.
         25    1    1    2    0    0 -0.29555963990E+02 -0.10549988530E+03 -0.16010461361E+03  0.23078619565E+03  0.12500000000E+03 0.  0.
         25    1    1    2    0    0  0.15912288315E+03 -0.23424748521E+03 -0.25259676902E+03  0.39952735074E+03  0.12500000000E+03 0.  0.
         25    1    1    2    0    0 -0.12956691916E+03  0.33974737051E+03  0.54113716343E+02  0.38829004186E+03  0.12500000000E+03 0.  0.
</event>
<event>
 5    0  0.6047675E-005  0.5578108E+03  0.7546771E-02  0.9997020E-01
         21   -1    0    0  502  501  0.00000000000E+00  0.00000000000E+00  0.27370857056E+03  0.27370857056E+03  0.00000000000E+00 0. -1.
         21   -1    0    0  501  502 -0.00000000000E+00 -0.00000000000E+00 -0.11368034082E+04  0.11368034082E+04  0.00000000000E+00 0. -1.
         25    1    1    2    0    0 -0.17774940827E+03 -0.22990795635E+03 -0.17405144245E+03  0.36106983417E+03  0.12500000000E+03 0.  0.
         25    1    1    2    0    0  0.29497410972E+03  0.73379306410E+02 -0.67269260278E+01  0.32873165279E+03  0.12500000000E+03 0.  0.
         25    1    1    2    0    0 -0.11722470145E+03  0.15652864994E+03 -0.68231646921E+03  0.72071049184E+03  0.12500000000E+03 0.  0.
</event>
<event>
 5    0  0.5612316E-005  0.2001575E+03  0.7546771E-02  0.1149606E+00
         21   -1    0    0  502  501  0.00000000000E+00  0.00000000000E+00  0.68654274434E+03  0.68654274434E+03  0.00000000000E+00 0. -1.
         21   -1    0    0  501  502 -0.00000000000E+00 -0.00000000000E+00 -0.58354755774E+02  0.58354755774E+02  0.00000000000E+00 0. -1.
         25    1    1    2    0    0 -0.22919881504E+02 -0.44006207015E+02  0.22256412770E+03  0.26004164698E+03  0.12500000000E+03 0.  0.
         25    1    1    2    0    0  0.47981336262E+02  0.31052791925E+02  0.20622995125E+03  0.24783518174E+03  0.12500000000E+03 0.  0.
         25    1    1    2    0    0 -0.25061454758E+02  0.12953415090E+02  0.19939390961E+03  0.23702067139E+03  0.12500000000E+03 0.  0.
</event>
<event>
 5    0  0.5612316E-005  0.2580771E+03  0.7546771E-02  0.1108304E+00
         21   -1    0    0  502  501  0.00000000000E+00  0.00000000000E+00  0.37885776986E+03  0.37885776986E+03  0.00000000000E+00 0. -1.
         21   -1    0    0  501  502 -0.00000000000E+00 -0.00000000000E+00 -0.17580151135E+03  0.17580151135E+03  0.00000000000E+00 0. -1.
         25    1    1    2    0    0 -0.14590058958E+03  0.26355718001E+02  0.13134506433E+03  0.23421812875E+03  0.12500000000E+03 0.  0.
         25    1    1    2    0    0  0.15315696530E+02  0.36139505563E+01  0.51452609716E+02  0.13608821494E+03  0.12500000000E+03 0.  0.
         25    1    1    2    0    0  0.13058489305E+03 -0.29969668557E+02  0.20258584460E+02  0.18435293752E+03  0.12500000000E+03 0.  0.
</event>
<event>
 5    0  0.5612316E-005  0.2775771E+03  0.7546771E-02  0.1097020E+00
         21   -1    0    0  502  501  0.00000000000E+00  0.00000000000E+00  0.15238313220E+03  0.15238313220E+03  0.00000000000E+00 0. -1.
         21   -1    0    0  501  502 -0.00000000000E+00 -0.00000000000E+00 -0.50562697332E+03  0.50562697332E+03  0.00000000000E+00 0. -1.
         25    1    1    2    0    0 -0.17571452349E+03 -0.19444912866E+02 -0.76812488251E+02  0.22973649417E+03  0.12500000000E+03 0.  0.
         25    1    1    2    0    0  0.49611517946E+02  0.55507792396E+02 -0.11210817883E+03  0.18367270208E+03  0.12500000000E+03 0.  0.
         25    1    1    2    0    0  0.12610300555E+03 -0.36062879529E+02 -0.16432317404E+03  0.24460090927E+03  0.12500000000E+03 0.  0.
</event>
<event>
 5    0  0.5612316E-005  0.3282259E+03  0.7546771E-02  0.1071925E+00
         21   -1    0    0  502  501  0.00000000000E+00  0.00000000000E+00  0.72381217543E+02  0.72381217543E+02  0.00000000000E+00 0.  1.
         21   -1    0    0  501  502 -0.00000000000E+00 -0.00000000000E+00 -0.14884007923E+04  0.14884007923E+04  0.00000000000E+00 0.  1.
         25    1    1    2    0    0  0.14578998936E+03 -0.23457339938E+02 -0.18527998206E+03  0.26787803111E+03  0.12500000000E+03 0.  0.
         25    1    1    2    0    0  0.57332854843E+02 -0.15017396579E+02 -0.63793296646E+03  0.65276032979E+03  0.12500000000E+03 0.  0.
         25    1    1    2    0    0 -0.20312284420E+03  0.38474736517E+02 -0.59280662620E+03  0.64014364892E+03  0.12500000000E+03 0.  0.
</event>
<event>
 5    0  0.5612316E-005  0.4125730E+03  0.7546771E-02  0.1039511E+00
         21   -1    0    0  502  501  0.00000000000E+00  0.00000000000E+00  0.80147952416E+03  0.80147952416E+03  0.00000000000E+00 0. -1.
         21   -1    0    0  501  502 -0.00000000000E+00 -0.00000000000E+00 -0.21237783866E+03  0.21237783866E+03  0.00000000000E+00 0. -1.
         25    1    1    2    0    0 -0.19210851320E+02 -0.18359248609E+03  0.40716936562E+02  0.22662331451E+03  0.12500000000E+03 0.  0.
         25    1    1    2    0    0  0.19130661745E+02 -0.11443337369E+03  0.39347737133E+03  0.42884778300E+03  0.12500000000E+03 0.  0.
         25    1    1    2    0    0  0.80189574455E-01  0.29802585977E+03  0.15490737760E+03  0.35838626531E+03  0.12500000000E+03 0.  0.
</event>
<event>
 5    0  0.5612316E-005  0.3920131E+03  0.7546771E-02  0.1046581E+00
         21   -1    0    0  502  501  0.00000000000E+00  0.00000000000E+00  0.18998792494E+04  0.18998792494E+04  0.00000000000E+00 0. -1.
         21   -1    0    0  501  502 -0.00000000000E+00 -0.00000000000E+00 -0.80886325851E+02  0.80886325851E+02  0.00000000000E+00 0. -1.
         25    1    1    2    0    0  0.18624341614E+03 -0.12984233843E+03  0.60213591794E+03  0.65554428270E+03  0.12500000000E+03 0.  0.
         25    1    1    2    0    0  0.51786875583E+02  0.11068002311E+03  0.16859324731E+03  0.24285928238E+03  0.12500000000E+03 0.  0.
         25    1    1    2    0    0 -0.23803029172E+03  0.19162315319E+02  0.10482637583E+04  0.10823620102E+04  0.12500000000E+03 0.  0.
</event>
<event>
 5    0  0.5612316E-005  0.2497755E+03  0.7546771E-02  0.1113447E+00
         21   -1    0    0  502  501  0.00000000000E+00  0.00000000000E+00  0.22490666955E+03  0.22490666955E+03  0.00000000000E+00 0.  1.
         21   -1    0    0  501  502 -0.00000000000E+00 -0.00000000000E+00 -0.27739424633E+03  0.27739424633E+03  0.00000000000E+00 0.  1.
         25    1    1    2    0    0 -0.22647315170E+02 -0.44197153013E+02 -0.13917163789E+03  0.19354594807E+03  0.12500000000E+03 0.  0.
         25    1    1    2    0    0  0.28522528950E+02  0.90840498661E+02  0.16801937226E+02  0.15802795939E+03  0.12500000000E+03 0.  0.
         25    1    1    2    0    0 -0.58752137798E+01 -0.46643345648E+02  0.69882123880E+02  0.15072700842E+03  0.12500000000E+03 0.  0.
</event>
<event>
 5    0  0.5612316E-005  0.4142310E+03  0.7546771E-02  0.1038960E+00
         21   -1    0    0  502  501  0.00000000000E+00  0.00000000000E+00  0.79778715025E+02  0.79778715025E+02  0.00000000000E+00 0. -1.
         21   -1    0    0  501  502 -0.00000000000E+00 -0.00000000000E+00 -0.21507903300E+04  0.21507903300E+04  0.00000000000E+00 0. -1.
         25    1    1    2    0    0  0.11428486104E+03  0.17834151213E+03 -0.69421517842E+03  0.73649605455E+03  0.12500000000E+03 0.  0.
         25    1    1    2    0    0 -0.28733850168E+03 -0.15011117739E+03 -0.10175223775E+04  0.10752086165E+04  0.12500000000E+03 0.  0.
         25    1    1    2    0    0  0.17305364064E+03 -0.28230334736E+02 -0.35927405903E+03  0.41886437402E+03  0.12500000000E+03 0.  0.
</event>
<event>
 5    0  0.5612316E-005  0.2609039E+03  0.7546771E-02  0.1106601E+00
         21   -1    0    0  502  501  0.00000000000E+00  0.00000000000E+00  0.44376603507E+03  0.44376603507E+03  0.00000000000E+00 0. -1.
         21   -1    0    0  501  502 -0.00000000000E+00 -0.00000000000E+00 -0.15339358060E+03  0.15339358060E+03  0.00000000000E+00 0. -1.
         25    1    1    2    0    0 -0.81883000991E+02 -0.12131189555E+02 -0.46803616410E+02  0.15705912938E+03  0.12500000000E+03 0.  0.
         25    1    1    2    0    0  0.74661584271E+02  0.42389299617E+02  0.21051339921E+03  0.25944574796E+03  0.12500000000E+03 0.  0.
         25    1    1    2    0    0  0.72214167205E+01 -0.30258110062E+02  0.12666267167E+03  0.18065473832E+03  0.12500000000E+03 0.  0.
</event>
<event>
 5    0  0.5612316E-005  0.3632132E+03  0.7546771E-02  0.1057319E+00
         21   -1    0    0  502  501  0.00000000000E+00  0.00000000000E+00  0.80396709544E+02  0.80396709544E+02  0.00000000000E+00 0.  1.
         21   -1    0    0  501  502 -0.00000000000E+00 -0.00000000000E+00 -0.16409105399E+04  0.16409105399E+04  0.00000000000E+00 0.  1.
         25    1    1    2    0    0  0.23681281038E+03  0.72719914547E+02 -0.49827671346E+03  0.57032725369E+03  0.12500000000E+03 0.  0.
         25    1    1    2    0    0 -0.66042377179E+02 -0.47779938312E+01 -0.12834652490E+03  0.19100328600E+03  0.12500000000E+03 0.  0.
         25    1    1    2    0    0 -0.17077043320E+03 -0.67941920716E+02 -0.93389059202E+03  0.95997670977E+03  0.12500000000E+03 0.  0.
</event>
<event>
 5    0  0.5612316E-005  0.2511335E+03  0.7546771E-02  0.1112591E+00
         21   -1    0    0  502  501  0.00000000000E+00  0.00000000000E+00  0.76488249399E+02  0.76488249399E+02  0.00000000000E+00 0.  1.
         21   -1    0    0  501  502 -0.00000000000E+00 -0.00000000000E+00 -0.82454556709E+03  0.82454556709E+03  0.00000000000E+00 0.  1.
         25    1    1    2    0    0 -0.10512613594E+03 -0.37620853725E+02 -0.18997556279E+03  0.25334274719E+03  0.12500000000E+03 0.  0.
         25    1    1    2    0    0 -0.20014916075E+02  0.29475530857E+02 -0.35613645666E+03  0.37911420383E+03  0.12500000000E+03 0.  0.
         25    1    1    2    0    0  0.12514105202E+03  0.81453228673E+01 -0.20194529823E+03  0.26857686547E+03  0.12500000000E+03 0.  0.
</event>
<event>
 5    0  0.5612316E-005  0.3273353E+03  0.7546771E-02  0.1072322E+00
         21   -1    0    0  502  501  0.00000000000E+00  0.00000000000E+00  0.16672444792E+03  0.16672444792E+03  0.00000000000E+00 0.  1.
         21   -1    0    0  501  502 -0.00000000000E+00 -0.00000000000E+00 -0.64266758188E+03  0.64266758188E+03  0.00000000000E+00 0.  1.
         25    1    1    2    0    0  0.26921191972E+02  0.11722314471E+03 -0.15321716917E+02  0.17414296208E+03  0.12500000000E+03 0.  0.
         25    1    1    2    0    0 -0.87033378129E+02  0.89050856990E+02 -0.26762326637E+03  0.32054964786E+03  0.12500000000E+03 0.  0.
         25    1    1    2    0    0  0.60112186157E+02 -0.20627400170E+03 -0.19299815067E+03  0.31469941987E+03  0.12500000000E+03 0.  0.
</event>
<event>
 5    0  0.5612316E-005  0.2261890E+03  0.7546771E-02  0.1129351E+00
         21   -1    0    0  502  501  0.00000000000E+00  0.00000000000E+00  0.50479588402E+03  0.50479588402E+03  0.00000000000E+00 0. -1.
         21   -1    0    0  501  502 -0.00000000000E+00 -0.00000000000E+00 -0.10135080703E+03  0.10135080703E+03  0.00000000000E+00 0. -1.
         25    1    1    2    0    0 -0.17334538882E+02 -0.51228742806E+02  0.75332708995E+02  0.15564346235E+03  0.12500000000E+03 0.  0.
         25    1    1    2    0    0  0.35721180095E+01  0.96474432974E+02  0.10252556796E+03  0.18829914586E+03  0.12500000000E+03 0.  0.
         25    1    1    2    0    0  0.13762420873E+02 -0.45245690168E+02  0.22558680004E+03  0.26220408284E+03  0.12500000000E+03 0.  0.
</event>
<event>
 5    0  0.5612316E-005  0.2555169E+03  0.7546771E-02  0.1109867E+00
         21   -1    0    0  502  501  0.00000000000E+00  0.00000000000E+00  0.11988268420E+04  0.11988268420E+04  0.00000000000E+00 0. -1.
         21   -1    0    0  501  502 -0.00000000000E+00 -0.00000000000E+00 -0.54460632801E+02  0.54460632801E+02  0.00000000000E+00 0. -1.
         25    1    1    2    0    0 -0.23870557068E+02  0.50876999420E+02  0.23295099620E+03  0.27027659757E+03  0.12500000000E+03 0.  0.
         25    1    1    2    0    0  0.13666327967E+03 -0.33355410005E+02  0.36030950401E+03  0.40649400250E+03  0.12500000000E+03 0.  0.
         25    1    1    2    0    0 -0.11279272260E+03 -0.17521589415E+02  0.55110570896E+03  0.57651687471E+03  0.12500000000E+03 0.  0.
</event>
<event>
 5    0  0.5768956E-005  0.3266542E+03  0.7546771E-02  0.1072627E+00
         21   -1    0    0  502  501  0.00000000000E+00  0.00000000000E+00  0.27271305486E+03  0.27271305486E+03  0.00000000000E+00 0.  1.
         21   -1    0    0  501  502 -0.00000000000E+00 -0.00000000000E+00 -0.39126458079E+03  0.39126458079E+03  0.00000000000E+00 0.  1.
         25    1    1    2    0    0 -0.18568133578E+03  0.15285584371E+02 -0.11757161565E+03  0.25329684632E+03  0.12500000000E+03 0.  0.
         25    1    1    2    0    0  0.32932705465E+02  0.24295354033E+02  0.11811942192E+03  0.17678242320E+03  0.12500000000E+03 0.  0.
         25    1    1    2    0    0  0.15274863032E+03 -0.39580938404E+02 -0.11909933220E+03  0.23389836613E+03  0.12500000000E+03 0.  0.
</event>
<event>
 5    0  0.5612316E-005  0.3402610E+03  0.7546771E-02  0.1066685E+00
         21   -1    0    0  502  501  0.00000000000E+00  0.00000000000E+00  0.64328890202E+02  0.64328890202E+02  0.00000000000E+00 0. -1.
         21   -1    0    0  501  502 -0.00000000000E+00 -0.00000000000E+00 -0.17997752103E+04  0.17997752103E+04  0.00000000000E+00 0. -1.
         25    1    1    2    0    0  0.44045226133E+02 -0.84679095466E+02 -0.52367609010E+03  0.54678348411E+03  0.12500000000E+03 0.  0.
         25    1    1    2    0    0  0.78284355294E+02  0.10355168074E+03 -0.13217554731E+03  0.22348773159E+03  0.12500000000E+03 0.  0.
         25    1    1    2    0    0 -0.12232958143E+03 -0.18872585271E+02 -0.10795946827E+04  0.10938328848E+04  0.12500000000E+03 0.  0.
</event>
<event>
 5    0  0.5612316E-005  0.3530800E+03  0.7546771E-02  0.1061358E+00
         21   -1    0    0  502  501  0.00000000000E+00  0.00000000000E+00  0.25629060646E+03  0.25629060646E+03  0.00000000000E+00 0.  1.
         21   -1    0    0  501  502 -0.00000000000E+00 -0.00000000000E+00 -0.48642227517E+03  0.48642227517E+03  0.00000000000E+00 0.  1.
         25    1    1    2    0    0  0.37849604171E+02  0.29473103822E+02  0.12686018527E+03  0.18444447129E+03  0.12500000000E+03 0.  0.
         25    1    1    2    0    0 -0.59798486589E+02  0.14979163446E+03 -0.21665964114E+03  0.29762357577E+03  0.12500000000E+03 0.  0.
         25    1    1    2    0    0  0.21948882418E+02 -0.17926473828E+03 -0.14033221284E+03  0.26064483457E+03  0.12500000000E+03 0.  0.
</event>
<event>
 5    0  0.5612316E-005  0.2166383E+03  0.7546771E-02  0.1136414E+00
         21   -1    0    0  502  501  0.00000000000E+00  0.00000000000E+00  0.17205316589E+03  0.17205316589E+03  0.00000000000E+00 0.  1.
         21   -1    0    0  501  502 -0.00000000000E+00 -0.00000000000E+00 -0.27277700763E+03  0.27277700763E+03  0.00000000000E+00 0.  1.
         25    1    1    2    0    0  0.68765323902E+02  0.26023985797E+02  0.12698999837E+02  0.14557534889E+03  0.12500000000E+03 0.  0.
         25    1    1    2    0    0  0.12494097711E+02 -0.13853721403E+01 -0.46070171099E+02  0.13381136872E+03  0.12500000000E+03 0.  0.
         25    1    1    2    0    0 -0.81259421613E+02 -0.24638613656E+02 -0.67352670475E+02  0.16544345591E+03  0.12500000000E+03 0.  0.
</event>
<event>
 5    0  0.5612316E-005  0.3706245E+03  0.7546771E-02  0.1054454E+00
         21   -1    0    0  502  501  0.00000000000E+00  0.00000000000E+00  0.57629881613E+03  0.57629881613E+03  0.00000000000E+00 0. -1.
         21   -1    0    0  501  502 -0.00000000000E+00 -0.00000000000E+00 -0.23835293991E+03  0.23835293991E+03  0.00000000000E+00 0. -1.
         25    1    1    2    0    0 -0.21910323520E+03  0.17021259781E+03  0.73877955302E+02  0.31314774214E+03  0.12500000000E+03 0.  0.
         25    1    1    2    0    0  0.22063326702E+03 -0.14192925685E+03  0.22496967282E+03  0.36750415801E+03  0.12500000000E+03 0.  0.
         25    1    1    2    0    0 -0.15300318177E+01 -0.28283340962E+02  0.39098248100E+02  0.13399985589E+03  0.12500000000E+03 0.  0.
</event>
<event>
 5    0  0.5612316E-005  0.3333130E+03  0.7546771E-02  0.1069680E+00
         21   -1    0    0  502  501  0.00000000000E+00  0.00000000000E+00  0.62248708106E+03  0.62248708106E+03  0.00000000000E+00 0. -1.
         21   -1    0    0  501  502 -0.00000000000E+00 -0.00000000000E+00 -0.17847368916E+03  0.17847368916E+03  0.00000000000E+00 0. -1.
         25    1    1    2    0    0 -0.66748576682E+02  0.28580645770E+02  0.12856887579E+03  0.19346105971E+03  0.12500000000E+03 0.  0.
         25    1    1    2    0    0 -0.94934251911E+02 -0.13027923893E+03 -0.16486516156E+02  0.20465091619E+03  0.12500000000E+03 0.  0.
         25    1    1    2    0    0  0.16168282859E+03  0.10169859316E+03  0.33193103226E+03  0.40284879432E+03  0.12500000000E+03 0.  0.
</event>
<event>
 5    0  0.5612316E-005  0.2526750E+03  0.7546771E-02  0.1111626E+00
         21   -1    0    0  502  501  0.00000000000E+00  0.00000000000E+00  0.26480060264E+04  0.26480060264E+04  0.00000000000E+00 0. -1.
         21   -1    0    0  501  502 -0.00000000000E+00 -0.00000000000E+00 -0.24110466035E+02  0.24110466035E+02  0.00000000000E+00 0. -1.
         25    1    1    2    0    0  0.96621557527E+01  0.12780053914E+03  0.13691508175E+04  0.13808060313E+04  0.12500000000E+03 0.  0.
         25    1    1    2    0    0 -0.19084158236E+02 -0.11741160706E+03  0.85517620426E+03  0.87241104469E+03  0.12500000000E+03 0.  0.
         25    1    1    2    0    0  0.94220024836E+01 -0.10388932072E+02  0.39956853865E+03  0.41889941647E+03  0.12500000000E+03 0.  0.
</event>
<event>
 5    0  0.5612316E-005  0.2561948E+03  0.7546771E-02  0.1109451E+00
         21   -1    0    0  502  501  0.00000000000E+00  0.00000000000E+00  0.61452743507E+02  0.61452743507E+02  0.00000000000E+00 0. -1.
         21   -1    0    0  501  502 -0.00000000000E+00 -0.00000000000E+00 -0.10680690960E+04  0.10680690960E+04  0.00000000000E+00 0. -1.
         25    1    1    2    0    0 -0.15685896567E+02  0.36865290213E+02 -0.26936205065E+03  0.29964313992E+03  0.12500000000E+03 0.  0.
         25    1    1    2    0    0 -0.67522857290E+02 -0.73963553748E+02 -0.13939447010E+03  0.21233408072E+03  0.12500000000E+03 0.  0.
         25    1    1    2    0    0  0.83208753857E+02  0.37098263535E+02 -0.59785983179E+03  0.61754461891E+03  0.12500000000E+03 0.  0.
</event>
<event>
 5    0  0.5612316E-005  0.2592059E+03  0.7546771E-02  0.1107621E+00
         21   -1    0    0  502  501  0.00000000000E+00  0.00000000000E+00  0.31979640952E+03  0.31979640952E+03  0.00000000000E+00 0. -1.
         21   -1    0    0  501  502 -0.00000000000E+00 -0.00000000000E+00 -0.21009526896E+03  0.21009526896E+03  0.00000000000E+00 0. -1.
         25    1    1    2    0    0  0.11687489684E+03  0.50660676924E+02 -0.19435890412E+02  0.17952437031E+03  0.12500000000E+03 0.  0.
         25    1    1    2    0    0 -0.10194852215E+02 -0.59962415931E+02  0.12306337207E+03  0.18565834180E+03  0.12500000000E+03 0.  0.
         25    1    1    2    0    0 -0.10668004463E+03  0.93017390075E+01  0.60736589017E+01  0.16470896637E+03  0.12500000000E+03 0.  0.
</event>
<event>
 5    0  0.5612316E-005  0.2732779E+03  0.7546771E-02  0.1099418E+00
         21   -1    0    0  502  501  0.00000000000E+00  0.00000000000E+00  0.46627605144E+03  0.46627605144E+03  0.00000000000E+00 0. -1.
         21   -1    0    0  501  502 -0.00000000000E+00 -0.00000000000E+00 -0.16016442724E+03  0.16016442724E+03  0.00000000000E+00 0. -1.
         25    1    1    2    0    0 -0.36907094665E+02 -0.14282937267E+03  0.10625447053E+03  0.22062949903E+03  0.12500000000E+03 0.  0.
         25    1    1    2    0    0  0.48422568120E+02  0.15573880610E+03  0.18894336047E+03  0.27914855238E+03  0.12500000000E+03 0.  0.
         25    1    1    2    0    0 -0.11515473455E+02 -0.12909433431E+02  0.10913793187E+02  0.12666242727E+03  0.12500000000E+03 0.  0.
</event>
<event>
 5    0  0.5612316E-005  0.4685783E+03  0.7546771E-02  0.1022322E+00
         21   -1    0    0  502  501  0.00000000000E+00  0.00000000000E+00  0.16354279764E+03  0.16354279764E+03  0.00000000000E+00 0.  1.
         21   -1    0    0  501  502 -0.00000000000E+00 -0.00000000000E+00 -0.13425574425E+04  0.13425574425E+04  0.00000000000E+00 0.  1.
         25    1    1    2    0    0 -0.25320161814E+03 -0.20344581848E+03 -0.35252968138E+03  0.49538211185E+03  0.12500000000E+03 0.  0.
         25    1    1    2    0    0  0.16326525208E+03 -0.10889342772E+03 -0.30418983201E+03  0.38297490131E+03  0.12500000000E+03 0.  0.
         25    1    1    2    0    0  0.89936366057E+02  0.31233924620E+03 -0.52229513145E+03  0.62774322696E+03  0.12500000000E+03 0.  0.
</event>
<event>
 5    0  0.5612316E-005  0.2793486E+03  0.7546771E-02  0.1096045E+00
         21   -1    0    0  502  501  0.00000000000E+00  0.00000000000E+00  0.10434801223E+04  0.10434801223E+04  0.00000000000E+00 0. -1.
         21   -1    0    0  501  502 -0.00000000000E+00 -0.00000000000E+00 -0.74784029918E+02  0.74784029918E+02  0.00000000000E+00 0. -1.
         25    1    1    2    0    0  0.26633569476E+02  0.57126856824E+02  0.60990725020E+03  0.62576727195E+03  0.12500000000E+03 0.  0.
         25    1    1    2    0    0 -0.10438555482E+03 -0.89965299524E+02  0.18477403922E+03  0.26221469208E+03  0.12500000000E+03 0.  0.
         25    1    1    2    0    0  0.77751985347E+02  0.32838442700E+02  0.17401480295E+03  0.23028218817E+03  0.12500000000E+03 0.  0.
</event>
<event>
 5    0  0.5612316E-005  0.3719174E+03  0.7546771E-02  0.1053962E+00
         21   -1    0    0  502  501  0.00000000000E+00  0.00000000000E+00  0.58486837100E+03  0.58486837100E+03  0.00000000000E+00 0. -1.
         21   -1    0    0  501  502 -0.00000000000E+00 -0.00000000000E+00 -0.23650205942E+03  0.23650205942E+03  0.00000000000E+00 0. -1.
         25    1    1    2    0    0  0.12444985084E+03 -0.21811258332E+03 -0.44678155967E+00  0.28051036343E+03  0.12500000000E+03 0.  0.
         25    1    1    2    0    0  0.84351901614E+00  0.19603726384E+03  0.16770063158E+03  0.28667023244E+03  0.12500000000E+03 0.  0.
         25    1    1    2    0    0 -0.12529336986E+03  0.22075319480E+02  0.18111246155E+03  0.25418983455E+03  0.12500000000E+03 0.  0.
</event>
<event>
 5    0  0.5612316E-005  0.3761778E+03  0.7546771E-02  0.1052356E+00
         21   -1    0    0  502  501  0.00000000000E+00  0.00000000000E+00  0.11884003937E+04  0.11884003937E+04  0.00000000000E+00 0. -1.
         21   -1    0    0  501  502 -0.00000000000E+00 -0.00000000000E+00 -0.11907579071E+03  0.11907579071E+03  0.00000000000E+00 0. -1.
         25    1    1    2    0    0  0.18325100815E+03 -0.93868108411E+02  0.33404832023E+03  0.41183180306E+03  0.12500000000E+03 0.  0.
         25    1    1    2    0    0 -0.15040447905E+02  0.20224210466E+03  0.53695613069E+03  0.58743082167E+03  0.12500000000E+03 0.  0.
         25    1    1    2    0    0 -0.16821056025E+03 -0.10837399625E+03  0.19832015202E+03  0.30821355963E+03  0.12500000000E+03 0.  0.
</event>
<event>
 5    0  0.5612316E-005  0.3056051E+03  0.7546771E-02  0.1082472E+00
         21   -1    0    0  502  501  0.00000000000E+00  0.00000000000E+00  0.13484601870E+03  0.13484601870E+03  0.00000000000E+00 0.  1.
         21   -1    0    0  501  502 -0.00000000000E+00 -0.00000000000E+00 -0.69260100622E+03  0.69260100622E+03  0.00000000000E+00 0.  1.
         25    1    1    2    0    0 -0.40626372453E+02 -0.16880877436E+03 -0.39411781661E+02  0.21754354270E+03  0.12500000000E+03 0.  0.
         25    1    1    2    0    0  0.11932625668E+02  0.10644167986E+03 -0.18674842015E+03  0.24894214427E+03  0.12500000000E+03 0.  0.
         25    1    1    2    0    0  0.28693746785E+02  0.62367094498E+02 -0.33159478571E+03  0.36096133794E+03  0.12500000000E+03 0.  0.
</event>
<event>
 5    0  0.5612316E-005  0.2297246E+03  0.7546771E-02  0.1126834E+00
         21   -1    0    0  502  501  0.00000000000E+00  0.00000000000E+00  0.94884584959E+03  0.94884584959E+03  0.00000000000E+00 0.  1.
         21   -1    0    0  501  502 -0.00000000000E+00 -0.00000000000E+00 -0.55618499488E+02  0.55618499488E+02  0.00000000000E+00 0.  1.
         25    1    1    2    0    0  0.30665017052E+00 -0.29030645359E+01  0.28569005865E+03  0.31185306064E+03  0.12500000000E+03 0.  0.
         25    1    1    2    0    0 -0.89176924632E+02 -0.24366751127E+02  0.42553263637E+03  0.45304446477E+03  0.12500000000E+03 0.  0.
         25    1    1    2    0    0  0.88870274461E+02  0.27269815663E+02  0.18200465508E+03  0.23956682366E+03  0.12500000000E+03 0.  0.
</event>
<event>
 5    0  0.5612316E-005  0.2269803E+03  0.7546771E-02  0.1128783E+00
         21   -1    0    0  502  501  0.00000000000E+00  0.00000000000E+00  0.56657019455E+02  0.56657019455E+02  0.00000000000E+00 0.  1.
         21   -1    0    0  501  502 -0.00000000000E+00 -0.00000000000E+00 -0.90933245649E+03  0.90933245649E+03  0.00000000000E+00 0.  1.
         25    1    1    2    0    0  0.11572379228E+02 -0.56726728987E+01 -0.36042681620E+03  0.38170484542E+03  0.12500000000E+03 0.  0.
         25    1    1    2    0    0 -0.57238921768E+02  0.96681437758E+01 -0.39792925638E+03  0.42112048188E+03  0.12500000000E+03 0.  0.
         25    1    1    2    0    0  0.45666542540E+02 -0.39954708772E+01 -0.94319364454E+02  0.16316414865E+03  0.12500000000E+03 0.  0.
</event>
<event>
 5    0  0.5924395E-005  0.3175729E+03  0.7546771E-02  0.1076772E+00
         21   -1    0    0  502  501  0.00000000000E+00  0.00000000000E+00  0.20205612784E+03  0.20205612784E+03  0.00000000000E+00 0.  1.
         21   -1    0    0  501  502 -0.00000000000E+00 -0.00000000000E+00 -0.49913133568E+03  0.49913133568E+03  0.00000000000E+00 0.  1.
         25    1    1    2    0    0 -0.10429886262E+03 -0.11199142206E+03 -0.21070618000E+02  0.19871915434E+03  0.12500000000E+03 0.  0.
         25    1    1    2    0    0  0.64245631083E+02  0.20656000083E+03 -0.21485510126E+03  0.32951820828E+03  0.12500000000E+03 0.  0.
         25    1    1    2    0    0  0.40053231535E+02 -0.94568578766E+02 -0.61149488585E+02  0.17295010090E+03  0.12500000000E+03 0.  0.
</event>
<event>
 5    0  0.5612316E-005  0.2680182E+03  0.7546771E-02  0.1102419E+00
         21   -1    0    0  502  501  0.00000000000E+00  0.00000000000E+00  0.16138763029E+03  0.16138763029E+03  0.00000000000E+00 0. -1.
         21   -1    0    0  501  502 -0.00000000000E+00 -0.00000000000E+00 -0.44510088966E+03  0.44510088966E+03  0.00000000000E+00 0. -1.
         25    1    1    2    0    0 -0.14190606248E+02 -0.51465639649E+02 -0.21841515360E+03  0.25725525202E+03  0.12500000000E+03 0.  0.
         25    1    1    2    0    0  0.10300690458E+02  0.13660158894E+03 -0.69081426590E+02  0.19789730121E+03  0.12500000000E+03 0.  0.
         25    1    1    2    0    0  0.38899157895E+01 -0.85135949291E+02  0.37833208245E+01  0.15133596672E+03  0.12500000000E+03 0.  0.
</event>
<event>
 5    0  0.5612316E-005  0.3533366E+03  0.7546771E-02  0.1061254E+00
         21   -1    0    0  502  501  0.00000000000E+00  0.00000000000E+00  0.27049241743E+03  0.27049241743E+03  0.00000000000E+00 0. -1.
         21   -1    0    0  501  502 -0.00000000000E+00 -0.00000000000E+00 -0.46155370114E+03  0.46155370114E+03  0.00000000000E+00 0. -1.
         25    1    1    2    0    0  0.18616238465E+03 -0.13615088575E+03 -0.24302965371E+03  0.35760580215E+03  0.12500000000E+03 0.  0.
         25    1    1    2    0    0 -0.11673821109E+02  0.21242841370E+02  0.19834391060E+02  0.12886403485E+03  0.12500000000E+03 0.  0.
         25    1    1    2    0    0 -0.17448856354E+03  0.11490804438E+03  0.32133978934E+02  0.24557628157E+03  0.12500000000E+03 0.  0.
</event>
<event>
 5    0  0.5612316E-005  0.3588080E+03  0.7546771E-02  0.1059057E+00
         21   -1    0    0  502  501  0.00000000000E+00  0.00000000000E+00  0.32644534657E+03  0.32644534657E+03  0.00000000000E+00 0.  1.
         21   -1    0    0  501  502 -0.00000000000E+00 -0.00000000000E+00 -0.39437886515E+03  0.39437886515E+03  0.00000000000E+00 0.  1.
         25    1    1    2    0    0  0.27911570142E+03  0.57232652233E+02 -0.72676950293E+02  0.31951226951E+03  0.12500000000E+03 0.  0.
         25    1    1    2    0    0 -0.10528013925E+03 -0.85105570427E+02 -0.12651271053E+02  0.18469412686E+03  0.12500000000E+03 0.  0.
         25    1    1    2    0    0 -0.17383556218E+03  0.27872918194E+02  0.17394702764E+02  0.21661781536E+03  0.12500000000E+03 0.  0.
</event>
<event>
 5    0  0.5612316E-005  0.2737066E+03  0.7546771E-02  0.1099177E+00
         21   -1    0    0  502  501  0.00000000000E+00  0.00000000000E+00  0.27744896995E+02  0.27744896995E+02  0.00000000000E+00 0. -1.
         21   -1    0    0  501  502 -0.00000000000E+00 -0.00000000000E+00 -0.27001480461E+04  0.27001480461E+04  0.00000000000E+00 0. -1.
         25    1    1    2    0    0  0.66513779904E+01  0.93466639925E+01 -0.57248765528E+03  0.58608763543E+03  0.12500000000E+03 0.  0.
         25    1    1    2    0    0  0.46360853433E+02  0.10882446249E+03 -0.16222110065E+04  0.16313140844E+04  0.12500000000E+03 0.  0.
         25    1    1    2    0    0 -0.53012231423E+02 -0.11817112648E+03 -0.47770448735E+03  0.51049122328E+03  0.12500000000E+03 0.  0.
</event>
<event>
 5    0  0.5612316E-005  0.3284880E+03  0.7546771E-02  0.1071808E+00
         21   -1    0    0  502  501  0.00000000000E+00  0.00000000000E+00  0.16277492970E+03  0.16277492970E+03  0.00000000000E+00 0. -1.
         21   -1    0    0  501  502 -0.00000000000E+00 -0.00000000000E+00 -0.66290516348E+03  0.66290516348E+03  0.00000000000E+00 0. -1.
         25    1    1    2    0    0 -0.76029270514E+02  0.52362822811E+02 -0.18217930187E+03  0.23945064881E+03  0.12500000000E+03 0.  0.
         25    1    1    2    0    0  0.13963452884E+03 -0.56675334924E+02 -0.38408249024E+03  0.43110817035E+03  0.12500000000E+03 0.  0.
         25    1    1    2    0    0 -0.63605258328E+02  0.43125121125E+01  0.66131558327E+02  0.15512127402E+03  0.12500000000E+03 0.  0.
</event>
<event>
 5    0  0.5612316E-005  0.3570557E+03  0.7546771E-02  0.1059756E+00
         21   -1    0    0  502  501  0.00000000000E+00  0.00000000000E+00  0.45401862702E+03  0.45401862702E+03  0.00000000000E+00 0. -1.
         21   -1    0    0  501  502 -0.00000000000E+00 -0.00000000000E+00 -0.28080077799E+03  0.28080077799E+03  0.00000000000E+00 0. -1.
         25    1    1    2    0    0 -0.23132072496E+02 -0.15177140291E+03  0.56363535959E+02  0.20584338635E+03  0.12500000000E+03 0.  0.
         25    1    1    2    0    0  0.12635823955E+03  0.23168506950E+03  0.17338085222E+03  0.33960314493E+03  0.12500000000E+03 0.  0.
         25    1    1    2    0    0 -0.10322616706E+03 -0.79913666591E+02 -0.56526539153E+02  0.18937287372E+03  0.12500000000E+03 0.  0.
</event>
<event>
 5    0  0.5612316E-005  0.2827690E+03  0.7546771E-02  0.1094186E+00
         21   -1    0    0  502  501  0.00000000000E+00  0.00000000000E+00  0.52600410422E+02  0.52600410422E+02  0.00000000000E+00 0. -1.
         21   -1    0    0  501  502 -0.00000000000E+00 -0.00000000000E+00 -0.15201078770E+04  0.15201078770E+04  0.00000000000E+00 0. -1.
         25    1    1    2    0    0  0.27974373086E+02 -0.73210735101E+01 -0.24995724945E+03  0.28096225764E+03  0.12500000000E+03 0.  0.
         25    1    1    2    0    0  0.94919314898E+02  0.44311764579E+02 -0.98385661902E+03  0.99728233495E+03  0.12500000000E+03 0.  0.
         25    1    1    2    0    0 -0.12289368798E+03 -0.36990691069E+02 -0.23369359809E+03  0.29446369481E+03  0.12500000000E+03 0.  0.
</event>
<event>
 5    0  0.5612316E-005  0.3456473E+03  0.7546771E-02  0.1064416E+00
         21   -1    0    0  502  501  0.00000000000E+00  0.00000000000E+00  0.34098921397E+03  0.34098921397E+03  0.00000000000E+00 0. -1.
         21   -1    0    0  501  502 -0.00000000000E+00 -0.00000000000E+00 -0.35036900262E+03  0.35036900262E+03  0.00000000000E+00 0. -1.
         25    1    1    2    0    0 -0.32428092830E+02  0.10056035214E+03 -0.15174254531E+03  0.22319221690E+03  0.12500000000E+03 0.  0.
         25    1    1    2    0    0  0.10092273680E+02 -0.15273723671E+03 -0.74752404315E+02  0.21128994159E+03  0.12500000000E+03 0.  0.
         25    1    1    2    0    0  0.22335819151E+02  0.52176884572E+02  0.21711516098E+03  0.25687605810E+03  0.12500000000E+03 0.  0.
</event>
<event>
 5    0  0.5612316E-005  0.5632518E+03  0.7546771E-02  0.9984724E-01
         21   -1    0    0  502  501  0.00000000000E+00  0.00000000000E+00  0.35105268641E+03  0.35105268641E+03  0.00000000000E+00 0.  1.
         21   -1    0    0  501  502 -0.00000000000E+00 -0.00000000000E+00 -0.90371787869E+03  0.90371787869E+03  0.00000000000E+00 0.  1.
         25    1    1    2    0    0  0.65326683828E+02  0.36972892693E+03  0.35931620652E+02  0.39734510994E+03  0.12500000000E+03 0.  0.
         25    1    1    2    0    0 -0.13258088460E+03 -0.29075151594E+03 -0.60358295163E+03  0.69429929748E+03  0.12500000000E+03 0.  0.
         25    1    1    2    0    0  0.67254200776E+02 -0.78977410986E+02  0.14986138701E+02  0.16312615769E+03  0.12500000000E+03 0.  0.
</event>
<event>
 5    0  0.5612316E-005  0.4467262E+03  0.7546771E-02  0.1028703E+00
         21   -1    0    0  502  501  0.00000000000E+00  0.00000000000E+00  0.13215005154E+04  0.13215005154E+04  0.00000000000E+00 0.  1.
         21   -1    0    0  501  502 -0.00000000000E+00 -0.00000000000E+00 -0.15101340210E+03  0.15101340210E+03  0.00000000000E+00 0.  1.
         25    1    1    2    0    0 -0.66437814689E+02 -0.26880362440E+02  0.18083662456E+01  0.14409999061E+03  0.12500000000E+03 0.  0.
         25    1    1    2    0    0 -0.10946215557E+03 -0.20977923060E+03  0.78087429904E+03  0.82545681898E+03  0.12500000000E+03 0.  0.
         25    1    1    2    0    0  0.17589997026E+03  0.23665959304E+03  0.38780444805E+03  0.50295710796E+03  0.12500000000E+03 0.  0.
</event>
<event>
 5    0  0.5612316E-005  0.2100651E+03  0.7546771E-02  0.1141514E+00
         21   -1    0    0  502  501  0.00000000000E+00  0.00000000000E+00  0.86233115552E+03  0.86233115552E+03  0.00000000000E+00 0.  1.
         21   -1    0    0  501  502 -0.00000000000E+00 -0.00000000000E+00 -0.51172138950E+02  0.51172138950E+02  0.00000000000E+00 0.  1.
         25    1    1    2    0    0 -0.44820973776E+02  0.36516081108E+01  0.24020882757E+03  0.27449505419E+03  0.12500000000E+03 0.  0.
         25    1    1    2    0    0  0.23457669243E+02 -0.55072336806E+02  0.37679521713E+03  0.40147585255E+03  0.12500000000E+03 0.  0.
         25    1    1    2    0    0  0.21363304533E+02  0.51420728695E+02  0.19415497188E+03  0.23753238774E+03  0.12500000000E+03 0.  0.
</event>
<event>
 5    0  0.5612316E-005  0.4616124E+03  0.7546771E-02  0.1024315E+00
         21   -1    0    0  502  501  0.00000000000E+00  0.00000000000E+00  0.58918654385E+03  0.58918654385E+03  0.00000000000E+00 0.  1.
         21   -1    0    0  501  502 -0.00000000000E+00 -0.00000000000E+00 -0.36166137979E+03  0.36166137979E+03  0.00000000000E+00 0.  1.
         25    1    1    2    0    0 -0.21921211902E+03 -0.75076747245E+02 -0.13734759272E+02  0.26363633041E+03  0.12500000000E+03 0.  0.
         25    1    1    2    0    0  0.25371696219E+03  0.25858123606E+03  0.25785799772E+03  0.46190074641E+03  0.12500000000E+03 0.  0.
         25    1    1    2    0    0 -0.34504843170E+02 -0.18350448882E+03 -0.16598074386E+02  0.22531084681E+03  0.12500000000E+03 0.  0.
</event>
<event>
 5    0  0.5612316E-005  0.3877129E+03  0.7546771E-02  0.1048119E+00
         21   -1    0    0  502  501  0.00000000000E+00  0.00000000000E+00  0.16154680275E+03  0.16154680275E+03  0.00000000000E+00 0. -1.
         21   -1    0    0  501  502 -0.00000000000E+00 -0.00000000000E+00 -0.93051248722E+03  0.93051248722E+03  0.00000000000E+00 0. -1.
         25    1    1    2    0    0 -0.40474687669E+01 -0.34259447418E+02 -0.36918726086E+02  0.13482612535E+03  0.12500000000E+03 0.  0.
         25    1    1    2    0    0  0.26207126107E+03 -0.25011148076E+01 -0.20273662664E+03  0.35413943756E+03  0.12500000000E+03 0.  0.
         25    1    1    2    0    0 -0.25802379230E+03  0.36760562226E+02 -0.52931033174E+03  0.60309372706E+03  0.12500000000E+03 0.  0.
</event>
<event>
 5    0  0.5920141E-005  0.3583790E+03  0.7546771E-02  0.1059228E+00
         21   -1    0    0  502  501  0.00000000000E+00  0.00000000000E+00  0.23013892718E+03  0.23013892718E+03  0.00000000000E+00 0.  1.
         21   -1    0    0  501  502 -0.00000000000E+00 -0.00000000000E+00 -0.55807830300E+03  0.55807830300E+03  0.00000000000E+00 0.  1.
         25    1    1    2    0    0 -0.48007755373E+02 -0.18077373083E+02  0.97868289400E+02  0.16683746001E+03  0.12500000000E+03 0.  0.
         25    1    1    2    0    0  0.37673129873E+02  0.18301519293E+03 -0.31325399261E+03  0.38557345532E+03  0.12500000000E+03 0.  0.
         25    1    1    2    0    0  0.10334625500E+02 -0.16493781985E+03 -0.11255367261E+03  0.23580631484E+03  0.12500000000E+03 0.  0.
</event>
<event>
 5    0  0.5612316E-005  0.2343681E+03  0.7546771E-02  0.1123603E+00
         21   -1    0    0  502  501  0.00000000000E+00  0.00000000000E+00  0.22648993997E+03  0.22648993997E+03  0.00000000000E+00 0.  1.
         21   -1    0    0  501  502 -0.00000000000E+00 -0.00000000000E+00 -0.24252036455E+03  0.24252036455E+03  0.00000000000E+00 0.  1.
         25    1    1    2    0    0  0.67435264001E+02 -0.68085059796E+02  0.18488814639E+02  0.15858728343E+03  0.12500000000E+03 0.  0.
         25    1    1    2    0    0 -0.10261931124E+03  0.99395715675E+01  0.70756993099E+01  0.16218687877E+03  0.12500000000E+03 0.  0.
         25    1    1    2    0    0  0.35184047244E+02  0.58145488228E+02 -0.41594938526E+02  0.14823614233E+03  0.12500000000E+03 0.  0.
</event>
<event>
 5    0  0.5612316E-005  0.3104295E+03  0.7546771E-02  0.1080140E+00
         21   -1    0    0  502  501  0.00000000000E+00  0.00000000000E+00  0.12136851966E+04  0.12136851966E+04  0.00000000000E+00 0. -1.
         21   -1    0    0  501  502 -0.00000000000E+00 -0.00000000000E+00 -0.79399914711E+02  0.79399914711E+02  0.00000000000E+00 0. -1.
         25    1    1    2    0    0  0.10465167200E+03 -0.12448428215E+02  0.33543746161E+03  0.37316246659E+03  0.12500000000E+03 0.  0.
         25    1    1    2    0    0 -0.12986486987E+03  0.41494440075E+02  0.10263328329E+03  0.21153076330E+03  0.12500000000E+03 0.  0.
         25    1    1    2    0    0  0.25213197878E+02 -0.29046011860E+02  0.69621453696E+03  0.70839188140E+03  0.12500000000E+03 0.  0.
</event>
<event>
 5    0  0.5612316E-005  0.2458683E+03  0.7546771E-02  0.1115944E+00
         21   -1    0    0  502  501  0.00000000000E+00  0.00000000000E+00  0.59206312344E+03  0.59206312344E+03  0.00000000000E+00 0. -1.
         21   -1    0    0  501  502 -0.00000000000E+00 -0.00000000000E+00 -0.10210262721E+03  0.10210262721E+03  0.00000000000E+00 0. -1.
         25    1    1    2    0    0 -0.31485963944E+01 -0.85238483286E+02  0.41836281944E+02  0.15700569155E+03  0.12500000000E+03 0.  0.
         25    1    1    2    0    0  0.51404996916E+02  0.68497823468E+02  0.30395047703E+03  0.33962526115E+03  0.12500000000E+03 0.  0.
         25    1    1    2    0    0 -0.48256400522E+02  0.16740659818E+02  0.14417373726E+03  0.19753479794E+03  0.12500000000E+03 0.  0.
</event>
<event>
 5    0  0.5612316E-005  0.3114179E+03  0.7546771E-02  0.1079668E+00
         21   -1    0    0  502  501  0.00000000000E+00  0.00000000000E+00  0.12223587431E+04  0.12223587431E+04  0.00000000000E+00 0. -1.
         21   -1    0    0  501  502 -0.00000000000E+00 -0.00000000000E+00 -0.79339303198E+02  0.79339303198E+02  0.00000000000E+00 0. -1.
         25    1    1    2    0    0 -0.36579274081E+02  0.18219418827E+03  0.41016896402E+03  0.46732894686E+03  0.12500000000E+03 0.  0.
         25    1    1    2    0    0 -0.33207176380E+02 -0.32145223772E+02  0.95036745064E+02  0.16368571986E+03  0.12500000000E+03 0.  0.
         25    1    1    2    0    0  0.69786450462E+02 -0.15004896450E+03  0.63781373080E+03  0.67068337956E+03  0.12500000000E+03 0.  0.
</event>
<event>
 5    0  0.5612316E-005  0.2939835E+03  0.7546771E-02  0.1088287E+00
         21   -1    0    0  502  501  0.00000000000E+00  0.00000000000E+00  0.83273222342E+02  0.83273222342E+02  0.00000000000E+00 0. -1.
         21   -1    0    0  501  502 -0.00000000000E+00 -0.00000000000E+00 -0.10378641217E+04  0.10378641217E+04  0.00000000000E+00 0. -1.
         25    1    1    2    0    0  0.22084445716E+02  0.35518585135E+02 -0.26667256144E+03  0.29747024667E+03  0.12500000000E+03 0.  0.
         25    1    1    2    0    0 -0.18830304836E+03 -0.76704476921E+02 -0.32277274243E+03  0.40143350391E+03  0.12500000000E+03 0.  0.
         25    1    1    2    0    0  0.16621860264E+03  0.41185891785E+02 -0.36514559550E+03  0.42223359348E+03  0.12500000000E+03 0.  0.
</event>
<event>
 5    0  0.5672127E-005  0.3655796E+03  0.7546771E-02  0.1056396E+00
         21   -1    0    0  502  501  0.00000000000E+00  0.00000000000E+00  0.16552904121E+03  0.16552904121E+03  0.00000000000E+00 0. -1.
         21   -1    0    0  501  502 -0.00000000000E+00 -0.00000000000E+00 -0.80740198353E+03  0.80740198353E+03  0.00000000000E+00 0. -1.
         25    1    1    2    0    0 -0.27821255247E+02 -0.26527933548E+03 -0.21802155981E+03  0.36647721432E+03  0.12500000000E+03 0.  0.
         25    1    1    2    0    0  0.13813340148E+02  0.55934310249E+02 -0.30547401966E+03  0.33505049189E+03  0.12500000000E+03 0.  0.
         25    1    1    2    0    0  0.14007915099E+02  0.20934502523E+03 -0.11837736286E+03  0.27140331853E+03  0.12500000000E+03 0.  0.
</event>
<event>
 5    0  0.5612316E-005  0.5009665E+03  0.7546771E-02  0.1013527E+00
         21   -1    0    0  502  501  0.00000000000E+00  0.00000000000E+00  0.20161918295E+03  0.20161918295E+03  0.00000000000E+00 0.  1.
         21   -1    0    0  501  502 -0.00000000000E+00 -0.00000000000E+00 -0.12447595266E+04  0.12447595266E+04  0.00000000000E+00 0.  1.
         25    1    1    2    0    0  0.38085558395E+03 -0.11374959573E+03 -0.46222581915E+03  0.62230832732E+03  0.12500000000E+03 0.  0.
         25    1    1    2    0    0 -0.33335908616E+03 -0.60369014934E+02 -0.40611929407E+03  0.54344326227E+03  0.12500000000E+03 0.  0.
         25    1    1    2    0    0 -0.47496497790E+02  0.17411861066E+03 -0.17479523041E+03  0.28062711996E+03  0.12500000000E+03 0.  0.
</event>
<event>
 5    0  0.5612316E-005  0.3139098E+03  0.7546771E-02  0.1078487E+00
         21   -1    0    0  502  501  0.00000000000E+00  0.00000000000E+00  0.83685676697E+03  0.83685676697E+03  0.00000000000E+00 0. -1.
         21   -1    0    0  501  502 -0.00000000000E+00 -0.00000000000E+00 -0.11774934450E+03  0.11774934450E+03  0.00000000000E+00 0. -1.
         25    1    1    2    0    0  0.77637413083E+02  0.81005197404E+02  0.11136899902E+03  0.20153774797E+03  0.12500000000E+03 0.  0.
         25    1    1    2    0    0 -0.51199837683E+02  0.75705311937E+02  0.50109510931E+03  0.52447500056E+03  0.12500000000E+03 0.  0.
         25    1    1    2    0    0 -0.26437575400E+02 -0.15671050934E+03  0.10664331414E+03  0.22859336294E+03  0.12500000000E+03 0.  0.
</event>
<event>
 5    0  0.5612316E-005  0.3551469E+03  0.7546771E-02  0.1060522E+00
         21   -1    0    0  502  501  0.00000000000E+00  0.00000000000E+00  0.17145566345E+03  0.17145566345E+03  0.00000000000E+00 0. -1.
         21   -1    0    0  501  502 -0.00000000000E+00 -0.00000000000E+00 -0.73563802459E+03  0.73563802459E+03  0.00000000000E+00 0. -1.
         25    1    1    2    0    0 -0.15021997427E+03 -0.78700795562E+02 -0.67848084936E+02  0.22133282297E+03  0.12500000000E+03 0.  0.
         25    1    1    2    0    0 -0.42100389375E+01 -0.38531214707E+01  0.19700663998E+02  0.12667157193E+03  0.12500000000E+03 0.  0.
         25    1    1    2    0    0  0.15443001321E+03  0.82553917032E+02 -0.51603494021E+03  0.55908929315E+03  0.12500000000E+03 0.  0.
</event>
<event>
 5    0  0.5612316E-005  0.2130381E+03  0.7546771E-02  0.1139183E+00
         21   -1    0    0  502  501  0.00000000000E+00  0.00000000000E+00  0.19002156976E+03  0.19002156976E+03  0.00000000000E+00 0. -1.
         21   -1    0    0  501  502 -0.00000000000E+00 -0.00000000000E+00 -0.23884246310E+03  0.23884246310E+03  0.00000000000E+00 0. -1.
         25    1    1    2    0    0 -0.53126978113E+02 -0.31493330791E+02 -0.15226643694E+02  0.14025389965E+03  0.12500000000E+03 0.  0.
         25    1    1    2    0    0  0.25890261683E+02  0.34891153342E+02  0.43383170636E+02  0.13926520644E+03  0.12500000000E+03 0.  0.
         25    1    1    2    0    0  0.27236716430E+02 -0.33978225511E+01 -0.76977420281E+02  0.14934492677E+03  0.12500000000E+03 0.  0.
</event>
<event>
 5    0  0.5612316E-005  0.3545582E+03  0.7546771E-02  0.1060760E+00
         21   -1    0    0  502  501  0.00000000000E+00  0.00000000000E+00  0.94516076696E+03  0.94516076696E+03  0.00000000000E+00 0.  1.
         21   -1    0    0  501  502 -0.00000000000E+00 -0.00000000000E+00 -0.13300546941E+03  0.13300546941E+03  0.00000000000E+00 0.  1.
         25    1    1    2    0    0 -0.11321932744E+03 -0.16855352501E+03  0.13796024212E+03  0.27547583434E+03  0.12500000000E+03 0.  0.
         25    1    1    2    0    0 -0.56531631796E+02  0.12098315708E+03  0.15300041892E+03  0.23846777116E+03  0.12500000000E+03 0.  0.
         25    1    1    2    0    0  0.16975095923E+03  0.47570367930E+02  0.52119463651E+03  0.56422263088E+03  0.12500000000E+03 0.  0.
</event>
<event>
 5    0  0.5612316E-005  0.2606866E+03  0.7546771E-02  0.1106731E+00
         21   -1    0    0  502  501  0.00000000000E+00  0.00000000000E+00  0.72961882401E+03  0.72961882401E+03  0.00000000000E+00 0.  1.
         21   -1    0    0  501  502 -0.00000000000E+00 -0.00000000000E+00 -0.93141096663E+02  0.93141096663E+02  0.00000000000E+00 0.  1.
         25    1    1    2    0    0  0.93279722734E+02  0.23897760682E+02  0.87803153203E+02  0.18057298622E+03  0.12500000000E+03 0.  0.
         25    1    1    2    0    0  0.28180223205E+02  0.35044472244E+02  0.13479181374E+03  0.18925134891E+03  0.12500000000E+03 0.  0.
         25    1    1    2    0    0 -0.12145994594E+03 -0.58942232926E+02  0.41388276041E+03  0.45293558555E+03  0.12500000000E+03 0.  0.
</event>
<event>
 5    0  0.5612316E-005  0.5836859E+03  0.7546771E-02  0.9939843E-01
         21   -1    0    0  502  501  0.00000000000E+00  0.00000000000E+00  0.51979970192E+03  0.51979970192E+03  0.00000000000E+00 0. -1.
         21   -1    0    0  501  502 -0.00000000000E+00 -0.00000000000E+00 -0.65542414336E+03  0.65542414336E+03  0.00000000000E+00 0. -1.
         25    1    1    2    0    0  0.41348807102E+03 -0.55676597824E+02 -0.30870308167E+03  0.53384909952E+03  0.12500000000E+03 0.  0.
         25    1    1    2    0    0 -0.83978510639E+02 -0.12292778755E+03  0.15012218356E+03  0.24561209497E+03  0.12500000000E+03 0.  0.
         25    1    1    2    0    0 -0.32950956038E+03  0.17860438537E+03  0.22956456676E+02  0.39576265079E+03  0.12500000000E+03 0.  0.
</event>
<event>
 5    0  0.5612316E-005  0.3318717E+03  0.7546771E-02  0.1070312E+00
         21   -1    0    0  502  501  0.00000000000E+00  0.00000000000E+00  0.66791808271E+03  0.66791808271E+03  0.00000000000E+00 0.  1.
         21   -1    0    0  501  502 -0.00000000000E+00 -0.00000000000E+00 -0.16489868092E+03  0.16489868092E+03  0.00000000000E+00 0.  1.
         25    1    1    2    0    0  0.74155433157E+02 -0.65544281740E+02  0.49328607266E+02  0.16689335706E+03  0.12500000000E+03 0.  0.
         25    1    1    2    0    0 -0.16307449842E+02 -0.16138443416E+03  0.11256961299E+03  0.23368308942E+03  0.12500000000E+03 0.  0.
         25    1    1    2    0    0 -0.57847983315E+02  0.22692871590E+03  0.34112118154E+03  0.43224031715E+03  0.12500000000E+03 0.  0.
</event>
<event>
 5    0  0.5612316E-005  0.3977027E+03  0.7546771E-02  0.1044578E+00
         21   -1    0    0  502  501  0.00000000000E+00  0.00000000000E+00  0.14492897148E+04  0.14492897148E+04  0.00000000000E+00 0. -1.
         21   -1    0    0  501  502 -0.00000000000E+00 -0.00000000000E+00 -0.10913444985E+03  0.10913444985E+03  0.00000000000E+00 0.  1.
         25    1    1    2    0    0  0.58842897695E+02  0.17363000159E+03  0.81110860975E+03  0.84091143462E+03  0.12500000000E+03 0.  0.
         25    1    1    2    0    0 -0.99768156290E+01  0.11238885629E+03  0.19733199558E+03  0.25941416374E+03  0.12500000000E+03 0.  0.
         25    1    1    2    0    0 -0.48866082066E+02 -0.28601885788E+03  0.33171465963E+03  0.45809856631E+03  0.12500000000E+03 0.  0.
</event>
<event>
 5    0  0.6626602E-005  0.4818784E+03  0.7546771E-02  0.1018620E+00
         21   -1    0    0  502  501  0.00000000000E+00  0.00000000000E+00  0.88813357009E+03  0.88813357009E+03  0.00000000000E+00 0.  1.
         21   -1    0    0  501  502 -0.00000000000E+00 -0.00000000000E+00 -0.26145481814E+03  0.26145481814E+03  0.00000000000E+00 0.  1.
         25    1    1    2    0    0 -0.24597240391E+03 -0.19380458688E+03  0.16379661527E+03  0.37485593573E+03  0.12500000000E+03 0.  0.
         25    1    1    2    0    0  0.70720323076E+02  0.99890003279E+02  0.50649811314E+03  0.53585885778E+03  0.12500000000E+03 0.  0.
         25    1    1    2    0    0  0.17525208084E+03  0.93914583597E+02 -0.43615976450E+02  0.23887359471E+03  0.12500000000E+03 0.  0.
</event>
<event>
 5    0  0.5612316E-005  0.4203588E+03  0.7546771E-02  0.1036950E+00
         21   -1    0    0  502  501  0.00000000000E+00  0.00000000000E+00  0.20333997467E+03  0.20333997467E+03  0.00000000000E+00 0. -1.
         21   -1    0    0  501  502 -0.00000000000E+00 -0.00000000000E+00 -0.86899528653E+03  0.86899528653E+03  0.00000000000E+00 0.  1.
         25    1    1    2    0    0 -0.33591291623E+01  0.96817039792E+02 -0.40702481116E+03  0.43666808888E+03  0.12500000000E+03 0.  0.
         25    1    1    2    0    0  0.21694419186E+03  0.94004676991E+02 -0.13517292015E+03  0.29966377829E+03  0.12500000000E+03 0.  0.
         25    1    1    2    0    0 -0.21358506269E+03 -0.19082171678E+03 -0.12345758054E+03  0.33600339402E+03  0.12500000000E+03 0.  0.
</event>
<event>
 5    0  0.5612316E-005  0.4857351E+03  0.7546771E-02  0.1017571E+00
         21   -1    0    0  502  501  0.00000000000E+00  0.00000000000E+00  0.43791194531E+03  0.43791194531E+03  0.00000000000E+00 0. -1.
         21   -1    0    0  501  502 -0.00000000000E+00 -0.00000000000E+00 -0.53878092142E+03  0.53878092142E+03  0.00000000000E+00 0. -1.
         25    1    1    2    0    0  0.10453709521E+03  0.14717977842E+03  0.39296554851E+02  0.22306750250E+03  0.12500000000E+03 0.  0.
         25    1    1    2    0    0 -0.25902475353E+03 -0.32851119166E+03  0.26048951839E+02  0.43739795825E+03  0.12500000000E+03 0.  0.
         25    1    1    2    0    0  0.15448765832E+03  0.18133141324E+03 -0.16621448279E+03  0.31622740598E+03  0.12500000000E+03 0.  0.
</event>
<event>
 5    0  0.5612316E-005  0.2247612E+03  0.7546771E-02  0.1130382E+00
         21   -1    0    0  502  501  0.00000000000E+00  0.00000000000E+00  0.12039476339E+03  0.12039476339E+03  0.00000000000E+00 0.  1.
         21   -1    0    0  501  502 -0.00000000000E+00 -0.00000000000E+00 -0.41959976814E+03  0.41959976814E+03  0.00000000000E+00 0.  1.
         25    1    1    2    0    0 -0.35696604429E+02  0.23207931665E+02 -0.54984259867E+02  0.14304238705E+03  0.12500000000E+03 0.  0.
         25    1    1    2    0    0 -0.26580706585E+02 -0.77079451017E+02 -0.63227806717E+02  0.16208186596E+03  0.12500000000E+03 0.  0.
         25    1    1    2    0    0  0.62277311015E+02  0.53871519352E+02 -0.18099293816E+03  0.23487027851E+03  0.12500000000E+03 0.  0.
</event>
<event>
 5    0  0.5612316E-005  0.2270680E+03  0.7546771E-02  0.1128721E+00
         21   -1    0    0  502  501  0.00000000000E+00  0.00000000000E+00  0.11910517948E+04  0.11910517948E+04  0.00000000000E+00 0.  1.
         21   -1    0    0  501  502 -0.00000000000E+00 -0.00000000000E+00 -0.43289382536E+02  0.43289382536E+02  0.00000000000E+00 0.  1.
         25    1    1    2    0    0 -0.19694555632E+02  0.10716794219E+02  0.44701154460E+03  0.46470102884E+03  0.12500000000E+03 0.  0.
         25    1    1    2    0    0  0.58582258572E+02 -0.36904485037E+02  0.16864829407E+03  0.22104540061E+03  0.12500000000E+03 0.  0.
         25    1    1    2    0    0 -0.38887702940E+02  0.26187690818E+02  0.53210257362E+03  0.54859474792E+03  0.12500000000E+03 0.  0.
</event>
<event>
 5    0  0.5612316E-005  0.2858958E+03  0.7546771E-02  0.1092512E+00
         21   -1    0    0  502  501  0.00000000000E+00  0.00000000000E+00  0.68661346265E+03  0.68661346265E+03  0.00000000000E+00 0.  1.
         21   -1    0    0  501  502 -0.00000000000E+00 -0.00000000000E+00 -0.11904284898E+03  0.11904284898E+03  0.00000000000E+00 0.  1.
         25    1    1    2    0    0 -0.13462502125E+03  0.55989757748E+02  0.16366979996E+03  0.25233222691E+03  0.12500000000E+03 0.  0.
         25    1    1    2    0    0  0.13772202749E+03 -0.13527547200E+03  0.23791506405E+03  0.33090087320E+03  0.12500000000E+03 0.  0.
         25    1    1    2    0    0 -0.30970062435E+01  0.79285714257E+02  0.16598574967E+03  0.22242321153E+03  0.12500000000E+03 0.  0.
</event>
<event>
 5    0  0.5612316E-005  0.2996522E+03  0.7546771E-02  0.1085415E+00
         21   -1    0    0  502  501  0.00000000000E+00  0.00000000000E+00  0.19599745491E+03  0.19599745491E+03  0.00000000000E+00 0. -1.
         21   -1    0    0  501  502 -0.00000000000E+00 -0.00000000000E+00 -0.45812569157E+03  0.45812569157E+03  0.00000000000E+00 0. -1.
         25    1    1    2    0    0  0.18354994194E+02 -0.16846422000E+03 -0.17466516030E+03  0.27358731230E+03  0.12500000000E+03 0.  0.
         25    1    1    2    0    0  0.74860406309E+01  0.77135137420E+02 -0.15138690850E+03  0.21106602354E+03  0.12500000000E+03 0.  0.
         25    1    1    2    0    0 -0.25841034824E+02  0.91329082576E+02  0.63923832126E+02  0.16946981064E+03  0.12500000000E+03 0.  0.
</event>
<event>
 5    0  0.6303170E-005  0.3606420E+03  0.7546771E-02  0.1058330E+00
         21   -1    0    0  502  501  0.00000000000E+00  0.00000000000E+00  0.48692980581E+03  0.48692980581E+03  0.00000000000E+00 0. -1.
         21   -1    0    0  501  502 -0.00000000000E+00 -0.00000000000E+00 -0.26710753637E+03  0.26710753637E+03  0.00000000000E+00 0. -1.
         25    1    1    2    0    0 -0.61859462522E+02 -0.53057623375E+02  0.24834197244E+03  0.28972476556E+03  0.12500000000E+03 0.  0.
         25    1    1    2    0    0 -0.14453266435E+03 -0.23474817130E+02  0.50659452660E+02  0.19907822143E+03  0.12500000000E+03 0.  0.
         25    1    1    2    0    0  0.20639212687E+03  0.76532440506E+02 -0.79179155666E+02  0.26523435519E+03  0.12500000000E+03 0.  0.
</event>
<event>
 5    0  0.5612316E-005  0.3048548E+03  0.7546771E-02  0.1082839E+00
         21   -1    0    0  502  501  0.00000000000E+00  0.00000000000E+00  0.16846311137E+03  0.16846311137E+03  0.00000000000E+00 0. -1.
         21   -1    0    0  501  502 -0.00000000000E+00 -0.00000000000E+00 -0.55167250616E+03  0.55167250616E+03  0.00000000000E+00 0. -1.
         25    1    1    2    0    0  0.33429777103E+02 -0.69552751921E+01 -0.76422845706E+00  0.12958205854E+03  0.12500000000E+03 0.  0.
         25    1    1    2    0    0 -0.87410350505E+01  0.12407554545E+03 -0.62419249273E+01  0.17645143326E+03  0.12500000000E+03 0.  0.
         25    1    1    2    0    0 -0.24688742052E+02 -0.11712027026E+03 -0.37620324141E+03  0.41410212573E+03  0.12500000000E+03 0.  0.
</event>
<event>
 5    0  0.5612316E-005  0.3034828E+03  0.7546771E-02  0.1083512E+00
         21   -1    0    0  502  501  0.00000000000E+00  0.00000000000E+00  0.10780071751E+03  0.10780071751E+03  0.00000000000E+00 0. -1.
         21   -1    0    0  501  502 -0.00000000000E+00 -0.00000000000E+00 -0.85437076228E+03  0.85437076228E+03  0.00000000000E+00 0. -1.
         25    1    1    2    0    0  0.12097055036E+03 -0.12802229483E+03 -0.90119502888E+02  0.23403014086E+03  0.12500000000E+03 0.  0.
         25    1    1    2    0    0 -0.65600731342E+02  0.23937871749E+02 -0.29196112662E+03  0.32518114507E+03  0.12500000000E+03 0.  0.
         25    1    1    2    0    0 -0.55369819021E+02  0.10408442308E+03 -0.36448941527E+03  0.40296019385E+03  0.12500000000E+03 0.  0.
</event>
<event>
 5    0  0.5612316E-005  0.4696900E+03  0.7546771E-02  0.1022008E+00
         21   -1    0    0  502  501  0.00000000000E+00  0.00000000000E+00  0.38284775957E+03  0.38284775957E+03  0.00000000000E+00 0.  1.
         21   -1    0    0  501  502 -0.00000000000E+00 -0.00000000000E+00 -0.57623098041E+03  0.57623098041E+03  0.00000000000E+00 0.  1.
         25    1    1    2    0    0  0.33786313145E+03  0.13975628221E+03 -0.12038946914E+03  0.40472452148E+03  0.12500000000E+03 0.  0.
         25    1    1    2    0    0 -0.29727681228E+03 -0.22140773306E+03 -0.80796644109E+02  0.39943458173E+03  0.12500000000E+03 0.  0.
         25    1    1    2    0    0 -0.40586319164E+02  0.81651450847E+02  0.78028924040E+01  0.15491963678E+03  0.12500000000E+03 0.  0.
</event>
<event>
 5    0  0.5612316E-005  0.2596500E+03  0.7546771E-02  0.1107354E+00
         21   -1    0    0  502  501  0.00000000000E+00  0.00000000000E+00  0.64605428348E+03  0.64605428348E+03  0.00000000000E+00 0.  1.
         21   -1    0    0  501  502 -0.00000000000E+00 -0.00000000000E+00 -0.10435368859E+03  0.10435368859E+03  0.00000000000E+00 0.  1.
         25    1    1    2    0    0 -0.53648377942E+02 -0.13279912990E+03  0.29021617392E+03  0.34693541901E+03  0.12500000000E+03 0.  0.
         25    1    1    2    0    0  0.69702069292E+02  0.93408558547E+02  0.84680806131E+02  0.19073378358E+03  0.12500000000E+03 0.  0.
         25    1    1    2    0    0 -0.16053691350E+02  0.39390571350E+02  0.16680361484E+03  0.21273876948E+03  0.12500000000E+03 0.  0.
</event>
<event>
 5    0  0.5612316E-005  0.2006438E+03  0.7546771E-02  0.1149197E+00
         21   -1    0    0  502  501  0.00000000000E+00  0.00000000000E+00  0.31723927949E+03  0.31723927949E+03  0.00000000000E+00 0. -1.
         21   -1    0    0  501  502 -0.00000000000E+00 -0.00000000000E+00 -0.12690081681E+03  0.12690081681E+03  0.00000000000E+00 0. -1.
         25    1    1    2    0    0 -0.44174654498E+02 -0.11829005137E+02  0.56107192380E+02  0.14444494626E+03  0.12500000000E+03 0.  0.
         25    1    1    2    0    0  0.25847723358E+02  0.19084279797E+02  0.22758510854E+02  0.13105443279E+03  0.12500000000E+03 0.  0.
         25    1    1    2    0    0  0.18326931139E+02 -0.72552746606E+01  0.11147275945E+03  0.16864071725E+03  0.12500000000E+03 0.  0.
</event>
<event>
 5    0  0.5612316E-005  0.3785532E+03  0.7546771E-02  0.1051470E+00
         21   -1    0    0  502  501  0.00000000000E+00  0.00000000000E+00  0.81659878836E+03  0.81659878836E+03  0.00000000000E+00 0.  1.
         21   -1    0    0  501  502 -0.00000000000E+00 -0.00000000000E+00 -0.17548708626E+03  0.17548708626E+03  0.00000000000E+00 0.  1.
         25    1    1    2    0    0  0.88922132188E+02 -0.25066323945E+03  0.17560219712E+03  0.34234534733E+03  0.12500000000E+03 0.  0.
         25    1    1    2    0    0 -0.13373407368E+01  0.25404626359E+03  0.21160779941E+03  0.35347440260E+03  0.12500000000E+03 0.  0.
         25    1    1    2    0    0 -0.87584791451E+02 -0.33830241393E+01  0.25390170557E+03  0.29626612468E+03  0.12500000000E+03 0.  0.
</event>
<event>
 5    0  0.5612316E-005  0.3547224E+03  0.7546771E-02  0.1060693E+00
         21   -1    0    0  502  501  0.00000000000E+00  0.00000000000E+00  0.16572223055E+04  0.16572223055E+04  0.00000000000E+00 0.  1.
         21   -1    0    0  501  502 -0.00000000000E+00 -0.00000000000E+00 -0.75927032487E+02  0.75927032487E+02  0.00000000000E+00 0.  1.
         25    1    1    2    0    0 -0.16452701885E+03 -0.69734155318E+02  0.10704209029E+04  0.10924092190E+04  0.12500000000E+03 0.  0.
         25    1    1    2    0    0 -0.38720125272E+02  0.52303002525E-01  0.23811600563E+03  0.27170477172E+03  0.12500000000E+03 0.  0.
         25    1    1    2    0    0  0.20324714412E+03  0.69681852315E+02  0.27275836440E+03  0.36903534720E+03  0.12500000000E+03 0.  0.
</event>
<event>
 5    0  0.5612316E-005  0.7241733E+03  0.7546771E-02  0.9676763E-01
         21   -1    0    0  502  501  0.00000000000E+00  0.00000000000E+00  0.11396426618E+04  0.11396426618E+04  0.00000000000E+00 0. -1.
         21   -1    0    0  501  502 -0.00000000000E+00 -0.00000000000E+00 -0.46016787320E+03  0.46016787320E+03  0.00000000000E+00 0. -1.
         25    1    1    2    0    0  0.64788391124E+03  0.10187437780E+02  0.46313297163E+03  0.80620995760E+03  0.12500000000E+03 0.  0.
         25    1    1    2    0    0 -0.14617695903E+03 -0.21442754467E+02  0.19687766456E+03  0.27606758208E+03  0.12500000000E+03 0.  0.
         25    1    1    2    0    0 -0.50170695221E+03  0.11255316687E+02  0.19464152459E+02  0.51753299535E+03  0.12500000000E+03 0.  0.
</event>
<event>
 5    0  0.5612316E-005  0.2749629E+03  0.7546771E-02  0.1098472E+00
         21   -1    0    0  502  501  0.00000000000E+00  0.00000000000E+00  0.16483237434E+03  0.16483237434E+03  0.00000000000E+00 0. -1.
         21   -1    0    0  501  502 -0.00000000000E+00 -0.00000000000E+00 -0.45867556466E+03  0.45867556466E+03  0.00000000000E+00 0. -1.
         25    1    1    2    0    0 -0.70346231587E+02  0.18478865748E+02 -0.16662721551E+03  0.22063474279E+03  0.12500000000E+03 0.  0.
         25    1    1    2    0    0  0.70389767913E+02  0.79744895069E+02 -0.17196531417E+03  0.23772050184E+03  0.12500000000E+03 0.  0.
         25    1    1    2    0    0 -0.43536325512E-01 -0.98223760818E+02  0.44749339357E+02  0.16515269437E+03  0.12500000000E+03 0.  0.
</event>
<event>
 5    0  0.5612316E-005  0.2752055E+03  0.7546771E-02  0.1098337E+00
         21   -1    0    0  502  501  0.00000000000E+00  0.00000000000E+00  0.74140911774E+03  0.74140911774E+03  0.00000000000E+00 0. -1.
         21   -1    0    0  501  502 -0.00000000000E+00 -0.00000000000E+00 -0.10215418729E+03  0.10215418729E+03  0.00000000000E+00 0. -1.
         25    1    1    2    0    0  0.40167324888E+02 -0.25284246888E+02  0.20475092127E+03  0.24454170787E+03  0.12500000000E+03 0.  0.
         25    1    1    2    0    0 -0.17286968389E+03  0.64590143153E+02  0.27200513363E+03  0.35166405407E+03  0.12500000000E+03 0.  0.
         25    1    1    2    0    0  0.13270235900E+03 -0.39305896265E+02  0.16249887555E+03  0.24735754309E+03  0.12500000000E+03 0.  0.
</event>
<event>
 5    0  0.5612316E-005  0.2439570E+03  0.7546771E-02  0.1117185E+00
         21   -1    0    0  502  501  0.00000000000E+00  0.00000000000E+00  0.59479861436E+02  0.59479861436E+02  0.00000000000E+00 0.  1.
         21   -1    0    0  501  502 -0.00000000000E+00 -0.00000000000E+00 -0.10005908482E+04  0.10005908482E+04  0.00000000000E+00 0.  1.
         25    1    1    2    0    0 -0.27819566742E+02 -0.11976238112E+03 -0.19759377986E+03  0.26416899527E+03  0.12500000000E+03 0.  0.
         25    1    1    2    0    0  0.29133920960E+02  0.66494173920E+02 -0.32035753413E+03  0.35146011181E+03  0.12500000000E+03 0.  0.
         25    1    1    2    0    0 -0.13143542171E+01  0.53268207195E+02 -0.42315967282E+03  0.44444160261E+03  0.12500000000E+03 0.  0.
</event>
<event>
 5    0  0.5612316E-005  0.4051410E+03  0.7546771E-02  0.1042014E+00
         21   -1    0    0  502  501  0.00000000000E+00  0.00000000000E+00  0.66385768047E+02  0.66385768047E+02  0.00000000000E+00 0.  1.
         21   -1    0    0  501  502 -0.00000000000E+00 -0.00000000000E+00 -0.24725069124E+04  0.24725069124E+04  0.00000000000E+00 0.  1.
         25    1    1    2    0    0 -0.22664053890E+03  0.61754563633E+02 -0.78126256641E+03  0.82533372503E+03  0.12500000000E+03 0.  0.
         25    1    1    2    0    0  0.32998253677E+03  0.32958540713E+02 -0.11292453771E+04  0.11835517993E+04  0.12500000000E+03 0.  0.
         25    1    1    2    0    0 -0.10334199788E+03 -0.94713104346E+02 -0.49561320089E+03  0.53000715614E+03  0.12500000000E+03 0.  0.
</event>
<event>
 5    0  0.5612316E-005  0.3283768E+03  0.7546771E-02  0.1071857E+00
         21   -1    0    0  502  501  0.00000000000E+00  0.00000000000E+00  0.71934659842E+02  0.71934659842E+02  0.00000000000E+00 0.  1.
         21   -1    0    0  501  502 -0.00000000000E+00 -0.00000000000E+00 -0.14990179347E+04  0.14990179347E+04  0.00000000000E+00 0.  1.
         25    1    1    2    0    0  0.30874187386E+02 -0.66398527013E+02 -0.60400155986E+03  0.62113192170E+03  0.12500000000E+03 0.  0.
         25    1    1    2    0    0 -0.67692677043E+02 -0.15884204451E+03 -0.39528567397E+03  0.44909782640E+03  0.12500000000E+03 0.  0.
         25    1    1    2    0    0  0.36818489657E+02  0.22524057152E+03 -0.42779604106E+03  0.50072284648E+03  0.12500000000E+03 0.  0.
</event>
<event>
 5    0  0.5612316E-005  0.3244220E+03  0.7546771E-02  0.1073632E+00
         21   -1    0    0  502  501  0.00000000000E+00  0.00000000000E+00  0.65476551082E+03  0.65476551082E+03  0.00000000000E+00 0. -1.
         21   -1    0    0  501  502 -0.00000000000E+00 -0.00000000000E+00 -0.16074404111E+03  0.16074404111E+03  0.00000000000E+00 0. -1.
         25    1    1    2    0    0  0.80118399198E+02 -0.12059877098E+03  0.92373766107E+02  0.21241688755E+03  0.12500000000E+03 0.  0.
         25    1    1    2    0    0 -0.19007164508E+03  0.40848843985E+02  0.10537043596E+03  0.25401532846E+03  0.12500000000E+03 0.  0.
         25    1    1    2    0    0  0.10995324588E+03  0.79749926999E+02  0.29627726764E+03  0.34907733592E+03  0.12500000000E+03 0.  0.
</event>
<event>
 5    0  0.5612316E-005  0.3048860E+03  0.7546771E-02  0.1082823E+00
         21   -1    0    0  502  501  0.00000000000E+00  0.00000000000E+00  0.59947818828E+03  0.59947818828E+03  0.00000000000E+00 0.  1.
         21   -1    0    0  501  502 -0.00000000000E+00 -0.00000000000E+00 -0.15506066460E+03  0.15506066460E+03  0.00000000000E+00 0.  1.
         25    1    1    2    0    0  0.10778448112E+03 -0.48010095999E+02 -0.18499480814E+02  0.17288636290E+03  0.12500000000E+03 0.  0.
         25    1    1    2    0    0  0.48579576892E+02  0.54174529096E+02  0.13764451840E+03  0.19966438926E+03  0.12500000000E+03 0.  0.
         25    1    1    2    0    0 -0.15636405801E+03 -0.61644330979E+01  0.32527248609E+03  0.38198810071E+03  0.12500000000E+03 0.  0.
</event>
<event>
 5    0  0.5612316E-005  0.2679398E+03  0.7546771E-02  0.1102465E+00
         21   -1    0    0  502  501  0.00000000000E+00  0.00000000000E+00  0.21326006325E+03  0.21326006325E+03  0.00000000000E+00 0. -1.
         21   -1    0    0  501  502 -0.00000000000E+00 -0.00000000000E+00 -0.33663944016E+03  0.33663944016E+03  0.00000000000E+00 0. -1.
         25    1    1    2    0    0 -0.50974441525E+02  0.37815493034E+02 -0.29729368545E+02  0.14330820129E+03  0.12500000000E+03 0.  0.
         25    1    1    2    0    0  0.17605167264E+03 -0.23282048564E+02 -0.66347468803E+02  0.22707538801E+03  0.12500000000E+03 0.  0.
         25    1    1    2    0    0 -0.12507723111E+03 -0.14533444470E+02 -0.27302539564E+02  0.17951591411E+03  0.12500000000E+03 0.  0.
</event>
<event>
 5    0  0.5612316E-005  0.2591834E+03  0.7546771E-02  0.1107635E+00
         21   -1    0    0  502  501  0.00000000000E+00  0.00000000000E+00  0.61531587002E+03  0.61531587002E+03  0.00000000000E+00 0.  1.
         21   -1    0    0  501  502 -0.00000000000E+00 -0.00000000000E+00 -0.10917324385E+03  0.10917324385E+03  0.00000000000E+00 0.  1.
         25    1    1    2    0    0 -0.11871964124E+03  0.25539134367E+02  0.88154547407E+02  0.19530188128E+03  0.12500000000E+03 0.  0.
         25    1    1    2    0    0  0.57139422428E+02 -0.13133092769E+02  0.34455707329E+03  0.37118993585E+03  0.12500000000E+03 0.  0.
         25    1    1    2    0    0  0.61580218815E+02 -0.12406041598E+02  0.73431005474E+02  0.15799729676E+03  0.12500000000E+03 0.  0.
</event>
<event>
 5    0  0.5612316E-005  0.2396171E+03  0.7546771E-02  0.1120048E+00
         21   -1    0    0  502  501  0.00000000000E+00  0.00000000000E+00  0.60364539662E+03  0.60364539662E+03  0.00000000000E+00 0.  1.
         21   -1    0    0  501  502 -0.00000000000E+00 -0.00000000000E+00 -0.95116061880E+02  0.95116061880E+02  0.00000000000E+00 0.  1.
         25    1    1    2    0    0  0.21319552745E+02  0.98793690315E+01  0.16643065597E+03  0.20946667636E+03  0.12500000000E+03 0.  0.
         25    1    1    2    0    0  0.36029442139E+02  0.68454423134E+01  0.32446111358E+03  0.34963551737E+03  0.12500000000E+03 0.  0.
         25    1    1    2    0    0 -0.57348994884E+02 -0.16724811345E+02  0.17637565193E+02  0.13965926476E+03  0.12500000000E+03 0.  0.
</event>
<event>
 5    0  0.5612316E-005  0.2256884E+03  0.7546771E-02  0.1129712E+00
         21   -1    0    0  502  501  0.00000000000E+00  0.00000000000E+00  0.65793626873E+03  0.65793626873E+03  0.00000000000E+00 0.  1.
         21   -1    0    0  501  502 -0.00000000000E+00 -0.00000000000E+00 -0.77416694917E+02  0.77416694917E+02  0.00000000000E+00 0.  1.
         25    1    1    2    0    0 -0.71774792600E+02 -0.24304102210E+02  0.25026932400E+03  0.28983106247E+03  0.12500000000E+03 0.  0.
         25    1    1    2    0    0 -0.80868490028E+01  0.49936260346E+02  0.22332440985E+03  0.26087893602E+03  0.12500000000E+03 0.  0.
         25    1    1    2    0    0  0.79861641603E+02 -0.25632158136E+02  0.10692583996E+03  0.18464296516E+03  0.12500000000E+03 0.  0.
</event>
<event>
 5    0  0.5612316E-005  0.3012267E+03  0.7546771E-02  0.1084629E+00
         21   -1    0    0  502  501  0.00000000000E+00  0.00000000000E+00  0.39671486316E+03  0.39671486316E+03  0.00000000000E+00 0. -1.
         21   -1    0    0  501  502 -0.00000000000E+00 -0.00000000000E+00 -0.22872224066E+03  0.22872224066E+03  0.00000000000E+00 0. -1.
         25    1    1    2    0    0 -0.17821149393E+03  0.44932699927E+02  0.95596931484E+02  0.24195465980E+03  0.12500000000E+03 0.  0.
         25    1    1    2    0    0 -0.73040165624E+01 -0.79968160483E+02  0.45970399398E+02  0.15552020116E+03  0.12500000000E+03 0.  0.
         25    1    1    2    0    0  0.18551551049E+03  0.35035460556E+02  0.26425291622E+02  0.22796224285E+03  0.12500000000E+03 0.  0.
</event>
<event>
 5    0  0.5612316E-005  0.4573367E+03  0.7546771E-02  0.1025556E+00
         21   -1    0    0  502  501  0.00000000000E+00  0.00000000000E+00  0.32109882612E+03  0.32109882612E+03  0.00000000000E+00 0.  1.
         21   -1    0    0  501  502 -0.00000000000E+00 -0.00000000000E+00 -0.65137840710E+03  0.65137840710E+03  0.00000000000E+00 0.  1.
         25    1    1    2    0    0  0.96942826004E+02  0.35082950914E+03 -0.14819147500E+03  0.41238934184E+03  0.12500000000E+03 0.  0.
         25    1    1    2    0    0  0.71813145062E+02 -0.15911486072E+03 -0.17275482597E+03  0.27557920205E+03  0.12500000000E+03 0.  0.
         25    1    1    2    0    0 -0.16875597107E+03 -0.19171464842E+03 -0.93332800153E+01  0.28450868933E+03  0.12500000000E+03 0.  0.
</event>
<event>
 5    0  0.5612316E-005  0.3575217E+03  0.7546771E-02  0.1059569E+00
         21   -1    0    0  502  501  0.00000000000E+00  0.00000000000E+00  0.62470857689E+02  0.62470857689E+02  0.00000000000E+00 0.  1.
         21   -1    0    0  501  502 -0.00000000000E+00 -0.00000000000E+00 -0.20461021738E+04  0.20461021738E+04  0.00000000000E+00 0.  1.
         25    1    1    2    0    0  0.97016229771E+02 -0.16551192661E+03 -0.54713186166E+03  0.59311434036E+03  0.12500000000E+03 0.  0.
         25    1    1    2    0    0 -0.81003503915E+02  0.22701471276E+03 -0.12655702021E+04  0.12943686429E+04  0.12500000000E+03 0.  0.
         25    1    1    2    0    0 -0.16012725856E+02 -0.61502786144E+02 -0.17092925240E+03  0.22109004821E+03  0.12500000000E+03 0.  0.
</event>
<event>
 5    0  0.5612316E-005  0.4536576E+03  0.7546771E-02  0.1026637E+00
         21   -1    0    0  502  501  0.00000000000E+00  0.00000000000E+00  0.74885875472E+03  0.74885875472E+03  0.00000000000E+00 0.  1.
         21   -1    0    0  501  502 -0.00000000000E+00 -0.00000000000E+00 -0.27482512991E+03  0.27482512991E+03  0.00000000000E+00 0.  1.
         25    1    1    2    0    0 -0.70807953935E+02 -0.30535056264E+02  0.46018016933E+03  0.48304962917E+03  0.12500000000E+03 0.  0.
         25    1    1    2    0    0  0.23317704466E+03  0.57201731799E+01 -0.12418642882E+03  0.29232092577E+03  0.12500000000E+03 0.  0.
         25    1    1    2    0    0 -0.16236909072E+03  0.24814883084E+02  0.13803988430E+03  0.24831332969E+03  0.12500000000E+03 0.  0.
</event>
<event>
 5    0  0.5612316E-005  0.5111459E+03  0.7546771E-02  0.1010910E+00
         21   -1    0    0  502  501  0.00000000000E+00  0.00000000000E+00  0.97253058828E+03  0.97253058828E+03  0.00000000000E+00 0. -1.
         21   -1    0    0  501  502 -0.00000000000E+00 -0.00000000000E+00 -0.26864974318E+03  0.26864974318E+03  0.00000000000E+00 0.  1.
         25    1    1    2    0    0  0.11990874435E+03 -0.34213930594E+03  0.52448199226E+03  0.64972592056E+03  0.12500000000E+03 0.  0.
         25    1    1    2    0    0 -0.23417543078E+03  0.26292859830E+03  0.90490693786E+02  0.38442573515E+03  0.12500000000E+03 0.  0.
         25    1    1    2    0    0  0.11426668644E+03  0.79210707641E+02  0.88908159049E+02  0.20702867574E+03  0.12500000000E+03 0.  0.
</event>
<event>
 5    0  0.5612316E-005  0.2683320E+03  0.7546771E-02  0.1102238E+00
         21   -1    0    0  502  501  0.00000000000E+00  0.00000000000E+00  0.21439156484E+03  0.21439156484E+03  0.00000000000E+00 0. -1.
         21   -1    0    0  501  502 -0.00000000000E+00 -0.00000000000E+00 -0.33584371750E+03  0.33584371750E+03  0.00000000000E+00 0. -1.
         25    1    1    2    0    0  0.88213281169E+01  0.83187160783E+02 -0.19466190056E+03  0.24600035585E+03  0.12500000000E+03 0.  0.
         25    1    1    2    0    0  0.23716754417E+02 -0.42960030103E+01 -0.16384139387E+02  0.12835256174E+03  0.12500000000E+03 0.  0.
         25    1    1    2    0    0 -0.32538082534E+02 -0.78891157773E+02  0.89593887290E+02  0.17588236475E+03  0.12500000000E+03 0.  0.
</event>
<event>
 5    0  0.5612316E-005  0.4082375E+03  0.7546771E-02  0.1040964E+00
         21   -1    0    0  502  501  0.00000000000E+00  0.00000000000E+00  0.26031072228E+03  0.26031072228E+03  0.00000000000E+00 0.  1.
         21   -1    0    0  501  502 -0.00000000000E+00 -0.00000000000E+00 -0.64022677473E+03  0.64022677473E+03  0.00000000000E+00 0.  1.
         25    1    1    2    0    0 -0.13651812366E+03  0.13232784260E+03 -0.12602179385E+03  0.26010449542E+03  0.12500000000E+03 0.  0.
         25    1    1    2    0    0  0.17577631179E+03  0.10089365198E+03  0.41724073395E+02  0.24174933112E+03  0.12500000000E+03 0.  0.
         25    1    1    2    0    0 -0.39258188126E+02 -0.23322149459E+03 -0.29561833200E+03  0.39868367045E+03  0.12500000000E+03 0.  0.
</event>
<event>
 5    0  0.5612316E-005  0.3139877E+03  0.7546771E-02  0.1078450E+00
         21   -1    0    0  502  501  0.00000000000E+00  0.00000000000E+00  0.35426427338E+03  0.35426427338E+03  0.00000000000E+00 0.  1.
         21   -1    0    0  501  502 -0.00000000000E+00 -0.00000000000E+00 -0.27829021881E+03  0.27829021881E+03  0.00000000000E+00 0.  1.
         25    1    1    2    0    0  0.69365759166E+02  0.87232595943E+02  0.22042649677E+02  0.16891421712E+03  0.12500000000E+03 0.  0.
         25    1    1    2    0    0 -0.28795998899E+01  0.13457811756E+03  0.77637220273E+02  0.19942943562E+03  0.12500000000E+03 0.  0.
         25    1    1    2    0    0 -0.66486159276E+02 -0.22181071350E+03 -0.23705815373E+02  0.26421083945E+03  0.12500000000E+03 0.  0.
</event>
<event>
 5    0  0.5612316E-005  0.3160637E+03  0.7546771E-02  0.1077475E+00
         21   -1    0    0  502  501  0.00000000000E+00  0.00000000000E+00  0.59476589755E+02  0.59476589755E+02  0.00000000000E+00 0. -1.
         21   -1    0    0  501  502 -0.00000000000E+00 -0.00000000000E+00 -0.16795896893E+04  0.16795896893E+04  0.00000000000E+00 0. -1.
         25    1    1    2    0    0  0.12441092231E+03 -0.11910407936E+03 -0.71738979729E+03  0.74828936954E+03  0.12500000000E+03 0.  0.
         25    1    1    2    0    0 -0.44938122648E+02  0.83363670934E+02 -0.77862309905E+03  0.79425931967E+03  0.12500000000E+03 0.  0.
         25    1    1    2    0    0 -0.79472799665E+02  0.35740408428E+02 -0.12410020318E+03  0.19651758982E+03  0.12500000000E+03 0.  0.
</event>
<event>
 5    0  0.5612316E-005  0.2541137E+03  0.7546771E-02  0.1110732E+00
         21   -1    0    0  502  501  0.00000000000E+00  0.00000000000E+00  0.35077110115E+03  0.35077110115E+03  0.00000000000E+00 0.  1.
         21   -1    0    0  501  502 -0.00000000000E+00 -0.00000000000E+00 -0.18409091335E+03  0.18409091335E+03  0.00000000000E+00 0.  1.
         25    1    1    2    0    0 -0.24505266559E+02  0.64989357591E+02  0.73091028860E+02  0.16059708338E+03  0.12500000000E+03 0.  0.
         25    1    1    2    0    0 -0.32090784792E+02 -0.10489375716E+03  0.14675159054E+03  0.22179618592E+03  0.12500000000E+03 0.  0.
         25    1    1    2    0    0  0.56596051351E+02  0.39904399572E+02 -0.53162431595E+02  0.15246874521E+03  0.12500000000E+03 0.  0.
</event>
<event>
 5    0  0.5612316E-005  0.3601158E+03  0.7546771E-02  0.1058538E+00
         21   -1    0    0  502  501  0.00000000000E+00  0.00000000000E+00  0.17635781242E+03  0.17635781242E+03  0.00000000000E+00 0. -1.
         21   -1    0    0  501  502 -0.00000000000E+00 -0.00000000000E+00 -0.73534259648E+03  0.73534259648E+03  0.00000000000E+00 0. -1.
         25    1    1    2    0    0  0.18769678499E+02 -0.12759717643E+03 -0.12643809741E+03  0.21964729167E+03  0.12500000000E+03 0.  0.
         25    1    1    2    0    0  0.97293133044E+02  0.24505765714E+03 -0.11649670347E+03  0.31419053293E+03  0.12500000000E+03 0.  0.
         25    1    1    2    0    0 -0.11606281154E+03 -0.11746048071E+03 -0.31604998318E+03  0.37786258431E+03  0.12500000000E+03 0.  0.
</event>
<event>
 5    0  0.6023873E-005  0.4387849E+03  0.7546771E-02  0.1031120E+00
         21   -1    0    0  502  501  0.00000000000E+00  0.00000000000E+00  0.10556133150E+04  0.10556133150E+04  0.00000000000E+00 0. -1.
         21   -1    0    0  501  502 -0.00000000000E+00 -0.00000000000E+00 -0.18238892202E+03  0.18238892202E+03  0.00000000000E+00 0. -1.
         25    1    1    2    0    0 -0.20496685487E+03 -0.18246576001E+03  0.25155336642E+03  0.39269487051E+03  0.12500000000E+03 0.  0.
         25    1    1    2    0    0  0.16823272771E+03 -0.89055622499E+02  0.43495215090E+03  0.49095980298E+03  0.12500000000E+03 0.  0.
         25    1    1    2    0    0  0.36734127159E+02  0.27152138251E+03  0.18671887568E+03  0.35434756355E+03  0.12500000000E+03 0.  0.
</event>
<event>
 5    0  0.5948679E-005  0.2704359E+03  0.7546771E-02  0.1101030E+00
         21   -1    0    0  502  501  0.00000000000E+00  0.00000000000E+00  0.51928930340E+03  0.51928930340E+03  0.00000000000E+00 0. -1.
         21   -1    0    0  501  502 -0.00000000000E+00 -0.00000000000E+00 -0.14083787612E+03  0.14083787612E+03  0.00000000000E+00 0. -1.
         25    1    1    2    0    0  0.78446545876E+02  0.51598963147E+02  0.14745026308E+03  0.21490205592E+03  0.12500000000E+03 0.  0.
         25    1    1    2    0    0 -0.13375252865E+03 -0.10447316462E+03  0.20934174313E+03  0.29707464796E+03  0.12500000000E+03 0.  0.
         25    1    1    2    0    0  0.55305982775E+02  0.52874201469E+02  0.21659421069E+02  0.14815047564E+03  0.12500000000E+03 0.  0.
</event>
<event>
 5    0  0.5612316E-005  0.3334420E+03  0.7546771E-02  0.1069624E+00
         21   -1    0    0  502  501  0.00000000000E+00  0.00000000000E+00  0.10225021120E+03  0.10225021120E+03  0.00000000000E+00 0. -1.
         21   -1    0    0  501  502 -0.00000000000E+00 -0.00000000000E+00 -0.10873678778E+04  0.10873678778E+04  0.00000000000E+00 0. -1.
         25    1    1    2    0    0  0.10327630181E+02 -0.22956604933E+03 -0.29637394550E+03  0.39530968433E+03  0.12500000000E+03 0.  0.
         25    1    1    2    0    0 -0.74418514396E+02  0.54086714727E+02 -0.39522589235E+03  0.42460804747E+03  0.12500000000E+03 0.  0.
         25    1    1    2    0    0  0.64090884215E+02  0.17547933460E+03 -0.29351782871E+03  0.36970035716E+03  0.12500000000E+03 0.  0.
</event>
<event>
 5    0  0.5612316E-005  0.3025709E+03  0.7546771E-02  0.1083962E+00
         21   -1    0    0  502  501  0.00000000000E+00  0.00000000000E+00  0.32709710414E+03  0.32709710414E+03  0.00000000000E+00 0. -1.
         21   -1    0    0  501  502 -0.00000000000E+00 -0.00000000000E+00 -0.27988374087E+03  0.27988374087E+03  0.00000000000E+00 0. -1.
         25    1    1    2    0    0  0.11419547217E+03  0.76721644410E+02 -0.81654424614E+01  0.18606044995E+03  0.12500000000E+03 0.  0.
         25    1    1    2    0    0 -0.14186170576E+03  0.35281158704E+02 -0.75158440047E+02  0.20650252984E+03  0.12500000000E+03 0.  0.
         25    1    1    2    0    0  0.27666233593E+02 -0.11200280311E+03  0.13053724578E+03  0.21441786521E+03  0.12500000000E+03 0.  0.
</event>
<event>
 5    0  0.5612316E-005  0.3394165E+03  0.7546771E-02  0.1067045E+00
         21   -1    0    0  502  501  0.00000000000E+00  0.00000000000E+00  0.26267993106E+03  0.26267993106E+03  0.00000000000E+00 0.  1.
         21   -1    0    0  501  502 -0.00000000000E+00 -0.00000000000E+00 -0.43857009670E+03  0.43857009670E+03  0.00000000000E+00 0.  1.
         25    1    1    2    0    0  0.57459715590E+02 -0.11881127661E+03  0.29037803860E+02  0.18408132012E+03  0.12500000000E+03 0.  0.
         25    1    1    2    0    0 -0.46553013016E+02 -0.11731407154E+03 -0.17285630080E+03  0.24785898235E+03  0.12500000000E+03 0.  0.
         25    1    1    2    0    0 -0.10906702575E+02  0.23612534815E+03 -0.32071668700E+02  0.26930972528E+03  0.12500000000E+03 0.  0.
</event>
<event>
 5    0  0.8711656E-005  0.7388498E+03  0.7546771E-02  0.9653008E-01
         21   -1    0    0  502  501  0.00000000000E+00  0.00000000000E+00  0.77592380995E+03  0.77592380995E+03  0.00000000000E+00 0. -1.
         21   -1    0    0  501  502 -0.00000000000E+00 -0.00000000000E+00 -0.70354713405E+03  0.70354713405E+03  0.00000000000E+00 0. -1.
         25    1    1    2    0    0 -0.85929491172E+02  0.17634266444E+03  0.36331557366E+03  0.43139751833E+03  0.12500000000E+03 0.  0.
         25    1    1    2    0    0  0.15484378864E+03  0.37779824997E+03 -0.18844198765E+03  0.46673707724E+03  0.12500000000E+03 0.  0.
         25    1    1    2    0    0 -0.68914297463E+02 -0.55414091442E+03 -0.10249691011E+03  0.58133634843E+03  0.12500000000E+03 0.  0.
</event>
<event>
 5    0  0.5612316E-005  0.4136450E+03  0.7546771E-02  0.1039155E+00
         21   -1    0    0  502  501  0.00000000000E+00  0.00000000000E+00  0.18014152054E+03  0.18014152054E+03  0.00000000000E+00 0.  1.
         21   -1    0    0  501  502 -0.00000000000E+00 -0.00000000000E+00 -0.94982110634E+03  0.94982110634E+03  0.00000000000E+00 0.  1.
         25    1    1    2    0    0 -0.23934129335E+03  0.78216226730E+02 -0.13377799503E+03  0.31132552864E+03  0.12500000000E+03 0.  0.
         25    1    1    2    0    0  0.31879644516E+03 -0.35046427125E+02 -0.33413169771E+03  0.47971701754E+03  0.12500000000E+03 0.  0.
         25    1    1    2    0    0 -0.79455151809E+02 -0.43169799605E+02 -0.30176989306E+03  0.33892008071E+03  0.12500000000E+03 0.  0.
</event>
<event>
 5    0  0.5612316E-005  0.3557877E+03  0.7546771E-02  0.1060264E+00
         21   -1    0    0  502  501  0.00000000000E+00  0.00000000000E+00  0.32164194730E+03  0.32164194730E+03  0.00000000000E+00 0. -1.
         21   -1    0    0  501  502 -0.00000000000E+00 -0.00000000000E+00 -0.39355833506E+03  0.39355833506E+03  0.00000000000E+00 0. -1.
         25    1    1    2    0    0  0.99954857466E+02  0.23141085339E+03 -0.87003703210E+02  0.29451078244E+03  0.12500000000E+03 0.  0.
         25    1    1    2    0    0 -0.14756031126E+02 -0.19979352590E+03  0.85133085861E+02  0.25101361667E+03  0.12500000000E+03 0.  0.
         25    1    1    2    0    0 -0.85198826341E+02 -0.31617327493E+02 -0.70045770412E+02  0.16967588326E+03  0.12500000000E+03 0.  0.
</event>
<event>
 5    0  0.5612316E-005  0.3699491E+03  0.7546771E-02  0.1054712E+00
         21   -1    0    0  502  501  0.00000000000E+00  0.00000000000E+00  0.53430572317E+03  0.53430572317E+03  0.00000000000E+00 0. -1.
         21   -1    0    0  501  502 -0.00000000000E+00 -0.00000000000E+00 -0.25614987885E+03  0.25614987885E+03  0.00000000000E+00 0. -1.
         25    1    1    2    0    0 -0.20378249053E+02 -0.41324487242E+02 -0.97474097122E+02  0.16507327431E+03  0.12500000000E+03 0.  0.
         25    1    1    2    0    0 -0.48478792503E+02  0.18470080681E+03  0.35500325381E+03  0.42203896926E+03  0.12500000000E+03 0.  0.
         25    1    1    2    0    0  0.68857041556E+02 -0.14337631957E+03  0.20626687627E+02  0.20334335846E+03  0.12500000000E+03 0.  0.
</event>
<event>
 5    0  0.5612316E-005  0.3915626E+03  0.7546771E-02  0.1046741E+00
         21   -1    0    0  502  501  0.00000000000E+00  0.00000000000E+00  0.16026514232E+04  0.16026514232E+04  0.00000000000E+00 0.  1.
         21   -1    0    0  501  502 -0.00000000000E+00 -0.00000000000E+00 -0.95667237043E+02  0.95667237043E+02  0.00000000000E+00 0.  1.
         25    1    1    2    0    0 -0.52977007464E+02  0.79977881975E+02  0.46474114170E+03  0.49072635318E+03  0.12500000000E+03 0.  0.
         25    1    1    2    0    0  0.10405743132E+03 -0.17542510548E+03  0.11447125286E+03  0.26519914098E+03  0.12500000000E+03 0.  0.
         25    1    1    2    0    0 -0.51080423860E+02  0.95447223504E+02  0.92777179163E+03  0.94239316610E+03  0.12500000000E+03 0.  0.
</event>
<event>
 5    0  0.5612316E-005  0.2743580E+03  0.7546771E-02  0.1098811E+00
         21   -1    0    0  502  501  0.00000000000E+00  0.00000000000E+00  0.12551917997E+03  0.12551917997E+03  0.00000000000E+00 0.  1.
         21   -1    0    0  501  502 -0.00000000000E+00 -0.00000000000E+00 -0.59968786219E+03  0.59968786219E+03  0.00000000000E+00 0.  1.
         25    1    1    2    0    0 -0.93349785949E+02  0.30004417085E+02 -0.75174431688E+02  0.17575734056E+03  0.12500000000E+03 0.  0.
         25    1    1    2    0    0 -0.21603583621E+02  0.79350234128E+02 -0.27321572620E+03  0.31150442617E+03  0.12500000000E+03 0.  0.
         25    1    1    2    0    0  0.11495336957E+03 -0.10935465121E+03 -0.12577852433E+03  0.23794527543E+03  0.12500000000E+03 0.  0.
</event>
<event>
 5    0  0.5612316E-005  0.3959921E+03  0.7546771E-02  0.1045176E+00
         21   -1    0    0  502  501  0.00000000000E+00  0.00000000000E+00  0.83485134320E+03  0.83485134320E+03  0.00000000000E+00 0. -1.
         21   -1    0    0  501  502 -0.00000000000E+00 -0.00000000000E+00 -0.18782955558E+03  0.18782955558E+03  0.00000000000E+00 0. -1.
         25    1    1    2    0    0 -0.45515124205E+02 -0.50376555514E+02 -0.90247632351E+01  0.14253375119E+03  0.12500000000E+03 0.  0.
         25    1    1    2    0    0  0.28166308402E+03 -0.22617324268E+02  0.32333811393E+03  0.44723391215E+03  0.12500000000E+03 0.  0.
         25    1    1    2    0    0 -0.23614795982E+03  0.72993879782E+02  0.33270843692E+03  0.43291323543E+03  0.12500000000E+03 0.  0.
</event>
<event>
 5    0  0.5612316E-005  0.2508285E+03  0.7546771E-02  0.1112782E+00
         21   -1    0    0  502  501  0.00000000000E+00  0.00000000000E+00  0.14778311977E+03  0.14778311977E+03  0.00000000000E+00 0. -1.
         21   -1    0    0  501  502 -0.00000000000E+00 -0.00000000000E+00 -0.42572478540E+03  0.42572478540E+03  0.00000000000E+00 0. -1.
         25    1    1    2    0    0  0.87435771382E+02  0.39021264534E+02 -0.13611520407E+03  0.20813462466E+03  0.12500000000E+03 0.  0.
         25    1    1    2    0    0 -0.12301438087E+03 -0.11305584366E+02 -0.67260006042E+01  0.17587095617E+03  0.12500000000E+03 0.  0.
         25    1    1    2    0    0  0.35578609491E+02 -0.27715680168E+02 -0.13510046095E+03  0.18950232434E+03  0.12500000000E+03 0.  0.
</event>
<event>
 5    0  0.5612316E-005  0.2590534E+03  0.7546771E-02  0.1107713E+00
         21   -1    0    0  502  501  0.00000000000E+00  0.00000000000E+00  0.10126427301E+03  0.10126427301E+03  0.00000000000E+00 0.  1.
         21   -1    0    0  501  502 -0.00000000000E+00 -0.00000000000E+00 -0.66270844491E+03  0.66270844491E+03  0.00000000000E+00 0.  1.
         25    1    1    2    0    0 -0.31529731299E+02 -0.12222317861E+03 -0.15513025297E+03  0.23584534070E+03  0.12500000000E+03 0.  0.
         25    1    1    2    0    0  0.63301536537E+02  0.79053454037E+01 -0.86563439384E+02  0.16488725861E+03  0.12500000000E+03 0.  0.
         25    1    1    2    0    0 -0.31771805237E+02  0.11431783320E+03 -0.31975047955E+03  0.36324011861E+03  0.12500000000E+03 0.  0.
</event>
<event>
 5    0  0.5612316E-005  0.3365206E+03  0.7546771E-02  0.1068288E+00
         21   -1    0    0  502  501  0.00000000000E+00  0.00000000000E+00  0.99055229426E+03  0.99055229426E+03  0.00000000000E+00 0.  1.
         21   -1    0    0  501  502 -0.00000000000E+00 -0.00000000000E+00 -0.11432622399E+03  0.11432622399E+03  0.00000000000E+00 0.  1.
         25    1    1    2    0    0 -0.95478135085E+01 -0.21012437649E+03  0.49428207342E+03  0.55152804320E+03  0.12500000000E+03 0.  0.
         25    1    1    2    0    0 -0.62341642336E+02  0.21036310445E+03  0.20612867393E+03  0.32596494643E+03  0.12500000000E+03 0.  0.
         25    1    1    2    0    0  0.71889455844E+02 -0.23872795293E+00  0.17581532292E+03  0.22738552862E+03  0.12500000000E+03 0.  0.
</event>
<event>
 5    0  0.5612316E-005  0.2934990E+03  0.7546771E-02  0.1088536E+00
         21   -1    0    0  502  501  0.00000000000E+00  0.00000000000E+00  0.10317334368E+03  0.10317334368E+03  0.00000000000E+00 0. -1.
         21   -1    0    0  501  502 -0.00000000000E+00 -0.00000000000E+00 -0.83492186223E+03  0.83492186223E+03  0.00000000000E+00 0. -1.
         25    1    1    2    0    0 -0.99706416606E+01  0.11782527662E+02 -0.12157463410E+01  0.12595522892E+03  0.12500000000E+03 0.  0.
         25    1    1    2    0    0 -0.41475723799E+02  0.96506107169E+02 -0.48438920596E+03  0.51116686828E+03  0.12500000000E+03 0.  0.
         25    1    1    2    0    0  0.51446365459E+02 -0.10828863483E+03 -0.24614356626E+03  0.30097310870E+03  0.12500000000E+03 0.  0.
</event>
<event>
 5    0  0.5612316E-005  0.2537143E+03  0.7546771E-02  0.1110980E+00
         21   -1    0    0  502  501  0.00000000000E+00  0.00000000000E+00  0.59607432837E+02  0.59607432837E+02  0.00000000000E+00 0.  1.
         21   -1    0    0  501  502 -0.00000000000E+00 -0.00000000000E+00 -0.10799143427E+04  0.10799143427E+04  0.00000000000E+00 0.  1.
         25    1    1    2    0    0  0.64167787821E+02  0.69765453077E+02 -0.21193483176E+03  0.26367801643E+03  0.12500000000E+03 0.  0.
         25    1    1    2    0    0 -0.10030593445E+03 -0.69285972466E+02 -0.26677354504E+03  0.31883373535E+03  0.12500000000E+03 0.  0.
         25    1    1    2    0    0  0.36138146625E+02 -0.47948061124E+00 -0.54159853307E+03  0.55701002376E+03  0.12500000000E+03 0.  0.
</event>
<event>
 5    0  0.5612316E-005  0.4057996E+03  0.7546771E-02  0.1041790E+00
         21   -1    0    0  502  501  0.00000000000E+00  0.00000000000E+00  0.10594587634E+04  0.10594587634E+04  0.00000000000E+00 0.  1.
         21   -1    0    0  501  502 -0.00000000000E+00 -0.00000000000E+00 -0.15543155956E+03  0.15543155956E+03  0.00000000000E+00 0.  1.
         25    1    1    2    0    0 -0.12012256534E+03  0.17150421403E+03  0.17100116301E+03  0.29784144084E+03  0.12500000000E+03 0.  0.
         25    1    1    2    0    0  0.25311370019E+03  0.17006473086E+01  0.49953656813E+03  0.57378673767E+03  0.12500000000E+03 0.  0.
         25    1    1    2    0    0 -0.13299113485E+03 -0.17320486134E+03  0.23348947271E+03  0.34326214444E+03  0.12500000000E+03 0.  0.
</event>
<event>
 5    0  0.5612316E-005  0.2474053E+03  0.7546771E-02  0.1114956E+00
         21   -1    0    0  502  501  0.00000000000E+00  0.00000000000E+00  0.35481762104E+03  0.35481762104E+03  0.00000000000E+00 0.  1.
         21   -1    0    0  501  502 -0.00000000000E+00 -0.00000000000E+00 -0.17250946662E+03  0.17250946662E+03  0.00000000000E+00 0.  1.
         25    1    1    2    0    0 -0.75652322495E+02 -0.54215111730E+02  0.12781529543E+03  0.20155471213E+03  0.12500000000E+03 0.  0.
         25    1    1    2    0    0  0.35060958378E+02 -0.63175885726E+02  0.34315082104E+02  0.14840144271E+03  0.12500000000E+03 0.  0.
         25    1    1    2    0    0  0.40591364117E+02  0.11739099746E+03  0.20177776888E+02  0.17737093281E+03  0.12500000000E+03 0.  0.
</event>
<event>
 5    0  0.5612316E-005  0.3028297E+03  0.7546771E-02  0.1083835E+00
         21   -1    0    0  502  501  0.00000000000E+00  0.00000000000E+00  0.11159887881E+04  0.11159887881E+04  0.00000000000E+00 0. -1.
         21   -1    0    0  501  502 -0.00000000000E+00 -0.00000000000E+00 -0.82174488343E+02  0.82174488343E+02  0.00000000000E+00 0. -1.
         25    1    1    2    0    0 -0.18482485864E+03 -0.37455479701E+02  0.45783084539E+03  0.51068309578E+03  0.12500000000E+03 0.  0.
         25    1    1    2    0    0  0.20671236693E+03  0.98921103366E+01  0.32706797377E+03  0.40672634037E+03  0.12500000000E+03 0.  0.
         25    1    1    2    0    0 -0.21887508296E+02  0.27563369365E+02  0.24891548057E+03  0.28075384025E+03  0.12500000000E+03 0.  0.
</event>
<event>
 5    0  0.5612316E-005  0.4260341E+03  0.7546771E-02  0.1035120E+00
         21   -1    0    0  502  501  0.00000000000E+00  0.00000000000E+00  0.75069858528E+03  0.75069858528E+03  0.00000000000E+00 0.  1.
         21   -1    0    0  501  502 -0.00000000000E+00 -0.00000000000E+00 -0.24178152180E+03  0.24178152180E+03  0.00000000000E+00 0.  1.
         25    1    1    2    0    0 -0.58434560618E+01  0.10716547827E+03  0.43909231446E+03  0.46898363120E+03  0.12500000000E+03 0.  0.
         25    1    1    2    0    0  0.19084850864E+03  0.17224107857E+02 -0.60425037898E+02  0.23663475726E+03  0.12500000000E+03 0.  0.
         25    1    1    2    0    0 -0.18500505257E+03 -0.12438958613E+03  0.13024978691E+03  0.28686171861E+03  0.12500000000E+03 0.  0.
</event>
<event>
 5    0  0.5612316E-005  0.2534004E+03  0.7546771E-02  0.1111174E+00
         21   -1    0    0  502  501  0.00000000000E+00  0.00000000000E+00  0.83373418849E+02  0.83373418849E+02  0.00000000000E+00 0. -1.
         21   -1    0    0  501  502 -0.00000000000E+00 -0.00000000000E+00 -0.77017097998E+03  0.77017097998E+03  0.00000000000E+00 0. -1.
         25    1    1    2    0    0  0.76281623015E+02 -0.58257627190E+02 -0.48932019465E+03  0.51407401221E+03  0.12500000000E+03 0.  0.
         25    1    1    2    0    0 -0.32352422240E+02  0.53989575792E+02 -0.74014625381E+02  0.15831840793E+03  0.12500000000E+03 0.  0.
         25    1    1    2    0    0 -0.43929200775E+02  0.42680513984E+01 -0.12346274110E+03  0.18115197869E+03  0.12500000000E+03 0.  0.
</event>
<event>
 5    0  0.6540015E-005  0.6774160E+03  0.7546771E-02  0.9756653E-01
         21   -1    0    0  502  501  0.00000000000E+00  0.00000000000E+00  0.30060950809E+03  0.30060950809E+03  0.00000000000E+00 0. -1.
         21   -1    0    0  501  502 -0.00000000000E+00 -0.00000000000E+00 -0.15265400973E+04  0.15265400973E+04  0.00000000000E+00 0. -1.
         25    1    1    2    0    0 -0.21980531987E+03 -0.83619336477E+02  0.84549383918E+02  0.27942829205E+03  0.12500000000E+03 0.  0.
         25    1    1    2    0    0  0.10977491984E+02 -0.25256624997E+03 -0.97223040436E+03  0.10123078460E+04  0.12500000000E+03 0.  0.
         25    1    1    2    0    0  0.20882782789E+03  0.33618558645E+03 -0.33824956880E+03  0.53541346736E+03  0.12500000000E+03 0.  0.
</event>
<event>
 5    0  0.5612316E-005  0.3405807E+03  0.7546771E-02  0.1066549E+00
         21   -1    0    0  502  501  0.00000000000E+00  0.00000000000E+00  0.12313982191E+03  0.12313982191E+03  0.00000000000E+00 0.  1.
         21   -1    0    0  501  502 -0.00000000000E+00 -0.00000000000E+00 -0.94197953183E+03  0.94197953183E+03  0.00000000000E+00 0.  1.
         25    1    1    2    0    0  0.15045203101E+02  0.17402028674E+03 -0.29301833693E+03  0.36331001103E+03  0.12500000000E+03 0.  0.
         25    1    1    2    0    0  0.86928780758E+02 -0.24507374494E+03 -0.32337077493E+03  0.43337213969E+03  0.12500000000E+03 0.  0.
         25    1    1    2    0    0 -0.10197398386E+03  0.71053458199E+02 -0.20245059806E+03  0.26843720301E+03  0.12500000000E+03 0.  0.
</event>
<event>
 5    0  0.5612316E-005  0.2683241E+03  0.7546771E-02  0.1102243E+00
         21   -1    0    0  502  501  0.00000000000E+00  0.00000000000E+00  0.64834733690E+02  0.64834733690E+02  0.00000000000E+00 0. -1.
         21   -1    0    0  501  502 -0.00000000000E+00 -0.00000000000E+00 -0.11104825221E+04  0.11104825221E+04  0.00000000000E+00 0. -1.
         25    1    1    2    0    0  0.11265961874E+03 -0.21028811569E+02 -0.21534472982E+03  0.27410354480E+03  0.12500000000E+03 0.  0.
         25    1    1    2    0    0 -0.15126898236E+03 -0.48515942345E+02 -0.46844262776E+03  0.51019564599E+03  0.12500000000E+03 0.  0.
         25    1    1    2    0    0  0.38609363623E+02  0.69544753914E+02 -0.36186043088E+03  0.39101806505E+03  0.12500000000E+03 0.  0.
</event>
<event>
 5    0  0.5612316E-005  0.3179400E+03  0.7546771E-02  0.1076601E+00
         21   -1    0    0  502  501  0.00000000000E+00  0.00000000000E+00  0.75028255073E+02  0.75028255073E+02  0.00000000000E+00 0.  1.
         21   -1    0    0  501  502 -0.00000000000E+00 -0.00000000000E+00 -0.13473040513E+04  0.13473040513E+04  0.00000000000E+00 0.  1.
         25    1    1    2    0    0 -0.46550215308E+02 -0.35807853600E+02 -0.23851834559E+03  0.27561771733E+03  0.12500000000E+03 0.  0.
         25    1    1    2    0    0 -0.12749404800E+03  0.12405097376E+02 -0.83347262486E+03  0.85247301137E+03  0.12500000000E+03 0.  0.
         25    1    1    2    0    0  0.17404426330E+03  0.23402756224E+02 -0.20028482573E+03  0.29424157763E+03  0.12500000000E+03 0.  0.
</event>
<event>
 5    0  0.5612316E-005  0.3825488E+03  0.7546771E-02  0.1049996E+00
         21   -1    0    0  502  501  0.00000000000E+00  0.00000000000E+00  0.35545364989E+03  0.35545364989E+03  0.00000000000E+00 0.  1.
         21   -1    0    0  501  502 -0.00000000000E+00 -0.00000000000E+00 -0.41170936455E+03  0.41170936455E+03  0.00000000000E+00 0.  1.
         25    1    1    2    0    0  0.67366589577E+02  0.14448318670E+02  0.22022373660E+03  0.26243190634E+03  0.12500000000E+03 0.  0.
         25    1    1    2    0    0  0.10684294756E+03 -0.87181100341E+02 -0.71723455907E+02  0.19946231180E+03  0.12500000000E+03 0.  0.
         25    1    1    2    0    0 -0.17420953714E+03  0.72732781671E+02 -0.20475599536E+03  0.30526879630E+03  0.12500000000E+03 0.  0.
</event>
<event>
 5    0  0.5612316E-005  0.3333303E+03  0.7546771E-02  0.1069673E+00
         21   -1    0    0  502  501  0.00000000000E+00  0.00000000000E+00  0.81510294440E+03  0.81510294440E+03  0.00000000000E+00 0. -1.
         21   -1    0    0  501  502 -0.00000000000E+00 -0.00000000000E+00 -0.13631296926E+03  0.13631296926E+03  0.00000000000E+00 0. -1.
         25    1    1    2    0    0  0.87993212240E+01 -0.17242242096E+03  0.77497290724E+02  0.22679891837E+03  0.12500000000E+03 0.  0.
         25    1    1    2    0    0 -0.35154125316E+02 -0.53090898399E+02  0.15954109331E+03  0.21244485514E+03  0.12500000000E+03 0.  0.
         25    1    1    2    0    0  0.26354804092E+02  0.22551331935E+03  0.44175159111E+03  0.51217214016E+03  0.12500000000E+03 0.  0.
</event>
<event>
 5    0  0.5612316E-005  0.4852584E+03  0.7546771E-02  0.1017700E+00
         21   -1    0    0  502  501  0.00000000000E+00  0.00000000000E+00  0.50189361464E+03  0.50189361464E+03  0.00000000000E+00 0.  1.
         21   -1    0    0  501  502 -0.00000000000E+00 -0.00000000000E+00 -0.46917454512E+03  0.46917454512E+03  0.00000000000E+00 0.  1.
         25    1    1    2    0    0 -0.19992698938E+03 -0.32620171127E+03 -0.13631217012E+03  0.42495219171E+03  0.12500000000E+03 0.  0.
         25    1    1    2    0    0  0.99591939788E+02  0.29251890497E+03  0.18555004433E+03  0.38149663588E+03  0.12500000000E+03 0.  0.
         25    1    1    2    0    0  0.10033504959E+03  0.33682806301E+02 -0.16518804684E+02  0.16461933217E+03  0.12500000000E+03 0.  0.
</event>
<event>
 5    0  0.5612316E-005  0.4130086E+03  0.7546771E-02  0.1039366E+00
         21   -1    0    0  502  501  0.00000000000E+00  0.00000000000E+00  0.24046127949E+03  0.24046127949E+03  0.00000000000E+00 0. -1.
         21   -1    0    0  501  502 -0.00000000000E+00 -0.00000000000E+00 -0.70937023563E+03  0.70937023563E+03  0.00000000000E+00 0. -1.
         25    1    1    2    0    0 -0.16896714423E+03  0.44202921751E+02 -0.83341656559E+02  0.23037930862E+03  0.12500000000E+03 0.  0.
         25    1    1    2    0    0  0.18005307442E+03  0.21139060903E+03 -0.11162184927E+03  0.32432936412E+03  0.12500000000E+03 0.  0.
         25    1    1    2    0    0 -0.11085930189E+02 -0.25559353079E+03 -0.27394545030E+03  0.39512284238E+03  0.12500000000E+03 0.  0.
</event>
<event>
 5    0  0.5612316E-005  0.3313088E+03  0.7546771E-02  0.1070559E+00
         21   -1    0    0  502  501  0.00000000000E+00  0.00000000000E+00  0.45782734139E+02  0.45782734139E+02  0.00000000000E+00 0.  1.
         21   -1    0    0  501  502 -0.00000000000E+00 -0.00000000000E+00 -0.23975307806E+04  0.23975307806E+04  0.00000000000E+00 0.  1.
         25    1    1    2    0    0 -0.21779319450E+02  0.14989077502E+03 -0.37317480775E+03  0.42169422611E+03  0.12500000000E+03 0.  0.
         25    1    1    2    0    0  0.74279085339E+02 -0.90505500280E+02 -0.38732965572E+03  0.42350665909E+03  0.12500000000E+03 0.  0.
         25    1    1    2    0    0 -0.52499765890E+02 -0.59385274740E+02 -0.15912435830E+04  0.15981126296E+04  0.12500000000E+03 0.  0.
</event>
<event>
 5    0  0.5809528E-005  0.2920327E+03  0.7546771E-02  0.1089293E+00
         21   -1    0    0  502  501  0.00000000000E+00  0.00000000000E+00  0.11718218121E+04  0.11718218121E+04  0.00000000000E+00 0. -1.
         21   -1    0    0  501  502 -0.00000000000E+00 -0.00000000000E+00 -0.72778203929E+02  0.72778203929E+02  0.00000000000E+00 0. -1.
         25    1    1    2    0    0  0.14769088754E+03 -0.56474412042E+02  0.16982920016E+03  0.26356956331E+03  0.12500000000E+03 0.  0.
         25    1    1    2    0    0 -0.67354898640E+02  0.73237159060E+02  0.38973754571E+03  0.42121338817E+03  0.12500000000E+03 0.  0.
         25    1    1    2    0    0 -0.80335988897E+02 -0.16762747017E+02  0.53947686229E+03  0.55981706454E+03  0.12500000000E+03 0.  0.
</event>
<event>
 5    0  0.5612316E-005  0.3128789E+03  0.7546771E-02  0.1078974E+00
         21   -1    0    0  502  501  0.00000000000E+00  0.00000000000E+00  0.19760936527E+03  0.19760936527E+03  0.00000000000E+00 0.  1.
         21   -1    0    0  501  502 -0.00000000000E+00 -0.00000000000E+00 -0.49538759106E+03  0.49538759106E+03  0.00000000000E+00 0.  1.
         25    1    1    2    0    0  0.64650353014E+02 -0.12160467122E+03 -0.10539822869E+02  0.18628862572E+03  0.12500000000E+03 0.  0.
         25    1    1    2    0    0 -0.40401212474E-01 -0.75030820617E+02 -0.21395279060E+02  0.14735122545E+03  0.12500000000E+03 0.  0.
         25    1    1    2    0    0 -0.64609951802E+02  0.19663549183E+03 -0.26584312387E+03  0.35935710516E+03  0.12500000000E+03 0.  0.
</event>
<event>
 5    0  0.5612316E-005  0.2497837E+03  0.7546771E-02  0.1113442E+00
         21   -1    0    0  502  501  0.00000000000E+00  0.00000000000E+00  0.13832081115E+03  0.13832081115E+03  0.00000000000E+00 0. -1.
         21   -1    0    0  501  502 -0.00000000000E+00 -0.00000000000E+00 -0.45106660860E+03  0.45106660860E+03  0.00000000000E+00 0. -1.
         25    1    1    2    0    0 -0.14106623405E+02  0.76913797558E+02 -0.14755127327E+03  0.20859316221E+03  0.12500000000E+03 0.  0.
         25    1    1    2    0    0  0.10167147599E+03  0.10324112003E+01 -0.12713488948E+03  0.20524725339E+03  0.12500000000E+03 0.  0.
         25    1    1    2    0    0 -0.87564852589E+02 -0.77946208759E+02 -0.38059634711E+02  0.17554700414E+03  0.12500000000E+03 0.  0.
</event>
<event>
 5    0  0.5612316E-005  0.2046870E+03  0.7546771E-02  0.1145844E+00
         21   -1    0    0  502  501  0.00000000000E+00  0.00000000000E+00  0.14777194433E+03  0.14777194433E+03  0.00000000000E+00 0. -1.
         21   -1    0    0  501  502 -0.00000000000E+00 -0.00000000000E+00 -0.28352322385E+03  0.28352322385E+03  0.00000000000E+00 0. -1.
         25    1    1    2    0    0 -0.46179251355E+02  0.19873984986E+02 -0.51111295772E+02  0.14410018421E+03  0.12500000000E+03 0.  0.
         25    1    1    2    0    0 -0.13256596790E+02 -0.16479980522E+02 -0.77435540111E+02  0.14855500661E+03  0.12500000000E+03 0.  0.
         25    1    1    2    0    0  0.59435848145E+02 -0.33940044639E+01 -0.72044436365E+01  0.13863997735E+03  0.12500000000E+03 0.  0.
</event>
<event>
 5    0  0.5612316E-005  0.4808949E+03  0.7546771E-02  0.1018890E+00
         21   -1    0    0  502  501  0.00000000000E+00  0.00000000000E+00  0.13426191582E+03  0.13426191582E+03  0.00000000000E+00 0. -1.
         21   -1    0    0  501  502 -0.00000000000E+00 -0.00000000000E+00 -0.17224538218E+04  0.17224538218E+04  0.00000000000E+00 0. -1.
         25    1    1    2    0    0  0.67737597365E+02  0.11118247480E+03 -0.14780220535E+04  0.14890010461E+04  0.12500000000E+03 0.  0.
         25    1    1    2    0    0  0.59275328057E+02 -0.25423934411E+02  0.13626576875E+01  0.14066555297E+03  0.12500000000E+03 0.  0.
         25    1    1    2    0    0 -0.12701292542E+03 -0.85758540384E+02 -0.11153251017E+03  0.22704913851E+03  0.12500000000E+03 0.  0.
</event>
<event>
 5    0  0.5612316E-005  0.4983402E+03  0.7546771E-02  0.1014213E+00
         21   -1    0    0  502  501  0.00000000000E+00  0.00000000000E+00  0.20145793814E+03  0.20145793814E+03  0.00000000000E+00 0. -1.
         21   -1    0    0  501  502 -0.00000000000E+00 -0.00000000000E+00 -0.12327285758E+04  0.12327285758E+04  0.00000000000E+00 0. -1.
         25    1    1    2    0    0  0.29461318740E+00  0.70027949687E+02  0.12325739695E+03  0.18900102232E+03  0.12500000000E+03 0.  0.
         25    1    1    2    0    0 -0.89646128956E+02  0.13858856940E+03 -0.53449409374E+03  0.57319469314E+03  0.12500000000E+03 0.  0.
         25    1    1    2    0    0  0.89351515769E+02 -0.20861651909E+03 -0.62003394086E+03  0.67199079847E+03  0.12500000000E+03 0.  0.
</event>
<event>
 5    0  0.5612316E-005  0.3181058E+03  0.7546771E-02  0.1076524E+00
         21   -1    0    0  502  501  0.00000000000E+00  0.00000000000E+00  0.50481376415E+03  0.50481376415E+03  0.00000000000E+00 0. -1.
         21   -1    0    0  501  502 -0.00000000000E+00 -0.00000000000E+00 -0.20045268453E+03  0.20045268453E+03  0.00000000000E+00 0. -1.
         25    1    1    2    0    0  0.13049732078E+03 -0.68520475810E+02  0.14512749602E+03  0.24168491148E+03  0.12500000000E+03 0.  0.
         25    1    1    2    0    0 -0.13714441960E+03  0.19795808636E+02  0.24215772690E+03  0.30572181892E+03  0.12500000000E+03 0.  0.
         25    1    1    2    0    0  0.66470988242E+01  0.48724667174E+02 -0.82924143297E+02  0.15785971828E+03  0.12500000000E+03 0.  0.
</event>
<event>
 5    0  0.5612316E-005  0.3447418E+03  0.7546771E-02  0.1064794E+00
         21   -1    0    0  502  501  0.00000000000E+00  0.00000000000E+00  0.77750019774E+03  0.77750019774E+03  0.00000000000E+00 0.  1.
         21   -1    0    0  501  502 -0.00000000000E+00 -0.00000000000E+00 -0.15285774388E+03  0.15285774388E+03  0.00000000000E+00 0.  1.
         25    1    1    2    0    0 -0.61933037329E+02  0.16762249451E+03  0.32655262741E+03  0.39267622827E+03  0.12500000000E+03 0.  0.
         25    1    1    2    0    0  0.18333052170E+02 -0.21858534472E+03  0.58361564936E+02  0.25912685309E+03  0.12500000000E+03 0.  0.
         25    1    1    2    0    0  0.43599985160E+02  0.50962850210E+02  0.23972826152E+03  0.27855486026E+03  0.12500000000E+03 0.  0.
</event>
<event>
 5    0  0.5612316E-005  0.2586003E+03  0.7546771E-02  0.1107987E+00
         21   -1    0    0  502  501  0.00000000000E+00  0.00000000000E+00  0.26862004748E+03  0.26862004748E+03  0.00000000000E+00 0.  1.
         21   -1    0    0  501  502 -0.00000000000E+00 -0.00000000000E+00 -0.24895437816E+03  0.24895437816E+03  0.00000000000E+00 0.  1.
         25    1    1    2    0    0 -0.80227216825E+02 -0.40433842527E+02 -0.10461810792E+03  0.18612160123E+03  0.12500000000E+03 0.  0.
         25    1    1    2    0    0 -0.21185029396E+02 -0.30289118864E+02  0.66856818618E+02  0.14649597396E+03  0.12500000000E+03 0.  0.
         25    1    1    2    0    0  0.10141224622E+03  0.70722961391E+02  0.57426958618E+02  0.18495685045E+03  0.12500000000E+03 0.  0.
</event>
<event>
 5    0  0.5612316E-005  0.2489026E+03  0.7546771E-02  0.1114000E+00
         21   -1    0    0  502  501  0.00000000000E+00  0.00000000000E+00  0.61918801310E+02  0.61918801310E+02  0.00000000000E+00 0. -1.
         21   -1    0    0  501  502 -0.00000000000E+00 -0.00000000000E+00 -0.10005444356E+04  0.10005444356E+04  0.00000000000E+00 0. -1.
         25    1    1    2    0    0  0.39510080837E+02  0.69710896035E+02 -0.20244874142E+03  0.25106004942E+03  0.12500000000E+03 0.  0.
         25    1    1    2    0    0 -0.70264740630E+02 -0.11371870478E+03 -0.27306216405E+03  0.32872028083E+03  0.12500000000E+03 0.  0.
         25    1    1    2    0    0  0.30754659794E+02  0.44007808744E+02 -0.46311472878E+03  0.48268290662E+03  0.12500000000E+03 0.  0.
</event>
<event>
 5    0  0.5612316E-005  0.2969602E+03  0.7546771E-02  0.1086770E+00
         21   -1    0    0  502  501  0.00000000000E+00  0.00000000000E+00  0.72741460840E+02  0.72741460840E+02  0.00000000000E+00 0.  1.
         21   -1    0    0  501  502 -0.00000000000E+00 -0.00000000000E+00 -0.12123122421E+04  0.12123122421E+04  0.00000000000E+00 0.  1.
         25    1    1    2    0    0 -0.85714560353E+02  0.18488866628E+03 -0.45486431545E+03  0.51386510899E+03  0.12500000000E+03 0.  0.
         25    1    1    2    0    0 -0.33607483462E+02 -0.88967207146E+02 -0.29303028000E+03  0.33247010676E+03  0.12500000000E+03 0.  0.
         25    1    1    2    0    0  0.11932204382E+03 -0.95921459134E+02 -0.39167618579E+03  0.43871848716E+03  0.12500000000E+03 0.  0.
</event>
<event>
 5    0  0.5612316E-005  0.2842861E+03  0.7546771E-02  0.1093371E+00
         21   -1    0    0  502  501  0.00000000000E+00  0.00000000000E+00  0.90823080510E+03  0.90823080510E+03  0.00000000000E+00 0.  1.
         21   -1    0    0  501  502 -0.00000000000E+00 -0.00000000000E+00 -0.88984633345E+02  0.88984633345E+02  0.00000000000E+00 0.  1.
         25    1    1    2    0    0 -0.31093448579E+01 -0.45751243046E+02  0.45474397484E+03  0.47383533734E+03  0.12500000000E+03 0.  0.
         25    1    1    2    0    0  0.62085975625E+01  0.12606278416E+03  0.32375442194E+03  0.36928620061E+03  0.12500000000E+03 0.  0.
         25    1    1    2    0    0 -0.30992527046E+01 -0.80311541111E+02  0.40747774975E+02  0.15409390049E+03  0.12500000000E+03 0.  0.
</event>
<event>
 5    0  0.5612316E-005  0.2395660E+03  0.7546771E-02  0.1120082E+00
         21   -1    0    0  502  501  0.00000000000E+00  0.00000000000E+00  0.17667289045E+04  0.17667289045E+04  0.00000000000E+00 0.  1.
         21   -1    0    0  501  502 -0.00000000000E+00 -0.00000000000E+00 -0.32484806455E+02  0.32484806455E+02  0.00000000000E+00 0.  1.
         25    1    1    2    0    0 -0.48519344331E+02  0.24470347136E+02  0.39528767983E+03  0.41812710327E+03  0.12500000000E+03 0.  0.
         25    1    1    2    0    0  0.87660953242E+02 -0.10445849354E+03  0.74407224764E+03  0.76672324166E+03  0.12500000000E+03 0.  0.
         25    1    1    2    0    0 -0.39141608911E+02  0.79988146405E+02  0.59488417063E+03  0.61436336607E+03  0.12500000000E+03 0.  0.
</event>
<event>
 5    0  0.5612316E-005  0.3416956E+03  0.7546771E-02  0.1066076E+00
         21   -1    0    0  502  501  0.00000000000E+00  0.00000000000E+00  0.14749846760E+04  0.14749846760E+04  0.00000000000E+00 0.  1.
         21   -1    0    0  501  502 -0.00000000000E+00 -0.00000000000E+00 -0.79157362766E+02  0.79157362766E+02  0.00000000000E+00 0.  1.
         25    1    1    2    0    0  0.29545749101E+02 -0.44213406221E+02  0.16365267561E+03  0.21268515419E+03  0.12500000000E+03 0.  0.
         25    1    1    2    0    0 -0.11015427720E+03  0.15067003482E+03  0.10811974571E+04  0.11042863603E+04  0.12500000000E+03 0.  0.
         25    1    1    2    0    0  0.80608528099E+02 -0.10645662860E+03  0.15097718053E+03  0.23717052434E+03  0.12500000000E+03 0.  0.
</event>
<event>
 5    0  0.5612316E-005  0.2419220E+03  0.7546771E-02  0.1118519E+00
         21   -1    0    0  502  501  0.00000000000E+00  0.00000000000E+00  0.19319457043E+03  0.19319457043E+03  0.00000000000E+00 0. -1.
         21   -1    0    0  501  502 -0.00000000000E+00 -0.00000000000E+00 -0.30293953895E+03  0.30293953895E+03  0.00000000000E+00 0. -1.
         25    1    1    2    0    0  0.26009407252E+02  0.40504896691E+02  0.24324730813E+02  0.13613900415E+03  0.12500000000E+03 0.  0.
         25    1    1    2    0    0  0.65165938057E+02  0.46507008974E+02 -0.10071081962E+03  0.17937996141E+03  0.12500000000E+03 0.  0.
         25    1    1    2    0    0 -0.91175345309E+02 -0.87011905665E+02 -0.33358879706E+02  0.18061514381E+03  0.12500000000E+03 0.  0.
</event>
<event>
 5    0  0.5612316E-005  0.5245557E+03  0.7546771E-02  0.1007561E+00
         21   -1    0    0  502  501  0.00000000000E+00  0.00000000000E+00  0.11355717551E+04  0.11355717551E+04  0.00000000000E+00 0.  1.
         21   -1    0    0  501  502 -0.00000000000E+00 -0.00000000000E+00 -0.24230851135E+03  0.24230851135E+03  0.00000000000E+00 0.  1.
         25    1    1    2    0    0 -0.40245849244E+03  0.24479121518E+03  0.29545428853E+03  0.56992439303E+03  0.12500000000E+03 0.  0.
         25    1    1    2    0    0  0.25305764830E+03 -0.95118187807E+02  0.32398085811E+03  0.44008435491E+03  0.12500000000E+03 0.  0.
         25    1    1    2    0    0  0.14940084414E+03 -0.14967302738E+03  0.27382809707E+03  0.36787151847E+03  0.12500000000E+03 0.  0.
</event>
<event>
 5    0  0.5612316E-005  0.2720393E+03  0.7546771E-02  0.1100118E+00
         21   -1    0    0  502  501  0.00000000000E+00  0.00000000000E+00  0.89423747489E+02  0.89423747489E+02  0.00000000000E+00 0. -1.
         21   -1    0    0  501  502 -0.00000000000E+00 -0.00000000000E+00 -0.82758063961E+03  0.82758063961E+03  0.00000000000E+00 0. -1.
         25    1    1    2    0    0  0.96068073978E+02 -0.87766834922E+02 -0.17127634400E+03  0.24878239118E+03  0.12500000000E+03 0.  0.
         25    1    1    2    0    0 -0.61685421563E+01  0.14089519647E+03 -0.34299759071E+03  0.39135898422E+03  0.12500000000E+03 0.  0.
         25    1    1    2    0    0 -0.89899531822E+02 -0.53128361547E+02 -0.22388295741E+03  0.27686301169E+03  0.12500000000E+03 0.  0.
</event>
<event>
 5    0  0.5612316E-005  0.4033253E+03  0.7546771E-02  0.1042634E+00
         21   -1    0    0  502  501  0.00000000000E+00  0.00000000000E+00  0.79325860654E+02  0.79325860654E+02  0.00000000000E+00 0.  1.
         21   -1    0    0  501  502 -0.00000000000E+00 -0.00000000000E+00 -0.20506712586E+04  0.20506712586E+04  0.00000000000E+00 0.  1.
         25    1    1    2    0    0 -0.81086155512E+02  0.15361477020E+03 -0.11095930628E+04  0.11300416928E+04  0.12500000000E+03 0.  0.
         25    1    1    2    0    0  0.12681153364E+03 -0.26961203904E+03 -0.63595791753E+03  0.71332972006E+03  0.12500000000E+03 0.  0.
         25    1    1    2    0    0 -0.45725378126E+02  0.11599726884E+03 -0.22579441756E+03  0.28662570643E+03  0.12500000000E+03 0.  0.
</event>
<event>
 5    0  0.5612316E-005  0.3999998E+03  0.7546771E-02  0.1043780E+00
         21   -1    0    0  502  501  0.00000000000E+00  0.00000000000E+00  0.13499916806E+04  0.13499916806E+04  0.00000000000E+00 0.  1.
         21   -1    0    0  501  502 -0.00000000000E+00 -0.00000000000E+00 -0.11851914264E+03  0.11851914264E+03  0.00000000000E+00 0.  1.
         25    1    1    2    0    0 -0.93943041258E+01 -0.98008386491E+02  0.44340521159E+02  0.16518165331E+03  0.12500000000E+03 0.  0.
         25    1    1    2    0    0 -0.14841586112E+03 -0.10228052812E+03  0.75516519374E+03  0.78637652820E+03  0.12500000000E+03 0.  0.
         25    1    1    2    0    0  0.15781016525E+03  0.20028891462E+03  0.43196682309E+03  0.51695264176E+03  0.12500000000E+03 0.  0.
</event>
<event>
 5    0  0.5612316E-005  0.2988598E+03  0.7546771E-02  0.1085812E+00
         21   -1    0    0  502  501  0.00000000000E+00  0.00000000000E+00  0.16796710404E+03  0.16796710404E+03  0.00000000000E+00 0. -1.
         21   -1    0    0  501  502 -0.00000000000E+00 -0.00000000000E+00 -0.53175395643E+03  0.53175395643E+03  0.00000000000E+00 0. -1.
         25    1    1    2    0    0  0.50298863784E+02 -0.90303046433E+02 -0.35410616593E+03  0.38948785943E+03  0.12500000000E+03 0.  0.
         25    1    1    2    0    0 -0.95155171341E+02  0.77503036182E+02 -0.20524513226E+02  0.17637313541E+03  0.12500000000E+03 0.  0.
         25    1    1    2    0    0  0.44856307557E+02  0.12800010251E+02  0.10843826772E+02  0.13386006562E+03  0.12500000000E+03 0.  0.
</event>
<event>
 5    0  0.5612316E-005  0.2190770E+03  0.7546771E-02  0.1134573E+00
         21   -1    0    0  502  501  0.00000000000E+00  0.00000000000E+00  0.13312026461E+03  0.13312026461E+03  0.00000000000E+00 0. -1.
         21   -1    0    0  501  502 -0.00000000000E+00 -0.00000000000E+00 -0.36053669852E+03  0.36053669852E+03  0.00000000000E+00 0. -1.
         25    1    1    2    0    0 -0.62712861406E+02 -0.43797598744E+01 -0.55488045863E+02  0.15051913007E+03  0.12500000000E+03 0.  0.
         25    1    1    2    0    0 -0.13924205715E+02  0.38481517100E+02 -0.13428032194E+03  0.18796519764E+03  0.12500000000E+03 0.  0.
         25    1    1    2    0    0  0.76637067121E+02 -0.34101757226E+02 -0.37648066118E+02  0.15517263543E+03  0.12500000000E+03 0.  0.
</event>
<event>
 5    0  0.5612316E-005  0.2407974E+03  0.7546771E-02  0.1119263E+00
         21   -1    0    0  502  501  0.00000000000E+00  0.00000000000E+00  0.77920725334E+03  0.77920725334E+03  0.00000000000E+00 0.  1.
         21   -1    0    0  501  502 -0.00000000000E+00 -0.00000000000E+00 -0.74413304127E+02  0.74413304127E+02  0.00000000000E+00 0.  1.
         25    1    1    2    0    0  0.97172791699E+02  0.34904111675E+02  0.21565114249E+03  0.26979856137E+03  0.12500000000E+03 0.  0.
         25    1    1    2    0    0 -0.90217648025E+02  0.55956791790E+02  0.25630343392E+03  0.30428085185E+03  0.12500000000E+03 0.  0.
         25    1    1    2    0    0 -0.69551436742E+01 -0.90860903465E+02  0.23283937280E+03  0.27954114425E+03  0.12500000000E+03 0.  0.
</event>
<event>
 5    0  0.5612316E-005  0.4127370E+03  0.7546771E-02  0.1039456E+00
         21   -1    0    0  502  501  0.00000000000E+00  0.00000000000E+00  0.15168317220E+03  0.15168317220E+03  0.00000000000E+00 0.  1.
         21   -1    0    0  501  502 -0.00000000000E+00 -0.00000000000E+00 -0.11230764280E+04  0.11230764280E+04  0.00000000000E+00 0.  1.
         25    1    1    2    0    0 -0.10697646552E+03 -0.10988749897E+03 -0.17890580591E+03  0.26674241131E+03  0.12500000000E+03 0.  0.
         25    1    1    2    0    0 -0.19386944193E+03 -0.34543557610E+02 -0.16265941415E+03  0.28436192238E+03  0.12500000000E+03 0.  0.
         25    1    1    2    0    0  0.30084590745E+03  0.14443105658E+03 -0.62982803570E+03  0.72365526647E+03  0.12500000000E+03 0.  0.
</event>
<event>
 5    0  0.5612316E-005  0.3331395E+03  0.7546771E-02  0.1069756E+00
         21   -1    0    0  502  501  0.00000000000E+00  0.00000000000E+00  0.90726414309E+02  0.90726414309E+02  0.00000000000E+00 0. -1.
         21   -1    0    0  501  502 -0.00000000000E+00 -0.00000000000E+00 -0.12232593495E+04  0.12232593495E+04  0.00000000000E+00 0. -1.
         25    1    1    2    0    0  0.14647310305E+03  0.97792021468E+02 -0.41594516983E+03  0.46867156270E+03  0.12500000000E+03 0.  0.
         25    1    1    2    0    0  0.92221986721E+02 -0.51694133971E+02 -0.36440617245E+03  0.39949222376E+03  0.12500000000E+03 0.  0.
         25    1    1    2    0    0 -0.23869508977E+03 -0.46097887497E+02 -0.35218159295E+03  0.44582197739E+03  0.12500000000E+03 0.  0.
</event>
<event>
 5    0  0.5612316E-005  0.4238164E+03  0.7546771E-02  0.1035831E+00
         21   -1    0    0  502  501  0.00000000000E+00  0.00000000000E+00  0.34978263460E+03  0.34978263460E+03  0.00000000000E+00 0. -1.
         21   -1    0    0  501  502 -0.00000000000E+00 -0.00000000000E+00 -0.51351990532E+03  0.51351990532E+03  0.00000000000E+00 0. -1.
         25    1    1    2    0    0  0.45281059510E+02 -0.30003155534E+02 -0.52157307538E+02  0.14593131406E+03  0.12500000000E+03 0.  0.
         25    1    1    2    0    0 -0.20229511893E+03 -0.25959326655E+03 -0.95001719072E+02  0.36463996738E+03  0.12500000000E+03 0.  0.
         25    1    1    2    0    0  0.15701405942E+03  0.28959642208E+03 -0.16578244108E+02  0.35273125849E+03  0.12500000000E+03 0.  0.
</event>
<event>
 5    0  0.5612316E-005  0.3335264E+03  0.7546771E-02  0.1069587E+00
         21   -1    0    0  502  501  0.00000000000E+00  0.00000000000E+00  0.70698317794E+02  0.70698317794E+02  0.00000000000E+00 0. -1.
         21   -1    0    0  501  502 -0.00000000000E+00 -0.00000000000E+00 -0.15734445732E+04  0.15734445732E+04  0.00000000000E+00 0. -1.
         25    1    1    2    0    0 -0.15120366341E+03  0.11214640492E+03 -0.85238265584E+03  0.88182796278E+03  0.12500000000E+03 0.  0.
         25    1    1    2    0    0  0.28656281333E+02 -0.20990560614E+02 -0.49316451003E+03  0.50999805886E+03  0.12500000000E+03 0.  0.
         25    1    1    2    0    0  0.12254738208E+03 -0.91155844302E+02 -0.15719908953E+03  0.25231686934E+03  0.12500000000E+03 0.  0.
</event>
<event>
 5    0  0.5612316E-005  0.2215854E+03  0.7546771E-02  0.1132707E+00
         21   -1    0    0  502  501  0.00000000000E+00  0.00000000000E+00  0.12954587496E+04  0.12954587496E+04  0.00000000000E+00 0.  1.
         21   -1    0    0  501  502 -0.00000000000E+00 -0.00000000000E+00 -0.37901685644E+02  0.37901685644E+02  0.00000000000E+00 0.  1.
         25    1    1    2    0    0 -0.12096316485E+02  0.17452028216E+02  0.49437675418E+03  0.51037659550E+03  0.12500000000E+03 0.  0.
         25    1    1    2    0    0  0.28161500641E+02 -0.92768389984E+02  0.45262912577E+03  0.47947593244E+03  0.12500000000E+03 0.  0.
         25    1    1    2    0    0 -0.16065184156E+02  0.75316361767E+02  0.31055118404E+03  0.34350790733E+03  0.12500000000E+03 0.  0.
</event>
<event>
 5    0  0.5612316E-005  0.2409351E+03  0.7546771E-02  0.1119171E+00
         21   -1    0    0  502  501  0.00000000000E+00  0.00000000000E+00  0.17276543640E+03  0.17276543640E+03  0.00000000000E+00 0. -1.
         21   -1    0    0  501  502 -0.00000000000E+00 -0.00000000000E+00 -0.33600300021E+03  0.33600300021E+03  0.00000000000E+00 0. -1.
         25    1    1    2    0    0 -0.18139091186E+02 -0.92730777574E+01 -0.34937956187E+02  0.13137989718E+03  0.12500000000E+03 0.  0.
         25    1    1    2    0    0 -0.75639133071E+02  0.81898698659E+02 -0.88668309626E+01  0.16772684933E+03  0.12500000000E+03 0.  0.
         25    1    1    2    0    0  0.93778224257E+02 -0.72625620902E+02 -0.11943277666E+03  0.20966169011E+03  0.12500000000E+03 0.  0.
</event>
<event>
 5    0  0.5612316E-005  0.3278248E+03  0.7546771E-02  0.1072103E+00
         21   -1    0    0  502  501  0.00000000000E+00  0.00000000000E+00  0.83356977416E+02  0.83356977416E+02  0.00000000000E+00 0. -1.
         21   -1    0    0  501  502 -0.00000000000E+00 -0.00000000000E+00 -0.12892636243E+04  0.12892636243E+04  0.00000000000E+00 0. -1.
         25    1    1    2    0    0  0.17091940450E+02 -0.11040009348E+03 -0.49679816435E+03  0.52432216353E+03  0.12500000000E+03 0.  0.
         25    1    1    2    0    0 -0.28821042404E+02  0.24629358872E+03 -0.37853012720E+03  0.46946910604E+03  0.12500000000E+03 0.  0.
         25    1    1    2    0    0  0.11729101954E+02 -0.13589349524E+03 -0.33057835535E+03  0.37882933217E+03  0.12500000000E+03 0.  0.
</event>
<event>
 5    0  0.5612316E-005  0.3545952E+03  0.7546771E-02  0.1060745E+00
         21   -1    0    0  502  501  0.00000000000E+00  0.00000000000E+00  0.56332211668E+03  0.56332211668E+03  0.00000000000E+00 0. -1.
         21   -1    0    0  501  502 -0.00000000000E+00 -0.00000000000E+00 -0.22320750156E+03  0.22320750156E+03  0.00000000000E+00 0. -1.
         25    1    1    2    0    0  0.62846502140E+02 -0.90180114165E+02  0.24118916330E+03  0.29305178436E+03  0.12500000000E+03 0.  0.
         25    1    1    2    0    0 -0.32616011036E+02 -0.15426210628E+03  0.34690367318E+01  0.20124024405E+03  0.12500000000E+03 0.  0.
         25    1    1    2    0    0 -0.30230491104E+02  0.24444222044E+03  0.95456415081E+02  0.29223758983E+03  0.12500000000E+03 0.  0.
</event>
<event>
 5    0  0.5612316E-005  0.4492534E+03  0.7546771E-02  0.1027945E+00
         21   -1    0    0  502  501  0.00000000000E+00  0.00000000000E+00  0.10501325157E+03  0.10501325157E+03  0.00000000000E+00 0. -1.
         21   -1    0    0  501  502 -0.00000000000E+00 -0.00000000000E+00 -0.19219350323E+04  0.19219350323E+04  0.00000000000E+00 0. -1.
         25    1    1    2    0    0 -0.14297836438E+03 -0.25745979088E+02 -0.20573573240E+03  0.28117229541E+03  0.12500000000E+03 0.  0.
         25    1    1    2    0    0  0.33953261820E+03 -0.13463433320E+03 -0.10142549124E+04  0.10852404479E+04  0.12500000000E+03 0.  0.
         25    1    1    2    0    0 -0.19655425382E+03  0.16038031228E+03 -0.59693113593E+03  0.66053554053E+03  0.12500000000E+03 0.  0.
</event>
<event>
 5    0  0.5612316E-005  0.3700065E+03  0.7546771E-02  0.1054690E+00
         21   -1    0    0  502  501  0.00000000000E+00  0.00000000000E+00  0.10797518108E+04  0.10797518108E+04  0.00000000000E+00 0.  1.
         21   -1    0    0  501  502 -0.00000000000E+00 -0.00000000000E+00 -0.12679285656E+03  0.12679285656E+03  0.00000000000E+00 0.  1.
         25    1    1    2    0    0 -0.17868279433E+03  0.72097498862E+02  0.38489814588E+03  0.44821554305E+03  0.12500000000E+03 0.  0.
         25    1    1    2    0    0  0.93955513302E+02 -0.20156402945E+03  0.47402132333E+03  0.53830930831E+03  0.12500000000E+03 0.  0.
         25    1    1    2    0    0  0.84727281028E+02  0.12946653059E+03  0.94039485065E+02  0.22001981603E+03  0.12500000000E+03 0.  0.
</event>
<event>
 5    0  0.5612316E-005  0.2975493E+03  0.7546771E-02  0.1086472E+00
         21   -1    0    0  502  501  0.00000000000E+00  0.00000000000E+00  0.64116433201E+03  0.64116433201E+03  0.00000000000E+00 0.  1.
         21   -1    0    0  501  502 -0.00000000000E+00 -0.00000000000E+00 -0.13808560797E+03  0.13808560797E+03  0.00000000000E+00 0.  1.
         25    1    1    2    0    0  0.24791580011E+02 -0.16341562986E+03  0.15065894912E+03  0.25620774671E+03  0.12500000000E+03 0.  0.
         25    1    1    2    0    0 -0.52274322579E+02  0.20593275451E+03  0.18582560044E+03  0.30870221567E+03  0.12500000000E+03 0.  0.
         25    1    1    2    0    0  0.27482742568E+02 -0.42517124651E+02  0.16659417448E+03  0.21433997760E+03  0.12500000000E+03 0.  0.
</event>
<event>
 5    0  0.5612316E-005  0.4953867E+03  0.7546771E-02  0.1014990E+00
         21   -1    0    0  502  501  0.00000000000E+00  0.00000000000E+00  0.15922180227E+03  0.15922180227E+03  0.00000000000E+00 0.  1.
         21   -1    0    0  501  502 -0.00000000000E+00 -0.00000000000E+00 -0.15412966450E+04  0.15412966450E+04  0.00000000000E+00 0.  1.
         25    1    1    2    0    0 -0.11283159498E+03 -0.11880714494E+03  0.65720850062E+02  0.21631074094E+03  0.12500000000E+03 0.  0.
         25    1    1    2    0    0  0.89943543508E+02  0.12634119313E+03 -0.91134317115E+03  0.93285760634E+03  0.12500000000E+03 0.  0.
         25    1    1    2    0    0  0.22888051476E+02 -0.75340481980E+01 -0.53645252165E+03  0.55135010000E+03  0.12500000000E+03 0.  0.
</event>
<event>
 5    0  0.5612316E-005  0.3005665E+03  0.7546771E-02  0.1084958E+00
         21   -1    0    0  502  501  0.00000000000E+00  0.00000000000E+00  0.11403910653E+04  0.11403910653E+04  0.00000000000E+00 0.  1.
         21   -1    0    0  501  502 -0.00000000000E+00 -0.00000000000E+00 -0.79218649394E+02  0.79218649394E+02  0.00000000000E+00 0. -1.
         25    1    1    2    0    0 -0.17699864753E+03 -0.69340400268E+02  0.30004710359E+03  0.37654996575E+03  0.12500000000E+03 0.  0.
         25    1    1    2    0    0  0.10106682837E+03  0.12460743794E+03  0.48146657408E+03  0.52266296917E+03  0.12500000000E+03 0.  0.
         25    1    1    2    0    0  0.75931819156E+02 -0.55267037671E+02  0.27965873823E+03  0.32039677977E+03  0.12500000000E+03 0.  0.
</event>
<event>
 5    0  0.5612316E-005  0.5376571E+03  0.7546771E-02  0.1004392E+00
         21   -1    0    0  502  501  0.00000000000E+00  0.00000000000E+00  0.13194334199E+04  0.13194334199E+04  0.00000000000E+00 0.  1.
         21   -1    0    0  501  502 -0.00000000000E+00 -0.00000000000E+00 -0.21909038933E+03  0.21909038933E+03  0.00000000000E+00 0.  1.
         25    1    1    2    0    0 -0.14077667443E+03  0.17997194127E+02  0.52991208166E+03  0.56264890060E+03  0.12500000000E+03 0.  0.
         25    1    1    2    0    0 -0.14788402775E+03  0.16630501042E+03  0.55510163531E+03  0.61097452294E+03  0.12500000000E+03 0.  0.
         25    1    1    2    0    0  0.28866070218E+03 -0.18430220455E+03  0.15329313551E+02  0.36490038564E+03  0.12500000000E+03 0.  0.
</event>
<event>
 5    0  0.5612316E-005  0.3304450E+03  0.7546771E-02  0.1070940E+00
         21   -1    0    0  502  501  0.00000000000E+00  0.00000000000E+00  0.75703484946E+03  0.75703484946E+03  0.00000000000E+00 0. -1.
         21   -1    0    0  501  502 -0.00000000000E+00 -0.00000000000E+00 -0.14423895048E+03  0.14423895048E+03  0.00000000000E+00 0. -1.
         25    1    1    2    0    0 -0.37930868654E+02  0.25067390594E+02  0.54221335545E+03  0.55828975246E+03  0.12500000000E+03 0.  0.
         25    1    1    2    0    0 -0.59910112538E+02  0.62147613565E+01 -0.43045015329E+02  0.14527807194E+03  0.12500000000E+03 0.  0.
         25    1    1    2    0    0  0.97840981193E+02 -0.31282151951E+02  0.11362755886E+03  0.19770597554E+03  0.12500000000E+03 0.  0.
</event>
<event>
 5    0  0.5612316E-005  0.2802737E+03  0.7546771E-02  0.1095540E+00
         21   -1    0    0  502  501  0.00000000000E+00  0.00000000000E+00  0.51748278334E+03  0.51748278334E+03  0.00000000000E+00 0.  1.
         21   -1    0    0  501  502 -0.00000000000E+00 -0.00000000000E+00 -0.15179900788E+03  0.15179900788E+03  0.00000000000E+00 0.  1.
         25    1    1    2    0    0  0.29806617648E+02 -0.32542199975E+02  0.32639589876E+03  0.35228782545E+03  0.12500000000E+03 0.  0.
         25    1    1    2    0    0 -0.44732782526E+02 -0.43252056183E+02 -0.46097483585E+02  0.14704332759E+03  0.12500000000E+03 0.  0.
         25    1    1    2    0    0  0.14926164878E+02  0.75794256158E+02  0.85385360293E+02  0.16995063818E+03  0.12500000000E+03 0.  0.
</event>
<event>
 5    0  0.5823805E-005  0.2766422E+03  0.7546771E-02  0.1097537E+00
         21   -1    0    0  502  501  0.00000000000E+00  0.00000000000E+00  0.20462334983E+03  0.20462334983E+03  0.00000000000E+00 0.  1.
         21   -1    0    0  501  502 -0.00000000000E+00 -0.00000000000E+00 -0.37400876980E+03  0.37400876980E+03  0.00000000000E+00 0.  1.
         25    1    1    2    0    0  0.88180062415E+02 -0.95367353783E+02 -0.16984015649E+03  0.24767182790E+03  0.12500000000E+03 0.  0.
         25    1    1    2    0    0 -0.58394488495E+01  0.13717430535E+02  0.73160974484E+02  0.14560149467E+03  0.12500000000E+03 0.  0.
         25    1    1    2    0    0 -0.82340613566E+02  0.81649923248E+02 -0.72706237960E+02  0.18535879706E+03  0.12500000000E+03 0.  0.
</event>
<event>
 5    0  0.5612316E-005  0.3671934E+03  0.7546771E-02  0.1055771E+00
         21   -1    0    0  502  501  0.00000000000E+00  0.00000000000E+00  0.23153669944E+03  0.23153669944E+03  0.00000000000E+00 0. -1.
         21   -1    0    0  501  502 -0.00000000000E+00 -0.00000000000E+00 -0.58233094310E+03  0.58233094310E+03  0.00000000000E+00 0. -1.
         25    1    1    2    0    0  0.12928278925E+03 -0.82290478750E+02 -0.98663785854E+02  0.22100973989E+03  0.12500000000E+03 0.  0.
         25    1    1    2    0    0  0.56431817528E+02 -0.11968839980E+03  0.24498426043E+02  0.18367099922E+03  0.12500000000E+03 0.  0.
         25    1    1    2    0    0 -0.18571460677E+03  0.20197887855E+03 -0.27662888385E+03  0.40918690342E+03  0.12500000000E+03 0.  0.
</event>
<event>
 5    0  0.5612316E-005  0.4812597E+03  0.7546771E-02  0.1018790E+00
         21   -1    0    0  502  501  0.00000000000E+00  0.00000000000E+00  0.30786445435E+03  0.30786445435E+03  0.00000000000E+00 0.  1.
         21   -1    0    0  501  502 -0.00000000000E+00 -0.00000000000E+00 -0.75231458958E+03  0.75231458958E+03  0.00000000000E+00 0.  1.
         25    1    1    2    0    0 -0.43124997431E+02 -0.33965874802E+03 -0.56062614985E+02  0.36877614797E+03  0.12500000000E+03 0.  0.
         25    1    1    2    0    0 -0.73301265504E+02 -0.36048184563E+02 -0.49295386315E+02  0.15725006279E+03  0.12500000000E+03 0.  0.
         25    1    1    2    0    0  0.11642626293E+03  0.37570693258E+03 -0.33909213393E+03  0.53415283317E+03  0.12500000000E+03 0.  0.
</event>
<event>
 5    0  0.5612316E-005  0.3064994E+03  0.7546771E-02  0.1082036E+00
         21   -1    0    0  502  501  0.00000000000E+00  0.00000000000E+00  0.37909316903E+03  0.37909316903E+03  0.00000000000E+00 0. -1.
         21   -1    0    0  501  502 -0.00000000000E+00 -0.00000000000E+00 -0.24780679409E+03  0.24780679409E+03  0.00000000000E+00 0. -1.
         25    1    1    2    0    0  0.16582595009E+03  0.96872063960E+02  0.32287667310E+02  0.23140859093E+03  0.12500000000E+03 0.  0.
         25    1    1    2    0    0 -0.19801691904E+03 -0.89904299286E+02  0.87729216421E+02  0.26573463957E+03  0.12500000000E+03 0.  0.
         25    1    1    2    0    0  0.32190968953E+02 -0.69677646740E+01  0.11269491205E+02  0.12975673261E+03  0.12500000000E+03 0.  0.
</event>
<event>
 5    0  0.6577938E-005  0.2846806E+03  0.7546771E-02  0.1093160E+00
         21   -1    0    0  502  501  0.00000000000E+00  0.00000000000E+00  0.61257406533E+03  0.61257406533E+03  0.00000000000E+00 0. -1.
         21   -1    0    0  501  502 -0.00000000000E+00 -0.00000000000E+00 -0.13229917416E+03  0.13229917416E+03  0.00000000000E+00 0. -1.
         25    1    1    2    0    0  0.43689938733E+02 -0.32168994333E+02  0.92003681940E+00  0.13626995784E+03  0.12500000000E+03 0.  0.
         25    1    1    2    0    0  0.14603322201E+02  0.95655093324E+02  0.41427516563E+03  0.44340959254E+03  0.12500000000E+03 0.  0.
         25    1    1    2    0    0 -0.58293260935E+02 -0.63486098991E+02  0.65079688722E+02  0.16519368910E+03  0.12500000000E+03 0.  0.
</event>
<event>
 5    0  0.7354217E-005  0.3084180E+03  0.7546771E-02  0.1081107E+00
         21   -1    0    0  502  501  0.00000000000E+00  0.00000000000E+00  0.18399246275E+03  0.18399246275E+03  0.00000000000E+00 0.  1.
         21   -1    0    0  501  502 -0.00000000000E+00 -0.00000000000E+00 -0.51698688544E+03  0.51698688544E+03  0.00000000000E+00 0.  1.
         25    1    1    2    0    0 -0.30850234934E+02  0.19083713271E+03 -0.17556229511E+03  0.28951281091E+03  0.12500000000E+03 0.  0.
         25    1    1    2    0    0  0.15185140412E+02 -0.93217114947E+02  0.36084145234E+02  0.16077028502E+03  0.12500000000E+03 0.  0.
         25    1    1    2    0    0  0.15665094522E+02 -0.97620017761E+02 -0.19351627282E+03  0.25069625226E+03  0.12500000000E+03 0.  0.
</event>
<event>
 5    0  0.5612316E-005  0.5371714E+03  0.7546771E-02  0.1004508E+00
         21   -1    0    0  502  501  0.00000000000E+00  0.00000000000E+00  0.93477879237E+03  0.93477879237E+03  0.00000000000E+00 0.  1.
         21   -1    0    0  501  502 -0.00000000000E+00 -0.00000000000E+00 -0.30868603340E+03  0.30868603340E+03  0.00000000000E+00 0.  1.
         25    1    1    2    0    0  0.20056887826E+03 -0.12906535704E+03  0.26480596294E+03  0.37766776315E+03  0.12500000000E+03 0.  0.
         25    1    1    2    0    0 -0.10848987383E+03 -0.13060885891E+03  0.49271977571E+03  0.53593516784E+03  0.12500000000E+03 0.  0.
         25    1    1    2    0    0 -0.92079004432E+02  0.25967421595E+03 -0.13143297967E+03  0.32986189478E+03  0.12500000000E+03 0.  0.
</event>
<event>
 5    0  0.5612316E-005  0.2950591E+03  0.7546771E-02  0.1087737E+00
         21   -1    0    0  502  501  0.00000000000E+00  0.00000000000E+00  0.88407871863E+03  0.88407871863E+03  0.00000000000E+00 0. -1.
         21   -1    0    0  501  502 -0.00000000000E+00 -0.00000000000E+00 -0.98475239314E+02  0.98475239314E+02  0.00000000000E+00 0. -1.
         25    1    1    2    0    0 -0.77825725391E+00 -0.63773179756E+02  0.53035613984E+03  0.54860756394E+03  0.12500000000E+03 0.  0.
         25    1    1    2    0    0  0.17554798704E+02  0.23230513985E+02 -0.18648950186E+02  0.12969429857E+03  0.12500000000E+03 0.  0.
         25    1    1    2    0    0 -0.16776541450E+02  0.40542665771E+02  0.27389628966E+03  0.30425209544E+03  0.12500000000E+03 0.  0.
</event>
<event>
 5    0  0.5612316E-005  0.3145973E+03  0.7546771E-02  0.1078163E+00
         21   -1    0    0  502  501  0.00000000000E+00  0.00000000000E+00  0.27173331664E+03  0.27173331664E+03  0.00000000000E+00 0. -1.
         21   -1    0    0  501  502 -0.00000000000E+00 -0.00000000000E+00 -0.36422268785E+03  0.36422268785E+03  0.00000000000E+00 0. -1.
         25    1    1    2    0    0  0.24545514421E+02  0.84853296792E+02 -0.21590152154E+03  0.26465266154E+03  0.12500000000E+03 0.  0.
         25    1    1    2    0    0  0.64618428240E+02  0.36377686963E+02  0.94960053687E+02  0.17361246837E+03  0.12500000000E+03 0.  0.
         25    1    1    2    0    0 -0.89163942661E+02 -0.12123098375E+03  0.28452096644E+02  0.19769087459E+03  0.12500000000E+03 0.  0.
</event>
<event>
 5    0  0.5612316E-005  0.3641685E+03  0.7546771E-02  0.1056945E+00
         21   -1    0    0  502  501  0.00000000000E+00  0.00000000000E+00  0.19692178107E+03  0.19692178107E+03  0.00000000000E+00 0.  1.
         21   -1    0    0  501  502 -0.00000000000E+00 -0.00000000000E+00 -0.67345862314E+03  0.67345862314E+03  0.00000000000E+00 0.  1.
         25    1    1    2    0    0  0.15459242910E+03  0.14187605432E+03 -0.84720759979E+02  0.25851545620E+03  0.12500000000E+03 0.  0.
         25    1    1    2    0    0 -0.77082497001E+02 -0.20792795359E+03 -0.90581736402E+02  0.27019584785E+03  0.12500000000E+03 0.  0.
         25    1    1    2    0    0 -0.77509932102E+02  0.66051899272E+02 -0.30123434569E+03  0.34166910014E+03  0.12500000000E+03 0.  0.
</event>
<event>
 5    0  0.5612316E-005  0.2474088E+03  0.7546771E-02  0.1114953E+00
         21   -1    0    0  502  501  0.00000000000E+00  0.00000000000E+00  0.83053489156E+02  0.83053489156E+02  0.00000000000E+00 0. -1.
         21   -1    0    0  501  502 -0.00000000000E+00 -0.00000000000E+00 -0.73700837308E+03  0.73700837308E+03  0.00000000000E+00 0. -1.
         25    1    1    2    0    0 -0.82932058695E+02  0.14526226584E+01 -0.22675629168E+03  0.27188830848E+03  0.12500000000E+03 0.  0.
         25    1    1    2    0    0  0.72510524707E+02 -0.98508293642E+02 -0.28906584159E+03  0.33785458541E+03  0.12500000000E+03 0.  0.
         25    1    1    2    0    0  0.10421533988E+02  0.97055670984E+02 -0.13813275064E+03  0.21031896833E+03  0.12500000000E+03 0.  0.
</event>
<event>
 5    0  0.5612316E-005  0.3314300E+03  0.7546771E-02  0.1070506E+00
         21   -1    0    0  502  501  0.00000000000E+00  0.00000000000E+00  0.18282454121E+03  0.18282454121E+03  0.00000000000E+00 0. -1.
         21   -1    0    0  501  502 -0.00000000000E+00 -0.00000000000E+00 -0.60082676054E+03  0.60082676054E+03  0.00000000000E+00 0. -1.
         25    1    1    2    0    0  0.18653703769E+03  0.10154237461E+03 -0.26118022066E+03  0.35909194914E+03  0.12500000000E+03 0.  0.
         25    1    1    2    0    0 -0.85568162315E+02 -0.16290709979E+03 -0.84277025828E+02  0.23788285068E+03  0.12500000000E+03 0.  0.
         25    1    1    2    0    0 -0.10096887537E+03  0.61364725172E+02 -0.72544972838E+02  0.18667650193E+03  0.12500000000E+03 0.  0.
</event>
<event>
 5    0  0.5612316E-005  0.3280990E+03  0.7546771E-02  0.1071981E+00
         21   -1    0    0  502  501  0.00000000000E+00  0.00000000000E+00  0.24355493380E+03  0.24355493380E+03  0.00000000000E+00 0. -1.
         21   -1    0    0  501  502 -0.00000000000E+00 -0.00000000000E+00 -0.44199043478E+03  0.44199043478E+03  0.00000000000E+00 0. -1.
         25    1    1    2    0    0 -0.13445719027E+03  0.19178156746E+03 -0.64284423598E+02  0.27316001309E+03  0.12500000000E+03 0.  0.
         25    1    1    2    0    0  0.50946939524E+02 -0.18565535253E+03 -0.12567616675E+03  0.26169256668E+03  0.12500000000E+03 0.  0.
         25    1    1    2    0    0  0.83510250743E+02 -0.61262149350E+01 -0.84749106286E+01  0.15069278881E+03  0.12500000000E+03 0.  0.
</event>
<event>
 5    0  0.5612316E-005  0.2997455E+03  0.7546771E-02  0.1085368E+00
         21   -1    0    0  502  501  0.00000000000E+00  0.00000000000E+00  0.13928073903E+03  0.13928073903E+03  0.00000000000E+00 0.  1.
         21   -1    0    0  501  502 -0.00000000000E+00 -0.00000000000E+00 -0.64508085045E+03  0.64508085045E+03  0.00000000000E+00 0.  1.
         25    1    1    2    0    0 -0.12994988953E+03 -0.13861885357E+03 -0.27086571987E+03  0.35368827880E+03  0.12500000000E+03 0.  0.
         25    1    1    2    0    0  0.10245222077E+03  0.10982039522E+03 -0.22660760381E+03  0.29922062571E+03  0.12500000000E+03 0.  0.
         25    1    1    2    0    0  0.27497668759E+02  0.28798458352E+02 -0.83267877338E+01  0.13145268497E+03  0.12500000000E+03 0.  0.
</event>
<event>
 5    0  0.5612316E-005  0.5197465E+03  0.7546771E-02  0.1008750E+00
         21   -1    0    0  502  501  0.00000000000E+00  0.00000000000E+00  0.26411466261E+03  0.26411466261E+03  0.00000000000E+00 0. -1.
         21   -1    0    0  501  502 -0.00000000000E+00 -0.00000000000E+00 -0.10227996809E+04  0.10227996809E+04  0.00000000000E+00 0. -1.
         25    1    1    2    0    0 -0.13314127630E+03  0.36229079396E+03 -0.60175743445E+03  0.72575355925E+03  0.12500000000E+03 0.  0.
         25    1    1    2    0    0  0.19973940603E+03 -0.30027418490E+03 -0.13570545451E+03  0.40509429374E+03  0.12500000000E+03 0.  0.
         25    1    1    2    0    0 -0.66598129728E+02 -0.62016609061E+02 -0.21222129316E+02  0.15606649049E+03  0.12500000000E+03 0.  0.
</event>
<event>
 5    0  0.5612316E-005  0.3380375E+03  0.7546771E-02  0.1067635E+00
         21   -1    0    0  502  501  0.00000000000E+00  0.00000000000E+00  0.28051979959E+03  0.28051979959E+03  0.00000000000E+00 0.  1.
         21   -1    0    0  501  502 -0.00000000000E+00 -0.00000000000E+00 -0.40734854896E+03  0.40734854896E+03  0.00000000000E+00 0.  1.
         25    1    1    2    0    0  0.58375223695E+01  0.13173591107E+03 -0.10448409486E+03  0.20959568939E+03  0.12500000000E+03 0.  0.
         25    1    1    2    0    0 -0.93088395776E+02 -0.17271543619E+03  0.12347495694E+03  0.26337641565E+03  0.12500000000E+03 0.  0.
         25    1    1    2    0    0  0.87250873407E+02  0.40979525122E+02 -0.14581961145E+03  0.21489624351E+03  0.12500000000E+03 0.  0.
</event>
<event>
 5    0  0.6273099E-005  0.2764673E+03  0.7546771E-02  0.1097634E+00
         21   -1    0    0  502  501  0.00000000000E+00  0.00000000000E+00  0.22351854361E+03  0.22351854361E+03  0.00000000000E+00 0.  1.
         21   -1    0    0  501  502 -0.00000000000E+00 -0.00000000000E+00 -0.34195883892E+03  0.34195883892E+03  0.00000000000E+00 0.  1.
         25    1    1    2    0    0 -0.62999082067E+02  0.22674310357E+02  0.24717041622E+02  0.14394075461E+03  0.12500000000E+03 0.  0.
         25    1    1    2    0    0  0.10215812430E+03 -0.12027424707E+03 -0.16022826696E+03  0.25729413985E+03  0.12500000000E+03 0.  0.
         25    1    1    2    0    0 -0.39159042237E+02  0.97599936712E+02  0.17070930025E+02  0.16424248807E+03  0.12500000000E+03 0.  0.
</event>
<event>
 5    0  0.5612316E-005  0.4483486E+03  0.7546771E-02  0.1028216E+00
         21   -1    0    0  502  501  0.00000000000E+00  0.00000000000E+00  0.34934628362E+03  0.34934628362E+03  0.00000000000E+00 0.  1.
         21   -1    0    0  501  502 -0.00000000000E+00 -0.00000000000E+00 -0.57540751959E+03  0.57540751959E+03  0.00000000000E+00 0.  1.
         25    1    1    2    0    0  0.77111001998E+02 -0.37847060690E+03 -0.72209505435E+02  0.41234126593E+03  0.12500000000E+03 0.  0.
         25    1    1    2    0    0 -0.26148827126E+02  0.30127869895E+03 -0.66020956574E+02  0.33382088357E+03  0.12500000000E+03 0.  0.
         25    1    1    2    0    0 -0.50962174872E+02  0.77191907950E+02 -0.87830773961E+02  0.17859165371E+03  0.12500000000E+03 0.  0.
</event>
<event>
 5    0  0.5612316E-005  0.2854945E+03  0.7546771E-02  0.1092725E+00
         21   -1    0    0  502  501  0.00000000000E+00  0.00000000000E+00  0.49709688378E+02  0.49709688378E+02  0.00000000000E+00 0.  1.
         21   -1    0    0  501  502 -0.00000000000E+00 -0.00000000000E+00 -0.16396628371E+04  0.16396628371E+04  0.00000000000E+00 0.  1.
         25    1    1    2    0    0  0.15502157104E+02  0.15029062130E+01 -0.58937630315E+03  0.60268731720E+03  0.12500000000E+03 0.  0.
         25    1    1    2    0    0  0.10368102934E+03  0.12014766617E+03 -0.61080232416E+03  0.64334259670E+03  0.12500000000E+03 0.  0.
         25    1    1    2    0    0 -0.11918318645E+03 -0.12165057238E+03 -0.38977452139E+03  0.44334261155E+03  0.12500000000E+03 0.  0.
</event>
<event>
 5    0  0.6224553E-005  0.2812870E+03  0.7546771E-02  0.1094988E+00
         21   -1    0    0  502  501  0.00000000000E+00  0.00000000000E+00  0.22847595993E+03  0.22847595993E+03  0.00000000000E+00 0. -1.
         21   -1    0    0  501  502 -0.00000000000E+00 -0.00000000000E+00 -0.34630504888E+03  0.34630504888E+03  0.00000000000E+00 0. -1.
         25    1    1    2    0    0  0.66979291654E+02 -0.10526687742E+03  0.96215114220E+02  0.20112108094E+03  0.12500000000E+03 0.  0.
         25    1    1    2    0    0 -0.94542053917E+02  0.37940522967E+02 -0.12231347551E+03  0.20239384757E+03  0.12500000000E+03 0.  0.
         25    1    1    2    0    0  0.27562762262E+02  0.67326354455E+02 -0.91730727656E+02  0.17126608031E+03  0.12500000000E+03 0.  0.
</event>
<event>
 5    0  0.5612316E-005  0.3234037E+03  0.7546771E-02  0.1074093E+00
         21   -1    0    0  502  501  0.00000000000E+00  0.00000000000E+00  0.17245968006E+03  0.17245968006E+03  0.00000000000E+00 0. -1.
         21   -1    0    0  501  502 -0.00000000000E+00 -0.00000000000E+00 -0.60646020613E+03  0.60646020613E+03  0.00000000000E+00 0. -1.
         25    1    1    2    0    0  0.93271038775E+02  0.65726693060E+02 -0.20401633537E+02  0.17047202558E+03  0.12500000000E+03 0.  0.
         25    1    1    2    0    0 -0.57813412215E+02 -0.13812266101E+03 -0.30415640457E+02  0.19740914695E+03  0.12500000000E+03 0.  0.
         25    1    1    2    0    0 -0.35457626560E+02  0.72395967947E+02 -0.38318325207E+03  0.41103871366E+03  0.12500000000E+03 0.  0.
</event>
<event>
 5    0  0.6687204E-005  0.6333022E+03  0.7546771E-02  0.9838626E-01
         21   -1    0    0  502  501  0.00000000000E+00  0.00000000000E+00  0.44370986563E+03  0.44370986563E+03  0.00000000000E+00 0.  1.
         21   -1    0    0  501  502 -0.00000000000E+00 -0.00000000000E+00 -0.90390512306E+03  0.90390512306E+03  0.00000000000E+00 0.  1.
         25    1    1    2    0    0  0.48701957759E+02  0.40002992926E+03  0.67848452173E+01  0.42197969041E+03  0.12500000000E+03 0.  0.
         25    1    1    2    0    0  0.28739195221E+03 -0.26394439713E+03 -0.29731665397E+03  0.50624398436E+03  0.12500000000E+03 0.  0.
         25    1    1    2    0    0 -0.33609390996E+03 -0.13608553213E+03 -0.16966344868E+03  0.41939131392E+03  0.12500000000E+03 0.  0.
</event>
<event>
 5    0  0.6694876E-005  0.5151398E+03  0.7546771E-02  0.1009901E+00
         21   -1    0    0  502  501  0.00000000000E+00  0.00000000000E+00  0.40965251127E+03  0.40965251127E+03  0.00000000000E+00 0.  1.
         21   -1    0    0  501  502 -0.00000000000E+00 -0.00000000000E+00 -0.64779049880E+03  0.64779049880E+03  0.00000000000E+00 0.  1.
         25    1    1    2    0    0  0.24549532099E+03  0.11003707969E+03 -0.37572265084E+03  0.47871559603E+03  0.12500000000E+03 0.  0.
         25    1    1    2    0    0 -0.91086772782E+02  0.16007230217E+03  0.89889412783E+02  0.24005217897E+03  0.12500000000E+03 0.  0.
         25    1    1    2    0    0 -0.15440854821E+03 -0.27010938186E+03  0.47695250531E+02  0.33867523507E+03  0.12500000000E+03 0.  0.
</event>
<event>
 5    0  0.5612316E-005  0.2242610E+03  0.7546771E-02  0.1130746E+00
         21   -1    0    0  502  501  0.00000000000E+00  0.00000000000E+00  0.84128109729E+02  0.84128109729E+02  0.00000000000E+00 0.  1.
         21   -1    0    0  501  502 -0.00000000000E+00 -0.00000000000E+00 -0.59781448578E+03  0.59781448578E+03  0.00000000000E+00 0.  1.
         25    1    1    2    0    0  0.89350468884E+01 -0.19623217874E+02 -0.15044681280E+03  0.19678452486E+03  0.12500000000E+03 0.  0.
         25    1    1    2    0    0 -0.42147858451E+01 -0.52279363203E+02 -0.57820534976E+02  0.14737404962E+03  0.12500000000E+03 0.  0.
         25    1    1    2    0    0 -0.47202610433E+01  0.71902581076E+02 -0.30541902827E+03  0.33778402103E+03  0.12500000000E+03 0.  0.
</event>
<event>
 5    0  0.5612316E-005  0.2308863E+03  0.7546771E-02  0.1126017E+00
         21   -1    0    0  502  501  0.00000000000E+00  0.00000000000E+00  0.18568615253E+04  0.18568615253E+04  0.00000000000E+00 0.  1.
         21   -1    0    0  501  502 -0.00000000000E+00 -0.00000000000E+00 -0.28708923923E+02  0.28708923923E+02  0.00000000000E+00 0.  1.
         25    1    1    2    0    0 -0.15430495810E+02  0.67461205078E+02  0.40845119211E+03  0.43271987559E+03  0.12500000000E+03 0.  0.
         25    1    1    2    0    0 -0.47950698636E+02 -0.53703288920E+02  0.43906077017E+03  0.46215005425E+03  0.12500000000E+03 0.  0.
         25    1    1    2    0    0  0.63381194446E+02 -0.13757916157E+02  0.98064063908E+03  0.99070051937E+03  0.12500000000E+03 0.  0.
</event>
<event>
 5    0  0.5612316E-005  0.6119970E+03  0.7546771E-02  0.9880824E-01
         21   -1    0    0  502  501  0.00000000000E+00  0.00000000000E+00  0.23677324915E+04  0.23677324915E+04  0.00000000000E+00 0. -1.
         21   -1    0    0  501  502 -0.00000000000E+00 -0.00000000000E+00 -0.15818521379E+03  0.15818521379E+03  0.00000000000E+00 0. -1.
         25    1    1    2    0    0 -0.68498070896E+02  0.43443997177E+02  0.39607751839E+03  0.42318053734E+03  0.12500000000E+03 0.  0.
         25    1    1    2    0    0  0.29532690469E+03 -0.46080805883E+03  0.11212779404E+04  0.12539741893E+04  0.12500000000E+03 0.  0.
         25    1    1    2    0    0 -0.22682883379E+03  0.41736406165E+03  0.69219181894E+03  0.84876297870E+03  0.12500000000E+03 0.  0.
</event>
<event>
 5    0  0.5612316E-005  0.2319266E+03  0.7546771E-02  0.1125291E+00
         21   -1    0    0  502  501  0.00000000000E+00  0.00000000000E+00  0.44567946401E+02  0.44567946401E+02  0.00000000000E+00 0. -1.
         21   -1    0    0  501  502 -0.00000000000E+00 -0.00000000000E+00 -0.12069205603E+04  0.12069205603E+04  0.00000000000E+00 0. -1.
         25    1    1    2    0    0  0.37647607688E+02 -0.43824739538E+02 -0.37129061955E+03  0.39600463927E+03  0.12500000000E+03 0.  0.
         25    1    1    2    0    0 -0.72055296538E+02  0.23681820586E+02 -0.18719957649E+03  0.23753205220E+03  0.12500000000E+03 0.  0.
         25    1    1    2    0    0  0.34407688850E+02  0.20142918952E+02 -0.60386241785E+03  0.61795181521E+03  0.12500000000E+03 0.  0.
</event>
<event>
 5    0  0.5612316E-005  0.3748638E+03  0.7546771E-02  0.1052849E+00
         21   -1    0    0  502  501  0.00000000000E+00  0.00000000000E+00  0.30631351481E+03  0.30631351481E+03  0.00000000000E+00 0.  1.
         21   -1    0    0  501  502 -0.00000000000E+00 -0.00000000000E+00 -0.45875514781E+03  0.45875514781E+03  0.00000000000E+00 0.  1.
         25    1    1    2    0    0  0.21763211986E+03  0.72182461820E+02  0.12880512099E+03  0.29118689288E+03  0.12500000000E+03 0.  0.
         25    1    1    2    0    0 -0.70733278754E+02  0.41641484072E+02 -0.66717825616E+02  0.16374821579E+03  0.12500000000E+03 0.  0.
         25    1    1    2    0    0 -0.14689884110E+03 -0.11382394589E+03 -0.21452892838E+03  0.31013355395E+03  0.12500000000E+03 0.  0.
</event>
<event>
 5    0  0.5957311E-005  0.3583594E+03  0.7546771E-02  0.1059235E+00
         21   -1    0    0  502  501  0.00000000000E+00  0.00000000000E+00  0.59082001709E+03  0.59082001709E+03  0.00000000000E+00 0. -1.
         21   -1    0    0  501  502 -0.00000000000E+00 -0.00000000000E+00 -0.21736141339E+03  0.21736141339E+03  0.00000000000E+00 0. -1.
         25    1    1    2    0    0  0.21970664532E+02 -0.84342542798E+02 -0.19105858361E+02  0.15357867186E+03  0.12500000000E+03 0.  0.
         25    1    1    2    0    0  0.76132684675E+02  0.11976377345E+03 -0.39226519261E+02  0.19314053671E+03  0.12500000000E+03 0.  0.
         25    1    1    2    0    0 -0.98103349206E+02 -0.35421230650E+02  0.43179098132E+03  0.46146222192E+03  0.12500000000E+03 0.  0.
</event>
<event>
 5    0  0.5612316E-005  0.2301367E+03  0.7546771E-02  0.1126544E+00
         21   -1    0    0  502  501  0.00000000000E+00  0.00000000000E+00  0.65699430260E+02  0.65699430260E+02  0.00000000000E+00 0.  1.
         21   -1    0    0  501  502 -0.00000000000E+00 -0.00000000000E+00 -0.80613934953E+03  0.80613934953E+03  0.00000000000E+00 0.  1.
         25    1    1    2    0    0 -0.61799972754E+02 -0.43926564745E+02 -0.21368437748E+03  0.25891078174E+03  0.12500000000E+03 0.  0.
         25    1    1    2    0    0  0.56859051103E+02 -0.43321613556E+02 -0.35576034212E+03  0.38379699702E+03  0.12500000000E+03 0.  0.
         25    1    1    2    0    0  0.49409216505E+01  0.87248178301E+02 -0.17099519967E+03  0.22913100103E+03  0.12500000000E+03 0.  0.
</event>
<event>
 5    0  0.5612316E-005  0.3019675E+03  0.7546771E-02  0.1084261E+00
         21   -1    0    0  502  501  0.00000000000E+00  0.00000000000E+00  0.65925022838E+03  0.65925022838E+03  0.00000000000E+00 0. -1.
         21   -1    0    0  501  502 -0.00000000000E+00 -0.00000000000E+00 -0.13831523064E+03  0.13831523064E+03  0.00000000000E+00 0. -1.
         25    1    1    2    0    0 -0.49554126748E+02 -0.12840013965E+03  0.73426830779E+02  0.19989674039E+03  0.12500000000E+03 0.  0.
         25    1    1    2    0    0  0.98110235919E+02  0.18642009392E+02  0.37889340880E+03  0.41128865549E+03  0.12500000000E+03 0.  0.
         25    1    1    2    0    0 -0.48556109171E+02  0.10975813026E+03  0.68614758167E+02  0.18638006314E+03  0.12500000000E+03 0.  0.
</event>
<event>
 5    0  0.5612316E-005  0.3352516E+03  0.7546771E-02  0.1068837E+00
         21   -1    0    0  502  501  0.00000000000E+00  0.00000000000E+00  0.69513735951E+03  0.69513735951E+03  0.00000000000E+00 0.  1.
         21   -1    0    0  501  502 -0.00000000000E+00 -0.00000000000E+00 -0.16168546427E+03  0.16168546427E+03  0.00000000000E+00 0.  1.
         25    1    1    2    0    0 -0.98414962146E+02  0.10931552511E+03  0.46490599997E+03  0.50338650917E+03  0.12500000000E+03 0.  0.
         25    1    1    2    0    0 -0.42532345531E+02 -0.67729007844E+01  0.28151619322E+02  0.13517539078E+03  0.12500000000E+03 0.  0.
         25    1    1    2    0    0  0.14094730768E+03 -0.10254262433E+03  0.40394275951E+02  0.21826092384E+03  0.12500000000E+03 0.  0.
</event>
<event>
 5    0  0.5612316E-005  0.2477775E+03  0.7546771E-02  0.1114717E+00
         21   -1    0    0  502  501  0.00000000000E+00  0.00000000000E+00  0.49385697186E+03  0.49385697186E+03  0.00000000000E+00 0. -1.
         21   -1    0    0  501  502 -0.00000000000E+00 -0.00000000000E+00 -0.12431474389E+03  0.12431474389E+03  0.00000000000E+00 0. -1.
         25    1    1    2    0    0 -0.63562821637E+02  0.88450392422E+02  0.14236243989E+03  0.21853093261E+03  0.12500000000E+03 0.  0.
         25    1    1    2    0    0  0.55640083405E+02  0.42800464562E+02  0.13147743812E+03  0.19452253181E+03  0.12500000000E+03 0.  0.
         25    1    1    2    0    0  0.79227382319E+01 -0.13125085698E+03  0.95702349953E+02  0.20511825133E+03  0.12500000000E+03 0.  0.
</event>
<event>
 5    0  0.5866167E-005  0.2969858E+03  0.7546771E-02  0.1086757E+00
         21   -1    0    0  502  501  0.00000000000E+00  0.00000000000E+00  0.42031481049E+03  0.42031481049E+03  0.00000000000E+00 0.  1.
         21   -1    0    0  501  502 -0.00000000000E+00 -0.00000000000E+00 -0.20984409437E+03  0.20984409437E+03  0.00000000000E+00 0.  1.
         25    1    1    2    0    0 -0.13371725284E+03 -0.15661746318E+03  0.35043881655E+02  0.24343871327E+03  0.12500000000E+03 0.  0.
         25    1    1    2    0    0  0.67889170090E+02  0.18527667483E+02  0.46403000396E+02  0.15076621745E+03  0.12500000000E+03 0.  0.
         25    1    1    2    0    0  0.65828082750E+02  0.13808979569E+03  0.12902383406E+03  0.23595397413E+03  0.12500000000E+03 0.  0.
</event>
<event>
 5    0  0.5612316E-005  0.4476547E+03  0.7546771E-02  0.1028424E+00
         21   -1    0    0  502  501  0.00000000000E+00  0.00000000000E+00  0.34418878214E+03  0.34418878214E+03  0.00000000000E+00 0.  1.
         21   -1    0    0  501  502 -0.00000000000E+00 -0.00000000000E+00 -0.58222319718E+03  0.58222319718E+03  0.00000000000E+00 0.  1.
         25    1    1    2    0    0  0.65156369175E+02 -0.11992971236E+03 -0.27499753031E+03  0.33147719383E+03  0.12500000000E+03 0.  0.
         25    1    1    2    0    0 -0.27896639732E+03 -0.14204646840E+02 -0.23279307650E+02  0.30690543982E+03  0.12500000000E+03 0.  0.
         25    1    1    2    0    0  0.21381002815E+03  0.13413435920E+03  0.60242422922E+02  0.28802934568E+03  0.12500000000E+03 0.  0.
</event>
<event>
 5    0  0.5612316E-005  0.4149734E+03  0.7546771E-02  0.1038715E+00
         21   -1    0    0  502  501  0.00000000000E+00  0.00000000000E+00  0.36809954596E+03  0.36809954596E+03  0.00000000000E+00 0.  1.
         21   -1    0    0  501  502 -0.00000000000E+00 -0.00000000000E+00 -0.46781610543E+03  0.46781610543E+03  0.00000000000E+00 0.  1.
         25    1    1    2    0    0 -0.12457230403E+03 -0.97269555878E+02  0.10246976503E+03  0.22606343839E+03  0.12500000000E+03 0.  0.
         25    1    1    2    0    0 -0.12143391524E+03  0.17981151238E+03 -0.20216498645E+03  0.32182923656E+03  0.12500000000E+03 0.  0.
         25    1    1    2    0    0  0.24600621927E+03 -0.82541956506E+02 -0.21338057591E-01  0.28802297644E+03  0.12500000000E+03 0.  0.
</event>
<event>
 5    0  0.5744688E-005  0.2753269E+03  0.7546771E-02  0.1098269E+00
         21   -1    0    0  502  501  0.00000000000E+00  0.00000000000E+00  0.21918419430E+03  0.21918419430E+03  0.00000000000E+00 0. -1.
         21   -1    0    0  501  502 -0.00000000000E+00 -0.00000000000E+00 -0.34585031153E+03  0.34585031153E+03  0.00000000000E+00 0. -1.
         25    1    1    2    0    0 -0.88297567210E+02  0.82588819486E+02 -0.10020346890E+02  0.17419179324E+03  0.12500000000E+03 0.  0.
         25    1    1    2    0    0  0.13111100566E+03 -0.11420537126E+03 -0.13589873888E+03  0.25362655590E+03  0.12500000000E+03 0.  0.
         25    1    1    2    0    0 -0.42813438449E+02  0.31616551770E+02  0.19252968540E+02  0.13721615668E+03  0.12500000000E+03 0.  0.
</event>
<event>
 5    0  0.5612316E-005  0.5322675E+03  0.7546771E-02  0.1005684E+00
         21   -1    0    0  502  501  0.00000000000E+00  0.00000000000E+00  0.35590433712E+03  0.35590433712E+03  0.00000000000E+00 0.  1.
         21   -1    0    0  501  502 -0.00000000000E+00 -0.00000000000E+00 -0.79602494149E+03  0.79602494149E+03  0.00000000000E+00 0.  1.
         25    1    1    2    0    0  0.31750412985E+03 -0.14368757985E+03  0.79443789316E+02  0.37867044872E+03  0.12500000000E+03 0.  0.
         25    1    1    2    0    0 -0.29408224934E+03  0.21690208634E+02 -0.50291939547E+03  0.59624470888E+03  0.12500000000E+03 0.  0.
         25    1    1    2    0    0 -0.23421880510E+02  0.12199737121E+03 -0.16644998210E+02  0.17701412100E+03  0.12500000000E+03 0.  0.
</event>
<event>
 5    0  0.5612316E-005  0.4445385E+03  0.7546771E-02  0.1029363E+00
         21   -1    0    0  502  501  0.00000000000E+00  0.00000000000E+00  0.62727767787E+03  0.62727767787E+03  0.00000000000E+00 0.  1.
         21   -1    0    0  501  502 -0.00000000000E+00 -0.00000000000E+00 -0.31503503913E+03  0.31503503913E+03  0.00000000000E+00 0.  1.
         25    1    1    2    0    0  0.12970898926E+03 -0.34145194955E+03  0.31211747627E+03  0.49644352623E+03  0.12500000000E+03 0.  0.
         25    1    1    2    0    0 -0.65129746784E+02  0.20749483291E+03 -0.12841963263E+02  0.25116907775E+03  0.12500000000E+03 0.  0.
         25    1    1    2    0    0 -0.64579242477E+02  0.13395711664E+03  0.12967125736E+02  0.19470011301E+03  0.12500000000E+03 0.  0.
</event>
<event>
 5    0  0.5612316E-005  0.4069339E+03  0.7546771E-02  0.1041405E+00
         21   -1    0    0  502  501  0.00000000000E+00  0.00000000000E+00  0.55753506024E+03  0.55753506024E+03  0.00000000000E+00 0.  1.
         21   -1    0    0  501  502 -0.00000000000E+00 -0.00000000000E+00 -0.29701305432E+03  0.29701305432E+03  0.00000000000E+00 0.  1.
         25    1    1    2    0    0 -0.37569700140E+02 -0.98878768486E+02 -0.31659646835E+02  0.16678077366E+03  0.12500000000E+03 0.  0.
         25    1    1    2    0    0 -0.22507139794E+03 -0.58816659401E+02  0.23190101638E+03  0.35145357445E+03  0.12500000000E+03 0.  0.
         25    1    1    2    0    0  0.26264109808E+03  0.15769542789E+03  0.60280636379E+02  0.33631376644E+03  0.12500000000E+03 0.  0.
</event>
<event>
 5    0  0.5612316E-005  0.4537626E+03  0.7546771E-02  0.1026606E+00
         21   -1    0    0  502  501  0.00000000000E+00  0.00000000000E+00  0.19592030067E+04  0.19592030067E+04  0.00000000000E+00 0. -1.
         21   -1    0    0  501  502 -0.00000000000E+00 -0.00000000000E+00 -0.10509399672E+03  0.10509399672E+03  0.00000000000E+00 0. -1.
         25    1    1    2    0    0 -0.19396339076E+03  0.10246975173E+03  0.79757707728E+03  0.83658594369E+03  0.12500000000E+03 0.  0.
         25    1    1    2    0    0 -0.11589860587E+03  0.96551893404E+02  0.58248539074E+03  0.61454778934E+03  0.12500000000E+03 0.  0.
         25    1    1    2    0    0  0.30986199663E+03 -0.19902164513E+03  0.47404654193E+03  0.61316327035E+03  0.12500000000E+03 0.  0.
</event>
<event>
 5    0  0.5612316E-005  0.2684070E+03  0.7546771E-02  0.1102195E+00
         21   -1    0    0  502  501  0.00000000000E+00  0.00000000000E+00  0.10077121531E+03  0.10077121531E+03  0.00000000000E+00 0.  1.
         21   -1    0    0  501  502 -0.00000000000E+00 -0.00000000000E+00 -0.71490949254E+03  0.71490949254E+03  0.00000000000E+00 0.  1.
         25    1    1    2    0    0 -0.23755651230E+02 -0.15507726514E+02 -0.75200569095E+02  0.14861004724E+03  0.12500000000E+03 0.  0.
         25    1    1    2    0    0  0.11370474858E+03 -0.92683596021E+02 -0.19013142878E+03  0.27072860771E+03  0.12500000000E+03 0.  0.
         25    1    1    2    0    0 -0.89949097351E+02  0.10819132254E+03 -0.34880627935E+03  0.39634205291E+03  0.12500000000E+03 0.  0.
</event>
<event>
 5    0  0.5612316E-005  0.2399949E+03  0.7546771E-02  0.1119796E+00
         21   -1    0    0  502  501  0.00000000000E+00  0.00000000000E+00  0.10103654473E+04  0.10103654473E+04  0.00000000000E+00 0.  1.
         21   -1    0    0  501  502 -0.00000000000E+00 -0.00000000000E+00 -0.57006640052E+02  0.57006640052E+02  0.00000000000E+00 0.  1.
         25    1    1    2    0    0 -0.17262298821E+02  0.71271216703E+02  0.17875169375E+03  0.23011897207E+03  0.12500000000E+03 0.  0.
         25    1    1    2    0    0 -0.78676197004E+02 -0.18142034747E+02  0.42025631759E+03  0.44582446083E+03  0.12500000000E+03 0.  0.
         25    1    1    2    0    0  0.95938495825E+02 -0.53129181956E+02  0.35435079587E+03  0.39142865440E+03  0.12500000000E+03 0.  0.
</event>
<event>
 5    0  0.5612316E-005  0.3886150E+03  0.7546771E-02  0.1047795E+00
         21   -1    0    0  502  501  0.00000000000E+00  0.00000000000E+00  0.11470603496E+04  0.11470603496E+04  0.00000000000E+00 0. -1.
         21   -1    0    0  501  502 -0.00000000000E+00 -0.00000000000E+00 -0.13165971080E+03  0.13165971080E+03  0.00000000000E+00 0. -1.
         25    1    1    2    0    0  0.20233338805E+03  0.36763644034E+02  0.22449117654E+03  0.32910735906E+03  0.12500000000E+03 0.  0.
         25    1    1    2    0    0  0.11790023239E+03  0.30862048624E+02  0.24129241063E+03  0.29782538218E+03  0.12500000000E+03 0.  0.
         25    1    1    2    0    0 -0.32023362044E+03 -0.67625692658E+02  0.54961705158E+03  0.65178731912E+03  0.12500000000E+03 0.  0.
</event>
<event>
 5    0  0.5612316E-005  0.2885423E+03  0.7546771E-02  0.1091113E+00
         21   -1    0    0  502  501  0.00000000000E+00  0.00000000000E+00  0.80648862595E+02  0.80648862595E+02  0.00000000000E+00 0.  1.
         21   -1    0    0  501  502 -0.00000000000E+00 -0.00000000000E+00 -0.10323353015E+04  0.10323353015E+04  0.00000000000E+00 0.  1.
         25    1    1    2    0    0 -0.17966397809E+03  0.21650000941E+02 -0.18983780097E+03  0.29053615652E+03  0.12500000000E+03 0.  0.
         25    1    1    2    0    0  0.99679650936E+02 -0.15471333264E+02 -0.36821200002E+03  0.40172188380E+03  0.12500000000E+03 0.  0.
         25    1    1    2    0    0  0.79984327155E+02 -0.61786676771E+01 -0.39363663789E+03  0.42072612376E+03  0.12500000000E+03 0.  0.
</event>
<event>
 5    0  0.5612316E-005  0.4126214E+03  0.7546771E-02  0.1039495E+00
         21   -1    0    0  502  501  0.00000000000E+00  0.00000000000E+00  0.87685561843E+03  0.87685561843E+03  0.00000000000E+00 0. -1.
         21   -1    0    0  501  502 -0.00000000000E+00 -0.00000000000E+00 -0.19416694984E+03  0.19416694984E+03  0.00000000000E+00 0. -1.
         25    1    1    2    0    0  0.12834116639E+03  0.12192186605E+03  0.20385373085E+03  0.29751931029E+03  0.12500000000E+03 0.  0.
         25    1    1    2    0    0  0.77813842527E+02 -0.26238873206E+03  0.36275249675E+03  0.47129313033E+03  0.12500000000E+03 0.  0.
         25    1    1    2    0    0 -0.20615500892E+03  0.14046686601E+03  0.11608244099E+03  0.30221012765E+03  0.12500000000E+03 0.  0.
</event>
<event>
 5    0  0.5612316E-005  0.5171189E+03  0.7546771E-02  0.1009405E+00
         21   -1    0    0  502  501  0.00000000000E+00  0.00000000000E+00  0.18035732582E+04  0.18035732582E+04  0.00000000000E+00 0. -1.
         21   -1    0    0  501  502 -0.00000000000E+00 -0.00000000000E+00 -0.14826784622E+03  0.14826784622E+03  0.00000000000E+00 0. -1.
         25    1    1    2    0    0 -0.43702967206E+03 -0.80546532261E+02  0.98541127960E+03  0.10881833798E+04  0.12500000000E+03 0.  0.
         25    1    1    2    0    0  0.32020294364E+03  0.12922484966E+03  0.45024948604E+03  0.58101513454E+03  0.12500000000E+03 0.  0.
         25    1    1    2    0    0  0.11682672842E+03 -0.48678317398E+02  0.21964464633E+03  0.28264259007E+03  0.12500000000E+03 0.  0.
</event>
<event>
 5    0  0.5612316E-005  0.2728065E+03  0.7546771E-02  0.1099684E+00
         21   -1    0    0  502  501  0.00000000000E+00  0.00000000000E+00  0.25698356193E+03  0.25698356193E+03  0.00000000000E+00 0. -1.
         21   -1    0    0  501  502 -0.00000000000E+00 -0.00000000000E+00 -0.28960371007E+03  0.28960371007E+03  0.00000000000E+00 0. -1.
         25    1    1    2    0    0 -0.63668298173E+02 -0.73077709741E+02 -0.48886062114E+02  0.16555618660E+03  0.12500000000E+03 0.  0.
         25    1    1    2    0    0  0.79826604605E+02  0.12409473069E+03 -0.85252801667E+02  0.21134055261E+03  0.12500000000E+03 0.  0.
         25    1    1    2    0    0 -0.16158306432E+02 -0.51017020945E+02  0.10151871563E+03  0.16969053279E+03  0.12500000000E+03 0.  0.
</event>
<event>
 5    0  0.5612316E-005  0.5843843E+03  0.7546771E-02  0.9938344E-01
         21   -1    0    0  502  501  0.00000000000E+00  0.00000000000E+00  0.18699458597E+04  0.18699458597E+04  0.00000000000E+00 0.  1.
         21   -1    0    0  501  502 -0.00000000000E+00 -0.00000000000E+00 -0.18262827670E+03  0.18262827670E+03  0.00000000000E+00 0.  1.
         25    1    1    2    0    0 -0.23882223004E+03  0.10256628290E+03  0.37525107481E+03  0.47328032823E+03  0.12500000000E+03 0.  0.
         25    1    1    2    0    0  0.13145237504E+03 -0.17878227380E+03 -0.34383958170E-01  0.25469163612E+03  0.12500000000E+03 0.  0.
         25    1    1    2    0    0  0.10736985500E+03  0.76215990895E+02  0.13121008921E+04  0.13246021720E+04  0.12500000000E+03 0.  0.
</event>
<event>
 5    0  0.6407941E-005  0.3315744E+03  0.7546771E-02  0.1070442E+00
         21   -1    0    0  502  501  0.00000000000E+00  0.00000000000E+00  0.40996353960E+03  0.40996353960E+03  0.00000000000E+00 0. -1.
         21   -1    0    0  501  502 -0.00000000000E+00 -0.00000000000E+00 -0.26817405183E+03  0.26817405183E+03  0.00000000000E+00 0. -1.
         25    1    1    2    0    0 -0.60069171156E+02 -0.94938139271E+02  0.18934236963E+03  0.25317402819E+03  0.12500000000E+03 0.  0.
         25    1    1    2    0    0  0.11715554657E+02  0.61441258274E+01 -0.17801335830E+03  0.21791915987E+03  0.12500000000E+03 0.  0.
         25    1    1    2    0    0  0.48353616499E+02  0.88794013444E+02  0.13046047644E+03  0.20704440337E+03  0.12500000000E+03 0.  0.
</event>
<event>
 5    0  0.5612316E-005  0.3818748E+03  0.7546771E-02  0.1050243E+00
         21   -1    0    0  502  501  0.00000000000E+00  0.00000000000E+00  0.16383610249E+03  0.16383610249E+03  0.00000000000E+00 0. -1.
         21   -1    0    0  501  502 -0.00000000000E+00 -0.00000000000E+00 -0.89008702285E+03  0.89008702285E+03  0.00000000000E+00 0. -1.
         25    1    1    2    0    0  0.12386646410E+00  0.14409143175E+03 -0.23154658834E+03  0.30000196436E+03  0.12500000000E+03 0.  0.
         25    1    1    2    0    0 -0.52361295016E+02 -0.23938344119E+02 -0.54811414568E+03  0.56512730091E+03  0.12500000000E+03 0.  0.
         25    1    1    2    0    0  0.52237428552E+02 -0.12015308763E+03  0.53409813659E+02  0.18879386008E+03  0.12500000000E+03 0.  0.
</event>
<event>
 5    0  0.5612316E-005  0.3242408E+03  0.7546771E-02  0.1073714E+00
         21   -1    0    0  502  501  0.00000000000E+00  0.00000000000E+00  0.83356493136E+03  0.83356493136E+03  0.00000000000E+00 0. -1.
         21   -1    0    0  501  502 -0.00000000000E+00 -0.00000000000E+00 -0.12612349509E+03  0.12612349509E+03  0.00000000000E+00 0. -1.
         25    1    1    2    0    0 -0.14722111905E+03 -0.16306827202E+03  0.11777024600E+03  0.27885507002E+03  0.12500000000E+03 0.  0.
         25    1    1    2    0    0  0.50233366908E+02  0.51711585554E+02  0.29373595706E+03  0.32726639257E+03  0.12500000000E+03 0.  0.
         25    1    1    2    0    0  0.96987752142E+02  0.11135668646E+03  0.29593523321E+03  0.35356696387E+03  0.12500000000E+03 0.  0.
</event>
<event>
 5    0  0.5612316E-005  0.3596004E+03  0.7546771E-02  0.1058742E+00
         21   -1    0    0  502  501  0.00000000000E+00  0.00000000000E+00  0.77393159232E+03  0.77393159232E+03  0.00000000000E+00 0.  1.
         21   -1    0    0  501  502 -0.00000000000E+00 -0.00000000000E+00 -0.16708515912E+03  0.16708515912E+03  0.00000000000E+00 0.  1.
         25    1    1    2    0    0  0.15158949121E+03  0.22934726626E+02  0.29433416765E+03  0.35463076259E+03  0.12500000000E+03 0.  0.
         25    1    1    2    0    0 -0.37925547636E+02 -0.67660913770E+00  0.38096661426E+03  0.40273982438E+03  0.12500000000E+03 0.  0.
         25    1    1    2    0    0 -0.11366394357E+03 -0.22258117488E+02 -0.68454348710E+02  0.18364616446E+03  0.12500000000E+03 0.  0.
</event>
<event>
 5    0  0.5612316E-005  0.2069398E+03  0.7546771E-02  0.1144012E+00
         21   -1    0    0  502  501  0.00000000000E+00  0.00000000000E+00  0.11444258653E+03  0.11444258653E+03  0.00000000000E+00 0. -1.
         21   -1    0    0  501  502 -0.00000000000E+00 -0.00000000000E+00 -0.37419715420E+03  0.37419715420E+03  0.00000000000E+00 0. -1.
         25    1    1    2    0    0  0.21084860062E+02 -0.96081139127E+00 -0.13862109520E+03  0.18784648657E+03  0.12500000000E+03 0.  0.
         25    1    1    2    0    0  0.38613925157E+02  0.26533735554E+02 -0.71541082374E+02  0.15145362592E+03  0.12500000000E+03 0.  0.
         25    1    1    2    0    0 -0.59698785219E+02 -0.25572924163E+02 -0.49592390091E+02  0.14933962824E+03  0.12500000000E+03 0.  0.
</event>
<event>
 5    0  0.5612316E-005  0.3172029E+03  0.7546771E-02  0.1076944E+00
         21   -1    0    0  502  501  0.00000000000E+00  0.00000000000E+00  0.92517351861E+03  0.92517351861E+03  0.00000000000E+00 0.  1.
         21   -1    0    0  501  502 -0.00000000000E+00 -0.00000000000E+00 -0.10875547986E+03  0.10875547986E+03  0.00000000000E+00 0.  1.
         25    1    1    2    0    0  0.58744780039E+02  0.86392414954E+01  0.16263368412E+03  0.21354226955E+03  0.12500000000E+03 0.  0.
         25    1    1    2    0    0 -0.23632409665E+03  0.73809806422E+01  0.27589136194E+03  0.38424549591E+03  0.12500000000E+03 0.  0.
         25    1    1    2    0    0  0.17757931661E+03 -0.16020222138E+02  0.37789299269E+03  0.43614123301E+03  0.12500000000E+03 0.  0.
</event>
<event>
 5    0  0.5612316E-005  0.3934492E+03  0.7546771E-02  0.1046072E+00
         21   -1    0    0  502  501  0.00000000000E+00  0.00000000000E+00  0.71019727256E+03  0.71019727256E+03  0.00000000000E+00 0. -1.
         21   -1    0    0  501  502 -0.00000000000E+00 -0.00000000000E+00 -0.21797083856E+03  0.21797083856E+03  0.00000000000E+00 0. -1.
         25    1    1    2    0    0  0.17666232009E+03  0.18858788896E+03  0.42531448446E+03  0.51312023727E+03  0.12500000000E+03 0.  0.
         25    1    1    2    0    0 -0.70570405927E+02  0.18784677449E+02  0.13953129111E+02  0.14543980236E+03  0.12500000000E+03 0.  0.
         25    1    1    2    0    0 -0.10609191417E+03 -0.20737256641E+03  0.52958820421E+02  0.26960807149E+03  0.12500000000E+03 0.  0.
</event>
<event>
 5    0  0.5612316E-005  0.4743027E+03  0.7546771E-02  0.1020713E+00
         21   -1    0    0  502  501  0.00000000000E+00  0.00000000000E+00  0.19282036613E+03  0.19282036613E+03  0.00000000000E+00 0.  1.
         21   -1    0    0  501  502 -0.00000000000E+00 -0.00000000000E+00 -0.11666974280E+04  0.11666974280E+04  0.00000000000E+00 0.  1.
         25    1    1    2    0    0  0.62060801620E+02 -0.16403090472E+03  0.52069483338E+02  0.22157146002E+03  0.12500000000E+03 0.  0.
         25    1    1    2    0    0  0.48781749505E+02 -0.12189258438E+02 -0.78280401719E+03  0.79431440024E+03  0.12500000000E+03 0.  0.
         25    1    1    2    0    0 -0.11084255113E+03  0.17622016316E+03 -0.24314252806E+03  0.34363193390E+03  0.12500000000E+03 0.  0.
</event>
<event>
 5    0  0.5612316E-005  0.2584639E+03  0.7546771E-02  0.1108070E+00
         21   -1    0    0  502  501  0.00000000000E+00  0.00000000000E+00  0.23896380846E+03  0.23896380846E+03  0.00000000000E+00 0. -1.
         21   -1    0    0  501  502 -0.00000000000E+00 -0.00000000000E+00 -0.27955526159E+03  0.27955526159E+03  0.00000000000E+00 0. -1.
         25    1    1    2    0    0  0.82033818371E+02  0.10707209428E+02 -0.32069144847E+02  0.15328933995E+03  0.12500000000E+03 0.  0.
         25    1    1    2    0    0  0.59191911509E+02  0.22398227793E+02  0.71975555123E+02  0.15751458197E+03  0.12500000000E+03 0.  0.
         25    1    1    2    0    0 -0.14122572988E+03 -0.33105437221E+02 -0.80497863411E+02  0.20771514814E+03  0.12500000000E+03 0.  0.
</event>
<event>
 5    0  0.5612316E-005  0.2278810E+03  0.7546771E-02  0.1128140E+00
         21   -1    0    0  502  501  0.00000000000E+00  0.00000000000E+00  0.53844229717E+03  0.53844229717E+03  0.00000000000E+00 0.  1.
         21   -1    0    0  501  502 -0.00000000000E+00 -0.00000000000E+00 -0.96444437855E+02  0.96444437855E+02  0.00000000000E+00 0.  1.
         25    1    1    2    0    0 -0.77697090445E+02  0.78613367748E+02  0.18637396752E+03  0.25015426285E+03  0.12500000000E+03 0.  0.
         25    1    1    2    0    0  0.52754648560E+02 -0.75841687859E+02  0.10590805741E+03  0.18808649921E+03  0.12500000000E+03 0.  0.
         25    1    1    2    0    0  0.24942441885E+02 -0.27716798889E+01  0.14971583438E+03  0.19664597296E+03  0.12500000000E+03 0.  0.
</event>
<event>
 5    0  0.5612316E-005  0.3444780E+03  0.7546771E-02  0.1064905E+00
         21   -1    0    0  502  501  0.00000000000E+00  0.00000000000E+00  0.41327958814E+03  0.41327958814E+03  0.00000000000E+00 0.  1.
         21   -1    0    0  501  502 -0.00000000000E+00 -0.00000000000E+00 -0.28713034822E+03  0.28713034822E+03  0.00000000000E+00 0.  1.
         25    1    1    2    0    0  0.11801772289E+03  0.11082967786E+03  0.28095204146E+03  0.34752043107E+03  0.12500000000E+03 0.  0.
         25    1    1    2    0    0 -0.51122830447E+02 -0.11171554073E+03 -0.89466997374E+02  0.19678223866E+03  0.12500000000E+03 0.  0.
         25    1    1    2    0    0 -0.66894892445E+02  0.88586287145E+00 -0.65335804165E+02  0.15610726663E+03  0.12500000000E+03 0.  0.
</event>
<event>
 5    0  0.5612316E-005  0.4742803E+03  0.7546771E-02  0.1020719E+00
         21   -1    0    0  502  501  0.00000000000E+00  0.00000000000E+00  0.20021098656E+04  0.20021098656E+04  0.00000000000E+00 0.  1.
         21   -1    0    0  501  502 -0.00000000000E+00 -0.00000000000E+00 -0.11235235390E+03  0.11235235390E+03  0.00000000000E+00 0.  1.
         25    1    1    2    0    0 -0.81682866174E+02 -0.32896577338E+03  0.67120577559E+03  0.76225505172E+03  0.12500000000E+03 0.  0.
         25    1    1    2    0    0  0.86249162675E+02  0.37229477228E+03  0.11114120072E+04  0.11819069190E+04  0.12500000000E+03 0.  0.
         25    1    1    2    0    0 -0.45662965009E+01 -0.43328998895E+02  0.10713972890E+03  0.17030024873E+03  0.12500000000E+03 0.  0.
</event>
<event>
 5    0  0.5612316E-005  0.2682877E+03  0.7546771E-02  0.1102264E+00
         21   -1    0    0  502  501  0.00000000000E+00  0.00000000000E+00  0.10197172100E+03  0.10197172100E+03  0.00000000000E+00 0. -1.
         21   -1    0    0  501  502 -0.00000000000E+00 -0.00000000000E+00 -0.70586502033E+03  0.70586502033E+03  0.00000000000E+00 0. -1.
         25    1    1    2    0    0 -0.33747458036E+00  0.75671477931E+02 -0.37670449426E+03  0.40405143541E+03  0.12500000000E+03 0.  0.
         25    1    1    2    0    0 -0.26371492445E+02 -0.37243308485E+02  0.80558596928E+01  0.13331322709E+03  0.12500000000E+03 0.  0.
         25    1    1    2    0    0  0.26708967026E+02 -0.38428169446E+02 -0.23524466476E+03  0.27047207883E+03  0.12500000000E+03 0.  0.
</event>
<event>
 5    0  0.5612316E-005  0.3102518E+03  0.7546771E-02  0.1080225E+00
         21   -1    0    0  502  501  0.00000000000E+00  0.00000000000E+00  0.31129369033E+03  0.31129369033E+03  0.00000000000E+00 0.  1.
         21   -1    0    0  501  502 -0.00000000000E+00 -0.00000000000E+00 -0.30921345155E+03  0.30921345155E+03  0.00000000000E+00 0.  1.
         25    1    1    2    0    0 -0.47819624759E+02  0.15230178388E+03 -0.14956770054E+03  0.25194850055E+03  0.12500000000E+03 0.  0.
         25    1    1    2    0    0  0.80631095257E+02 -0.19738774580E+02  0.55870750443E+02  0.16011724922E+03  0.12500000000E+03 0.  0.
         25    1    1    2    0    0 -0.32811470498E+02 -0.13256300930E+03  0.95777188886E+02  0.20844139210E+03  0.12500000000E+03 0.  0.
</event>
<event>
 5    0  0.5612316E-005  0.2754935E+03  0.7546771E-02  0.1098176E+00
         21   -1    0    0  502  501  0.00000000000E+00  0.00000000000E+00  0.95580913743E+03  0.95580913743E+03  0.00000000000E+00 0.  1.
         21   -1    0    0  501  502 -0.00000000000E+00 -0.00000000000E+00 -0.79405651984E+02  0.79405651984E+02  0.00000000000E+00 0.  1.
         25    1    1    2    0    0 -0.49193643337E+02 -0.53769132964E+02  0.39036768711E+03  0.41632086825E+03  0.12500000000E+03 0.  0.
         25    1    1    2    0    0  0.13570703164E+03 -0.12337072679E+02  0.37862533583E+03  0.42136770964E+03  0.12500000000E+03 0.  0.
         25    1    1    2    0    0 -0.86513388301E+02  0.66106205644E+02  0.10741046251E+03  0.19752621152E+03  0.12500000000E+03 0.  0.
</event>
<event>
 5    0  0.5612316E-005  0.4031981E+03  0.7546771E-02  0.1042678E+00
         21   -1    0    0  502  501  0.00000000000E+00  0.00000000000E+00  0.17875523271E+04  0.17875523271E+04  0.00000000000E+00 0.  1.
         21   -1    0    0  501  502 -0.00000000000E+00 -0.00000000000E+00 -0.90944848951E+02  0.90944848951E+02  0.00000000000E+00 0.  1.
         25    1    1    2    0    0  0.82864735702E+02  0.74795353875E+02  0.34945501075E+03  0.38756252905E+03  0.12500000000E+03 0.  0.
         25    1    1    2    0    0  0.21722481731E+03  0.71060372407E+02  0.38429797403E+03  0.46426945907E+03  0.12500000000E+03 0.  0.
         25    1    1    2    0    0 -0.30008955301E+03 -0.14585572628E+03  0.96285449342E+03  0.10266651880E+04  0.12500000000E+03 0.  0.
</event>
<event>
 5    0  0.5612316E-005  0.2470321E+03  0.7546771E-02  0.1115195E+00
         21   -1    0    0  502  501  0.00000000000E+00  0.00000000000E+00  0.29986487241E+03  0.29986487241E+03  0.00000000000E+00 0. -1.
         21   -1    0    0  501  502 -0.00000000000E+00 -0.00000000000E+00 -0.20350790545E+03  0.20350790545E+03  0.00000000000E+00 0. -1.
         25    1    1    2    0    0 -0.11702043164E+03 -0.74096513904E+01 -0.17097950576E+02  0.17223827759E+03  0.12500000000E+03 0.  0.
         25    1    1    2    0    0  0.49092015322E+02  0.72750222199E+02  0.38224775646E+02  0.15744444821E+03  0.12500000000E+03 0.  0.
         25    1    1    2    0    0  0.67928416316E+02 -0.65340570809E+02  0.75230141894E+02  0.17369005206E+03  0.12500000000E+03 0.  0.
</event>
<event>
 5    0  0.5612316E-005  0.4740412E+03  0.7546771E-02  0.1020786E+00
         21   -1    0    0  502  501  0.00000000000E+00  0.00000000000E+00  0.69052731471E+03  0.69052731471E+03  0.00000000000E+00 0.  1.
         21   -1    0    0  501  502 -0.00000000000E+00 -0.00000000000E+00 -0.32542526208E+03  0.32542526208E+03  0.00000000000E+00 0.  1.
         25    1    1    2    0    0  0.66510592898E+02 -0.28115634428E+02  0.13627958147E+03  0.19852272463E+03  0.12500000000E+03 0.  0.
         25    1    1    2    0    0  0.19314141697E+02 -0.31044268124E+03  0.28779121642E+03  0.44181045558E+03  0.12500000000E+03 0.  0.
         25    1    1    2    0    0 -0.85824734595E+02  0.33855831567E+03 -0.58968745266E+02  0.37561939659E+03  0.12500000000E+03 0.  0.
</event>
<event>
 5    0  0.5612316E-005  0.2469986E+03  0.7546771E-02  0.1115216E+00
         21   -1    0    0  502  501  0.00000000000E+00  0.00000000000E+00  0.39217593896E+03  0.39217593896E+03  0.00000000000E+00 0.  1.
         21   -1    0    0  501  502 -0.00000000000E+00 -0.00000000000E+00 -0.15556364018E+03  0.15556364018E+03  0.00000000000E+00 0.  1.
         25    1    1    2    0    0  0.15671733952E+02  0.86620017353E+02  0.72285068321E+01  0.15305515987E+03  0.12500000000E+03 0.  0.
         25    1    1    2    0    0 -0.89797974303E+02 -0.54474678751E+02  0.16623689008E+03  0.23300401378E+03  0.12500000000E+03 0.  0.
         25    1    1    2    0    0  0.74126240350E+02 -0.32145338602E+02  0.63146901866E+02  0.16168040548E+03  0.12500000000E+03 0.  0.
</event>
<event>
 5    0  0.5612316E-005  0.4677139E+03  0.7546771E-02  0.1022567E+00
         21   -1    0    0  502  501  0.00000000000E+00  0.00000000000E+00  0.72201453975E+03  0.72201453975E+03  0.00000000000E+00 0. -1.
         21   -1    0    0  501  502 -0.00000000000E+00 -0.00000000000E+00 -0.30298039063E+03  0.30298039063E+03  0.00000000000E+00 0.  1.
         25    1    1    2    0    0 -0.34991345517E+03 -0.89028560591E+02  0.29743138325E+03  0.48420650394E+03  0.12500000000E+03 0.  0.
         25    1    1    2    0    0  0.15965012370E+03 -0.95643693779E+02  0.20192320623E+01  0.22419847336E+03  0.12500000000E+03 0.  0.
         25    1    1    2    0    0  0.19026333147E+03  0.18467225437E+03  0.11958353380E+03  0.31658995308E+03  0.12500000000E+03 0.  0.
</event>
<event>
 5    0  0.5612316E-005  0.2456580E+03  0.7546771E-02  0.1116080E+00
         21   -1    0    0  502  501  0.00000000000E+00  0.00000000000E+00  0.27069384947E+03  0.27069384947E+03  0.00000000000E+00 0. -1.
         21   -1    0    0  501  502 -0.00000000000E+00 -0.00000000000E+00 -0.22293758581E+03  0.22293758581E+03  0.00000000000E+00 0. -1.
         25    1    1    2    0    0 -0.25660324232E+00 -0.87879257078E+02 -0.36119865842E+02  0.15701106451E+03  0.12500000000E+03 0.  0.
         25    1    1    2    0    0 -0.60018365972E+02  0.89964370893E+02  0.10559738694E+03  0.19614178650E+03  0.12500000000E+03 0.  0.
         25    1    1    2    0    0  0.60274969214E+02 -0.20851138153E+01 -0.21721257446E+02  0.14047858427E+03  0.12500000000E+03 0.  0.
</event>
<event>
 5    0  0.5612316E-005  0.2712022E+03  0.7546771E-02  0.1100593E+00
         21   -1    0    0  502  501  0.00000000000E+00  0.00000000000E+00  0.11640037619E+03  0.11640037619E+03  0.00000000000E+00 0.  1.
         21   -1    0    0  501  502 -0.00000000000E+00 -0.00000000000E+00 -0.63187645738E+03  0.63187645738E+03  0.00000000000E+00 0.  1.
         25    1    1    2    0    0  0.20493911174E+01  0.13409593918E+03 -0.20866040838E+03  0.27775904474E+03  0.12500000000E+03 0.  0.
         25    1    1    2    0    0  0.97271779019E+02 -0.10405063060E+03 -0.20306849311E+03  0.27775915037E+03  0.12500000000E+03 0.  0.
         25    1    1    2    0    0 -0.99321170137E+02 -0.30045308577E+02 -0.10374717970E+03  0.19275863846E+03  0.12500000000E+03 0.  0.
</event>
<event>
 5    0  0.5612316E-005  0.2626251E+03  0.7546771E-02  0.1105576E+00
         21   -1    0    0  502  501  0.00000000000E+00  0.00000000000E+00  0.19088498004E+03  0.19088498004E+03  0.00000000000E+00 0. -1.
         21   -1    0    0  501  502 -0.00000000000E+00 -0.00000000000E+00 -0.36132713430E+03  0.36132713430E+03  0.00000000000E+00 0. -1.
         25    1    1    2    0    0  0.39485083884E+02  0.98265712576E+02  0.31418669178E+02  0.16681533170E+03  0.12500000000E+03 0.  0.
         25    1    1    2    0    0 -0.38272641521E+02 -0.52050856053E+02  0.32995732997E+01  0.14074790900E+03  0.12500000000E+03 0.  0.
         25    1    1    2    0    0 -0.12124423639E+01 -0.46214856523E+02 -0.20516039674E+03  0.24464887363E+03  0.12500000000E+03 0.  0.
</event>
<event>
 5    0  0.5612316E-005  0.4411352E+03  0.7546771E-02  0.1030399E+00
         21   -1    0    0  502  501  0.00000000000E+00  0.00000000000E+00  0.11484278757E+04  0.11484278757E+04  0.00000000000E+00 0. -1.
         21   -1    0    0  501  502 -0.00000000000E+00 -0.00000000000E+00 -0.16944927784E+03  0.16944927784E+03  0.00000000000E+00 0. -1.
         25    1    1    2    0    0  0.21462423447E+03  0.27787392086E+03  0.61666275835E+03  0.72053829562E+03  0.12500000000E+03 0.  0.
         25    1    1    2    0    0 -0.13274530429E+03 -0.14746876012E+03  0.31628430744E+03  0.39373736698E+03  0.12500000000E+03 0.  0.
         25    1    1    2    0    0 -0.81878930181E+02 -0.13040516074E+03  0.46031532022E+02  0.20360149090E+03  0.12500000000E+03 0.  0.
</event>
<event>
 5    0  0.5612316E-005  0.3223569E+03  0.7546771E-02  0.1074570E+00
         21   -1    0    0  502  501  0.00000000000E+00  0.00000000000E+00  0.44769114898E+03  0.44769114898E+03  0.00000000000E+00 0. -1.
         21   -1    0    0  501  502 -0.00000000000E+00 -0.00000000000E+00 -0.23211089060E+03  0.23211089060E+03  0.00000000000E+00 0. -1.
         25    1    1    2    0    0  0.43486595320E+02  0.85526676982E+02 -0.81993510531E+02  0.17763398385E+03  0.12500000000E+03 0.  0.
         25    1    1    2    0    0 -0.12342165592E+03 -0.79523099147E+02  0.29647969349E+03  0.35366938954E+03  0.12500000000E+03 0.  0.
         25    1    1    2    0    0  0.79935060603E+02 -0.60035778350E+01  0.10940754229E+01  0.14849866619E+03  0.12500000000E+03 0.  0.
</event>
<event>
 5    0  0.5612316E-005  0.2861996E+03  0.7546771E-02  0.1092350E+00
         21   -1    0    0  502  501  0.00000000000E+00  0.00000000000E+00  0.30432017695E+02  0.30432017695E+02  0.00000000000E+00 0.  1.
         21   -1    0    0  501  502 -0.00000000000E+00 -0.00000000000E+00 -0.26915799433E+04  0.26915799433E+04  0.00000000000E+00 0.  1.
         25    1    1    2    0    0 -0.13968731337E+02  0.19773370775E+02 -0.10415168260E+04  0.10492704182E+04  0.12500000000E+03 0.  0.
         25    1    1    2    0    0 -0.10266924354E+02  0.15659207356E+03 -0.78261686205E+03  0.80792365976E+03  0.12500000000E+03 0.  0.
         25    1    1    2    0    0  0.24235655690E+02 -0.17636544434E+03 -0.83701423756E+03  0.86481788305E+03  0.12500000000E+03 0.  0.
</event>
<event>
 5    0  0.5612316E-005  0.3950614E+03  0.7546771E-02  0.1045503E+00
         21   -1    0    0  502  501  0.00000000000E+00  0.00000000000E+00  0.67550531532E+03  0.67550531532E+03  0.00000000000E+00 0.  1.
         21   -1    0    0  501  502 -0.00000000000E+00 -0.00000000000E+00 -0.23104704777E+03  0.23104704777E+03  0.00000000000E+00 0.  1.
         25    1    1    2    0    0 -0.39886494789E+02 -0.22570369840E+02 -0.15203982619E+03  0.20209270845E+03  0.12500000000E+03 0.  0.
         25    1    1    2    0    0  0.11456504383E+03  0.98059612404E+02  0.22466710296E+03  0.29806231564E+03  0.12500000000E+03 0.  0.
         25    1    1    2    0    0 -0.74678549038E+02 -0.75489242564E+02  0.37183099079E+03  0.40639733899E+03  0.12500000000E+03 0.  0.
</event>
<event>
 5    0  0.5612316E-005  0.2938553E+03  0.7546771E-02  0.1088353E+00
         21   -1    0    0  502  501  0.00000000000E+00  0.00000000000E+00  0.46688843303E+03  0.46688843303E+03  0.00000000000E+00 0.  1.
         21   -1    0    0  501  502 -0.00000000000E+00 -0.00000000000E+00 -0.18494981122E+03  0.18494981122E+03  0.00000000000E+00 0.  1.
         25    1    1    2    0    0  0.88255035740E+02  0.13402654895E+03  0.11493114578E+03  0.23363697359E+03  0.12500000000E+03 0.  0.
         25    1    1    2    0    0 -0.76822567505E+02 -0.18359561511E+03  0.51571312570E+02  0.24061100774E+03  0.12500000000E+03 0.  0.
         25    1    1    2    0    0 -0.11432468235E+02  0.49569066158E+02  0.11543616347E+03  0.17759026292E+03  0.12500000000E+03 0.  0.
</event>
<event>
 5    0  0.5612316E-005  0.3138603E+03  0.7546771E-02  0.1078510E+00
         21   -1    0    0  502  501  0.00000000000E+00  0.00000000000E+00  0.54065080220E+03  0.54065080220E+03  0.00000000000E+00 0.  1.
         21   -1    0    0  501  502 -0.00000000000E+00 -0.00000000000E+00 -0.18220314279E+03  0.18220314279E+03  0.00000000000E+00 0.  1.
         25    1    1    2    0    0  0.69506632799E+02 -0.13419093111E+03  0.64457104213E+02  0.20644150813E+03  0.12500000000E+03 0.  0.
         25    1    1    2    0    0  0.88634605631E+02  0.15966397127E+03  0.14828470181E+03  0.26638699260E+03  0.12500000000E+03 0.  0.
         25    1    1    2    0    0 -0.15814123843E+03 -0.25473040162E+02  0.14570585338E+03  0.25002544426E+03  0.12500000000E+03 0.  0.
</event>
<event>
 5    0  0.5612316E-005  0.2601650E+03  0.7546771E-02  0.1107044E+00
         21   -1    0    0  502  501  0.00000000000E+00  0.00000000000E+00  0.31227704614E+03  0.31227704614E+03  0.00000000000E+00 0. -1.
         21   -1    0    0  501  502 -0.00000000000E+00 -0.00000000000E+00 -0.21674924256E+03  0.21674924256E+03  0.00000000000E+00 0. -1.
         25    1    1    2    0    0  0.38438103070E+02 -0.39162397282E+01  0.11864738268E+03  0.17662113723E+03  0.12500000000E+03 0.  0.
         25    1    1    2    0    0  0.57259770445E+02 -0.26850825241E+02  0.80377400059E+02  0.16150905414E+03  0.12500000000E+03 0.  0.
         25    1    1    2    0    0 -0.95697873514E+02  0.30767064970E+02 -0.10349697916E+03  0.19089609733E+03  0.12500000000E+03 0.  0.
</event>
<event>
 5    0  0.5612316E-005  0.3056996E+03  0.7546771E-02  0.1082426E+00
         21   -1    0    0  502  501  0.00000000000E+00  0.00000000000E+00  0.22940025202E+03  0.22940025202E+03  0.00000000000E+00 0. -1.
         21   -1    0    0  501  502 -0.00000000000E+00 -0.00000000000E+00 -0.40737630036E+03  0.40737630036E+03  0.00000000000E+00 0. -1.
         25    1    1    2    0    0 -0.18342157316E+03 -0.13098586974E+02  0.32769951186E+01  0.22237532502E+03  0.12500000000E+03 0.  0.
         25    1    1    2    0    0  0.19990835467E+03 -0.24792452826E+01 -0.71145538041E+02  0.24628476305E+03  0.12500000000E+03 0.  0.
         25    1    1    2    0    0 -0.16486781509E+02  0.15577832256E+02 -0.11010750542E+03  0.16811646431E+03  0.12500000000E+03 0.  0.
</event>
<event>
 5    0  0.5612316E-005  0.2875279E+03  0.7546771E-02  0.1091647E+00
         21   -1    0    0  502  501  0.00000000000E+00  0.00000000000E+00  0.13807700650E+03  0.13807700650E+03  0.00000000000E+00 0.  1.
         21   -1    0    0  501  502 -0.00000000000E+00 -0.00000000000E+00 -0.59874050555E+03  0.59874050555E+03  0.00000000000E+00 0.  1.
         25    1    1    2    0    0 -0.14115375967E+03 -0.12433291814E+02 -0.72200874193E+02  0.20227935349E+03  0.12500000000E+03 0.  0.
         25    1    1    2    0    0  0.35165886320E+02 -0.38873976428E+01 -0.20657614893E+02  0.13154272490E+03  0.12500000000E+03 0.  0.
         25    1    1    2    0    0  0.10598787335E+03  0.16320689457E+02 -0.36780500997E+03  0.40299543367E+03  0.12500000000E+03 0.  0.
</event>
<event>
 5    0  0.5612316E-005  0.2940476E+03  0.7546771E-02  0.1088255E+00
         21   -1    0    0  502  501  0.00000000000E+00  0.00000000000E+00  0.34241323795E+03  0.34241323795E+03  0.00000000000E+00 0. -1.
         21   -1    0    0  501  502 -0.00000000000E+00 -0.00000000000E+00 -0.25251353133E+03  0.25251353133E+03  0.00000000000E+00 0. -1.
         25    1    1    2    0    0 -0.57884273364E+02 -0.89422857736E+01 -0.23812557867E+02  0.14008066066E+03  0.12500000000E+03 0.  0.
         25    1    1    2    0    0  0.10778594462E+03 -0.11771984322E+03  0.16682272299E+03  0.26254636210E+03  0.12500000000E+03 0.  0.
         25    1    1    2    0    0 -0.49901671256E+02  0.12666212899E+03 -0.53110458493E+02  0.19229974653E+03  0.12500000000E+03 0.  0.
</event>
<event>
 5    0  0.5612316E-005  0.2540341E+03  0.7546771E-02  0.1110782E+00
         21   -1    0    0  502  501  0.00000000000E+00  0.00000000000E+00  0.41626789128E+03  0.41626789128E+03  0.00000000000E+00 0.  1.
         21   -1    0    0  501  502 -0.00000000000E+00 -0.00000000000E+00 -0.15502833368E+03  0.15502833368E+03  0.00000000000E+00 0.  1.
         25    1    1    2    0    0  0.22204795417E+02 -0.12139502155E+03  0.34159900896E+02  0.17894608972E+03  0.12500000000E+03 0.  0.
         25    1    1    2    0    0  0.45448995977E+01  0.10684832066E+03  0.47100902259E+02  0.17111608555E+03  0.12500000000E+03 0.  0.
         25    1    1    2    0    0 -0.26749695015E+02  0.14546700892E+02  0.17997875445E+03  0.22123404970E+03  0.12500000000E+03 0.  0.
</event>
<event>
 5    0  0.5612316E-005  0.2968763E+03  0.7546771E-02  0.1086813E+00
         21   -1    0    0  502  501  0.00000000000E+00  0.00000000000E+00  0.72073557874E+02  0.72073557874E+02  0.00000000000E+00 0. -1.
         21   -1    0    0  501  502 -0.00000000000E+00 -0.00000000000E+00 -0.12228549732E+04  0.12228549732E+04  0.00000000000E+00 0. -1.
         25    1    1    2    0    0 -0.97177039738E+02 -0.11509401435E+03 -0.68566004723E+03  0.71305309028E+03  0.12500000000E+03 0.  0.
         25    1    1    2    0    0 -0.26912042611E+02  0.13575174689E+02 -0.95976009781E+02  0.16045229154E+03  0.12500000000E+03 0.  0.
         25    1    1    2    0    0  0.12408908235E+03  0.10151883966E+03 -0.36914535829E+03  0.42142314923E+03  0.12500000000E+03 0.  0.
</event>
<event>
 5    0  0.5612316E-005  0.2783669E+03  0.7546771E-02  0.1096584E+00
         21   -1    0    0  502  501  0.00000000000E+00  0.00000000000E+00  0.89448347588E+02  0.89448347588E+02  0.00000000000E+00 0. -1.
         21   -1    0    0  501  502 -0.00000000000E+00 -0.00000000000E+00 -0.86628888286E+03  0.86628888286E+03  0.00000000000E+00 0. -1.
         25    1    1    2    0    0  0.89056742595E+02 -0.13213386594E+02 -0.44832021527E+03  0.47404821738E+03  0.12500000000E+03 0.  0.
         25    1    1    2    0    0 -0.38437904375E+02 -0.33348449125E+02 -0.30963862149E+03  0.33777310058E+03  0.12500000000E+03 0.  0.
         25    1    1    2    0    0 -0.50618838220E+02  0.46561835720E+02 -0.18881698509E+02  0.14391591249E+03  0.12500000000E+03 0.  0.
</event>
<event>
 5    0  0.5612316E-005  0.2628920E+03  0.7546771E-02  0.1105418E+00
         21   -1    0    0  502  501  0.00000000000E+00  0.00000000000E+00  0.90611864845E+03  0.90611864845E+03  0.00000000000E+00 0. -1.
         21   -1    0    0  501  502 -0.00000000000E+00 -0.00000000000E+00 -0.76272793819E+02  0.76272793819E+02  0.00000000000E+00 0. -1.
         25    1    1    2    0    0  0.31235299150E+02  0.11548369226E+03  0.39020087784E+03  0.42684171793E+03  0.12500000000E+03 0.  0.
         25    1    1    2    0    0 -0.64652223271E+02 -0.47371653743E+02  0.35914939101E+03  0.38863513559E+03  0.12500000000E+03 0.  0.
         25    1    1    2    0    0  0.33416924120E+02 -0.68112038518E+02  0.80495585772E+02  0.16691458875E+03  0.12500000000E+03 0.  0.
</event>
<event>
 5    0  0.6028554E-005  0.2991986E+03  0.7546771E-02  0.1085642E+00
         21   -1    0    0  502  501  0.00000000000E+00  0.00000000000E+00  0.23629611210E+03  0.23629611210E+03  0.00000000000E+00 0. -1.
         21   -1    0    0  501  502 -0.00000000000E+00 -0.00000000000E+00 -0.37884592944E+03  0.37884592944E+03  0.00000000000E+00 0. -1.
         25    1    1    2    0    0 -0.16645814559E+02  0.21172582636E+02 -0.16914200296E+03  0.21203626709E+03  0.12500000000E+03 0.  0.
         25    1    1    2    0    0 -0.11684350107E+03 -0.11428248958E+02  0.10802922773E+03  0.20267787906E+03  0.12500000000E+03 0.  0.
         25    1    1    2    0    0  0.13348931563E+03 -0.97443336785E+01 -0.81437042114E+02  0.20042789540E+03  0.12500000000E+03 0.  0.
</event>
<event>
 5    0  0.5612316E-005  0.3972581E+03  0.7546771E-02  0.1044733E+00
         21   -1    0    0  502  501  0.00000000000E+00  0.00000000000E+00  0.18947414567E+03  0.18947414567E+03  0.00000000000E+00 0. -1.
         21   -1    0    0  501  502 -0.00000000000E+00 -0.00000000000E+00 -0.83290509380E+03  0.83290509380E+03  0.00000000000E+00 0. -1.
         25    1    1    2    0    0 -0.70090739560E+02  0.19538680539E+03 -0.28779756368E+02  0.24401227401E+03  0.12500000000E+03 0.  0.
         25    1    1    2    0    0 -0.18755339168E+02 -0.19111360802E+03 -0.57637137694E+03  0.62024603028E+03  0.12500000000E+03 0.  0.
         25    1    1    2    0    0  0.88846078728E+02 -0.42731973689E+01 -0.38279814819E+02  0.15812093518E+03  0.12500000000E+03 0.  0.
</event>
<event>
 5    0  0.5612316E-005  0.2907191E+03  0.7546771E-02  0.1089974E+00
         21   -1    0    0  502  501  0.00000000000E+00  0.00000000000E+00  0.27901548153E+03  0.27901548153E+03  0.00000000000E+00 0.  1.
         21   -1    0    0  501  502 -0.00000000000E+00 -0.00000000000E+00 -0.30291364409E+03  0.30291364409E+03  0.00000000000E+00 0.  1.
         25    1    1    2    0    0 -0.16308633468E+02  0.67827924996E+02  0.14534937457E+03  0.20400499901E+03  0.12500000000E+03 0.  0.
         25    1    1    2    0    0  0.10000493896E+03  0.23632920513E+02 -0.83869869873E+02  0.18225986344E+03  0.12500000000E+03 0.  0.
         25    1    1    2    0    0 -0.83696305497E+02 -0.91460845508E+02 -0.85377667248E+02  0.19566426316E+03  0.12500000000E+03 0.  0.
</event>
<event>
 5    0  0.5612316E-005  0.3451402E+03  0.7546771E-02  0.1064628E+00
         21   -1    0    0  502  501  0.00000000000E+00  0.00000000000E+00  0.56756601919E+03  0.56756601919E+03  0.00000000000E+00 0. -1.
         21   -1    0    0  501  502 -0.00000000000E+00 -0.00000000000E+00 -0.20988173955E+03  0.20988173955E+03  0.00000000000E+00 0. -1.
         25    1    1    2    0    0  0.18557916935E+02 -0.29479645153E+02  0.32122204958E+03  0.34644198778E+03  0.12500000000E+03 0.  0.
         25    1    1    2    0    0 -0.10744836906E+03  0.11516776064E+03  0.12241435239E+03  0.23541248645E+03  0.12500000000E+03 0.  0.
         25    1    1    2    0    0  0.88890452128E+02 -0.85688115483E+02 -0.85952122328E+02  0.19559328451E+03  0.12500000000E+03 0.  0.
</event>
