<event>
 5    0  0.5474724E-005  0.2513289E+03  0.7546771E-02  0.1112468E+00
         21   -1    0    0  502  501  0.00000000000E+00  0.00000000000E+00  0.10335334810E+03  0.10335334810E+03  0.00000000000E+00 0. -1.
         21   -1    0    0  501  502 -0.00000000000E+00 -0.00000000000E+00 -0.61116762836E+03  0.61116762836E+03  0.00000000000E+00 0. -1.
         25    1    1    2    0    0 -0.29560760802E+02  0.13555407846E+02 -0.21989013023E+03  0.25501815040E+03  0.12500000000E+03 0.  0.
         25    1    1    2    0    0 -0.24475966808E+02 -0.83888585079E+02 -0.24129466273E+02  0.15441372607E+03  0.12500000000E+03 0.  0.
         25    1    1    2    0    0  0.54036727609E+02  0.70333177233E+02 -0.26379468376E+03  0.30508909998E+03  0.12500000000E+03 0.  0.
</event>
<event>
 5    0  0.6292495E-005  0.3427083E+03  0.7546771E-02  0.1065648E+00
         21   -1    0    0  502  501  0.00000000000E+00  0.00000000000E+00  0.21522645268E+03  0.21522645268E+03  0.00000000000E+00 0. -1.
         21   -1    0    0  501  502 -0.00000000000E+00 -0.00000000000E+00 -0.54569951624E+03  0.54569951624E+03  0.00000000000E+00 0. -1.
         25    1    1    2    0    0  0.10468396782E+03 -0.49469669856E+02  0.39047892762E+02  0.17480194302E+03  0.12500000000E+03 0.  0.
         25    1    1    2    0    0 -0.21608350748E+03  0.10478545243E+03 -0.27561033233E+03  0.38633939552E+03  0.12500000000E+03 0.  0.
         25    1    1    2    0    0  0.11139953966E+03 -0.55315782570E+02 -0.93910623999E+02  0.19978463038E+03  0.12500000000E+03 0.  0.
</event>
<event>
 5    0  0.5474724E-005  0.3541250E+03  0.7546771E-02  0.1060935E+00
         21   -1    0    0  502  501  0.00000000000E+00  0.00000000000E+00  0.29438629129E+03  0.29438629129E+03  0.00000000000E+00 0. -1.
         21   -1    0    0  501  502 -0.00000000000E+00 -0.00000000000E+00 -0.42598623817E+03  0.42598623817E+03  0.00000000000E+00 0. -1.
         25    1    1    2    0    0  0.32346892579E+02 -0.10772832202E+03  0.64303929990E+02  0.18003251994E+03  0.12500000000E+03 0.  0.
         25    1    1    2    0    0  0.40885826828E+02  0.13631097275E+03 -0.30341404793E+03  0.35768340276E+03  0.12500000000E+03 0.  0.
         25    1    1    2    0    0 -0.73232719407E+02 -0.28582650729E+02  0.10751017106E+03  0.18265660677E+03  0.12500000000E+03 0.  0.
</event>
<event>
 5    0  0.5474724E-005  0.2990731E+03  0.7546771E-02  0.1085705E+00
         21   -1    0    0  502  501  0.00000000000E+00  0.00000000000E+00  0.82783154357E+02  0.82783154357E+02  0.00000000000E+00 0. -1.
         21   -1    0    0  501  502 -0.00000000000E+00 -0.00000000000E+00 -0.10804697441E+04  0.10804697441E+04  0.00000000000E+00 0. -1.
         25    1    1    2    0    0  0.88502738329E+02 -0.37828788786E+02 -0.41908065924E+03  0.44779163782E+03  0.12500000000E+03 0.  0.
         25    1    1    2    0    0  0.81369473938E+02  0.12186455828E+03 -0.29254927957E+03  0.35025996464E+03  0.12500000000E+03 0.  0.
         25    1    1    2    0    0 -0.16987221227E+03 -0.84035769494E+02 -0.28605665094E+03  0.36520129600E+03  0.12500000000E+03 0.  0.
</event>
<event>
 5    0  0.5474724E-005  0.4132836E+03  0.7546771E-02  0.1039275E+00
         21   -1    0    0  502  501  0.00000000000E+00  0.00000000000E+00  0.11216681184E+04  0.11216681184E+04  0.00000000000E+00 0. -1.
         21   -1    0    0  501  502 -0.00000000000E+00 -0.00000000000E+00 -0.15227616020E+03  0.15227616020E+03  0.00000000000E+00 0. -1.
         25    1    1    2    0    0  0.37858386810E+02  0.23938590888E+03  0.55555992839E+03  0.61887858652E+03  0.12500000000E+03 0.  0.
         25    1    1    2    0    0 -0.35389804677E+02  0.38442663982E+02  0.30116728329E+03  0.33023780706E+03  0.12500000000E+03 0.  0.
         25    1    1    2    0    0 -0.24685821335E+01 -0.27782857286E+03  0.11266474657E+03  0.32482788507E+03  0.12500000000E+03 0.  0.
</event>
<event>
 5    0  0.5474724E-005  0.4065882E+03  0.7546771E-02  0.1041522E+00
         21   -1    0    0  502  501  0.00000000000E+00  0.00000000000E+00  0.12393989833E+04  0.12393989833E+04  0.00000000000E+00 0. -1.
         21   -1    0    0  501  502 -0.00000000000E+00 -0.00000000000E+00 -0.13338238961E+03  0.13338238961E+03  0.00000000000E+00 0. -1.
         25    1    1    2    0    0  0.59233101641E+02 -0.14848987066E+03  0.68243746961E+03  0.71197170024E+03  0.12500000000E+03 0.  0.
         25    1    1    2    0    0  0.66728691108E+02  0.14509198383E+03  0.43806170081E+03  0.48272917429E+03  0.12500000000E+03 0.  0.
         25    1    1    2    0    0 -0.12596179275E+03  0.33978868287E+01 -0.14482576757E+02  0.17808049836E+03  0.12500000000E+03 0.  0.
</event>
<event>
 5    0  0.5576472E-005  0.2954204E+03  0.7546771E-02  0.1087553E+00
         21   -1    0    0  502  501  0.00000000000E+00  0.00000000000E+00  0.21665266425E+03  0.21665266425E+03  0.00000000000E+00 0.  1.
         21   -1    0    0  501  502 -0.00000000000E+00 -0.00000000000E+00 -0.40282559949E+03  0.40282559949E+03  0.00000000000E+00 0.  1.
         25    1    1    2    0    0 -0.14160121107E+03  0.69692264412E+02 -0.24251771051E+03  0.31519478835E+03  0.12500000000E+03 0.  0.
         25    1    1    2    0    0  0.68608121805E+02 -0.44170808747E+02  0.49015616138E+02  0.15711672523E+03  0.12500000000E+03 0.  0.
         25    1    1    2    0    0  0.72993089262E+02 -0.25521455665E+02  0.73291591308E+01  0.14716675016E+03  0.12500000000E+03 0.  0.
</event>
<event>
 5    0  0.5474724E-005  0.3240835E+03  0.7546771E-02  0.1073785E+00
         21   -1    0    0  502  501  0.00000000000E+00  0.00000000000E+00  0.22817856599E+03  0.22817856599E+03  0.00000000000E+00 0.  1.
         21   -1    0    0  501  502 -0.00000000000E+00 -0.00000000000E+00 -0.46029780459E+03  0.46029780459E+03  0.00000000000E+00 0.  1.
         25    1    1    2    0    0  0.11474619206E+03  0.33838204993E+02 -0.19146374261E+03  0.25806022058E+03  0.12500000000E+03 0.  0.
         25    1    1    2    0    0 -0.19997783720E+03 -0.16387143404E+02 -0.11275858134E+03  0.26191443547E+03  0.12500000000E+03 0.  0.
         25    1    1    2    0    0  0.85231645141E+02 -0.17451061589E+02  0.72103085350E+02  0.16850171453E+03  0.12500000000E+03 0.  0.
</event>
<event>
 5    0  0.5474724E-005  0.2584238E+03  0.7546771E-02  0.1108094E+00
         21   -1    0    0  502  501  0.00000000000E+00  0.00000000000E+00  0.15772409354E+03  0.15772409354E+03  0.00000000000E+00 0.  1.
         21   -1    0    0  501  502 -0.00000000000E+00 -0.00000000000E+00 -0.42341558883E+03  0.42341558883E+03  0.00000000000E+00 0.  1.
         25    1    1    2    0    0 -0.10860950034E+03 -0.85106839124E+02 -0.11253866638E+03  0.21755263515E+03  0.12500000000E+03 0.  0.
         25    1    1    2    0    0  0.37460087655E+02  0.44392654559E+01  0.10841782314E+02  0.13101721066E+03  0.12500000000E+03 0.  0.
         25    1    1    2    0    0  0.71149412687E+02  0.80667573669E+02 -0.16399461122E+03  0.23256983656E+03  0.12500000000E+03 0.  0.
</event>
<event>
 5    0  0.5474724E-005  0.3205067E+03  0.7546771E-02  0.1075416E+00
         21   -1    0    0  502  501  0.00000000000E+00  0.00000000000E+00  0.44867885507E+02  0.44867885507E+02  0.00000000000E+00 0.  1.
         21   -1    0    0  501  502 -0.00000000000E+00 -0.00000000000E+00 -0.22894889654E+04  0.22894889654E+04  0.00000000000E+00 0.  1.
         25    1    1    2    0    0  0.10529738285E+03 -0.35862134610E+02 -0.94754869362E+03  0.96220951893E+03  0.12500000000E+03 0.  0.
         25    1    1    2    0    0 -0.17958753132E+03 -0.10714826391E+03 -0.71778268749E+03  0.75800357409E+03  0.12500000000E+03 0.  0.
         25    1    1    2    0    0  0.74290148474E+02  0.14301039852E+03 -0.57928969875E+03  0.61414375786E+03  0.12500000000E+03 0.  0.
</event>
<event>
 5    0  0.6042431E-005  0.2604826E+03  0.7546771E-02  0.1106854E+00
         21   -1    0    0  502  501  0.00000000000E+00  0.00000000000E+00  0.64966792909E+03  0.64966792909E+03  0.00000000000E+00 0.  1.
         21   -1    0    0  501  502 -0.00000000000E+00 -0.00000000000E+00 -0.10443982919E+03  0.10443982919E+03  0.00000000000E+00 0.  1.
         25    1    1    2    0    0 -0.13933650935E+03 -0.37639262719E+01  0.88271815104E+02  0.20699213348E+03  0.12500000000E+03 0.  0.
         25    1    1    2    0    0  0.52602095299E+02 -0.31688733517E+02  0.26728354042E+03  0.30139118640E+03  0.12500000000E+03 0.  0.
         25    1    1    2    0    0  0.86734414054E+02  0.35452659789E+02  0.18967274437E+03  0.24572443840E+03  0.12500000000E+03 0.  0.
</event>
<event>
 5    0  0.5474724E-005  0.5362453E+03  0.7546771E-02  0.1004729E+00
         21   -1    0    0  502  501  0.00000000000E+00  0.00000000000E+00  0.21547370433E+04  0.21547370433E+04  0.00000000000E+00 0.  1.
         21   -1    0    0  501  502 -0.00000000000E+00 -0.00000000000E+00 -0.13345433953E+03  0.13345433953E+03  0.00000000000E+00 0.  1.
         25    1    1    2    0    0 -0.15994626942E+03 -0.15515134821E+03  0.14975966121E+03  0.29615486840E+03  0.12500000000E+03 0.  0.
         25    1    1    2    0    0  0.44580078844E+01  0.30731066128E+03  0.51584831187E+03  0.61333856656E+03  0.12500000000E+03 0.  0.
         25    1    1    2    0    0  0.15548826153E+03 -0.15215931307E+03  0.13556747307E+04  0.13786979479E+04  0.12500000000E+03 0.  0.
</event>
<event>
 5    0  0.5474724E-005  0.2178067E+03  0.7546771E-02  0.1135529E+00
         21   -1    0    0  502  501  0.00000000000E+00  0.00000000000E+00  0.56311533803E+03  0.56311533803E+03  0.00000000000E+00 0. -1.
         21   -1    0    0  501  502 -0.00000000000E+00 -0.00000000000E+00 -0.84245192600E+02  0.84245192600E+02  0.00000000000E+00 0. -1.
         25    1    1    2    0    0  0.20441661880E+02  0.51214416905E+02  0.56921686176E+02  0.14800627148E+03  0.12500000000E+03 0.  0.
         25    1    1    2    0    0 -0.42648897056E+01 -0.32112531758E+02  0.14310965516E+03  0.19275574539E+03  0.12500000000E+03 0.  0.
         25    1    1    2    0    0 -0.16176772174E+02 -0.19101885147E+02  0.27883880409E+03  0.30659851376E+03  0.12500000000E+03 0.  0.
</event>
<event>
 5    0  0.5474724E-005  0.4036413E+03  0.7546771E-02  0.1042526E+00
         21   -1    0    0  502  501  0.00000000000E+00  0.00000000000E+00  0.36747108871E+03  0.36747108871E+03  0.00000000000E+00 0.  1.
         21   -1    0    0  501  502 -0.00000000000E+00 -0.00000000000E+00 -0.44337165316E+03  0.44337165316E+03  0.00000000000E+00 0.  1.
         25    1    1    2    0    0 -0.17196878585E+02  0.10112042401E+03  0.61702365850E+02  0.17307008620E+03  0.12500000000E+03 0.  0.
         25    1    1    2    0    0 -0.53416619556E+02 -0.13682571865E+03  0.19468060874E+03  0.27404406935E+03  0.12500000000E+03 0.  0.
         25    1    1    2    0    0  0.70613498142E+02  0.35705294634E+02 -0.33228353904E+03  0.36372858631E+03  0.12500000000E+03 0.  0.
</event>
<event>
 5    0  0.5474724E-005  0.2378817E+03  0.7546771E-02  0.1121212E+00
         21   -1    0    0  502  501  0.00000000000E+00  0.00000000000E+00  0.10276492743E+03  0.10276492743E+03  0.00000000000E+00 0. -1.
         21   -1    0    0  501  502 -0.00000000000E+00 -0.00000000000E+00 -0.55065191038E+03  0.55065191038E+03  0.00000000000E+00 0. -1.
         25    1    1    2    0    0 -0.12005611859E+02 -0.26647585718E+02 -0.27456473155E+03  0.30309242873E+03  0.12500000000E+03 0.  0.
         25    1    1    2    0    0  0.86141962757E+02 -0.13852150478E+02 -0.71976041795E+02  0.16857600782E+03  0.12500000000E+03 0.  0.
         25    1    1    2    0    0 -0.74136350897E+02  0.40499736196E+02 -0.10134620961E+03  0.18174840125E+03  0.12500000000E+03 0.  0.
</event>
<event>
 5    0  0.5474724E-005  0.2650641E+03  0.7546771E-02  0.1104138E+00
         21   -1    0    0  502  501  0.00000000000E+00  0.00000000000E+00  0.26047875884E+03  0.26047875884E+03  0.00000000000E+00 0. -1.
         21   -1    0    0  501  502 -0.00000000000E+00 -0.00000000000E+00 -0.26973005949E+03  0.26973005949E+03  0.00000000000E+00 0. -1.
         25    1    1    2    0    0 -0.89043386908E+02 -0.14774011864E+02  0.30519949742E+02  0.15717335496E+03  0.12500000000E+03 0.  0.
         25    1    1    2    0    0  0.68120853079E+02 -0.11684730394E+03  0.74168353078E+01  0.18431970190E+03  0.12500000000E+03 0.  0.
         25    1    1    2    0    0  0.20922533829E+02  0.13162131580E+03 -0.47188085695E+02  0.18871576147E+03  0.12500000000E+03 0.  0.
</event>
<event>
 5    0  0.5474724E-005  0.3856341E+03  0.7546771E-02  0.1048871E+00
         21   -1    0    0  502  501  0.00000000000E+00  0.00000000000E+00  0.80246154186E+03  0.80246154186E+03  0.00000000000E+00 0. -1.
         21   -1    0    0  501  502 -0.00000000000E+00 -0.00000000000E+00 -0.18532186455E+03  0.18532186455E+03  0.00000000000E+00 0. -1.
         25    1    1    2    0    0  0.78979224333E+02 -0.15941860163E+03  0.22909131449E+03  0.31584780954E+03  0.12500000000E+03 0.  0.
         25    1    1    2    0    0  0.93250866524E+02  0.26143512649E+03  0.16064071873E+03  0.34420123472E+03  0.12500000000E+03 0.  0.
         25    1    1    2    0    0 -0.17223009086E+03 -0.10201652486E+03  0.22740764410E+03  0.32773436215E+03  0.12500000000E+03 0.  0.
</event>
<event>
 5    0  0.5474724E-005  0.2426333E+03  0.7546771E-02  0.1118051E+00
         21   -1    0    0  502  501  0.00000000000E+00  0.00000000000E+00  0.39248316620E+03  0.39248316620E+03  0.00000000000E+00 0.  1.
         21   -1    0    0  501  502 -0.00000000000E+00 -0.00000000000E+00 -0.14999608842E+03  0.14999608842E+03  0.00000000000E+00 0.  1.
         25    1    1    2    0    0  0.22473454747E+02  0.10918947179E+03  0.58124758626E+02  0.17728757566E+03  0.12500000000E+03 0.  0.
         25    1    1    2    0    0  0.74599663656E+01  0.25004275743E+02  0.94024258086E+02  0.15857624668E+03  0.12500000000E+03 0.  0.
         25    1    1    2    0    0 -0.29933421113E+02 -0.13419374754E+03  0.90338061071E+02  0.20661543228E+03  0.12500000000E+03 0.  0.
</event>
<event>
 5    0  0.5474724E-005  0.2602037E+03  0.7546771E-02  0.1107021E+00
         21   -1    0    0  502  501  0.00000000000E+00  0.00000000000E+00  0.45022662387E+02  0.45022662387E+02  0.00000000000E+00 0.  1.
         21   -1    0    0  501  502 -0.00000000000E+00 -0.00000000000E+00 -0.15038195574E+04  0.15038195574E+04  0.00000000000E+00 0.  1.
         25    1    1    2    0    0 -0.80329538680E+02  0.99217611994E+02 -0.31667255595E+03  0.36359796067E+03  0.12500000000E+03 0.  0.
         25    1    1    2    0    0 -0.18865312773E+01 -0.10954879067E+03 -0.63665270220E+03  0.65799404234E+03  0.12500000000E+03 0.  0.
         25    1    1    2    0    0  0.82216069957E+02  0.10331178677E+02 -0.50547163682E+03  0.52725021673E+03  0.12500000000E+03 0.  0.
</event>
<event>
 5    0  0.5474724E-005  0.3683350E+03  0.7546771E-02  0.1055331E+00
         21   -1    0    0  502  501  0.00000000000E+00  0.00000000000E+00  0.41819200916E+02  0.41819200916E+02  0.00000000000E+00 0. -1.
         21   -1    0    0  501  502 -0.00000000000E+00 -0.00000000000E+00 -0.32442187449E+04  0.32442187449E+04  0.00000000000E+00 0. -1.
         25    1    1    2    0    0 -0.92751648426E+02 -0.16286487905E+03 -0.96038991362E+03  0.98645913413E+03  0.12500000000E+03 0.  0.
         25    1    1    2    0    0  0.10124235652E+03  0.17262107113E+03 -0.49822993210E+03  0.55127680360E+03  0.12500000000E+03 0.  0.
         25    1    1    2    0    0 -0.84907080976E+01 -0.97561920746E+01 -0.17437796983E+04  0.17483020081E+04  0.12500000000E+03 0.  0.
</event>
<event>
 5    0  0.5474724E-005  0.2854123E+03  0.7546771E-02  0.1092769E+00
         21   -1    0    0  502  501  0.00000000000E+00  0.00000000000E+00  0.77135560945E+02  0.77135560945E+02  0.00000000000E+00 0.  1.
         21   -1    0    0  501  502 -0.00000000000E+00 -0.00000000000E+00 -0.10560653294E+04  0.10560653294E+04  0.00000000000E+00 0.  1.
         25    1    1    2    0    0 -0.34626863889E+02  0.17590338735E+03 -0.27523775992E+03  0.35145674822E+03  0.12500000000E+03 0.  0.
         25    1    1    2    0    0  0.29612776783E+02 -0.15098755075E+02 -0.35585555275E+03  0.37863315145E+03  0.12500000000E+03 0.  0.
         25    1    1    2    0    0  0.50140871062E+01 -0.16080463228E+03 -0.34783645579E+03  0.40311099068E+03  0.12500000000E+03 0.  0.
</event>
<event>
 5    0  0.5474724E-005  0.3082966E+03  0.7546771E-02  0.1081165E+00
         21   -1    0    0  502  501  0.00000000000E+00  0.00000000000E+00  0.48789205935E+03  0.48789205935E+03  0.00000000000E+00 0.  1.
         21   -1    0    0  501  502 -0.00000000000E+00 -0.00000000000E+00 -0.19481113768E+03  0.19481113768E+03  0.00000000000E+00 0.  1.
         25    1    1    2    0    0 -0.40736807587E+02  0.88072962735E+02 -0.18646083854E+02  0.15933929428E+03  0.12500000000E+03 0.  0.
         25    1    1    2    0    0  0.39801528755E+02  0.11585488711E+03  0.17663778645E+03  0.24866126389E+03  0.12500000000E+03 0.  0.
         25    1    1    2    0    0  0.93527883229E+00 -0.20392784985E+03  0.13508921907E+03  0.27470263886E+03  0.12500000000E+03 0.  0.
</event>
<event>
 5    0  0.6391817E-005  0.3412796E+03  0.7546771E-02  0.1066252E+00
         21   -1    0    0  502  501  0.00000000000E+00  0.00000000000E+00  0.49226849627E+03  0.49226849627E+03  0.00000000000E+00 0.  1.
         21   -1    0    0  501  502 -0.00000000000E+00 -0.00000000000E+00 -0.23660215121E+03  0.23660215121E+03  0.00000000000E+00 0.  1.
         25    1    1    2    0    0  0.18264272620E+02  0.19464014163E+02 -0.88469211126E+02  0.15544848928E+03  0.12500000000E+03 0.  0.
         25    1    1    2    0    0 -0.13101934155E+03  0.55366496849E+01 -0.90267153509E+01  0.18139240321E+03  0.12500000000E+03 0.  0.
         25    1    1    2    0    0  0.11275506893E+03 -0.25000663848E+02  0.35316227154E+03  0.39202975499E+03  0.12500000000E+03 0.  0.
</event>
<event>
 5    0  0.5474724E-005  0.3023300E+03  0.7546771E-02  0.1084082E+00
         21   -1    0    0  502  501  0.00000000000E+00  0.00000000000E+00  0.40369630765E+03  0.40369630765E+03  0.00000000000E+00 0.  1.
         21   -1    0    0  501  502 -0.00000000000E+00 -0.00000000000E+00 -0.22641627417E+03  0.22641627417E+03  0.00000000000E+00 0.  1.
         25    1    1    2    0    0 -0.54346024194E+02  0.62274547715E+02  0.30951311469E+02  0.15301827773E+03  0.12500000000E+03 0.  0.
         25    1    1    2    0    0  0.16261793275E+03  0.28494112299E+02 -0.41156902991E+02  0.21112886385E+03  0.12500000000E+03 0.  0.
         25    1    1    2    0    0 -0.10827190855E+03 -0.90768660014E+02  0.18748562500E+03  0.26596544024E+03  0.12500000000E+03 0.  0.
</event>
<event>
 5    0  0.5702013E-005  0.2837001E+03  0.7546771E-02  0.1093685E+00
         21   -1    0    0  502  501  0.00000000000E+00  0.00000000000E+00  0.82228761169E+02  0.82228761169E+02  0.00000000000E+00 0. -1.
         21   -1    0    0  501  502 -0.00000000000E+00 -0.00000000000E+00 -0.97880299764E+03  0.97880299764E+03  0.00000000000E+00 0. -1.
         25    1    1    2    0    0 -0.31204952187E+02  0.66903173575E+02 -0.54895907753E+02  0.15520420214E+03  0.12500000000E+03 0.  0.
         25    1    1    2    0    0  0.10263829464E+03 -0.64527380599E+02 -0.31620930206E+03  0.36098715363E+03  0.12500000000E+03 0.  0.
         25    1    1    2    0    0 -0.71433342454E+02 -0.23757929758E+01 -0.52546902666E+03  0.54484040304E+03  0.12500000000E+03 0.  0.
</event>
<event>
 5    0  0.5474724E-005  0.4630646E+03  0.7546771E-02  0.1023896E+00
         21   -1    0    0  502  501  0.00000000000E+00  0.00000000000E+00  0.19078952811E+03  0.19078952811E+03  0.00000000000E+00 0. -1.
         21   -1    0    0  501  502 -0.00000000000E+00 -0.00000000000E+00 -0.11239023213E+04  0.11239023213E+04  0.00000000000E+00 0. -1.
         25    1    1    2    0    0 -0.50627270730E+01 -0.26116749144E+03 -0.96126130475E+02  0.30512181625E+03  0.12500000000E+03 0.  0.
         25    1    1    2    0    0 -0.17599039757E+03 -0.65924818399E+01 -0.28071452672E+03  0.35417753509E+03  0.12500000000E+03 0.  0.
         25    1    1    2    0    0  0.18105312464E+03  0.26775997328E+03 -0.55627213597E+03  0.65539249805E+03  0.12500000000E+03 0.  0.
</event>
<event>
 5    0  0.5474724E-005  0.2999787E+03  0.7546771E-02  0.1085251E+00
         21   -1    0    0  502  501  0.00000000000E+00  0.00000000000E+00  0.37355932093E+03  0.37355932093E+03  0.00000000000E+00 0.  1.
         21   -1    0    0  501  502 -0.00000000000E+00 -0.00000000000E+00 -0.24089145740E+03  0.24089145740E+03  0.00000000000E+00 0.  1.
         25    1    1    2    0    0 -0.11350021313E+03  0.94799375487E+02  0.12699873725E+03  0.23156618759E+03  0.12500000000E+03 0.  0.
         25    1    1    2    0    0 -0.41216668559E+02 -0.76264456926E+02  0.77342334427E+02  0.17065145136E+03  0.12500000000E+03 0.  0.
         25    1    1    2    0    0  0.15471688169E+03 -0.18534918561E+02 -0.71673208144E+02  0.21223313938E+03  0.12500000000E+03 0.  0.
</event>
<event>
 5    0  0.5474724E-005  0.2861221E+03  0.7546771E-02  0.1092391E+00
         21   -1    0    0  502  501  0.00000000000E+00  0.00000000000E+00  0.34084717845E+03  0.34084717845E+03  0.00000000000E+00 0. -1.
         21   -1    0    0  501  502 -0.00000000000E+00 -0.00000000000E+00 -0.24018338601E+03  0.24018338601E+03  0.00000000000E+00 0. -1.
         25    1    1    2    0    0  0.48805531033E+02 -0.10252480384E+03  0.85005599654E+02  0.18906154351E+03  0.12500000000E+03 0.  0.
         25    1    1    2    0    0  0.78926131024E+02  0.89600570684E+02 -0.78153323771E+02  0.18971172458E+03  0.12500000000E+03 0.  0.
         25    1    1    2    0    0 -0.12773166206E+03  0.12924233153E+02  0.93811516558E+02  0.20225729637E+03  0.12500000000E+03 0.  0.
</event>
<event>
 5    0  0.6548602E-005  0.2865589E+03  0.7546771E-02  0.1092160E+00
         21   -1    0    0  502  501  0.00000000000E+00  0.00000000000E+00  0.31275685859E+03  0.31275685859E+03  0.00000000000E+00 0.  1.
         21   -1    0    0  501  502 -0.00000000000E+00 -0.00000000000E+00 -0.26255539493E+03  0.26255539493E+03  0.00000000000E+00 0.  1.
         25    1    1    2    0    0 -0.92363977680E+02  0.11785533901E+03 -0.69416796768E+02  0.20703786364E+03  0.12500000000E+03 0.  0.
         25    1    1    2    0    0  0.71755366449E+02  0.10918543807E+02  0.11963250426E+03  0.18762991043E+03  0.12500000000E+03 0.  0.
         25    1    1    2    0    0  0.20608611231E+02 -0.12877388282E+03 -0.14243841844E-01  0.18064447945E+03  0.12500000000E+03 0.  0.
</event>
<event>
 5    0  0.5474724E-005  0.2405691E+03  0.7546771E-02  0.1119414E+00
         21   -1    0    0  502  501  0.00000000000E+00  0.00000000000E+00  0.19411745484E+03  0.19411745484E+03  0.00000000000E+00 0. -1.
         21   -1    0    0  501  502 -0.00000000000E+00 -0.00000000000E+00 -0.29813643606E+03  0.29813643606E+03  0.00000000000E+00 0. -1.
         25    1    1    2    0    0 -0.45704539681E+02 -0.18593201858E+00 -0.31777449363E+02  0.13683473903E+03  0.12500000000E+03 0.  0.
         25    1    1    2    0    0 -0.14132668266E+02 -0.91877609587E+02  0.32075090223E+02  0.15904414126E+03  0.12500000000E+03 0.  0.
         25    1    1    2    0    0  0.59837207946E+02  0.92063541606E+02 -0.10431662208E+03  0.19637501061E+03  0.12500000000E+03 0.  0.
</event>
<event>
 5    0  0.5474724E-005  0.3746726E+03  0.7546771E-02  0.1052921E+00
         21   -1    0    0  502  501  0.00000000000E+00  0.00000000000E+00  0.20895703654E+04  0.20895703654E+04  0.00000000000E+00 0. -1.
         21   -1    0    0  501  502 -0.00000000000E+00 -0.00000000000E+00 -0.67181071823E+02  0.67181071823E+02  0.00000000000E+00 0. -1.
         25    1    1    2    0    0 -0.71035293600E+02  0.11518081023E+03  0.83279269829E+03  0.85292514930E+03  0.12500000000E+03 0.  0.
         25    1    1    2    0    0  0.47399495658E+02  0.16927203576E+03  0.58811449824E+03  0.62642110223E+03  0.12500000000E+03 0.  0.
         25    1    1    2    0    0  0.23635797942E+02 -0.28445284599E+03  0.60148209706E+03  0.67740518570E+03  0.12500000000E+03 0.  0.
</event>
<event>
 5    0  0.6290392E-005  0.3594243E+03  0.7546771E-02  0.1058812E+00
         21   -1    0    0  502  501  0.00000000000E+00  0.00000000000E+00  0.27946144042E+03  0.27946144042E+03  0.00000000000E+00 0.  1.
         21   -1    0    0  501  502 -0.00000000000E+00 -0.00000000000E+00 -0.46226705655E+03  0.46226705655E+03  0.00000000000E+00 0.  1.
         25    1    1    2    0    0 -0.93163057418E+02 -0.11541278552E+02 -0.30253728700E+03  0.34053834792E+03  0.12500000000E+03 0.  0.
         25    1    1    2    0    0  0.17951383552E+03  0.16859394656E+02  0.22067922299E+02  0.22050272000E+03  0.12500000000E+03 0.  0.
         25    1    1    2    0    0 -0.86350778101E+02 -0.53181161040E+01  0.97663748569E+02  0.18068742907E+03  0.12500000000E+03 0.  0.
</event>
<event>
 5    0  0.5474724E-005  0.2866974E+03  0.7546771E-02  0.1092086E+00
         21   -1    0    0  502  501  0.00000000000E+00  0.00000000000E+00  0.10078554840E+03  0.10078554840E+03  0.00000000000E+00 0. -1.
         21   -1    0    0  501  502 -0.00000000000E+00 -0.00000000000E+00 -0.81554748974E+03  0.81554748974E+03  0.00000000000E+00 0.  1.
         25    1    1    2    0    0 -0.12107225044E+03  0.20902995340E+02 -0.56504430011E+03  0.59160416338E+03  0.12500000000E+03 0.  0.
         25    1    1    2    0    0  0.81289630285E+02  0.20041781308E+02 -0.70996596204E+02  0.16635862966E+03  0.12500000000E+03 0.  0.
         25    1    1    2    0    0  0.39782620158E+02 -0.40944776648E+02 -0.78721045026E+02  0.15837024509E+03  0.12500000000E+03 0.  0.
</event>
<event>
 5    0  0.5474724E-005  0.3775811E+03  0.7546771E-02  0.1051831E+00
         21   -1    0    0  502  501  0.00000000000E+00  0.00000000000E+00  0.34069158051E+03  0.34069158051E+03  0.00000000000E+00 0. -1.
         21   -1    0    0  501  502 -0.00000000000E+00 -0.00000000000E+00 -0.41846503007E+03  0.41846503007E+03  0.00000000000E+00 0. -1.
         25    1    1    2    0    0  0.90414424522E+02  0.14151388631E+02  0.98379883852E+02  0.18351738748E+03  0.12500000000E+03 0.  0.
         25    1    1    2    0    0 -0.20344947488E+03 -0.39127526873E+02  0.91227961812E+02  0.25859271684E+03  0.12500000000E+03 0.  0.
         25    1    1    2    0    0  0.11303505035E+03  0.24976138243E+02 -0.26738129523E+03  0.31704650625E+03  0.12500000000E+03 0.  0.
</event>
<event>
 5    0  0.5474724E-005  0.2807725E+03  0.7546771E-02  0.1095268E+00
         21   -1    0    0  502  501  0.00000000000E+00  0.00000000000E+00  0.13202310179E+04  0.13202310179E+04  0.00000000000E+00 0. -1.
         21   -1    0    0  501  502 -0.00000000000E+00 -0.00000000000E+00 -0.59711668228E+02  0.59711668228E+02  0.00000000000E+00 0. -1.
         25    1    1    2    0    0  0.31059292780E+02  0.10408075204E+03  0.17264309691E+03  0.23922399864E+03  0.12500000000E+03 0.  0.
         25    1    1    2    0    0 -0.79886926631E+02 -0.58509738687E+02  0.84159606320E+03  0.85657121372E+03  0.12500000000E+03 0.  0.
         25    1    1    2    0    0  0.48827633851E+02 -0.45571013357E+02  0.24628018961E+03  0.28414747382E+03  0.12500000000E+03 0.  0.
</event>
<event>
 5    0  0.5474724E-005  0.4516746E+03  0.7546771E-02  0.1027224E+00
         21   -1    0    0  502  501  0.00000000000E+00  0.00000000000E+00  0.18321596945E+03  0.18321596945E+03  0.00000000000E+00 0.  1.
         21   -1    0    0  501  502 -0.00000000000E+00 -0.00000000000E+00 -0.11134941374E+04  0.11134941374E+04  0.00000000000E+00 0.  1.
         25    1    1    2    0    0  0.40872856931E+02 -0.13953121044E+03 -0.71332720013E+03  0.73864757738E+03  0.12500000000E+03 0.  0.
         25    1    1    2    0    0 -0.21963604090E+03  0.14138368385E+03 -0.79726268089E+02  0.30035081879E+03  0.12500000000E+03 0.  0.
         25    1    1    2    0    0  0.17876318397E+03 -0.18524734156E+01 -0.13722469969E+03  0.25771171065E+03  0.12500000000E+03 0.  0.
</event>
<event>
 5    0  0.6108188E-005  0.3265803E+03  0.7546771E-02  0.1072660E+00
         21   -1    0    0  502  501  0.00000000000E+00  0.00000000000E+00  0.41508982272E+03  0.41508982272E+03  0.00000000000E+00 0. -1.
         21   -1    0    0  501  502 -0.00000000000E+00 -0.00000000000E+00 -0.25694363883E+03  0.25694363883E+03  0.00000000000E+00 0. -1.
         25    1    1    2    0    0 -0.14985772653E+03  0.99701458880E+02 -0.76195844045E+02  0.23200975357E+03  0.12500000000E+03 0.  0.
         25    1    1    2    0    0  0.90448984531E+02  0.36797954519E+02  0.17630507883E+03  0.23715730872E+03  0.12500000000E+03 0.  0.
         25    1    1    2    0    0  0.59408742001E+02 -0.13649941340E+03  0.58036949110E+02  0.20286639925E+03  0.12500000000E+03 0.  0.
</event>
<event>
 5    0  0.5474724E-005  0.3657048E+03  0.7546771E-02  0.1056348E+00
         21   -1    0    0  502  501  0.00000000000E+00  0.00000000000E+00  0.21848998886E+03  0.21848998886E+03  0.00000000000E+00 0.  1.
         21   -1    0    0  501  502 -0.00000000000E+00 -0.00000000000E+00 -0.61211050757E+03  0.61211050757E+03  0.00000000000E+00 0.  1.
         25    1    1    2    0    0 -0.18087750935E+03  0.40511176046E+02 -0.89256709989E+01  0.22374650025E+03  0.12500000000E+03 0.  0.
         25    1    1    2    0    0  0.81826610982E+02  0.14431020410E+03 -0.96137412110E+02  0.22888519235E+03  0.12500000000E+03 0.  0.
         25    1    1    2    0    0  0.99050898368E+02 -0.18482138014E+03 -0.28855743560E+03  0.37796880382E+03  0.12500000000E+03 0.  0.
</event>
<event>
 5    0  0.5474724E-005  0.4900213E+03  0.7546771E-02  0.1016417E+00
         21   -1    0    0  502  501  0.00000000000E+00  0.00000000000E+00  0.10386601537E+04  0.10386601537E+04  0.00000000000E+00 0.  1.
         21   -1    0    0  501  502 -0.00000000000E+00 -0.00000000000E+00 -0.23118325168E+03  0.23118325168E+03  0.00000000000E+00 0.  1.
         25    1    1    2    0    0 -0.61303529415E+02  0.33162954219E+03  0.35255979144E+03  0.50364638638E+03  0.12500000000E+03 0.  0.
         25    1    1    2    0    0  0.11968945971E+03 -0.93381022140E+02  0.44972231956E+03  0.49083678221E+03  0.12500000000E+03 0.  0.
         25    1    1    2    0    0 -0.58385930295E+02 -0.23824852005E+03  0.51947910418E+01  0.27536023681E+03  0.12500000000E+03 0.  0.
</event>
<event>
 5    0  0.5474724E-005  0.3145418E+03  0.7546771E-02  0.1078189E+00
         21   -1    0    0  502  501  0.00000000000E+00  0.00000000000E+00  0.33647162704E+03  0.33647162704E+03  0.00000000000E+00 0.  1.
         21   -1    0    0  501  502 -0.00000000000E+00 -0.00000000000E+00 -0.29404118605E+03  0.29404118605E+03  0.00000000000E+00 0.  1.
         25    1    1    2    0    0 -0.13255230365E+01 -0.95656793079E+02  0.19496672694E+02  0.15860989666E+03  0.12500000000E+03 0.  0.
         25    1    1    2    0    0  0.13369606378E+02  0.19895271899E+03 -0.11197219215E+03  0.26062176153E+03  0.12500000000E+03 0.  0.
         25    1    1    2    0    0 -0.12044083341E+02 -0.10329592591E+03  0.13490596044E+03  0.21128115490E+03  0.12500000000E+03 0.  0.
</event>
<event>
 5    0  0.5474724E-005  0.2574032E+03  0.7546771E-02  0.1108714E+00
         21   -1    0    0  502  501  0.00000000000E+00  0.00000000000E+00  0.20255016193E+04  0.20255016193E+04  0.00000000000E+00 0. -1.
         21   -1    0    0  501  502 -0.00000000000E+00 -0.00000000000E+00 -0.32711105043E+02  0.32711105043E+02  0.00000000000E+00 0. -1.
         25    1    1    2    0    0 -0.35627698394E+02  0.75588620633E+01  0.99785571159E+03  0.10063138131E+04  0.12500000000E+03 0.  0.
         25    1    1    2    0    0  0.11719328485E+03 -0.61625455726E+02  0.56307971423E+03  0.59179027314E+03  0.12500000000E+03 0.  0.
         25    1    1    2    0    0 -0.81565586451E+02  0.54066593663E+02  0.43185508840E+03  0.46010863807E+03  0.12500000000E+03 0.  0.
</event>
<event>
 5    0  0.5474724E-005  0.2565828E+03  0.7546771E-02  0.1109214E+00
         21   -1    0    0  502  501  0.00000000000E+00  0.00000000000E+00  0.81405325361E+03  0.81405325361E+03  0.00000000000E+00 0. -1.
         21   -1    0    0  501  502 -0.00000000000E+00 -0.00000000000E+00 -0.80872757286E+02  0.80872757286E+02  0.00000000000E+00 0. -1.
         25    1    1    2    0    0  0.49263438275E+02  0.12968846404E+03  0.28675454768E+03  0.34219753750E+03  0.12500000000E+03 0.  0.
         25    1    1    2    0    0 -0.34597344241E+01 -0.68078472876E+02  0.92979405979E+02  0.17004945800E+03  0.12500000000E+03 0.  0.
         25    1    1    2    0    0 -0.45803703851E+02 -0.61609991166E+02  0.35344654266E+03  0.38267901539E+03  0.12500000000E+03 0.  0.
</event>
<event>
 5    0  0.5474724E-005  0.4648544E+03  0.7546771E-02  0.1023383E+00
         21   -1    0    0  502  501  0.00000000000E+00  0.00000000000E+00  0.31502773429E+03  0.31502773429E+03  0.00000000000E+00 0. -1.
         21   -1    0    0  501  502 -0.00000000000E+00 -0.00000000000E+00 -0.68593845112E+03  0.68593845112E+03  0.00000000000E+00 0. -1.
         25    1    1    2    0    0  0.12106968272E+03 -0.15349331919E+03 -0.35836669348E+03  0.42693061978E+03  0.12500000000E+03 0.  0.
         25    1    1    2    0    0 -0.29441160489E+03  0.13529113341E+03 -0.64795215843E+02  0.35327794138E+03  0.12500000000E+03 0.  0.
         25    1    1    2    0    0  0.17334192217E+03  0.18202185779E+02  0.52251192496E+02  0.22075762425E+03  0.12500000000E+03 0.  0.
</event>
<event>
 5    0  0.5474724E-005  0.4022878E+03  0.7546771E-02  0.1042990E+00
         21   -1    0    0  502  501  0.00000000000E+00  0.00000000000E+00  0.20104261667E+03  0.20104261667E+03  0.00000000000E+00 0. -1.
         21   -1    0    0  501  502 -0.00000000000E+00 -0.00000000000E+00 -0.80498076074E+03  0.80498076074E+03  0.00000000000E+00 0. -1.
         25    1    1    2    0    0  0.29006973072E+03  0.21239386411E+02 -0.87082857065E+02  0.32832907914E+03  0.12500000000E+03 0.  0.
         25    1    1    2    0    0 -0.12005707756E+03 -0.11229300045E+03 -0.27691556815E+03  0.34544268946E+03  0.12500000000E+03 0.  0.
         25    1    1    2    0    0 -0.17001265317E+03  0.91053614040E+02 -0.23993971886E+03  0.33225160881E+03  0.12500000000E+03 0.  0.
</event>
<event>
 5    0  0.5474724E-005  0.5542421E+03  0.7546771E-02  0.1000517E+00
         21   -1    0    0  502  501  0.00000000000E+00  0.00000000000E+00  0.87082935793E+03  0.87082935793E+03  0.00000000000E+00 0. -1.
         21   -1    0    0  501  502 -0.00000000000E+00 -0.00000000000E+00 -0.35274915900E+03  0.35274915900E+03  0.00000000000E+00 0. -1.
         25    1    1    2    0    0  0.18271175261E+03 -0.94512498075E+02  0.33554106651E+03  0.41295157603E+03  0.12500000000E+03 0.  0.
         25    1    1    2    0    0  0.19027422843E+03 -0.12282198256E+03  0.24572837877E+03  0.35678699183E+03  0.12500000000E+03 0.  0.
         25    1    1    2    0    0 -0.37298598104E+03  0.21733448063E+03 -0.63189246349E+02  0.45383994908E+03  0.12500000000E+03 0.  0.
</event>
<event>
 5    0  0.5474724E-005  0.5762611E+03  0.7546771E-02  0.9955919E-01
         21   -1    0    0  502  501  0.00000000000E+00  0.00000000000E+00  0.32316825180E+03  0.32316825180E+03  0.00000000000E+00 0.  1.
         21   -1    0    0  501  502 -0.00000000000E+00 -0.00000000000E+00 -0.10275662852E+04  0.10275662852E+04  0.00000000000E+00 0.  1.
         25    1    1    2    0    0 -0.11057858895E+03 -0.21254692259E+03 -0.15707735622E+03  0.31257337455E+03  0.12500000000E+03 0.  0.
         25    1    1    2    0    0  0.33995098336E+03  0.33687483250E+03 -0.56176345225E+03  0.74850150310E+03  0.12500000000E+03 0.  0.
         25    1    1    2    0    0 -0.22937239441E+03 -0.12432790990E+03  0.14442775085E+02  0.28965965934E+03  0.12500000000E+03 0.  0.
</event>
<event>
 5    0  0.5474724E-005  0.2174129E+03  0.7546771E-02  0.1135827E+00
         21   -1    0    0  502  501  0.00000000000E+00  0.00000000000E+00  0.17010075668E+03  0.17010075668E+03  0.00000000000E+00 0. -1.
         21   -1    0    0  501  502 -0.00000000000E+00 -0.00000000000E+00 -0.27788458656E+03  0.27788458656E+03  0.00000000000E+00 0. -1.
         25    1    1    2    0    0  0.84453524775E+02  0.10113159614E+02 -0.12886030838E+02  0.15174229349E+03  0.12500000000E+03 0.  0.
         25    1    1    2    0    0 -0.54466978890E+02 -0.29094852229E+02 -0.90520209440E+02  0.16622897020E+03  0.12500000000E+03 0.  0.
         25    1    1    2    0    0 -0.29986545885E+02  0.18981692615E+02 -0.43775896001E+01  0.13001407954E+03  0.12500000000E+03 0.  0.
</event>
<event>
 5    0  0.5474724E-005  0.2814186E+03  0.7546771E-02  0.1094917E+00
         21   -1    0    0  502  501  0.00000000000E+00  0.00000000000E+00  0.36933924405E+04  0.36933924405E+04  0.00000000000E+00 0.  1.
         21   -1    0    0  501  502 -0.00000000000E+00 -0.00000000000E+00 -0.21442740009E+02  0.21442740009E+02  0.00000000000E+00 0.  1.
         25    1    1    2    0    0  0.96640519491E+02 -0.42746507565E+02  0.91127373611E+03  0.92585715748E+03  0.12500000000E+03 0.  0.
         25    1    1    2    0    0 -0.10224946949E+02 -0.12000590493E+03  0.12345978584E+04  0.12467408868E+04  0.12500000000E+03 0.  0.
         25    1    1    2    0    0 -0.86415572542E+02  0.16275241250E+03  0.15260781059E+04  0.15422371362E+04  0.12500000000E+03 0.  0.
</event>
<event>
 5    0  0.5474724E-005  0.2599527E+03  0.7546771E-02  0.1107172E+00
         21   -1    0    0  502  501  0.00000000000E+00  0.00000000000E+00  0.19308640919E+03  0.19308640919E+03  0.00000000000E+00 0.  1.
         21   -1    0    0  501  502 -0.00000000000E+00 -0.00000000000E+00 -0.34997499439E+03  0.34997499439E+03  0.00000000000E+00 0.  1.
         25    1    1    2    0    0  0.42043237964E+02 -0.66652926316E+02  0.12486904821E+02  0.14829419826E+03  0.12500000000E+03 0.  0.
         25    1    1    2    0    0 -0.13435421877E+03  0.18250027676E+02 -0.44722268958E+02  0.18976090470E+03  0.12500000000E+03 0.  0.
         25    1    1    2    0    0  0.92310980801E+02  0.48402898640E+02 -0.12465322107E+03  0.20500630063E+03  0.12500000000E+03 0.  0.
</event>
<event>
 5    0  0.5474724E-005  0.3673909E+03  0.7546771E-02  0.1055695E+00
         21   -1    0    0  502  501  0.00000000000E+00  0.00000000000E+00  0.31918892546E+03  0.31918892546E+03  0.00000000000E+00 0. -1.
         21   -1    0    0  501  502 -0.00000000000E+00 -0.00000000000E+00 -0.42287213239E+03  0.42287213239E+03  0.00000000000E+00 0. -1.
         25    1    1    2    0    0  0.64830539448E+02 -0.65180369845E+02  0.21645064837E+03  0.26632191543E+03  0.12500000000E+03 0.  0.
         25    1    1    2    0    0 -0.12904275457E+03  0.15542371887E+02 -0.89948340859E+02  0.20151749764E+03  0.12500000000E+03 0.  0.
         25    1    1    2    0    0  0.64212215127E+02  0.49637997958E+02 -0.23018551444E+03  0.27422164479E+03  0.12500000000E+03 0.  0.
</event>
<event>
 5    0  0.5474724E-005  0.4067784E+03  0.7546771E-02  0.1041458E+00
         21   -1    0    0  502  501  0.00000000000E+00  0.00000000000E+00  0.62501869216E+03  0.62501869216E+03  0.00000000000E+00 0. -1.
         21   -1    0    0  501  502 -0.00000000000E+00 -0.00000000000E+00 -0.26474190738E+03  0.26474190738E+03  0.00000000000E+00 0. -1.
         25    1    1    2    0    0 -0.10220614877E+03 -0.50629188960E+02 -0.18049499946E+02  0.17017695516E+03  0.12500000000E+03 0.  0.
         25    1    1    2    0    0  0.83327649973E+02 -0.19098430085E+03  0.37503994317E+03  0.44687633569E+03  0.12500000000E+03 0.  0.
         25    1    1    2    0    0  0.18878498796E+02  0.24161348981E+03  0.32863415574E+01  0.27270730869E+03  0.12500000000E+03 0.  0.
</event>
<event>
 5    0  0.5474724E-005  0.2998734E+03  0.7546771E-02  0.1085304E+00
         21   -1    0    0  502  501  0.00000000000E+00  0.00000000000E+00  0.53220669642E+03  0.53220669642E+03  0.00000000000E+00 0. -1.
         21   -1    0    0  501  502 -0.00000000000E+00 -0.00000000000E+00 -0.16896456067E+03  0.16896456067E+03  0.00000000000E+00 0. -1.
         25    1    1    2    0    0 -0.14836451140E+02  0.84171959424E+02 -0.13668184125E+02  0.15204229113E+03  0.12500000000E+03 0.  0.
         25    1    1    2    0    0 -0.42281434266E+02 -0.16764951107E+03  0.11653453080E+03  0.24310363040E+03  0.12500000000E+03 0.  0.
         25    1    1    2    0    0  0.57117885407E+02  0.83477551650E+02  0.26037578908E+03  0.30602533556E+03  0.12500000000E+03 0.  0.
</event>
<event>
 5    0  0.5474724E-005  0.3757469E+03  0.7546771E-02  0.1052517E+00
         21   -1    0    0  502  501  0.00000000000E+00  0.00000000000E+00  0.11624126129E+03  0.11624126129E+03  0.00000000000E+00 0.  1.
         21   -1    0    0  501  502 -0.00000000000E+00 -0.00000000000E+00 -0.12145919459E+04  0.12145919459E+04  0.00000000000E+00 0.  1.
         25    1    1    2    0    0 -0.70242318266E+02  0.18818413283E+03 -0.23209404332E+03  0.33142102539E+03  0.12500000000E+03 0.  0.
         25    1    1    2    0    0 -0.13112239203E+03 -0.86698595431E+02 -0.58186264502E+03  0.61554761458E+03  0.12500000000E+03 0.  0.
         25    1    1    2    0    0  0.20136471029E+03 -0.10148553740E+03 -0.28439399622E+03  0.38386456718E+03  0.12500000000E+03 0.  0.
</event>
<event>
 5    0  0.5474724E-005  0.4945594E+03  0.7546771E-02  0.1015209E+00
         21   -1    0    0  502  501  0.00000000000E+00  0.00000000000E+00  0.37775989520E+03  0.37775989520E+03  0.00000000000E+00 0.  1.
         21   -1    0    0  501  502 -0.00000000000E+00 -0.00000000000E+00 -0.64747199750E+03  0.64747199750E+03  0.00000000000E+00 0.  1.
         25    1    1    2    0    0  0.24196941595E+03  0.13880280473E+03 -0.32163091030E+03  0.44371934747E+03  0.12500000000E+03 0.  0.
         25    1    1    2    0    0 -0.79293219320E+02  0.26939026136E+02 -0.17698072179E+03  0.23229356780E+03  0.12500000000E+03 0.  0.
         25    1    1    2    0    0 -0.16267619663E+03 -0.16574183087E+03  0.22889952979E+03  0.34921897742E+03  0.12500000000E+03 0.  0.
</event>
<event>
 5    0  0.5474724E-005  0.3158716E+03  0.7546771E-02  0.1077565E+00
         21   -1    0    0  502  501  0.00000000000E+00  0.00000000000E+00  0.33556641670E+03  0.33556641670E+03  0.00000000000E+00 0.  1.
         21   -1    0    0  501  502 -0.00000000000E+00 -0.00000000000E+00 -0.29733267709E+03  0.29733267709E+03  0.00000000000E+00 0.  1.
         25    1    1    2    0    0 -0.22153177869E+02  0.14921509988E+03 -0.69835388233E+02  0.20798531384E+03  0.12500000000E+03 0.  0.
         25    1    1    2    0    0  0.11612042104E+03  0.25929062195E+02  0.73546535260E+02  0.18759094140E+03  0.12500000000E+03 0.  0.
         25    1    1    2    0    0 -0.93967243166E+02 -0.17514416208E+03  0.34522592577E+02  0.23732283855E+03  0.12500000000E+03 0.  0.
</event>
<event>
 5    0  0.5523515E-005  0.2912045E+03  0.7546771E-02  0.1089722E+00
         21   -1    0    0  502  501  0.00000000000E+00  0.00000000000E+00  0.55737694444E+02  0.55737694444E+02  0.00000000000E+00 0.  1.
         21   -1    0    0  501  502 -0.00000000000E+00 -0.00000000000E+00 -0.15214136131E+04  0.15214136131E+04  0.00000000000E+00 0.  1.
         25    1    1    2    0    0  0.41230522246E+02 -0.13865747464E+03 -0.64648774252E+03  0.67416411389E+03  0.12500000000E+03 0.  0.
         25    1    1    2    0    0  0.61187198098E+01 -0.29198320165E+02 -0.13696313426E+03  0.18781342013E+03  0.12500000000E+03 0.  0.
         25    1    1    2    0    0 -0.47349242056E+02  0.16785579481E+03 -0.68222504189E+03  0.71517377354E+03  0.12500000000E+03 0.  0.
</event>
<event>
 5    0  0.5474724E-005  0.4942606E+03  0.7546771E-02  0.1015288E+00
         21   -1    0    0  502  501  0.00000000000E+00  0.00000000000E+00  0.13002822829E+04  0.13002822829E+04  0.00000000000E+00 0.  1.
         21   -1    0    0  501  502 -0.00000000000E+00 -0.00000000000E+00 -0.18787728532E+03  0.18787728532E+03  0.00000000000E+00 0.  1.
         25    1    1    2    0    0 -0.10608312713E+03 -0.71156803307E+02 -0.36614513216E+02  0.18243503802E+03  0.12500000000E+03 0.  0.
         25    1    1    2    0    0 -0.17026919492E+03 -0.10777948409E+03  0.67333514456E+03  0.71387200031E+03  0.12500000000E+03 0.  0.
         25    1    1    2    0    0  0.27635232205E+03  0.17893628739E+03  0.47568436623E+03  0.59185252988E+03  0.12500000000E+03 0.  0.
</event>
<event>
 5    0  0.5474724E-005  0.3840408E+03  0.7546771E-02  0.1049450E+00
         21   -1    0    0  502  501  0.00000000000E+00  0.00000000000E+00  0.27334684845E+03  0.27334684845E+03  0.00000000000E+00 0. -1.
         21   -1    0    0  501  502 -0.00000000000E+00 -0.00000000000E+00 -0.53956125715E+03  0.53956125715E+03  0.00000000000E+00 0. -1.
         25    1    1    2    0    0 -0.24858178222E+03  0.17208268993E+03 -0.13046852092E+03  0.35221071758E+03  0.12500000000E+03 0.  0.
         25    1    1    2    0    0  0.20571713688E+03 -0.39278336185E+02 -0.30469021315E+02  0.24579603203E+03  0.12500000000E+03 0.  0.
         25    1    1    2    0    0  0.42864645340E+02 -0.13280435375E+03 -0.10527686647E+03  0.21490135599E+03  0.12500000000E+03 0.  0.
</event>
<event>
 5    0  0.5474724E-005  0.4188941E+03  0.7546771E-02  0.1037427E+00
         21   -1    0    0  502  501  0.00000000000E+00  0.00000000000E+00  0.18991782050E+03  0.18991782050E+03  0.00000000000E+00 0.  1.
         21   -1    0    0  501  502 -0.00000000000E+00 -0.00000000000E+00 -0.92393766418E+03  0.92393766418E+03  0.00000000000E+00 0.  1.
         25    1    1    2    0    0 -0.12122335554E+03 -0.65938722285E+02 -0.43194508972E+02  0.19113812448E+03  0.12500000000E+03 0.  0.
         25    1    1    2    0    0  0.13799933858E+03 -0.21304097773E+03 -0.20865484097E+03  0.35155670709E+03  0.12500000000E+03 0.  0.
         25    1    1    2    0    0 -0.16775983037E+02  0.27897970002E+03 -0.48217049374E+03  0.57116065311E+03  0.12500000000E+03 0.  0.
</event>
<event>
 5    0  0.5474724E-005  0.3626124E+03  0.7546771E-02  0.1057554E+00
         21   -1    0    0  502  501  0.00000000000E+00  0.00000000000E+00  0.26034429354E+03  0.26034429354E+03  0.00000000000E+00 0.  1.
         21   -1    0    0  501  502 -0.00000000000E+00 -0.00000000000E+00 -0.50505337028E+03  0.50505337028E+03  0.00000000000E+00 0.  1.
         25    1    1    2    0    0  0.11247808438E+03  0.91122985387E+02 -0.73573184198E+01  0.19139970759E+03  0.12500000000E+03 0.  0.
         25    1    1    2    0    0  0.66653835709E+02 -0.19515598686E+03 -0.90115316541E+01  0.24131887768E+03  0.12500000000E+03 0.  0.
         25    1    1    2    0    0 -0.17913192009E+03  0.10403300147E+03 -0.22834022666E+03  0.33267907855E+03  0.12500000000E+03 0.  0.
</event>
<event>
 5    0  0.5474724E-005  0.2958476E+03  0.7546771E-02  0.1087335E+00
         21   -1    0    0  502  501  0.00000000000E+00  0.00000000000E+00  0.22228111876E+03  0.22228111876E+03  0.00000000000E+00 0. -1.
         21   -1    0    0  501  502 -0.00000000000E+00 -0.00000000000E+00 -0.39376165258E+03  0.39376165258E+03  0.00000000000E+00 0. -1.
         25    1    1    2    0    0 -0.32203713737E+02  0.18199280156E+03 -0.15487113751E+02  0.22365891373E+03  0.12500000000E+03 0.  0.
         25    1    1    2    0    0 -0.69979155795E+02 -0.12019717915E+03 -0.87064829071E+02  0.20627585555E+03  0.12500000000E+03 0.  0.
         25    1    1    2    0    0  0.10218286953E+03 -0.61795622414E+02 -0.68928590996E+02  0.18610800206E+03  0.12500000000E+03 0.  0.
</event>
<event>
 5    0  0.5474724E-005  0.2818974E+03  0.7546771E-02  0.1094657E+00
         21   -1    0    0  502  501  0.00000000000E+00  0.00000000000E+00  0.35317634854E+03  0.35317634854E+03  0.00000000000E+00 0. -1.
         21   -1    0    0  501  502 -0.00000000000E+00 -0.00000000000E+00 -0.22500421812E+03  0.22500421812E+03  0.00000000000E+00 0. -1.
         25    1    1    2    0    0  0.38791382241E+01 -0.17012929407E+03  0.11679037204E+03  0.24129653005E+03  0.12500000000E+03 0.  0.
         25    1    1    2    0    0 -0.17527991352E+01  0.14520837360E+03  0.59490255481E+02  0.20063059230E+03  0.12500000000E+03 0.  0.
         25    1    1    2    0    0 -0.21263390889E+01  0.24920920471E+02 -0.48108497105E+02  0.13625344432E+03  0.12500000000E+03 0.  0.
</event>
<event>
 5    0  0.5474724E-005  0.4825868E+03  0.7546771E-02  0.1018427E+00
         21   -1    0    0  502  501  0.00000000000E+00  0.00000000000E+00  0.29507133604E+03  0.29507133604E+03  0.00000000000E+00 0. -1.
         21   -1    0    0  501  502 -0.00000000000E+00 -0.00000000000E+00 -0.78926690427E+03  0.78926690427E+03  0.00000000000E+00 0. -1.
         25    1    1    2    0    0 -0.17546913009E+02  0.17025452013E+03 -0.50479909763E+02  0.21787087247E+03  0.12500000000E+03 0.  0.
         25    1    1    2    0    0 -0.23548480528E+03  0.47883512428E+02 -0.43160545446E+03  0.50956274648E+03  0.12500000000E+03 0.  0.
         25    1    1    2    0    0  0.25303171829E+03 -0.21813803255E+03 -0.12110204015E+02  0.35690462136E+03  0.12500000000E+03 0.  0.
</event>
<event>
 5    0  0.5474724E-005  0.2788043E+03  0.7546771E-02  0.1096344E+00
         21   -1    0    0  502  501  0.00000000000E+00  0.00000000000E+00  0.16725590194E+03  0.16725590194E+03  0.00000000000E+00 0.  1.
         21   -1    0    0  501  502 -0.00000000000E+00 -0.00000000000E+00 -0.46474796177E+03  0.46474796177E+03  0.00000000000E+00 0.  1.
         25    1    1    2    0    0 -0.11404916089E+03 -0.29862024394E+02 -0.18891700720E+03  0.25536951112E+03  0.12500000000E+03 0.  0.
         25    1    1    2    0    0  0.25677167642E+02 -0.83922391062E+02  0.82604307289E+01  0.15295593933E+03  0.12500000000E+03 0.  0.
         25    1    1    2    0    0  0.88371993244E+02  0.11378441546E+03 -0.11683548335E+03  0.22367841327E+03  0.12500000000E+03 0.  0.
</event>
<event>
 5    0  0.5474724E-005  0.2648198E+03  0.7546771E-02  0.1104282E+00
         21   -1    0    0  502  501  0.00000000000E+00  0.00000000000E+00  0.21157577003E+03  0.21157577003E+03  0.00000000000E+00 0. -1.
         21   -1    0    0  501  502 -0.00000000000E+00 -0.00000000000E+00 -0.33146288915E+03  0.33146288915E+03  0.00000000000E+00 0. -1.
         25    1    1    2    0    0  0.15135032534E+03 -0.19034897951E+02 -0.46517395586E+02  0.20262802474E+03  0.12500000000E+03 0.  0.
         25    1    1    2    0    0 -0.71209907266E+02  0.87607458650E+02 -0.45773786556E+02  0.17454557353E+03  0.12500000000E+03 0.  0.
         25    1    1    2    0    0 -0.80140418071E+02 -0.68572560699E+02 -0.27595936980E+02  0.16586506090E+03  0.12500000000E+03 0.  0.
</event>
<event>
 5    0  0.5474724E-005  0.3460655E+03  0.7546771E-02  0.1064242E+00
         21   -1    0    0  502  501  0.00000000000E+00  0.00000000000E+00  0.49610896690E+03  0.49610896690E+03  0.00000000000E+00 0. -1.
         21   -1    0    0  501  502 -0.00000000000E+00 -0.00000000000E+00 -0.24140131188E+03  0.24140131188E+03  0.00000000000E+00 0. -1.
         25    1    1    2    0    0 -0.46129418873E+02  0.18193174392E+03 -0.37425388555E+02  0.22858858772E+03  0.12500000000E+03 0.  0.
         25    1    1    2    0    0 -0.19143599831E+02 -0.23387975519E+03  0.19927105715E+03  0.33226521262E+03  0.12500000000E+03 0.  0.
         25    1    1    2    0    0  0.65273018704E+02  0.51948011277E+02  0.92861986427E+02  0.17665647842E+03  0.12500000000E+03 0.  0.
</event>
<event>
 5    0  0.5474724E-005  0.3384327E+03  0.7546771E-02  0.1067465E+00
         21   -1    0    0  502  501  0.00000000000E+00  0.00000000000E+00  0.27951245061E+03  0.27951245061E+03  0.00000000000E+00 0. -1.
         21   -1    0    0  501  502 -0.00000000000E+00 -0.00000000000E+00 -0.40977306342E+03  0.40977306342E+03  0.00000000000E+00 0. -1.
         25    1    1    2    0    0  0.13622002328E+03  0.46263064320E+02  0.95168953450E+02  0.21302181945E+03  0.12500000000E+03 0.  0.
         25    1    1    2    0    0  0.29345124972E+02 -0.27778913220E+01  0.41908338181E+02  0.13509315989E+03  0.12500000000E+03 0.  0.
         25    1    1    2    0    0 -0.16556514825E+03 -0.43485172998E+02 -0.26733790444E+03  0.34117053468E+03  0.12500000000E+03 0.  0.
</event>
<event>
 5    0  0.5474724E-005  0.2508002E+03  0.7546771E-02  0.1112800E+00
         21   -1    0    0  502  501  0.00000000000E+00  0.00000000000E+00  0.10999417652E+04  0.10999417652E+04  0.00000000000E+00 0. -1.
         21   -1    0    0  501  502 -0.00000000000E+00 -0.00000000000E+00 -0.57185505348E+02  0.57185505348E+02  0.00000000000E+00 0. -1.
         25    1    1    2    0    0 -0.12005831351E+03 -0.26049942626E+02  0.23006076455E+03  0.28921541027E+03  0.12500000000E+03 0.  0.
         25    1    1    2    0    0  0.94774874433E+02 -0.47869191145E+01  0.57911098826E+03  0.59999977346E+03  0.12500000000E+03 0.  0.
         25    1    1    2    0    0  0.25283439081E+02  0.30836861741E+02  0.23358450702E+03  0.26791208680E+03  0.12500000000E+03 0.  0.
</event>
<event>
 5    0  0.5474724E-005  0.5435409E+03  0.7546771E-02  0.1003000E+00
         21   -1    0    0  502  501  0.00000000000E+00  0.00000000000E+00  0.33364848948E+04  0.33364848948E+04  0.00000000000E+00 0. -1.
         21   -1    0    0  501  502 -0.00000000000E+00 -0.00000000000E+00 -0.88547286283E+02  0.88547286283E+02  0.00000000000E+00 0. -1.
         25    1    1    2    0    0  0.99860891123E+02 -0.23413034424E+03  0.91991274436E+03  0.96262852280E+03  0.12500000000E+03 0.  0.
         25    1    1    2    0    0 -0.57455541661E+02  0.42817326781E+03  0.20491516558E+04  0.20979230193E+04  0.12500000000E+03 0.  0.
         25    1    1    2    0    0 -0.42405349462E+02 -0.19404292357E+03  0.27887320843E+03  0.36448063904E+03  0.12500000000E+03 0.  0.
</event>
<event>
 5    0  0.5474724E-005  0.2308386E+03  0.7546771E-02  0.1126051E+00
         21   -1    0    0  502  501  0.00000000000E+00  0.00000000000E+00  0.25776325170E+03  0.25776325170E+03  0.00000000000E+00 0. -1.
         21   -1    0    0  501  502 -0.00000000000E+00 -0.00000000000E+00 -0.20672645141E+03  0.20672645141E+03  0.00000000000E+00 0. -1.
         25    1    1    2    0    0 -0.65884437098E+02 -0.33468021213E+02  0.47447427321E+02  0.15276493660E+03  0.12500000000E+03 0.  0.
         25    1    1    2    0    0  0.11276252298E+03  0.98272220584E+00  0.32149318387E+02  0.17139116373E+03  0.12500000000E+03 0.  0.
         25    1    1    2    0    0 -0.46878085881E+02  0.32485299007E+02 -0.28559945411E+02  0.14033360278E+03  0.12500000000E+03 0.  0.
</event>
<event>
 5    0  0.5474724E-005  0.2760970E+03  0.7546771E-02  0.1097840E+00
         21   -1    0    0  502  501  0.00000000000E+00  0.00000000000E+00  0.53572022555E+02  0.53572022555E+02  0.00000000000E+00 0.  1.
         21   -1    0    0  501  502 -0.00000000000E+00 -0.00000000000E+00 -0.14229355223E+04  0.14229355223E+04  0.00000000000E+00 0.  1.
         25    1    1    2    0    0 -0.12781656975E+03 -0.32796739798E+02 -0.39475527193E+03  0.43459110249E+03  0.12500000000E+03 0.  0.
         25    1    1    2    0    0  0.12667817357E+02  0.12062427951E+03 -0.39924779359E+03  0.43558522827E+03  0.12500000000E+03 0.  0.
         25    1    1    2    0    0  0.11514875240E+03 -0.87827539716E+02 -0.57536043424E+03  0.60633121411E+03  0.12500000000E+03 0.  0.
</event>
<event>
 5    0  0.5474724E-005  0.2325640E+03  0.7546771E-02  0.1124848E+00
         21   -1    0    0  502  501  0.00000000000E+00  0.00000000000E+00  0.33797489297E+03  0.33797489297E+03  0.00000000000E+00 0.  1.
         21   -1    0    0  501  502 -0.00000000000E+00 -0.00000000000E+00 -0.16002970544E+03  0.16002970544E+03  0.00000000000E+00 0.  1.
         25    1    1    2    0    0 -0.80655190495E+02  0.53417816904E+02  0.13285335028E+03  0.20647938298E+03  0.12500000000E+03 0.  0.
         25    1    1    2    0    0  0.30071898757E+02  0.23045926613E+02  0.20037094179E+01  0.13063096371E+03  0.12500000000E+03 0.  0.
         25    1    1    2    0    0  0.50583291739E+02 -0.76463743517E+02  0.43088127828E+02  0.16089425172E+03  0.12500000000E+03 0.  0.
</event>
<event>
 5    0  0.5474724E-005  0.3357061E+03  0.7546771E-02  0.1068640E+00
         21   -1    0    0  502  501  0.00000000000E+00  0.00000000000E+00  0.75158602611E+03  0.75158602611E+03  0.00000000000E+00 0. -1.
         21   -1    0    0  501  502 -0.00000000000E+00 -0.00000000000E+00 -0.14994764692E+03  0.14994764692E+03  0.00000000000E+00 0. -1.
         25    1    1    2    0    0  0.15862349825E+03 -0.59463882258E+02  0.38297240110E+03  0.43702428707E+03  0.12500000000E+03 0.  0.
         25    1    1    2    0    0 -0.16155897973E+03  0.93054082839E+02  0.17324315314E+02  0.22513440022E+03  0.12500000000E+03 0.  0.
         25    1    1    2    0    0  0.29354814719E+01 -0.33590200581E+02  0.20134166278E+03  0.23937498574E+03  0.12500000000E+03 0.  0.
</event>
<event>
 5    0  0.5474724E-005  0.2666887E+03  0.7546771E-02  0.1103190E+00
         21   -1    0    0  502  501  0.00000000000E+00  0.00000000000E+00  0.15170419516E+03  0.15170419516E+03  0.00000000000E+00 0. -1.
         21   -1    0    0  501  502 -0.00000000000E+00 -0.00000000000E+00 -0.46882599488E+03  0.46882599488E+03  0.00000000000E+00 0. -1.
         25    1    1    2    0    0  0.30782000424E+02  0.34825386587E+01 -0.16318344081E+03  0.20787855825E+03  0.12500000000E+03 0.  0.
         25    1    1    2    0    0 -0.10344658776E+03  0.21158752281E+02  0.41011882062E+02  0.16868865933E+03  0.12500000000E+03 0.  0.
         25    1    1    2    0    0  0.72664587338E+02 -0.24641290940E+02 -0.19495024097E+03  0.24396297245E+03  0.12500000000E+03 0.  0.
</event>
<event>
 5    0  0.5474724E-005  0.3381986E+03  0.7546771E-02  0.1067566E+00
         21   -1    0    0  502  501  0.00000000000E+00  0.00000000000E+00  0.19653725050E+03  0.19653725050E+03  0.00000000000E+00 0. -1.
         21   -1    0    0  501  502 -0.00000000000E+00 -0.00000000000E+00 -0.58196760619E+03  0.58196760619E+03  0.00000000000E+00 0.  1.
         25    1    1    2    0    0 -0.15374582164E+03 -0.15024773062E+03 -0.84943714865E+02  0.26277860058E+03  0.12500000000E+03 0.  0.
         25    1    1    2    0    0  0.11151728694E+03  0.19584959480E+03 -0.11157774724E+03  0.28083404841E+03  0.12500000000E+03 0.  0.
         25    1    1    2    0    0  0.42228534697E+02 -0.45601864175E+02 -0.18890889358E+03  0.23489220769E+03  0.12500000000E+03 0.  0.
</event>
<event>
 5    0  0.5474724E-005  0.2093416E+03  0.7546771E-02  0.1142088E+00
         21   -1    0    0  502  501  0.00000000000E+00  0.00000000000E+00  0.20456785721E+03  0.20456785721E+03  0.00000000000E+00 0.  1.
         21   -1    0    0  501  502 -0.00000000000E+00 -0.00000000000E+00 -0.21422664747E+03  0.21422664747E+03  0.00000000000E+00 0.  1.
         25    1    1    2    0    0 -0.43784817736E+02  0.37699837348E+02  0.12657557566E+01  0.13771343485E+03  0.12500000000E+03 0.  0.
         25    1    1    2    0    0  0.68123377118E+02  0.13296247301E+02  0.44275191324E+01  0.14304610316E+03  0.12500000000E+03 0.  0.
         25    1    1    2    0    0 -0.24338559382E+02 -0.50996084649E+02 -0.15352065149E+02  0.13803496668E+03  0.12500000000E+03 0.  0.
</event>
<event>
 5    0  0.5474724E-005  0.4462297E+03  0.7546771E-02  0.1028852E+00
         21   -1    0    0  502  501  0.00000000000E+00  0.00000000000E+00  0.23854350491E+03  0.23854350491E+03  0.00000000000E+00 0. -1.
         21   -1    0    0  501  502 -0.00000000000E+00 -0.00000000000E+00 -0.83473655587E+03  0.83473655587E+03  0.00000000000E+00 0. -1.
         25    1    1    2    0    0  0.23769682874E+03  0.59473598324E+02  0.32656441880E+02  0.27699879871E+03  0.12500000000E+03 0.  0.
         25    1    1    2    0    0 -0.87422398581E+02 -0.17142732280E+03 -0.46237399183E+03  0.51618282720E+03  0.12500000000E+03 0.  0.
         25    1    1    2    0    0 -0.15027443015E+03  0.11195372448E+03 -0.16647550101E+03  0.28009843488E+03  0.12500000000E+03 0.  0.
</event>
<event>
 5    0  0.5474724E-005  0.2576488E+03  0.7546771E-02  0.1108564E+00
         21   -1    0    0  502  501  0.00000000000E+00  0.00000000000E+00  0.15262161206E+03  0.15262161206E+03  0.00000000000E+00 0.  1.
         21   -1    0    0  501  502 -0.00000000000E+00 -0.00000000000E+00 -0.43495074128E+03  0.43495074128E+03  0.00000000000E+00 0.  1.
         25    1    1    2    0    0  0.81765551755E+01  0.48407806173E+01 -0.11308891876E+03  0.16883243989E+03  0.12500000000E+03 0.  0.
         25    1    1    2    0    0 -0.24043451773E+02  0.67614099982E+02 -0.22151197476E+03  0.26427695520E+03  0.12500000000E+03 0.  0.
         25    1    1    2    0    0  0.15866896598E+02 -0.72454880600E+02  0.52271764295E+02  0.15446295826E+03  0.12500000000E+03 0.  0.
</event>
<event>
 5    0  0.5474724E-005  0.2415096E+03  0.7546771E-02  0.1118791E+00
         21   -1    0    0  502  501  0.00000000000E+00  0.00000000000E+00  0.45306928957E+03  0.45306928957E+03  0.00000000000E+00 0.  1.
         21   -1    0    0  501  502 -0.00000000000E+00 -0.00000000000E+00 -0.12873719203E+03  0.12873719203E+03  0.00000000000E+00 0.  1.
         25    1    1    2    0    0 -0.69308372626E+02 -0.35305177193E+02  0.10836819132E+03  0.18280801663E+03  0.12500000000E+03 0.  0.
         25    1    1    2    0    0  0.72728805566E+02 -0.19797390917E+02  0.30418428039E+01  0.14599886525E+03  0.12500000000E+03 0.  0.
         25    1    1    2    0    0 -0.34204329402E+01  0.55102568110E+02  0.21292206341E+03  0.25299959972E+03  0.12500000000E+03 0.  0.
</event>
<event>
 5    0  0.5474724E-005  0.4706546E+03  0.7546771E-02  0.1021736E+00
         21   -1    0    0  502  501  0.00000000000E+00  0.00000000000E+00  0.61551249618E+03  0.61551249618E+03  0.00000000000E+00 0.  1.
         21   -1    0    0  501  502 -0.00000000000E+00 -0.00000000000E+00 -0.35988829073E+03  0.35988829073E+03  0.00000000000E+00 0.  1.
         25    1    1    2    0    0  0.23618527401E+03 -0.14098586925E+03  0.19600224345E+03  0.36014216418E+03  0.12500000000E+03 0.  0.
         25    1    1    2    0    0 -0.31735323609E+03 -0.74695612223E+02  0.16396253476E+02  0.34955163863E+03  0.12500000000E+03 0.  0.
         25    1    1    2    0    0  0.81167962083E+02  0.21568148147E+03  0.43225708531E+02  0.26570698409E+03  0.12500000000E+03 0.  0.
</event>
<event>
 5    0  0.5474724E-005  0.2967585E+03  0.7546771E-02  0.1086872E+00
         21   -1    0    0  502  501  0.00000000000E+00  0.00000000000E+00  0.10695482412E+04  0.10695482412E+04  0.00000000000E+00 0.  1.
         21   -1    0    0  501  502 -0.00000000000E+00 -0.00000000000E+00 -0.82339086147E+02  0.82339086147E+02  0.00000000000E+00 0.  1.
         25    1    1    2    0    0 -0.10648939887E+03  0.13278348083E+03  0.18406510877E+03  0.28013641163E+03  0.12500000000E+03 0.  0.
         25    1    1    2    0    0  0.46606336167E+02 -0.21010930127E+02  0.52019169647E+03  0.53743651795E+03  0.12500000000E+03 0.  0.
         25    1    1    2    0    0  0.59883062704E+02 -0.11177255070E+03  0.28295234982E+03  0.33431439777E+03  0.12500000000E+03 0.  0.
</event>
<event>
 5    0  0.5474724E-005  0.3070914E+03  0.7546771E-02  0.1081748E+00
         21   -1    0    0  502  501  0.00000000000E+00  0.00000000000E+00  0.66144078522E+02  0.66144078522E+02  0.00000000000E+00 0.  1.
         21   -1    0    0  501  502 -0.00000000000E+00 -0.00000000000E+00 -0.14257527228E+04  0.14257527228E+04  0.00000000000E+00 0.  1.
         25    1    1    2    0    0 -0.54131904337E+01  0.82582602253E+02 -0.91602133457E+02  0.17568477361E+03  0.12500000000E+03 0.  0.
         25    1    1    2    0    0  0.10466476304E+03  0.17846676876E+02 -0.56008505522E+03  0.58360387729E+03  0.12500000000E+03 0.  0.
         25    1    1    2    0    0 -0.99251572607E+02 -0.10042927913E+03 -0.70792145560E+03  0.73260815043E+03  0.12500000000E+03 0.  0.
</event>
<event>
 5    0  0.5474724E-005  0.3171541E+03  0.7546771E-02  0.1076967E+00
         21   -1    0    0  502  501  0.00000000000E+00  0.00000000000E+00  0.17178207225E+04  0.17178207225E+04  0.00000000000E+00 0.  1.
         21   -1    0    0  501  502 -0.00000000000E+00 -0.00000000000E+00 -0.58554855333E+02  0.58554855333E+02  0.00000000000E+00 0.  1.
         25    1    1    2    0    0 -0.10323750674E+03  0.75289387762E+02  0.43184245942E+03  0.46737499341E+03  0.12500000000E+03 0.  0.
         25    1    1    2    0    0 -0.11873432509E+03 -0.48185078518E+02  0.70177640094E+03  0.72424771913E+03  0.12500000000E+03 0.  0.
         25    1    1    2    0    0  0.22197183183E+03 -0.27104309244E+02  0.52564700682E+03  0.58475286531E+03  0.12500000000E+03 0.  0.
</event>
<event>
 5    0  0.5474724E-005  0.5132692E+03  0.7546771E-02  0.1010372E+00
         21   -1    0    0  502  501  0.00000000000E+00  0.00000000000E+00  0.10820363030E+04  0.10820363030E+04  0.00000000000E+00 0.  1.
         21   -1    0    0  501  502 -0.00000000000E+00 -0.00000000000E+00 -0.24347179402E+03  0.24347179402E+03  0.00000000000E+00 0.  1.
         25    1    1    2    0    0 -0.75808904645E+02  0.20287726576E+02  0.17170465532E+03  0.22642011954E+03  0.12500000000E+03 0.  0.
         25    1    1    2    0    0 -0.35971403287E+03 -0.95342086246E+01  0.14427438812E+03  0.40733915310E+03  0.12500000000E+03 0.  0.
         25    1    1    2    0    0  0.43552293752E+03 -0.10753517952E+02  0.52258546551E+03  0.69174882436E+03  0.12500000000E+03 0.  0.
</event>
<event>
 5    0  0.5474724E-005  0.3782876E+03  0.7546771E-02  0.1051568E+00
         21   -1    0    0  502  501  0.00000000000E+00  0.00000000000E+00  0.98835125979E+02  0.98835125979E+02  0.00000000000E+00 0.  1.
         21   -1    0    0  501  502 -0.00000000000E+00 -0.00000000000E+00 -0.14478808989E+04  0.14478808989E+04  0.00000000000E+00 0.  1.
         25    1    1    2    0    0  0.20196065054E+03  0.81492893199E+02 -0.34734981444E+03  0.42860948380E+03  0.12500000000E+03 0.  0.
         25    1    1    2    0    0  0.92693073630E+02 -0.11547158953E+02 -0.21278510843E+03  0.26387088727E+03  0.12500000000E+03 0.  0.
         25    1    1    2    0    0 -0.29465372417E+03 -0.69945734245E+02 -0.78891085000E+03  0.85423565377E+03  0.12500000000E+03 0.  0.
</event>
<event>
 5    0  0.5474724E-005  0.2677091E+03  0.7546771E-02  0.1102598E+00
         21   -1    0    0  502  501  0.00000000000E+00  0.00000000000E+00  0.49207035061E+03  0.49207035061E+03  0.00000000000E+00 0. -1.
         21   -1    0    0  501  502 -0.00000000000E+00 -0.00000000000E+00 -0.14564620026E+03  0.14564620026E+03  0.00000000000E+00 0. -1.
         25    1    1    2    0    0  0.26470175798E+02 -0.18483430354E+02  0.61562465407E+02  0.14302882420E+03  0.12500000000E+03 0.  0.
         25    1    1    2    0    0  0.24447709122E+02  0.92835285392E+02 -0.14211160894E+02  0.15824992192E+03  0.12500000000E+03 0.  0.
         25    1    1    2    0    0 -0.50917884920E+02 -0.74351855039E+02  0.29907284583E+03  0.33643780475E+03  0.12500000000E+03 0.  0.
</event>
<event>
 5    0  0.5474724E-005  0.5054706E+03  0.7546771E-02  0.1012361E+00
         21   -1    0    0  502  501  0.00000000000E+00  0.00000000000E+00  0.74522712753E+03  0.74522712753E+03  0.00000000000E+00 0.  1.
         21   -1    0    0  501  502 -0.00000000000E+00 -0.00000000000E+00 -0.34284926382E+03  0.34284926382E+03  0.00000000000E+00 0.  1.
         25    1    1    2    0    0  0.25751887856E+03 -0.18668230195E+02  0.18410580347E+03  0.34085836135E+03  0.12500000000E+03 0.  0.
         25    1    1    2    0    0  0.58254123558E+02  0.22147796691E+03  0.23523459851E+03  0.35129239826E+03  0.12500000000E+03 0.  0.
         25    1    1    2    0    0 -0.31577300211E+03 -0.20280973671E+03 -0.16962538272E+02  0.39592563175E+03  0.12500000000E+03 0.  0.
</event>
<event>
 5    0  0.5474724E-005  0.3287721E+03  0.7546771E-02  0.1071681E+00
         21   -1    0    0  502  501  0.00000000000E+00  0.00000000000E+00  0.72747585183E+02  0.72747585183E+02  0.00000000000E+00 0. -1.
         21   -1    0    0  501  502 -0.00000000000E+00 -0.00000000000E+00 -0.14858374574E+04  0.14858374574E+04  0.00000000000E+00 0. -1.
         25    1    1    2    0    0 -0.14018478987E+03 -0.98417650661E+02 -0.35059890350E+03  0.40973454871E+03  0.12500000000E+03 0.  0.
         25    1    1    2    0    0 -0.28030821778E+02  0.53624757976E+02 -0.79034195250E+03  0.80245046173E+03  0.12500000000E+03 0.  0.
         25    1    1    2    0    0  0.16821561165E+03  0.44792892685E+02 -0.27214901619E+03  0.34640003212E+03  0.12500000000E+03 0.  0.
</event>
<event>
 5    0  0.5474724E-005  0.2952853E+03  0.7546771E-02  0.1087621E+00
         21   -1    0    0  502  501  0.00000000000E+00  0.00000000000E+00  0.23273301669E+03  0.23273301669E+03  0.00000000000E+00 0.  1.
         21   -1    0    0  501  502 -0.00000000000E+00 -0.00000000000E+00 -0.37464980752E+03  0.37464980752E+03  0.00000000000E+00 0.  1.
         25    1    1    2    0    0  0.48283158600E+02  0.21777375626E+02 -0.75144692739E+02  0.15516843216E+03  0.12500000000E+03 0.  0.
         25    1    1    2    0    0  0.15344853477E+03  0.37534715967E+02 -0.13747073143E+02  0.20191406525E+03  0.12500000000E+03 0.  0.
         25    1    1    2    0    0 -0.20173169337E+03 -0.59312091593E+02 -0.53025024956E+02  0.25030032679E+03  0.12500000000E+03 0.  0.
</event>
<event>
 5    0  0.5474724E-005  0.3211071E+03  0.7546771E-02  0.1075141E+00
         21   -1    0    0  502  501  0.00000000000E+00  0.00000000000E+00  0.11011289925E+04  0.11011289925E+04  0.00000000000E+00 0. -1.
         21   -1    0    0  501  502 -0.00000000000E+00 -0.00000000000E+00 -0.93640074968E+02  0.93640074968E+02  0.00000000000E+00 0. -1.
         25    1    1    2    0    0  0.35211922806E+01  0.68632973457E+02  0.97773763706E+02  0.17293811815E+03  0.12500000000E+03 0.  0.
         25    1    1    2    0    0  0.80257003843E+02 -0.16883264095E+03  0.24321251443E+03  0.33124458409E+03  0.12500000000E+03 0.  0.
         25    1    1    2    0    0 -0.83778196124E+02  0.10019966749E+03  0.66650263943E+03  0.69058636526E+03  0.12500000000E+03 0.  0.
</event>
<event>
 5    0  0.5474724E-005  0.5881291E+03  0.7546771E-02  0.9930345E-01
         21   -1    0    0  502  501  0.00000000000E+00  0.00000000000E+00  0.22647500550E+03  0.22647500550E+03  0.00000000000E+00 0.  1.
         21   -1    0    0  501  502 -0.00000000000E+00 -0.00000000000E+00 -0.15273023803E+04  0.15273023803E+04  0.00000000000E+00 0.  1.
         25    1    1    2    0    0 -0.12737079778E+03 -0.20237072349E+03 -0.89585114042E+03  0.93560221016E+03  0.12500000000E+03 0.  0.
         25    1    1    2    0    0 -0.31344639638E+02  0.37546732099E+03 -0.92156562191E+02  0.40752426618E+03  0.12500000000E+03 0.  0.
         25    1    1    2    0    0  0.15871543742E+03 -0.17309659751E+03 -0.31281967218E+03  0.41065090947E+03  0.12500000000E+03 0.  0.
</event>
<event>
 5    0  0.5474724E-005  0.2694808E+03  0.7546771E-02  0.1101577E+00
         21   -1    0    0  502  501  0.00000000000E+00  0.00000000000E+00  0.93460327084E+03  0.93460327084E+03  0.00000000000E+00 0. -1.
         21   -1    0    0  501  502 -0.00000000000E+00 -0.00000000000E+00 -0.77701306144E+02  0.77701306144E+02  0.00000000000E+00 0. -1.
         25    1    1    2    0    0 -0.13677107711E+02  0.89279391285E+02  0.19299400359E+03  0.24704161270E+03  0.12500000000E+03 0.  0.
         25    1    1    2    0    0  0.19158417065E+02  0.13784609600E+02  0.55638512235E+03  0.57074202997E+03  0.12500000000E+03 0.  0.
         25    1    1    2    0    0 -0.54813093542E+01 -0.10306400088E+03  0.10752283875E+03  0.19452093431E+03  0.12500000000E+03 0.  0.
</event>
<event>
 5    0  0.5474724E-005  0.4374856E+03  0.7546771E-02  0.1031521E+00
         21   -1    0    0  502  501  0.00000000000E+00  0.00000000000E+00  0.49129552461E+03  0.49129552461E+03  0.00000000000E+00 0. -1.
         21   -1    0    0  501  502 -0.00000000000E+00 -0.00000000000E+00 -0.38956937225E+03  0.38956937225E+03  0.00000000000E+00 0. -1.
         25    1    1    2    0    0 -0.15376801918E+03 -0.24329741580E+02 -0.85747974941E+02  0.21728841491E+03  0.12500000000E+03 0.  0.
         25    1    1    2    0    0 -0.18212622051E+03 -0.37414266638E+02 -0.49577232965E+02  0.22946173880E+03  0.12500000000E+03 0.  0.
         25    1    1    2    0    0  0.33589423970E+03  0.61744008218E+02  0.23705136027E+03  0.43411474315E+03  0.12500000000E+03 0.  0.
</event>
<event>
 5    0  0.5474724E-005  0.4573154E+03  0.7546771E-02  0.1025563E+00
         21   -1    0    0  502  501  0.00000000000E+00  0.00000000000E+00  0.10925608881E+03  0.10925608881E+03  0.00000000000E+00 0.  1.
         21   -1    0    0  501  502 -0.00000000000E+00 -0.00000000000E+00 -0.19141943224E+04  0.19141943224E+04  0.00000000000E+00 0.  1.
         25    1    1    2    0    0  0.58904839101E+02 -0.39677842609E+03 -0.96233559659E+03  0.10500560461E+04  0.12500000000E+03 0.  0.
         25    1    1    2    0    0 -0.50192261566E+02  0.15656852279E+03 -0.46347497751E+03  0.50741208128E+03  0.12500000000E+03 0.  0.
         25    1    1    2    0    0 -0.87125775354E+01  0.24020990330E+03 -0.37912765948E+03  0.46598228382E+03  0.12500000000E+03 0.  0.
</event>
<event>
 5    0  0.5474724E-005  0.2415546E+03  0.7546771E-02  0.1118761E+00
         21   -1    0    0  502  501  0.00000000000E+00  0.00000000000E+00  0.16588053370E+03  0.16588053370E+03  0.00000000000E+00 0. -1.
         21   -1    0    0  501  502 -0.00000000000E+00 -0.00000000000E+00 -0.35175095995E+03  0.35175095995E+03  0.00000000000E+00 0. -1.
         25    1    1    2    0    0 -0.27544614857E+01  0.72386553228E+02 -0.16937919051E+03  0.22262459506E+03  0.12500000000E+03 0.  0.
         25    1    1    2    0    0  0.26045584484E+02 -0.10258758647E+03 -0.12261746319E+02  0.16424961428E+03  0.12500000000E+03 0.  0.
         25    1    1    2    0    0 -0.23291122999E+02  0.30201033243E+02 -0.42294894272E+01  0.13075728431E+03  0.12500000000E+03 0.  0.
</event>
<event>
 5    0  0.5474724E-005  0.2826478E+03  0.7546771E-02  0.1094251E+00
         21   -1    0    0  502  501  0.00000000000E+00  0.00000000000E+00  0.20444302813E+03  0.20444302813E+03  0.00000000000E+00 0. -1.
         21   -1    0    0  501  502 -0.00000000000E+00 -0.00000000000E+00 -0.39076795700E+03  0.39076795700E+03  0.00000000000E+00 0. -1.
         25    1    1    2    0    0 -0.10283139090E+03  0.38769666800E+02 -0.26806088124E+02  0.16858513689E+03  0.12500000000E+03 0.  0.
         25    1    1    2    0    0 -0.18768801019E+02  0.46308521791E+02 -0.18725121465E+03  0.23061822233E+03  0.12500000000E+03 0.  0.
         25    1    1    2    0    0  0.12160019192E+03 -0.85078188591E+02  0.27732373908E+02  0.19600762590E+03  0.12500000000E+03 0.  0.
</event>
<event>
 5    0  0.5474724E-005  0.3462872E+03  0.7546771E-02  0.1064149E+00
         21   -1    0    0  502  501  0.00000000000E+00  0.00000000000E+00  0.82424597790E+03  0.82424597790E+03  0.00000000000E+00 0. -1.
         21   -1    0    0  501  502 -0.00000000000E+00 -0.00000000000E+00 -0.14548428891E+03  0.14548428891E+03  0.00000000000E+00 0. -1.
         25    1    1    2    0    0 -0.19212240361E+03 -0.13539484748E+03  0.46855412798E+03  0.53889772085E+03  0.12500000000E+03 0.  0.
         25    1    1    2    0    0  0.14117013876E+03  0.81296941722E+02  0.19742293442E+03  0.28484911067E+03  0.12500000000E+03 0.  0.
         25    1    1    2    0    0  0.50952264846E+02  0.54097905763E+02  0.12784626595E+02  0.14598343529E+03  0.12500000000E+03 0.  0.
</event>
<event>
 5    0  0.5474724E-005  0.2878171E+03  0.7546771E-02  0.1091494E+00
         21   -1    0    0  502  501  0.00000000000E+00  0.00000000000E+00  0.13785495909E+03  0.13785495909E+03  0.00000000000E+00 0. -1.
         21   -1    0    0  501  502 -0.00000000000E+00 -0.00000000000E+00 -0.60091195385E+03  0.60091195385E+03  0.00000000000E+00 0. -1.
         25    1    1    2    0    0 -0.77728238152E+02  0.17142405784E+02  0.55459397186E+01  0.14829463419E+03  0.12500000000E+03 0.  0.
         25    1    1    2    0    0 -0.33488622785E+02  0.73149711238E+02 -0.11118192493E+03  0.18563078554E+03  0.12500000000E+03 0.  0.
         25    1    1    2    0    0  0.11121686094E+03 -0.90292117022E+02 -0.35742100955E+03  0.40484149321E+03  0.12500000000E+03 0.  0.
</event>
<event>
 5    0  0.6761394E-005  0.3575273E+03  0.7546771E-02  0.1059567E+00
         21   -1    0    0  502  501  0.00000000000E+00  0.00000000000E+00  0.13805810096E+03  0.13805810096E+03  0.00000000000E+00 0.  1.
         21   -1    0    0  501  502 -0.00000000000E+00 -0.00000000000E+00 -0.92588413305E+03  0.92588413305E+03  0.00000000000E+00 0.  1.
         25    1    1    2    0    0 -0.17239280836E+03  0.63238293466E+02 -0.17066565663E+03  0.28012520145E+03  0.12500000000E+03 0.  0.
         25    1    1    2    0    0  0.13678604256E+03 -0.12461983914E+03 -0.59858814741E+03  0.63888441519E+03  0.12500000000E+03 0.  0.
         25    1    1    2    0    0  0.35606765798E+02  0.61381545677E+02 -0.18572228043E+02  0.14493261736E+03  0.12500000000E+03 0.  0.
</event>
<event>
 5    0  0.5474724E-005  0.2563033E+03  0.7546771E-02  0.1109385E+00
         21   -1    0    0  502  501  0.00000000000E+00  0.00000000000E+00  0.17479768105E+03  0.17479768105E+03  0.00000000000E+00 0. -1.
         21   -1    0    0  501  502 -0.00000000000E+00 -0.00000000000E+00 -0.37581365951E+03  0.37581365951E+03  0.00000000000E+00 0. -1.
         25    1    1    2    0    0  0.12343559096E+03 -0.58074441946E+02 -0.10842531435E+03  0.21445287295E+03  0.12500000000E+03 0.  0.
         25    1    1    2    0    0 -0.68209890739E+02  0.56295037800E+02  0.25874281877E+02  0.15529391147E+03  0.12500000000E+03 0.  0.
         25    1    1    2    0    0 -0.55225700225E+02  0.17794041462E+01 -0.11846494598E+03  0.18086455615E+03  0.12500000000E+03 0.  0.
</event>
<event>
 5    0  0.5474724E-005  0.2599003E+03  0.7546771E-02  0.1107203E+00
         21   -1    0    0  502  501  0.00000000000E+00  0.00000000000E+00  0.37315483931E+03  0.37315483931E+03  0.00000000000E+00 0.  1.
         21   -1    0    0  501  502 -0.00000000000E+00 -0.00000000000E+00 -0.18101910518E+03  0.18101910518E+03  0.00000000000E+00 0.  1.
         25    1    1    2    0    0 -0.56642941979E+02 -0.54510647375E+02 -0.81530246076E+02  0.16867724974E+03  0.12500000000E+03 0.  0.
         25    1    1    2    0    0 -0.44358389567E+01  0.21000689054E+02  0.14935134238E+03  0.19593756424E+03  0.12500000000E+03 0.  0.
         25    1    1    2    0    0  0.61078780935E+02  0.33509958322E+02  0.12431463782E+03  0.18955913052E+03  0.12500000000E+03 0.  0.
</event>
<event>
 5    0  0.5474724E-005  0.3026676E+03  0.7546771E-02  0.1083915E+00
         21   -1    0    0  502  501  0.00000000000E+00  0.00000000000E+00  0.77298720998E+02  0.77298720998E+02  0.00000000000E+00 0.  1.
         21   -1    0    0  501  502 -0.00000000000E+00 -0.00000000000E+00 -0.11851124391E+04  0.11851124391E+04  0.00000000000E+00 0.  1.
         25    1    1    2    0    0 -0.11893077329E+03  0.63150147424E+02 -0.16487046235E+03  0.24685975636E+03  0.12500000000E+03 0.  0.
         25    1    1    2    0    0 -0.24089186303E+02  0.69389343005E+02 -0.38867317717E+03  0.41483371183E+03  0.12500000000E+03 0.  0.
         25    1    1    2    0    0  0.14301995959E+03 -0.13253949043E+03 -0.55427007862E+03  0.60071769195E+03  0.12500000000E+03 0.  0.
</event>
<event>
 5    0  0.5474724E-005  0.2806613E+03  0.7546771E-02  0.1095328E+00
         21   -1    0    0  502  501  0.00000000000E+00  0.00000000000E+00  0.36505768457E+02  0.36505768457E+02  0.00000000000E+00 0. -1.
         21   -1    0    0  501  502 -0.00000000000E+00 -0.00000000000E+00 -0.21577627010E+04  0.21577627010E+04  0.00000000000E+00 0. -1.
         25    1    1    2    0    0 -0.14939063647E+03  0.78794546418E+02 -0.96605307854E+03  0.98864032558E+03  0.12500000000E+03 0.  0.
         25    1    1    2    0    0  0.28888104121E+02 -0.10796402216E+03 -0.51155773392E+03  0.53833731784E+03  0.12500000000E+03 0.  0.
         25    1    1    2    0    0  0.12050253235E+03  0.29169475746E+02 -0.64364612010E+03  0.66729082605E+03  0.12500000000E+03 0.  0.
</event>
<event>
 5    0  0.5503997E-005  0.4888479E+03  0.7546771E-02  0.1016731E+00
         21   -1    0    0  502  501  0.00000000000E+00  0.00000000000E+00  0.74072592736E+03  0.74072592736E+03  0.00000000000E+00 0.  1.
         21   -1    0    0  501  502 -0.00000000000E+00 -0.00000000000E+00 -0.32261904939E+03  0.32261904939E+03  0.00000000000E+00 0.  1.
         25    1    1    2    0    0  0.23987878077E+03 -0.22107811838E+03  0.22324957380E+02  0.35005823460E+03  0.12500000000E+03 0.  0.
         25    1    1    2    0    0 -0.21879842019E+02  0.24081327028E+03  0.36849962103E+02  0.27468650920E+03  0.12500000000E+03 0.  0.
         25    1    1    2    0    0 -0.21799893875E+03 -0.19735151902E+02  0.35893195848E+03  0.43860023295E+03  0.12500000000E+03 0.  0.
</event>
<event>
 5    0  0.5474724E-005  0.3714244E+03  0.7546771E-02  0.1054150E+00
         21   -1    0    0  502  501  0.00000000000E+00  0.00000000000E+00  0.31761821231E+03  0.31761821231E+03  0.00000000000E+00 0.  1.
         21   -1    0    0  501  502 -0.00000000000E+00 -0.00000000000E+00 -0.43434554385E+03  0.43434554385E+03  0.00000000000E+00 0.  1.
         25    1    1    2    0    0  0.11448832494E+03 -0.21773106854E+03 -0.17273471186E+03  0.32554058953E+03  0.12500000000E+03 0.  0.
         25    1    1    2    0    0  0.31501602933E+02 -0.41996397350E+01  0.11553514614E+02  0.12949313364E+03  0.12500000000E+03 0.  0.
         25    1    1    2    0    0 -0.14598992787E+03  0.22193070827E+03  0.44453865712E+02  0.29693003299E+03  0.12500000000E+03 0.  0.
</event>
<event>
 5    0  0.5474724E-005  0.2983485E+03  0.7546771E-02  0.1086069E+00
         21   -1    0    0  502  501  0.00000000000E+00  0.00000000000E+00  0.86762321324E+03  0.86762321324E+03  0.00000000000E+00 0.  1.
         21   -1    0    0  501  502 -0.00000000000E+00 -0.00000000000E+00 -0.10259275631E+03  0.10259275631E+03  0.00000000000E+00 0.  1.
         25    1    1    2    0    0 -0.92900627564E+02  0.45685432925E+02  0.38102028494E+03  0.41414869663E+03  0.12500000000E+03 0.  0.
         25    1    1    2    0    0  0.14379561263E+03  0.25624744617E+02  0.35053960136E+03  0.39979597030E+03  0.12500000000E+03 0.  0.
         25    1    1    2    0    0 -0.50894985069E+02 -0.71310177542E+02  0.33470570635E+02  0.15627130263E+03  0.12500000000E+03 0.  0.
</event>
<event>
 5    0  0.5474724E-005  0.3278461E+03  0.7546771E-02  0.1072094E+00
         21   -1    0    0  502  501  0.00000000000E+00  0.00000000000E+00  0.52586982341E+03  0.52586982341E+03  0.00000000000E+00 0. -1.
         21   -1    0    0  501  502 -0.00000000000E+00 -0.00000000000E+00 -0.20439103026E+03  0.20439103026E+03  0.00000000000E+00 0. -1.
         25    1    1    2    0    0 -0.63836413441E+02 -0.68799861478E+02  0.16054680554E+03  0.22407316972E+03  0.12500000000E+03 0.  0.
         25    1    1    2    0    0  0.21213123075E+03  0.76860504169E+02  0.63095505030E+01  0.25801551618E+03  0.12500000000E+03 0.  0.
         25    1    1    2    0    0 -0.14829481731E+03 -0.80606426907E+01  0.15462243710E+03  0.24817216777E+03  0.12500000000E+03 0.  0.
</event>
<event>
 5    0  0.5474724E-005  0.3662172E+03  0.7546771E-02  0.1056149E+00
         21   -1    0    0  502  501  0.00000000000E+00  0.00000000000E+00  0.15491197549E+04  0.15491197549E+04  0.00000000000E+00 0. -1.
         21   -1    0    0  501  502 -0.00000000000E+00 -0.00000000000E+00 -0.86574979365E+02  0.86574979365E+02  0.00000000000E+00 0. -1.
         25    1    1    2    0    0  0.13403635033E+03  0.20526244438E+03  0.61395904611E+03  0.67280689992E+03  0.12500000000E+03 0.  0.
         25    1    1    2    0    0 -0.26645736944E+02 -0.55924425511E+01  0.56329242669E+03  0.57763710812E+03  0.12500000000E+03 0.  0.
         25    1    1    2    0    0 -0.10739061339E+03 -0.19967000183E+03  0.28529330275E+03  0.38525072624E+03  0.12500000000E+03 0.  0.
</event>
<event>
 5    0  0.5474724E-005  0.4098092E+03  0.7546771E-02  0.1040435E+00
         21   -1    0    0  502  501  0.00000000000E+00  0.00000000000E+00  0.49311766228E+03  0.49311766228E+03  0.00000000000E+00 0.  1.
         21   -1    0    0  501  502 -0.00000000000E+00 -0.00000000000E+00 -0.34057503452E+03  0.34057503452E+03  0.00000000000E+00 0.  1.
         25    1    1    2    0    0  0.12181759774E+03  0.83808780172E+02 -0.64905415136E+02  0.20420859842E+03  0.12500000000E+03 0.  0.
         25    1    1    2    0    0 -0.48188795762E+02 -0.17941871647E+03  0.34684845271E+03  0.41284632129E+03  0.12500000000E+03 0.  0.
         25    1    1    2    0    0 -0.73628801980E+02  0.95609936298E+02 -0.12940040982E+03  0.21663777709E+03  0.12500000000E+03 0.  0.
</event>
<event>
 5    0  0.5474724E-005  0.2660964E+03  0.7546771E-02  0.1103535E+00
         21   -1    0    0  502  501  0.00000000000E+00  0.00000000000E+00  0.70087177251E+02  0.70087177251E+02  0.00000000000E+00 0.  1.
         21   -1    0    0  501  502 -0.00000000000E+00 -0.00000000000E+00 -0.10102745935E+04  0.10102745935E+04  0.00000000000E+00 0.  1.
         25    1    1    2    0    0  0.30837873206E+02 -0.73771398809E+02 -0.17306895552E+03  0.22797161461E+03  0.12500000000E+03 0.  0.
         25    1    1    2    0    0  0.45372466521E+02  0.14796857444E+02 -0.62769115001E+03  0.64179341498E+03  0.12500000000E+03 0.  0.
         25    1    1    2    0    0 -0.76210339726E+02  0.58974541365E+02 -0.13942731071E+03  0.21059674115E+03  0.12500000000E+03 0.  0.
</event>
<event>
 5    0  0.5474724E-005  0.5996445E+03  0.7546771E-02  0.9906144E-01
         21   -1    0    0  502  501  0.00000000000E+00  0.00000000000E+00  0.15179564464E+04  0.15179564464E+04  0.00000000000E+00 0.  1.
         21   -1    0    0  501  502 -0.00000000000E+00 -0.00000000000E+00 -0.23687999501E+03  0.23687999501E+03  0.00000000000E+00 0.  1.
         25    1    1    2    0    0  0.71767587388E+01  0.92089238776E+02  0.12617215366E+03  0.20019077432E+03  0.12500000000E+03 0.  0.
         25    1    1    2    0    0 -0.47561262713E+03 -0.53501470665E+02  0.84128276839E+03  0.97593620429E+03  0.12500000000E+03 0.  0.
         25    1    1    2    0    0  0.46843586839E+03 -0.38587768111E+02  0.31362152932E+03  0.57870946277E+03  0.12500000000E+03 0.  0.
</event>
<event>
 5    0  0.5936561E-005  0.2647734E+03  0.7546771E-02  0.1104309E+00
         21   -1    0    0  502  501  0.00000000000E+00  0.00000000000E+00  0.55689714602E+03  0.55689714602E+03  0.00000000000E+00 0.  1.
         21   -1    0    0  501  502 -0.00000000000E+00 -0.00000000000E+00 -0.12588493642E+03  0.12588493642E+03  0.00000000000E+00 0.  1.
         25    1    1    2    0    0  0.81058313925E+02 -0.35024117558E+02  0.16599228746E+03  0.22577771937E+03  0.12500000000E+03 0.  0.
         25    1    1    2    0    0  0.82223891172E+02  0.17526114433E+02  0.49400605468E+02  0.15853502070E+03  0.12500000000E+03 0.  0.
         25    1    1    2    0    0 -0.16328220510E+03  0.17498003124E+02  0.21561931667E+03  0.29846934237E+03  0.12500000000E+03 0.  0.
</event>
<event>
 5    0  0.5474724E-005  0.2443332E+03  0.7546771E-02  0.1116939E+00
         21   -1    0    0  502  501  0.00000000000E+00  0.00000000000E+00  0.88443003275E+02  0.88443003275E+02  0.00000000000E+00 0.  1.
         21   -1    0    0  501  502 -0.00000000000E+00 -0.00000000000E+00 -0.67499662195E+03  0.67499662195E+03  0.00000000000E+00 0.  1.
         25    1    1    2    0    0  0.43457700764E+02 -0.65200524271E+02 -0.35871285043E+03  0.38786542664E+03  0.12500000000E+03 0.  0.
         25    1    1    2    0    0 -0.39680638875E+01 -0.38967155671E+02 -0.10573325455E+03  0.16834104036E+03  0.12500000000E+03 0.  0.
         25    1    1    2    0    0 -0.39489636876E+02  0.10416767994E+03 -0.12210751369E+03  0.20723315822E+03  0.12500000000E+03 0.  0.
</event>
<event>
 5    0  0.5474724E-005  0.2980930E+03  0.7546771E-02  0.1086198E+00
         21   -1    0    0  502  501  0.00000000000E+00  0.00000000000E+00  0.48320835629E+02  0.48320835629E+02  0.00000000000E+00 0.  1.
         21   -1    0    0  501  502 -0.00000000000E+00 -0.00000000000E+00 -0.18389468459E+04  0.18389468459E+04  0.00000000000E+00 0.  1.
         25    1    1    2    0    0  0.61375297641E+02 -0.11204993823E+03 -0.50306739569E+03  0.53387631566E+03  0.12500000000E+03 0.  0.
         25    1    1    2    0    0 -0.14669903642E+03 -0.26276950582E+02 -0.43474533035E+03  0.47627679734E+03  0.12500000000E+03 0.  0.
         25    1    1    2    0    0  0.85323738781E+02  0.13832688881E+03 -0.85281328419E+03  0.87711456849E+03  0.12500000000E+03 0.  0.
</event>
<event>
 5    0  0.5474724E-005  0.2832485E+03  0.7546771E-02  0.1093928E+00
         21   -1    0    0  502  501  0.00000000000E+00  0.00000000000E+00  0.22885827969E+04  0.22885827969E+04  0.00000000000E+00 0. -1.
         21   -1    0    0  501  502 -0.00000000000E+00 -0.00000000000E+00 -0.35056514551E+02  0.35056514551E+02  0.00000000000E+00 0. -1.
         25    1    1    2    0    0  0.55606562111E+02 -0.22937152771E+02  0.20990281407E+03  0.25159967027E+03  0.12500000000E+03 0.  0.
         25    1    1    2    0    0 -0.65588918592E+02 -0.78516377424E+02  0.13643074625E+04  0.13738364459E+04  0.12500000000E+03 0.  0.
         25    1    1    2    0    0  0.99823564811E+01  0.10145353019E+03  0.67931600574E+03  0.69820319527E+03  0.12500000000E+03 0.  0.
</event>
<event>
 5    0  0.5474724E-005  0.3072275E+03  0.7546771E-02  0.1081682E+00
         21   -1    0    0  502  501  0.00000000000E+00  0.00000000000E+00  0.16303403940E+04  0.16303403940E+04  0.00000000000E+00 0.  1.
         21   -1    0    0  501  502 -0.00000000000E+00 -0.00000000000E+00 -0.57895102529E+02  0.57895102529E+02  0.00000000000E+00 0.  1.
         25    1    1    2    0    0  0.64053917668E+02  0.33602977572E+01  0.82812388053E+03  0.83995735456E+03  0.12500000000E+03 0.  0.
         25    1    1    2    0    0 -0.97637558537E+02 -0.57930049025E+02  0.66678222512E+03  0.68783175207E+03  0.12500000000E+03 0.  0.
         25    1    1    2    0    0  0.33583640869E+02  0.54569751268E+02  0.77539185772E+02  0.16044638986E+03  0.12500000000E+03 0.  0.
</event>
<event>
 5    0  0.5474724E-005  0.2202207E+03  0.7546771E-02  0.1133719E+00
         21   -1    0    0  502  501  0.00000000000E+00  0.00000000000E+00  0.37602017188E+03  0.37602017188E+03  0.00000000000E+00 0. -1.
         21   -1    0    0  501  502 -0.00000000000E+00 -0.00000000000E+00 -0.12897489958E+03  0.12897489958E+03  0.00000000000E+00 0. -1.
         25    1    1    2    0    0 -0.42169640094E+02 -0.21176439727E+02  0.19618232479E+02  0.13504293832E+03  0.12500000000E+03 0.  0.
         25    1    1    2    0    0  0.27951630305E+02  0.81949199631E+02  0.12042275160E+03  0.19396804907E+03  0.12500000000E+03 0.  0.
         25    1    1    2    0    0  0.14218009789E+02 -0.60772759904E+02  0.10700428821E+03  0.17598408407E+03  0.12500000000E+03 0.  0.
</event>
<event>
 5    0  0.5474724E-005  0.2795891E+03  0.7546771E-02  0.1095914E+00
         21   -1    0    0  502  501  0.00000000000E+00  0.00000000000E+00  0.10032498392E+03  0.10032498392E+03  0.00000000000E+00 0. -1.
         21   -1    0    0  501  502 -0.00000000000E+00 -0.00000000000E+00 -0.77916843330E+03  0.77916843330E+03  0.00000000000E+00 0. -1.
         25    1    1    2    0    0  0.96126751724E+02  0.17928084331E+02 -0.12632044202E+03  0.20283890819E+03  0.12500000000E+03 0.  0.
         25    1    1    2    0    0 -0.18118039222E+03 -0.84309994168E+01 -0.42476293855E+03  0.47848298846E+03  0.12500000000E+03 0.  0.
         25    1    1    2    0    0  0.85053640495E+02 -0.94970849145E+01 -0.12776006881E+03  0.19817152057E+03  0.12500000000E+03 0.  0.
</event>
<event>
 5    0  0.5474724E-005  0.2792981E+03  0.7546771E-02  0.1096073E+00
         21   -1    0    0  502  501  0.00000000000E+00  0.00000000000E+00  0.12160963085E+04  0.12160963085E+04  0.00000000000E+00 0. -1.
         21   -1    0    0  501  502 -0.00000000000E+00 -0.00000000000E+00 -0.64145742884E+02  0.64145742884E+02  0.00000000000E+00 0. -1.
         25    1    1    2    0    0 -0.41843057520E+02  0.56910624860E+02  0.26180873312E+03  0.29859416174E+03  0.12500000000E+03 0.  0.
         25    1    1    2    0    0 -0.11197449429E+03  0.50618253167E+02  0.51430055278E+03  0.54335122482E+03  0.12500000000E+03 0.  0.
         25    1    1    2    0    0  0.15381755181E+03 -0.10752887803E+03  0.37584127968E+03  0.43829666479E+03  0.12500000000E+03 0.  0.
</event>
<event>
 5    0  0.5474724E-005  0.4863405E+03  0.7546771E-02  0.1017407E+00
         21   -1    0    0  502  501  0.00000000000E+00  0.00000000000E+00  0.12294331735E+04  0.12294331735E+04  0.00000000000E+00 0. -1.
         21   -1    0    0  501  502 -0.00000000000E+00 -0.00000000000E+00 -0.19238708636E+03  0.19238708636E+03  0.00000000000E+00 0. -1.
         25    1    1    2    0    0 -0.88006237139E+02 -0.24953206218E+03  0.75485511490E+02  0.30221583393E+03  0.12500000000E+03 0.  0.
         25    1    1    2    0    0  0.58785673387E+02  0.35102749883E+03  0.82239920660E+03  0.90478810522E+03  0.12500000000E+03 0.  0.
         25    1    1    2    0    0  0.29220563753E+02 -0.10149543665E+03  0.13916136901E+03  0.21481632068E+03  0.12500000000E+03 0.  0.
</event>
<event>
 5    0  0.5474724E-005  0.4174535E+03  0.7546771E-02  0.1037898E+00
         21   -1    0    0  502  501  0.00000000000E+00  0.00000000000E+00  0.20511489110E+04  0.20511489110E+04  0.00000000000E+00 0. -1.
         21   -1    0    0  501  502 -0.00000000000E+00 -0.00000000000E+00 -0.84960896656E+02  0.84960896656E+02  0.00000000000E+00 0. -1.
         25    1    1    2    0    0  0.21845296690E+02  0.29396953128E+03  0.48114875534E+03  0.57794846403E+03  0.12500000000E+03 0.  0.
         25    1    1    2    0    0 -0.15636848681E+02 -0.37030827410E+02  0.18366122069E+03  0.22577031957E+03  0.12500000000E+03 0.  0.
         25    1    1    2    0    0 -0.62084480089E+01 -0.25693870387E+03  0.13013780383E+04  0.13323910240E+04  0.12500000000E+03 0.  0.
</event>
<event>
 5    0  0.5474724E-005  0.4337319E+03  0.7546771E-02  0.1032688E+00
         21   -1    0    0  502  501  0.00000000000E+00  0.00000000000E+00  0.36429401827E+03  0.36429401827E+03  0.00000000000E+00 0. -1.
         21   -1    0    0  501  502 -0.00000000000E+00 -0.00000000000E+00 -0.51640533803E+03  0.51640533803E+03  0.00000000000E+00 0. -1.
         25    1    1    2    0    0  0.65539763210E+02  0.98666879585E+02 -0.96055903607E+02  0.19718608041E+03  0.12500000000E+03 0.  0.
         25    1    1    2    0    0  0.72696296562E+02  0.23272686088E+03 -0.11795280988E+03  0.29830254553E+03  0.12500000000E+03 0.  0.
         25    1    1    2    0    0 -0.13823605977E+03 -0.33139374047E+03  0.61897393728E+02  0.38521073037E+03  0.12500000000E+03 0.  0.
</event>
<event>
 5    0  0.5474724E-005  0.3965224E+03  0.7546771E-02  0.1044991E+00
         21   -1    0    0  502  501  0.00000000000E+00  0.00000000000E+00  0.26177658617E+03  0.26177658617E+03  0.00000000000E+00 0.  1.
         21   -1    0    0  501  502 -0.00000000000E+00 -0.00000000000E+00 -0.60062681416E+03  0.60062681416E+03  0.00000000000E+00 0.  1.
         25    1    1    2    0    0  0.21270275335E+03  0.11458992740E+03 -0.28677988222E+03  0.39527334035E+03  0.12500000000E+03 0.  0.
         25    1    1    2    0    0 -0.24816710892E+03 -0.29241442065E+02  0.46225943231E+02  0.28320277843E+03  0.12500000000E+03 0.  0.
         25    1    1    2    0    0  0.35464355564E+02 -0.85348485335E+02 -0.98296289006E+02  0.18392728155E+03  0.12500000000E+03 0.  0.
</event>
<event>
 5    0  0.5474724E-005  0.3886185E+03  0.7546771E-02  0.1047794E+00
         21   -1    0    0  502  501  0.00000000000E+00  0.00000000000E+00  0.92160215253E+03  0.92160215253E+03  0.00000000000E+00 0. -1.
         21   -1    0    0  501  502 -0.00000000000E+00 -0.00000000000E+00 -0.16387150785E+03  0.16387150785E+03  0.00000000000E+00 0. -1.
         25    1    1    2    0    0  0.63702060343E+02  0.13539513213E+03  0.44367202266E+03  0.48462321239E+03  0.12500000000E+03 0.  0.
         25    1    1    2    0    0 -0.14936288886E+03 -0.19286630142E+03  0.33999148864E+03  0.43672175941E+03  0.12500000000E+03 0.  0.
         25    1    1    2    0    0  0.85660828520E+02  0.57471169294E+02 -0.25932866619E+02  0.16412868858E+03  0.12500000000E+03 0.  0.
</event>
<event>
 5    0  0.5474724E-005  0.3347841E+03  0.7546771E-02  0.1069039E+00
         21   -1    0    0  502  501  0.00000000000E+00  0.00000000000E+00  0.14354555871E+03  0.14354555871E+03  0.00000000000E+00 0.  1.
         21   -1    0    0  501  502 -0.00000000000E+00 -0.00000000000E+00 -0.78079997288E+03  0.78079997288E+03  0.00000000000E+00 0.  1.
         25    1    1    2    0    0  0.13064683673E+02 -0.21725838385E+02 -0.20050567442E+03  0.23763464286E+03  0.12500000000E+03 0.  0.
         25    1    1    2    0    0 -0.17847637098E+03 -0.73703304165E+02 -0.39143465986E+03  0.45401771439E+03  0.12500000000E+03 0.  0.
         25    1    1    2    0    0  0.16541168731E+03  0.95429142550E+02 -0.45314079882E+02  0.23269317434E+03  0.12500000000E+03 0.  0.
</event>
<event>
 5    0  0.5474724E-005  0.3070375E+03  0.7546771E-02  0.1081775E+00
         21   -1    0    0  502  501  0.00000000000E+00  0.00000000000E+00  0.30367489018E+03  0.30367489018E+03  0.00000000000E+00 0. -1.
         21   -1    0    0  501  502 -0.00000000000E+00 -0.00000000000E+00 -0.31043741039E+03  0.31043741039E+03  0.00000000000E+00 0. -1.
         25    1    1    2    0    0 -0.70614242546E+01  0.19292380550E+03 -0.55541799843E+02  0.23659955615E+03  0.12500000000E+03 0.  0.
         25    1    1    2    0    0 -0.47450529335E+02 -0.13582803399E+03 -0.53240166525E+02  0.19788967351E+03  0.12500000000E+03 0.  0.
         25    1    1    2    0    0  0.54511953590E+02 -0.57095771513E+02  0.10201944615E+03  0.17962307091E+03  0.12500000000E+03 0.  0.
</event>
<event>
 5    0  0.5474724E-005  0.3473228E+03  0.7546771E-02  0.1063719E+00
         21   -1    0    0  502  501  0.00000000000E+00  0.00000000000E+00  0.17619059963E+03  0.17619059963E+03  0.00000000000E+00 0. -1.
         21   -1    0    0  501  502 -0.00000000000E+00 -0.00000000000E+00 -0.68467405347E+03  0.68467405347E+03  0.00000000000E+00 0. -1.
         25    1    1    2    0    0  0.23010766301E+03  0.12883376930E+03 -0.23205756600E+03  0.37285840560E+03  0.12500000000E+03 0.  0.
         25    1    1    2    0    0 -0.16014239168E+03 -0.12139433373E+03 -0.24603585516E+03  0.34138074331E+03  0.12500000000E+03 0.  0.
         25    1    1    2    0    0 -0.69965271326E+02 -0.74394355617E+01 -0.30390032690E+02  0.14662550419E+03  0.12500000000E+03 0.  0.
</event>
<event>
 5    0  0.7262336E-005  0.3346715E+03  0.7546771E-02  0.1069088E+00
         21   -1    0    0  502  501  0.00000000000E+00  0.00000000000E+00  0.25632493806E+03  0.25632493806E+03  0.00000000000E+00 0.  1.
         21   -1    0    0  501  502 -0.00000000000E+00 -0.00000000000E+00 -0.43696495074E+03  0.43696495074E+03  0.00000000000E+00 0.  1.
         25    1    1    2    0    0 -0.33786811949E+02 -0.41727889286E+02  0.10645683906E+03  0.17274496806E+03  0.12500000000E+03 0.  0.
         25    1    1    2    0    0  0.11509645290E+03 -0.10864764621E+03 -0.21985528259E+03  0.29835021331E+03  0.12500000000E+03 0.  0.
         25    1    1    2    0    0 -0.81309640947E+02  0.15037553550E+03 -0.67241569152E+02  0.22219470743E+03  0.12500000000E+03 0.  0.
</event>
<event>
 5    0  0.5474724E-005  0.2485378E+03  0.7546771E-02  0.1114232E+00
         21   -1    0    0  502  501  0.00000000000E+00  0.00000000000E+00  0.17272000718E+03  0.17272000718E+03  0.00000000000E+00 0. -1.
         21   -1    0    0  501  502 -0.00000000000E+00 -0.00000000000E+00 -0.35763695561E+03  0.35763695561E+03  0.00000000000E+00 0. -1.
         25    1    1    2    0    0  0.88481108424E+02 -0.85382275309E+02 -0.77461718092E+01  0.17551080497E+03  0.12500000000E+03 0.  0.
         25    1    1    2    0    0  0.52962653851E-01  0.56904268715E+02 -0.13690973623E+03  0.19392620884E+03  0.12500000000E+03 0.  0.
         25    1    1    2    0    0 -0.88534071078E+02  0.28478006594E+02 -0.40261040392E+02  0.16091994896E+03  0.12500000000E+03 0.  0.
</event>
<event>
 5    0  0.5474724E-005  0.3944053E+03  0.7546771E-02  0.1045734E+00
         21   -1    0    0  502  501  0.00000000000E+00  0.00000000000E+00  0.20929169121E+03  0.20929169121E+03  0.00000000000E+00 0. -1.
         21   -1    0    0  501  502 -0.00000000000E+00 -0.00000000000E+00 -0.74324769552E+03  0.74324769552E+03  0.00000000000E+00 0. -1.
         25    1    1    2    0    0  0.88030569159E+02  0.11670782763E+03  0.54184138061E+02  0.19982747297E+03  0.12500000000E+03 0.  0.
         25    1    1    2    0    0 -0.18873810451E+03 -0.15703278486E+03 -0.23272139448E+03  0.36064610779E+03  0.12500000000E+03 0.  0.
         25    1    1    2    0    0  0.10070753535E+03  0.40324957231E+02 -0.35541874790E+03  0.39206580597E+03  0.12500000000E+03 0.  0.
</event>
<event>
 5    0  0.5474724E-005  0.3538351E+03  0.7546771E-02  0.1061052E+00
         21   -1    0    0  502  501  0.00000000000E+00  0.00000000000E+00  0.39394401666E+03  0.39394401666E+03  0.00000000000E+00 0. -1.
         21   -1    0    0  501  502 -0.00000000000E+00 -0.00000000000E+00 -0.31780990224E+03  0.31780990224E+03  0.00000000000E+00 0. -1.
         25    1    1    2    0    0  0.14339649443E+03 -0.14109972805E+03 -0.75669030043E+02  0.24864128776E+03  0.12500000000E+03 0.  0.
         25    1    1    2    0    0  0.54310799247E+02 -0.18610654925E+02  0.11141519155E+03  0.17701515274E+03  0.12500000000E+03 0.  0.
         25    1    1    2    0    0 -0.19770729368E+03  0.15971038298E+03  0.40387952916E+02  0.28609747840E+03  0.12500000000E+03 0.  0.
</event>
<event>
 5    0  0.5474724E-005  0.3896664E+03  0.7546771E-02  0.1047418E+00
         21   -1    0    0  502  501  0.00000000000E+00  0.00000000000E+00  0.81529195159E+02  0.81529195159E+02  0.00000000000E+00 0.  1.
         21   -1    0    0  501  502 -0.00000000000E+00 -0.00000000000E+00 -0.18623990292E+04  0.18623990292E+04  0.00000000000E+00 0.  1.
         25    1    1    2    0    0 -0.40510179480E+02  0.28668522260E+02 -0.21603914542E+03  0.25448157333E+03  0.12500000000E+03 0.  0.
         25    1    1    2    0    0  0.75167597540E+02  0.19118740204E+03 -0.12983351299E+04  0.13204173203E+04  0.12500000000E+03 0.  0.
         25    1    1    2    0    0 -0.34657418059E+02 -0.21985592430E+03 -0.26649555878E+03  0.36902933071E+03  0.12500000000E+03 0.  0.
</event>
<event>
 5    0  0.5474724E-005  0.2584493E+03  0.7546771E-02  0.1108079E+00
         21   -1    0    0  502  501  0.00000000000E+00  0.00000000000E+00  0.34445480359E+03  0.34445480359E+03  0.00000000000E+00 0.  1.
         21   -1    0    0  501  502 -0.00000000000E+00 -0.00000000000E+00 -0.19391817286E+03  0.19391817286E+03  0.00000000000E+00 0.  1.
         25    1    1    2    0    0  0.13995049543E+03 -0.48905778434E+02  0.10657317451E+03  0.22127077950E+03  0.12500000000E+03 0.  0.
         25    1    1    2    0    0 -0.17697337973E+02  0.47307731757E+02 -0.69192100751E+01  0.13499663967E+03  0.12500000000E+03 0.  0.
         25    1    1    2    0    0 -0.12225315745E+03  0.15980466771E+01  0.50882666300E+02  0.18210555727E+03  0.12500000000E+03 0.  0.
</event>
<event>
 5    0  0.5474724E-005  0.2522624E+03  0.7546771E-02  0.1111883E+00
         21   -1    0    0  502  501  0.00000000000E+00  0.00000000000E+00  0.31626216580E+03  0.31626216580E+03  0.00000000000E+00 0.  1.
         21   -1    0    0  501  502 -0.00000000000E+00 -0.00000000000E+00 -0.20121387608E+03  0.20121387608E+03  0.00000000000E+00 0.  1.
         25    1    1    2    0    0  0.33957282470E+02 -0.13593478267E+03  0.59030432124E+02  0.19682721888E+03  0.12500000000E+03 0.  0.
         25    1    1    2    0    0  0.43408118896E+02  0.40507297280E+02  0.42969552868E+02  0.14490165076E+03  0.12500000000E+03 0.  0.
         25    1    1    2    0    0 -0.77365401366E+02  0.95427485395E+02  0.13048304727E+02  0.17574717225E+03  0.12500000000E+03 0.  0.
</event>
<event>
 5    0  0.5474724E-005  0.3654365E+03  0.7546771E-02  0.1056452E+00
         21   -1    0    0  502  501  0.00000000000E+00  0.00000000000E+00  0.45150012992E+03  0.45150012992E+03  0.00000000000E+00 0.  1.
         21   -1    0    0  501  502 -0.00000000000E+00 -0.00000000000E+00 -0.29577799830E+03  0.29577799830E+03  0.00000000000E+00 0.  1.
         25    1    1    2    0    0  0.20561579154E+03 -0.70001983249E+02  0.15299034840E+03  0.29361399506E+03  0.12500000000E+03 0.  0.
         25    1    1    2    0    0 -0.17937769504E+03  0.40396136316E+02  0.14087431357E+03  0.26320861979E+03  0.12500000000E+03 0.  0.
         25    1    1    2    0    0 -0.26238096502E+02  0.29605846933E+02 -0.13814253035E+03  0.19045551337E+03  0.12500000000E+03 0.  0.
</event>
<event>
 5    0  0.5474724E-005  0.2568118E+03  0.7546771E-02  0.1109074E+00
         21   -1    0    0  502  501  0.00000000000E+00  0.00000000000E+00  0.90796289093E+03  0.90796289093E+03  0.00000000000E+00 0. -1.
         21   -1    0    0  501  502 -0.00000000000E+00 -0.00000000000E+00 -0.72637637929E+02  0.72637637929E+02  0.00000000000E+00 0. -1.
         25    1    1    2    0    0  0.61546858084E+02  0.12538554163E+02  0.73246401488E+02  0.15790904474E+03  0.12500000000E+03 0.  0.
         25    1    1    2    0    0 -0.94236503645E+02 -0.63052838778E+02  0.36640787973E+03  0.40340539588E+03  0.12500000000E+03 0.  0.
         25    1    1    2    0    0  0.32689645562E+02  0.50514284614E+02  0.39567097178E+03  0.41928608824E+03  0.12500000000E+03 0.  0.
</event>
<event>
 5    0  0.5474724E-005  0.4427329E+03  0.7546771E-02  0.1029912E+00
         21   -1    0    0  502  501  0.00000000000E+00  0.00000000000E+00  0.14073057257E+03  0.14073057257E+03  0.00000000000E+00 0.  1.
         21   -1    0    0  501  502 -0.00000000000E+00 -0.00000000000E+00 -0.13928202503E+04  0.13928202503E+04  0.00000000000E+00 0.  1.
         25    1    1    2    0    0 -0.65277764480E+02  0.11450984548E+02 -0.65240425871E+03  0.66756919369E+03  0.12500000000E+03 0.  0.
         25    1    1    2    0    0  0.12640465424E+03  0.26131978718E+03 -0.34304144623E+03  0.46644249551E+03  0.12500000000E+03 0.  0.
         25    1    1    2    0    0 -0.61126889761E+02 -0.27277077173E+03 -0.25664397275E+03  0.39953913364E+03  0.12500000000E+03 0.  0.
</event>
<event>
 5    0  0.5474724E-005  0.2825288E+03  0.7546771E-02  0.1094316E+00
         21   -1    0    0  502  501  0.00000000000E+00  0.00000000000E+00  0.45037623870E+02  0.45037623870E+02  0.00000000000E+00 0. -1.
         21   -1    0    0  501  502 -0.00000000000E+00 -0.00000000000E+00 -0.17723522446E+04  0.17723522446E+04  0.00000000000E+00 0. -1.
         25    1    1    2    0    0 -0.92662421852E+02 -0.73446021088E+02 -0.26729161080E+03  0.31788433060E+03  0.12500000000E+03 0.  0.
         25    1    1    2    0    0 -0.34886442198E+02 -0.32290465813E+02 -0.53089145326E+03  0.54747645901E+03  0.12500000000E+03 0.  0.
         25    1    1    2    0    0  0.12754886405E+03  0.10573648690E+03 -0.92913155667E+03  0.95202907886E+03  0.12500000000E+03 0.  0.
</event>
<event>
 5    0  0.5474724E-005  0.2374160E+03  0.7546771E-02  0.1121526E+00
         21   -1    0    0  502  501  0.00000000000E+00  0.00000000000E+00  0.13894687407E+03  0.13894687407E+03  0.00000000000E+00 0.  1.
         21   -1    0    0  501  502 -0.00000000000E+00 -0.00000000000E+00 -0.40566830613E+03  0.40566830613E+03  0.00000000000E+00 0.  1.
         25    1    1    2    0    0  0.14183218942E+02  0.28622875111E+02  0.54928703398E+01  0.12913405555E+03  0.12500000000E+03 0.  0.
         25    1    1    2    0    0 -0.72970364898E+02  0.15513982465E+02 -0.57781800402E+02  0.15661766906E+03  0.12500000000E+03 0.  0.
         25    1    1    2    0    0  0.58787145956E+02 -0.44136857576E+02 -0.21443250199E+03  0.25886345559E+03  0.12500000000E+03 0.  0.
</event>
<event>
 5    0  0.5474724E-005  0.2193962E+03  0.7546771E-02  0.1134334E+00
         21   -1    0    0  502  501  0.00000000000E+00  0.00000000000E+00  0.14362124298E+03  0.14362124298E+03  0.00000000000E+00 0. -1.
         21   -1    0    0  501  502 -0.00000000000E+00 -0.00000000000E+00 -0.33515028452E+03  0.33515028452E+03  0.00000000000E+00 0. -1.
         25    1    1    2    0    0 -0.45996114729E+02  0.23663301806E+02 -0.12523053576E+03  0.18434554920E+03  0.12500000000E+03 0.  0.
         25    1    1    2    0    0  0.45309149459E+02  0.38002942083E+02 -0.70002063931E+02  0.15499171457E+03  0.12500000000E+03 0.  0.
         25    1    1    2    0    0  0.68696526994E+00 -0.61666243889E+02  0.37035581535E+01  0.13943426372E+03  0.12500000000E+03 0.  0.
</event>
<event>
 5    0  0.5474724E-005  0.2593568E+03  0.7546771E-02  0.1107530E+00
         21   -1    0    0  502  501  0.00000000000E+00  0.00000000000E+00  0.95045423115E+02  0.95045423115E+02  0.00000000000E+00 0. -1.
         21   -1    0    0  501  502 -0.00000000000E+00 -0.00000000000E+00 -0.70772444088E+03  0.70772444088E+03  0.00000000000E+00 0. -1.
         25    1    1    2    0    0  0.88080295207E+02 -0.10648994581E+03 -0.16221162284E+03  0.24705436152E+03  0.12500000000E+03 0.  0.
         25    1    1    2    0    0 -0.20927613000E+02  0.34572180876E+02 -0.83265433746E+02  0.15553563300E+03  0.12500000000E+03 0.  0.
         25    1    1    2    0    0 -0.67152682207E+02  0.71917764929E+02 -0.36720196118E+03  0.40017986948E+03  0.12500000000E+03 0.  0.
</event>
<event>
 5    0  0.5474724E-005  0.3363064E+03  0.7546771E-02  0.1068380E+00
         21   -1    0    0  502  501  0.00000000000E+00  0.00000000000E+00  0.98265303408E+02  0.98265303408E+02  0.00000000000E+00 0.  1.
         21   -1    0    0  501  502 -0.00000000000E+00 -0.00000000000E+00 -0.11509862653E+04  0.11509862653E+04  0.00000000000E+00 0.  1.
         25    1    1    2    0    0  0.28313931322E+02 -0.48647683303E+02 -0.62667422104E+01  0.13723173050E+03  0.12500000000E+03 0.  0.
         25    1    1    2    0    0  0.43852713388E+02 -0.10156665669E+03 -0.42657570098E+03  0.45807278339E+03  0.12500000000E+03 0.  0.
         25    1    1    2    0    0 -0.72166644710E+02  0.15021434000E+03 -0.61987851872E+03  0.65394705483E+03  0.12500000000E+03 0.  0.
</event>
<event>
 5    0  0.5474724E-005  0.3731926E+03  0.7546771E-02  0.1053479E+00
         21   -1    0    0  502  501  0.00000000000E+00  0.00000000000E+00  0.11328643449E+04  0.11328643449E+04  0.00000000000E+00 0.  1.
         21   -1    0    0  501  502 -0.00000000000E+00 -0.00000000000E+00 -0.12293855600E+03  0.12293855600E+03  0.00000000000E+00 0. -1.
         25    1    1    2    0    0 -0.60901244429E+02  0.28218378166E+02  0.69185446041E+02  0.15785076618E+03  0.12500000000E+03 0.  0.
         25    1    1    2    0    0 -0.10381223281E+03 -0.22258679684E+03  0.37904998493E+03  0.46864245741E+03  0.12500000000E+03 0.  0.
         25    1    1    2    0    0  0.16471347724E+03  0.19436841868E+03  0.56169035789E+03  0.62930967728E+03  0.12500000000E+03 0.  0.
</event>
<event>
 5    0  0.5598431E-005  0.2655547E+03  0.7546771E-02  0.1103851E+00
         21   -1    0    0  502  501  0.00000000000E+00  0.00000000000E+00  0.22487292224E+03  0.22487292224E+03  0.00000000000E+00 0.  1.
         21   -1    0    0  501  502 -0.00000000000E+00 -0.00000000000E+00 -0.31359629522E+03  0.31359629522E+03  0.00000000000E+00 0.  1.
         25    1    1    2    0    0  0.12131787944E+03  0.59418945085E+02 -0.14849819112E+03  0.23648541535E+03  0.12500000000E+03 0.  0.
         25    1    1    2    0    0 -0.27328451929E+02 -0.43075430475E+02  0.51575901570E+02  0.14452477510E+03  0.12500000000E+03 0.  0.
         25    1    1    2    0    0 -0.93989427509E+02 -0.16343514611E+02  0.81989165769E+01  0.15745902701E+03  0.12500000000E+03 0.  0.
</event>
<event>
 5    0  0.5474724E-005  0.2794993E+03  0.7546771E-02  0.1095963E+00
         21   -1    0    0  502  501  0.00000000000E+00  0.00000000000E+00  0.88625920311E+03  0.88625920311E+03  0.00000000000E+00 0.  1.
         21   -1    0    0  501  502 -0.00000000000E+00 -0.00000000000E+00 -0.88145640749E+02  0.88145640749E+02  0.00000000000E+00 0.  1.
         25    1    1    2    0    0  0.51574453928E+02  0.15032036346E+03  0.30160517045E+03  0.36310716712E+03  0.12500000000E+03 0.  0.
         25    1    1    2    0    0 -0.55208839564E+02 -0.17055096491E+03  0.23615091424E+03  0.32175752034E+03  0.12500000000E+03 0.  0.
         25    1    1    2    0    0  0.36343856368E+01  0.20230601451E+02  0.26035747767E+03  0.28954015641E+03  0.12500000000E+03 0.  0.
</event>
<event>
 5    0  0.5474724E-005  0.3076794E+03  0.7546771E-02  0.1081464E+00
         21   -1    0    0  502  501  0.00000000000E+00  0.00000000000E+00  0.10570616904E+03  0.10570616904E+03  0.00000000000E+00 0. -1.
         21   -1    0    0  501  502 -0.00000000000E+00 -0.00000000000E+00 -0.89556393629E+03  0.89556393629E+03  0.00000000000E+00 0. -1.
         25    1    1    2    0    0  0.18583986516E+02 -0.15801871411E+03 -0.15770679171E+03  0.25653793231E+03  0.12500000000E+03 0.  0.
         25    1    1    2    0    0 -0.11361918183E+03  0.54751628493E+02 -0.44669910246E+03  0.48069964368E+03  0.12500000000E+03 0.  0.
         25    1    1    2    0    0  0.95035195311E+02  0.10326708561E+03 -0.18545187308E+03  0.26403252934E+03  0.12500000000E+03 0.  0.
</event>
<event>
 5    0  0.5474724E-005  0.3104213E+03  0.7546771E-02  0.1080144E+00
         21   -1    0    0  502  501  0.00000000000E+00  0.00000000000E+00  0.21338703792E+03  0.21338703792E+03  0.00000000000E+00 0.  1.
         21   -1    0    0  501  502 -0.00000000000E+00 -0.00000000000E+00 -0.45158021599E+03  0.45158021599E+03  0.00000000000E+00 0.  1.
         25    1    1    2    0    0 -0.64820896070E+02 -0.44832142541E+02 -0.80938796980E+02  0.16848667137E+03  0.12500000000E+03 0.  0.
         25    1    1    2    0    0 -0.14213416809E+03 -0.49105678216E+02 -0.47871217920E+01  0.19560522976E+03  0.12500000000E+03 0.  0.
         25    1    1    2    0    0  0.20695506416E+03  0.93937820756E+02 -0.15246725930E+03  0.30087535278E+03  0.12500000000E+03 0.  0.
</event>
<event>
 5    0  0.5474724E-005  0.5623318E+03  0.7546771E-02  0.9986792E-01
         21   -1    0    0  502  501  0.00000000000E+00  0.00000000000E+00  0.35873545698E+03  0.35873545698E+03  0.00000000000E+00 0. -1.
         21   -1    0    0  501  502 -0.00000000000E+00 -0.00000000000E+00 -0.88147710263E+03  0.88147710263E+03  0.00000000000E+00 0. -1.
         25    1    1    2    0    0 -0.19252201480E+02 -0.52964816582E+02 -0.25098819946E+03  0.28599999183E+03  0.12500000000E+03 0.  0.
         25    1    1    2    0    0 -0.18625397371E+03 -0.36675836941E+03 -0.15037910864E+03  0.45545704580E+03  0.12500000000E+03 0.  0.
         25    1    1    2    0    0  0.20550617519E+03  0.41972318599E+03 -0.12137433755E+03  0.49875552199E+03  0.12500000000E+03 0.  0.
</event>
<event>
 5    0  0.6306751E-005  0.6143410E+03  0.7546771E-02  0.9876092E-01
         21   -1    0    0  502  501  0.00000000000E+00  0.00000000000E+00  0.59874011143E+03  0.59874011143E+03  0.00000000000E+00 0. -1.
         21   -1    0    0  501  502 -0.00000000000E+00 -0.00000000000E+00 -0.63034847526E+03  0.63034847526E+03  0.00000000000E+00 0. -1.
         25    1    1    2    0    0  0.39589210631E+03  0.19512365285E+03 -0.19537088220E+03  0.49859661186E+03  0.12500000000E+03 0.  0.
         25    1    1    2    0    0 -0.35964433525E+03 -0.20728464546E+03 -0.92083130645E+02  0.44318762965E+03  0.12500000000E+03 0.  0.
         25    1    1    2    0    0 -0.36247771061E+02  0.12160992608E+02  0.25584564901E+03  0.28730434519E+03  0.12500000000E+03 0.  0.
</event>
<event>
 5    0  0.5474724E-005  0.5466801E+03  0.7546771E-02  0.1002265E+00
         21   -1    0    0  502  501  0.00000000000E+00  0.00000000000E+00  0.30837296252E+03  0.30837296252E+03  0.00000000000E+00 0.  1.
         21   -1    0    0  501  502 -0.00000000000E+00 -0.00000000000E+00 -0.96914825283E+03  0.96914825283E+03  0.00000000000E+00 0.  1.
         25    1    1    2    0    0 -0.48361838479E+01  0.37954287682E+02 -0.86623166462E+03  0.87604007524E+03  0.12500000000E+03 0.  0.
         25    1    1    2    0    0  0.60625934679E+02  0.95953206822E+01 -0.12426676740E+02  0.13981057338E+03  0.12500000000E+03 0.  0.
         25    1    1    2    0    0 -0.55789750832E+02 -0.47549608364E+02  0.21788305106E+03  0.26167056673E+03  0.12500000000E+03 0.  0.
</event>
<event>
 5    0  0.5474724E-005  0.2985327E+03  0.7546771E-02  0.1085976E+00
         21   -1    0    0  502  501  0.00000000000E+00  0.00000000000E+00  0.30789222282E+03  0.30789222282E+03  0.00000000000E+00 0.  1.
         21   -1    0    0  501  502 -0.00000000000E+00 -0.00000000000E+00 -0.28945761962E+03  0.28945761962E+03  0.00000000000E+00 0.  1.
         25    1    1    2    0    0  0.24386262550E+02 -0.33950055080E+02  0.11467387895E+03  0.17470659562E+03  0.12500000000E+03 0.  0.
         25    1    1    2    0    0  0.13146453404E+03  0.39450278622E+02  0.27359848083E+02  0.18765076467E+03  0.12500000000E+03 0.  0.
         25    1    1    2    0    0 -0.15585079659E+03 -0.55002235424E+01 -0.12359912383E+03  0.23499248215E+03  0.12500000000E+03 0.  0.
</event>
<event>
 5    0  0.5474724E-005  0.2920970E+03  0.7546771E-02  0.1089259E+00
         21   -1    0    0  502  501  0.00000000000E+00  0.00000000000E+00  0.72965771697E+03  0.72965771697E+03  0.00000000000E+00 0.  1.
         21   -1    0    0  501  502 -0.00000000000E+00 -0.00000000000E+00 -0.11693241328E+03  0.11693241328E+03  0.00000000000E+00 0.  1.
         25    1    1    2    0    0 -0.94484006951E+02  0.33650466001E+02  0.12593748117E+02  0.16075815352E+03  0.12500000000E+03 0.  0.
         25    1    1    2    0    0 -0.19585014994E+01  0.17724127589E+02  0.42982775865E+03  0.44798982414E+03  0.12500000000E+03 0.  0.
         25    1    1    2    0    0  0.96442508450E+02 -0.51374593589E+02  0.17030379692E+03  0.23784215259E+03  0.12500000000E+03 0.  0.
</event>
<event>
 5    0  0.5474724E-005  0.3134384E+03  0.7546771E-02  0.1078709E+00
         21   -1    0    0  502  501  0.00000000000E+00  0.00000000000E+00  0.45530927504E+03  0.45530927504E+03  0.00000000000E+00 0.  1.
         21   -1    0    0  501  502 -0.00000000000E+00 -0.00000000000E+00 -0.21577338534E+03  0.21577338534E+03  0.00000000000E+00 0.  1.
         25    1    1    2    0    0  0.35423257736E+02 -0.85063131394E+02  0.19937617536E+03  0.25271803025E+03  0.12500000000E+03 0.  0.
         25    1    1    2    0    0 -0.45085692267E+02 -0.10328880120E+03 -0.48808856806E+02  0.17523869608E+03  0.12500000000E+03 0.  0.
         25    1    1    2    0    0  0.96624345306E+01  0.18835193260E+03  0.88968571152E+02  0.24312593405E+03  0.12500000000E+03 0.  0.
</event>
<event>
 5    0  0.5474724E-005  0.3861411E+03  0.7546771E-02  0.1048687E+00
         21   -1    0    0  502  501  0.00000000000E+00  0.00000000000E+00  0.14574869197E+04  0.14574869197E+04  0.00000000000E+00 0. -1.
         21   -1    0    0  501  502 -0.00000000000E+00 -0.00000000000E+00 -0.10230279128E+03  0.10230279128E+03  0.00000000000E+00 0. -1.
         25    1    1    2    0    0  0.48420044149E+02  0.18977792433E+02  0.19709725001E+03  0.23911709107E+03  0.12500000000E+03 0.  0.
         25    1    1    2    0    0  0.24043626107E+03 -0.11523850580E+03  0.42454818850E+03  0.51667753310E+03  0.12500000000E+03 0.  0.
         25    1    1    2    0    0 -0.28885630522E+03  0.96260713365E+02  0.73353868992E+03  0.80399508680E+03  0.12500000000E+03 0.  0.
</event>
<event>
 5    0  0.5474724E-005  0.2686970E+03  0.7546771E-02  0.1102028E+00
         21   -1    0    0  502  501  0.00000000000E+00  0.00000000000E+00  0.25943822492E+03  0.25943822492E+03  0.00000000000E+00 0. -1.
         21   -1    0    0  501  502 -0.00000000000E+00 -0.00000000000E+00 -0.27828624240E+03  0.27828624240E+03  0.00000000000E+00 0. -1.
         25    1    1    2    0    0 -0.76919053551E+02 -0.87751365152E+01  0.96387009870E+02  0.17580955461E+03  0.12500000000E+03 0.  0.
         25    1    1    2    0    0  0.11915017774E+03  0.33718958385E+02  0.12751394292E+02  0.17641238921E+03  0.12500000000E+03 0.  0.
         25    1    1    2    0    0 -0.42231124193E+02 -0.24943821870E+02 -0.12798642164E+03  0.18550252350E+03  0.12500000000E+03 0.  0.
</event>
<event>
 5    0  0.5474724E-005  0.5315535E+03  0.7546771E-02  0.1005856E+00
         21   -1    0    0  502  501  0.00000000000E+00  0.00000000000E+00  0.61162609221E+03  0.61162609221E+03  0.00000000000E+00 0.  1.
         21   -1    0    0  501  502 -0.00000000000E+00 -0.00000000000E+00 -0.46196378832E+03  0.46196378832E+03  0.00000000000E+00 0.  1.
         25    1    1    2    0    0 -0.67111291187E+02 -0.13252595700E+03  0.17118052340E+03  0.25883358800E+03  0.12500000000E+03 0.  0.
         25    1    1    2    0    0  0.22955355816E+03  0.33926986705E+03  0.17590947989E+03  0.46299894586E+03  0.12500000000E+03 0.  0.
         25    1    1    2    0    0 -0.16244226697E+03 -0.20674391005E+03 -0.19742769940E+03  0.35175734666E+03  0.12500000000E+03 0.  0.
</event>
<event>
 5    0  0.5474724E-005  0.3055724E+03  0.7546771E-02  0.1082488E+00
         21   -1    0    0  502  501  0.00000000000E+00  0.00000000000E+00  0.10248027743E+03  0.10248027743E+03  0.00000000000E+00 0. -1.
         21   -1    0    0  501  502 -0.00000000000E+00 -0.00000000000E+00 -0.91114576823E+03  0.91114576823E+03  0.00000000000E+00 0. -1.
         25    1    1    2    0    0  0.60815895059E+02  0.19149290848E+03 -0.34232945485E+03  0.41615209088E+03  0.12500000000E+03 0.  0.
         25    1    1    2    0    0 -0.12345778263E+03 -0.85604516133E+02 -0.28126569400E+03  0.34249868306E+03  0.12500000000E+03 0.  0.
         25    1    1    2    0    0  0.62641887575E+02 -0.10588839235E+03 -0.18507034196E+03  0.25497527171E+03  0.12500000000E+03 0.  0.
</event>
<event>
 5    0  0.5474724E-005  0.6010508E+03  0.7546771E-02  0.9903228E-01
         21   -1    0    0  502  501  0.00000000000E+00  0.00000000000E+00  0.17584313460E+04  0.17584313460E+04  0.00000000000E+00 0. -1.
         21   -1    0    0  501  502 -0.00000000000E+00 -0.00000000000E+00 -0.20544562170E+03  0.20544562170E+03  0.00000000000E+00 0. -1.
         25    1    1    2    0    0 -0.48429076521E+02  0.12060022494E+03  0.34627555059E+03  0.39041202165E+03  0.12500000000E+03 0.  0.
         25    1    1    2    0    0  0.31112988367E+03  0.31556498020E+03  0.39237525603E+03  0.60495157061E+03  0.12500000000E+03 0.  0.
         25    1    1    2    0    0 -0.26270080715E+03 -0.43616520514E+03  0.81433491768E+03  0.96851337544E+03  0.12500000000E+03 0.  0.
</event>
<event>
 5    0  0.5474724E-005  0.2785238E+03  0.7546771E-02  0.1096498E+00
         21   -1    0    0  502  501  0.00000000000E+00  0.00000000000E+00  0.59107256856E+02  0.59107256856E+02  0.00000000000E+00 0.  1.
         21   -1    0    0  501  502 -0.00000000000E+00 -0.00000000000E+00 -0.13124530572E+04  0.13124530572E+04  0.00000000000E+00 0.  1.
         25    1    1    2    0    0 -0.52841570324E+02  0.42869655686E+02 -0.88136798589E+02  0.16740111767E+03  0.12500000000E+03 0.  0.
         25    1    1    2    0    0  0.49381348460E+02 -0.18232421952E+01 -0.29659478293E+03  0.32563062977E+03  0.12500000000E+03 0.  0.
         25    1    1    2    0    0  0.34602218640E+01 -0.41046413491E+02 -0.86861421887E+03  0.87852856665E+03  0.12500000000E+03 0.  0.
</event>
<event>
 5    0  0.5474724E-005  0.3138856E+03  0.7546771E-02  0.1078498E+00
         21   -1    0    0  502  501  0.00000000000E+00  0.00000000000E+00  0.94244824711E+02  0.94244824711E+02  0.00000000000E+00 0.  1.
         21   -1    0    0  501  502 -0.00000000000E+00 -0.00000000000E+00 -0.10454065443E+04  0.10454065443E+04  0.00000000000E+00 0.  1.
         25    1    1    2    0    0 -0.70818633982E+02 -0.10237614251E+03 -0.19693977776E+03  0.26439824042E+03  0.12500000000E+03 0.  0.
         25    1    1    2    0    0  0.64273352452E+01 -0.85640159190E+02 -0.52751505569E+03  0.54888312188E+03  0.12500000000E+03 0.  0.
         25    1    1    2    0    0  0.64391298736E+02  0.18801630170E+03 -0.22670688613E+03  0.32637000671E+03  0.12500000000E+03 0.  0.
</event>
<event>
 5    0  0.5474724E-005  0.2891625E+03  0.7546771E-02  0.1090787E+00
         21   -1    0    0  502  501  0.00000000000E+00  0.00000000000E+00  0.21015555768E+03  0.21015555768E+03  0.00000000000E+00 0. -1.
         21   -1    0    0  501  502 -0.00000000000E+00 -0.00000000000E+00 -0.39787178361E+03  0.39787178361E+03  0.00000000000E+00 0. -1.
         25    1    1    2    0    0  0.71958722355E+02 -0.98536320996E+02  0.18848825136E+02  0.17569218107E+03  0.12500000000E+03 0.  0.
         25    1    1    2    0    0 -0.15905185246E+03  0.67998144919E+02 -0.67565157189E+02  0.22385551133E+03  0.12500000000E+03 0.  0.
         25    1    1    2    0    0  0.87093130109E+02  0.30538176077E+02 -0.13899989388E+03  0.20847964891E+03  0.12500000000E+03 0.  0.
</event>
<event>
 5    0  0.5474724E-005  0.3950623E+03  0.7546771E-02  0.1045503E+00
         21   -1    0    0  502  501  0.00000000000E+00  0.00000000000E+00  0.55155507616E+03  0.55155507616E+03  0.00000000000E+00 0.  1.
         21   -1    0    0  501  502 -0.00000000000E+00 -0.00000000000E+00 -0.28297127015E+03  0.28297127015E+03  0.00000000000E+00 0.  1.
         25    1    1    2    0    0 -0.54412563279E+02  0.55495113233E+02  0.25490504161E+03  0.29435015691E+03  0.12500000000E+03 0.  0.
         25    1    1    2    0    0 -0.94165007838E+01 -0.11238095145E+02  0.23954554939E+03  0.27059570489E+03  0.12500000000E+03 0.  0.
         25    1    1    2    0    0  0.63829064063E+02 -0.44257018088E+02 -0.22586678499E+03  0.26958048451E+03  0.12500000000E+03 0.  0.
</event>
<event>
 5    0  0.5474724E-005  0.3140649E+03  0.7546771E-02  0.1078414E+00
         21   -1    0    0  502  501  0.00000000000E+00  0.00000000000E+00  0.25425718396E+03  0.25425718396E+03  0.00000000000E+00 0.  1.
         21   -1    0    0  501  502 -0.00000000000E+00 -0.00000000000E+00 -0.38794099697E+03  0.38794099697E+03  0.00000000000E+00 0.  1.
         25    1    1    2    0    0  0.12009183985E+03 -0.18040793677E+02  0.60709131798E+02  0.18454841890E+03  0.12500000000E+03 0.  0.
         25    1    1    2    0    0  0.40287554717E+02  0.23350411981E+02  0.47503884687E+02  0.14159783849E+03  0.12500000000E+03 0.  0.
         25    1    1    2    0    0 -0.16037939457E+03 -0.53096183039E+01 -0.24189682949E+03  0.31605192353E+03  0.12500000000E+03 0.  0.
</event>
<event>
 5    0  0.5474724E-005  0.2939672E+03  0.7546771E-02  0.1088296E+00
         21   -1    0    0  502  501  0.00000000000E+00  0.00000000000E+00  0.33412459146E+03  0.33412459146E+03  0.00000000000E+00 0. -1.
         21   -1    0    0  501  502 -0.00000000000E+00 -0.00000000000E+00 -0.25863617792E+03  0.25863617792E+03  0.00000000000E+00 0. -1.
         25    1    1    2    0    0 -0.11213081237E+03 -0.13908405981E+03  0.13685807395E+03  0.25743509314E+03  0.12500000000E+03 0.  0.
         25    1    1    2    0    0 -0.46068649740E+01  0.75720756090E+02 -0.40615350835E+02  0.15175461387E+03  0.12500000000E+03 0.  0.
         25    1    1    2    0    0  0.11673767734E+03  0.63363303720E+02 -0.20754309578E+02  0.18357106236E+03  0.12500000000E+03 0.  0.
</event>
<event>
 5    0  0.5474724E-005  0.3204434E+03  0.7546771E-02  0.1075445E+00
         21   -1    0    0  502  501  0.00000000000E+00  0.00000000000E+00  0.12739624281E+04  0.12739624281E+04  0.00000000000E+00 0. -1.
         21   -1    0    0  501  502 -0.00000000000E+00 -0.00000000000E+00 -0.80602042280E+02  0.80602042280E+02  0.00000000000E+00 0. -1.
         25    1    1    2    0    0 -0.44826756303E+02  0.13950832420E+03  0.24864986720E+03  0.31452148902E+03  0.12500000000E+03 0.  0.
         25    1    1    2    0    0  0.27759772682E+02  0.94601167020E+02  0.25242631738E+03  0.29843597552E+03  0.12500000000E+03 0.  0.
         25    1    1    2    0    0  0.17066983621E+02 -0.23410949122E+03  0.69228420125E+03  0.74160700584E+03  0.12500000000E+03 0.  0.
</event>
<event>
 5    0  0.5474724E-005  0.3054651E+03  0.7546771E-02  0.1082540E+00
         21   -1    0    0  502  501  0.00000000000E+00  0.00000000000E+00  0.42146213136E+03  0.42146213136E+03  0.00000000000E+00 0.  1.
         21   -1    0    0  501  502 -0.00000000000E+00 -0.00000000000E+00 -0.22139344654E+03  0.22139344654E+03  0.00000000000E+00 0.  1.
         25    1    1    2    0    0  0.45854540120E+01  0.13521753120E+03  0.13439245918E+03  0.22801565783E+03  0.12500000000E+03 0.  0.
         25    1    1    2    0    0  0.14262847573E+03 -0.64284401780E+02  0.59909336382E+02  0.20902032195E+03  0.12500000000E+03 0.  0.
         25    1    1    2    0    0 -0.14721392974E+03 -0.70933129418E+02  0.57668892599E+01  0.20581959812E+03  0.12500000000E+03 0.  0.
</event>
<event>
 5    0  0.5474724E-005  0.3511908E+03  0.7546771E-02  0.1062127E+00
         21   -1    0    0  502  501  0.00000000000E+00  0.00000000000E+00  0.17657218138E+03  0.17657218138E+03  0.00000000000E+00 0.  1.
         21   -1    0    0  501  502 -0.00000000000E+00 -0.00000000000E+00 -0.69849618721E+03  0.69849618721E+03  0.00000000000E+00 0.  1.
         25    1    1    2    0    0  0.13390045448E+03 -0.33190295213E+02 -0.11557706497E+03  0.21912093773E+03  0.12500000000E+03 0.  0.
         25    1    1    2    0    0 -0.69391556516E+02  0.18243972352E+03 -0.38547966815E+03  0.44979886104E+03  0.12500000000E+03 0.  0.
         25    1    1    2    0    0 -0.64508897962E+02 -0.14924942831E+03 -0.20867272705E+02  0.20614856982E+03  0.12500000000E+03 0.  0.
</event>
<event>
 5    0  0.5474724E-005  0.2552247E+03  0.7546771E-02  0.1110047E+00
         21   -1    0    0  502  501  0.00000000000E+00  0.00000000000E+00  0.61784986995E+03  0.61784986995E+03  0.00000000000E+00 0. -1.
         21   -1    0    0  501  502 -0.00000000000E+00 -0.00000000000E+00 -0.10542957810E+03  0.10542957810E+03  0.00000000000E+00 0. -1.
         25    1    1    2    0    0  0.39426057509E+02  0.86442934969E+02  0.40494316486E+02  0.16214679980E+03  0.12500000000E+03 0.  0.
         25    1    1    2    0    0 -0.57116811729E+02 -0.14622505072E+02  0.13044062723E+03  0.19004185083E+03  0.12500000000E+03 0.  0.
         25    1    1    2    0    0  0.17690754220E+02 -0.71820429896E+02  0.34148534814E+03  0.37109079742E+03  0.12500000000E+03 0.  0.
</event>
<event>
 5    0  0.6259936E-005  0.3497876E+03  0.7546771E-02  0.1062702E+00
         21   -1    0    0  502  501  0.00000000000E+00  0.00000000000E+00  0.74644242973E+03  0.74644242973E+03  0.00000000000E+00 0.  1.
         21   -1    0    0  501  502 -0.00000000000E+00 -0.00000000000E+00 -0.16391262650E+03  0.16391262650E+03  0.00000000000E+00 0.  1.
         25    1    1    2    0    0  0.65447888441E+02  0.49326006040E+02  0.37869868145E+03  0.40712918380E+03  0.12500000000E+03 0.  0.
         25    1    1    2    0    0 -0.34734299890E+02  0.14497389635E+03  0.14504170984E+01  0.19455334981E+03  0.12500000000E+03 0.  0.
         25    1    1    2    0    0 -0.30713588550E+02 -0.19429990239E+03  0.20238070469E+03  0.30867252262E+03  0.12500000000E+03 0.  0.
</event>
<event>
 5    0  0.5474724E-005  0.3172691E+03  0.7546771E-02  0.1076913E+00
         21   -1    0    0  502  501  0.00000000000E+00  0.00000000000E+00  0.19239067272E+03  0.19239067272E+03  0.00000000000E+00 0. -1.
         21   -1    0    0  501  502 -0.00000000000E+00 -0.00000000000E+00 -0.52320473446E+03  0.52320473446E+03  0.00000000000E+00 0. -1.
         25    1    1    2    0    0 -0.60354306074E+02  0.11557020058E+03 -0.20052885335E+03  0.26988133420E+03  0.12500000000E+03 0.  0.
         25    1    1    2    0    0 -0.25966802832E+02  0.19108858439E+02 -0.19392210534E+03  0.23295966659E+03  0.12500000000E+03 0.  0.
         25    1    1    2    0    0  0.86321108906E+02 -0.13467905902E+03  0.63636896956E+02  0.21275440638E+03  0.12500000000E+03 0.  0.
</event>
<event>
 5    0  0.5474724E-005  0.3157679E+03  0.7546771E-02  0.1077614E+00
         21   -1    0    0  502  501  0.00000000000E+00  0.00000000000E+00  0.75528687661E+03  0.75528687661E+03  0.00000000000E+00 0. -1.
         21   -1    0    0  501  502 -0.00000000000E+00 -0.00000000000E+00 -0.13201521328E+03  0.13201521328E+03  0.00000000000E+00 0. -1.
         25    1    1    2    0    0 -0.13326743885E+03  0.11393925579E+03  0.23168251635E+03  0.31629756978E+03  0.12500000000E+03 0.  0.
         25    1    1    2    0    0 -0.63863702272E+02 -0.98538405540E+02  0.10511610746E+03  0.20115363751E+03  0.12500000000E+03 0.  0.
         25    1    1    2    0    0  0.19713114113E+03 -0.15400850254E+02  0.28647303952E+03  0.36985088260E+03  0.12500000000E+03 0.  0.
</event>
<event>
 5    0  0.5474724E-005  0.2997289E+03  0.7546771E-02  0.1085376E+00
         21   -1    0    0  502  501  0.00000000000E+00  0.00000000000E+00  0.52252650671E+03  0.52252650671E+03  0.00000000000E+00 0. -1.
         21   -1    0    0  501  502 -0.00000000000E+00 -0.00000000000E+00 -0.17192891611E+03  0.17192891611E+03  0.00000000000E+00 0. -1.
         25    1    1    2    0    0 -0.16398585185E+01  0.51598736627E+02  0.11466983818E+03  0.17731128150E+03  0.12500000000E+03 0.  0.
         25    1    1    2    0    0  0.16188995769E+03 -0.78795232053E+02  0.22145847930E+03  0.31158611177E+03  0.12500000000E+03 0.  0.
         25    1    1    2    0    0 -0.16025009917E+03  0.27196495426E+02  0.14469273114E+02  0.20555802955E+03  0.12500000000E+03 0.  0.
</event>
<event>
 5    0  0.5474724E-005  0.4668396E+03  0.7546771E-02  0.1022816E+00
         21   -1    0    0  502  501  0.00000000000E+00  0.00000000000E+00  0.46527091872E+03  0.46527091872E+03  0.00000000000E+00 0. -1.
         21   -1    0    0  501  502 -0.00000000000E+00 -0.00000000000E+00 -0.46841353915E+03  0.46841353915E+03  0.00000000000E+00 0. -1.
         25    1    1    2    0    0  0.16663886946E+03  0.21206969432E+03  0.14708115668E+03  0.33166238062E+03  0.12500000000E+03 0.  0.
         25    1    1    2    0    0  0.67946973366E+02  0.95609022863E+02 -0.80942221804E+02  0.18956402537E+03  0.12500000000E+03 0.  0.
         25    1    1    2    0    0 -0.23458584283E+03 -0.30767871718E+03 -0.69281555311E+02  0.41245805189E+03  0.12500000000E+03 0.  0.
</event>
<event>
 5    0  0.5474724E-005  0.3251550E+03  0.7546771E-02  0.1073301E+00
         21   -1    0    0  502  501  0.00000000000E+00  0.00000000000E+00  0.27109239288E+03  0.27109239288E+03  0.00000000000E+00 0.  1.
         21   -1    0    0  501  502 -0.00000000000E+00 -0.00000000000E+00 -0.38999912489E+03  0.38999912489E+03  0.00000000000E+00 0.  1.
         25    1    1    2    0    0 -0.38595660494E+02  0.34405052536E+02 -0.17413256871E+03  0.22050053092E+03  0.12500000000E+03 0.  0.
         25    1    1    2    0    0  0.17586043351E+03  0.27818315455E+02  0.10047799093E+03  0.23962799797E+03  0.12500000000E+03 0.  0.
         25    1    1    2    0    0 -0.13726477302E+03 -0.62223367991E+02 -0.45252154234E+02  0.20096298888E+03  0.12500000000E+03 0.  0.
</event>
<event>
 5    0  0.5474724E-005  0.2375683E+03  0.7546771E-02  0.1121423E+00
         21   -1    0    0  502  501  0.00000000000E+00  0.00000000000E+00  0.34191114695E+03  0.34191114695E+03  0.00000000000E+00 0. -1.
         21   -1    0    0  501  502 -0.00000000000E+00 -0.00000000000E+00 -0.16506831147E+03  0.16506831147E+03  0.00000000000E+00 0. -1.
         25    1    1    2    0    0 -0.43977554652E+02 -0.10074644290E+03  0.11276987114E+03  0.20106196783E+03  0.12500000000E+03 0.  0.
         25    1    1    2    0    0  0.20283338190E+02  0.10803718398E+03  0.78838416774E+01  0.16664513761E+03  0.12500000000E+03 0.  0.
         25    1    1    2    0    0  0.23694216462E+02 -0.72907410767E+01  0.56189122655E+02  0.13927235298E+03  0.12500000000E+03 0.  0.
</event>
<event>
 5    0  0.5474724E-005  0.3161979E+03  0.7546771E-02  0.1077413E+00
         21   -1    0    0  502  501  0.00000000000E+00  0.00000000000E+00  0.63744976336E+03  0.63744976336E+03  0.00000000000E+00 0.  1.
         21   -1    0    0  501  502 -0.00000000000E+00 -0.00000000000E+00 -0.15684549981E+03  0.15684549981E+03  0.00000000000E+00 0.  1.
         25    1    1    2    0    0 -0.10072724507E+02  0.25620252393E+02  0.13937937224E+03  0.18923389368E+03  0.12500000000E+03 0.  0.
         25    1    1    2    0    0 -0.76501191096E+02  0.15127313533E+03  0.24981636494E+02  0.21209685494E+03  0.12500000000E+03 0.  0.
         25    1    1    2    0    0  0.86573915603E+02 -0.17689338772E+03  0.31624325482E+03  0.39296451456E+03  0.12500000000E+03 0.  0.
</event>
<event>
 5    0  0.5474724E-005  0.4950872E+03  0.7546771E-02  0.1015069E+00
         21   -1    0    0  502  501  0.00000000000E+00  0.00000000000E+00  0.10425738882E+04  0.10425738882E+04  0.00000000000E+00 0.  1.
         21   -1    0    0  501  502 -0.00000000000E+00 -0.00000000000E+00 -0.23510210191E+03  0.23510210191E+03  0.00000000000E+00 0.  1.
         25    1    1    2    0    0 -0.11715649977E+03  0.17935557682E+02  0.32332202901E+03  0.36634609881E+03  0.12500000000E+03 0.  0.
         25    1    1    2    0    0  0.18064614284E+03  0.25612254641E+03 -0.20652122252E+00  0.33742677777E+03  0.12500000000E+03 0.  0.
         25    1    1    2    0    0 -0.63489643066E+02 -0.27405810410E+03  0.48435627847E+03  0.57390311350E+03  0.12500000000E+03 0.  0.
</event>
<event>
 5    0  0.5474724E-005  0.3515572E+03  0.7546771E-02  0.1061978E+00
         21   -1    0    0  502  501  0.00000000000E+00  0.00000000000E+00  0.96634277076E+02  0.96634277076E+02  0.00000000000E+00 0.  1.
         21   -1    0    0  501  502 -0.00000000000E+00 -0.00000000000E+00 -0.12789711275E+04  0.12789711275E+04  0.00000000000E+00 0.  1.
         25    1    1    2    0    0  0.14928258260E+03  0.21242809928E+03 -0.56334095908E+03  0.63276300698E+03  0.12500000000E+03 0.  0.
         25    1    1    2    0    0 -0.56855409843E+02 -0.60702332961E+02 -0.10047938145E+03  0.18066105544E+03  0.12500000000E+03 0.  0.
         25    1    1    2    0    0 -0.92427172757E+02 -0.15172576632E+03 -0.51851650988E+03  0.56218134214E+03  0.12500000000E+03 0.  0.
</event>
<event>
 5    0  0.5474724E-005  0.3043488E+03  0.7546771E-02  0.1083087E+00
         21   -1    0    0  502  501  0.00000000000E+00  0.00000000000E+00  0.31546718062E+03  0.31546718062E+03  0.00000000000E+00 0. -1.
         21   -1    0    0  501  502 -0.00000000000E+00 -0.00000000000E+00 -0.29362219111E+03  0.29362219111E+03  0.00000000000E+00 0. -1.
         25    1    1    2    0    0 -0.19328301584E+03 -0.98727516993E+01 -0.11626791441E+03  0.25806786580E+03  0.12500000000E+03 0.  0.
         25    1    1    2    0    0  0.13182248966E+03 -0.10193097889E+02  0.75598302378E+02  0.19703088932E+03  0.12500000000E+03 0.  0.
         25    1    1    2    0    0  0.61460526182E+02  0.20065849588E+02  0.62514601533E+02  0.15399061661E+03  0.12500000000E+03 0.  0.
</event>
<event>
 5    0  0.6038785E-005  0.3437266E+03  0.7546771E-02  0.1065220E+00
         21   -1    0    0  502  501  0.00000000000E+00  0.00000000000E+00  0.97596531212E+03  0.97596531212E+03  0.00000000000E+00 0. -1.
         21   -1    0    0  501  502 -0.00000000000E+00 -0.00000000000E+00 -0.12105758538E+03  0.12105758538E+03  0.00000000000E+00 0. -1.
         25    1    1    2    0    0 -0.63037715986E+01 -0.74538780625E+02  0.31813304652E+02  0.14910685332E+03  0.12500000000E+03 0.  0.
         25    1    1    2    0    0  0.43599805511E+02 -0.74565241705E+02  0.69634326101E+03  0.71272705538E+03  0.12500000000E+03 0.  0.
         25    1    1    2    0    0 -0.37296033913E+02  0.14910402233E+03  0.12675116107E+03  0.23518898880E+03  0.12500000000E+03 0.  0.
</event>
<event>
 5    0  0.5474724E-005  0.3494769E+03  0.7546771E-02  0.1062830E+00
         21   -1    0    0  502  501  0.00000000000E+00  0.00000000000E+00  0.15391103894E+04  0.15391103894E+04  0.00000000000E+00 0.  1.
         21   -1    0    0  501  502 -0.00000000000E+00 -0.00000000000E+00 -0.79353687883E+02  0.79353687883E+02  0.00000000000E+00 0.  1.
         25    1    1    2    0    0 -0.15478984515E+03  0.13053546049E+03  0.76875448007E+03  0.80474086092E+03  0.12500000000E+03 0.  0.
         25    1    1    2    0    0  0.22421309075E+03 -0.39071865119E+02  0.40222216576E+03  0.47875441651E+03  0.12500000000E+03 0.  0.
         25    1    1    2    0    0 -0.69423245600E+02 -0.91463595367E+02  0.28878005568E+03  0.33496879984E+03  0.12500000000E+03 0.  0.
</event>
<event>
 5    0  0.5474724E-005  0.3044209E+03  0.7546771E-02  0.1083051E+00
         21   -1    0    0  502  501  0.00000000000E+00  0.00000000000E+00  0.54877470014E+03  0.54877470014E+03  0.00000000000E+00 0. -1.
         21   -1    0    0  501  502 -0.00000000000E+00 -0.00000000000E+00 -0.16887092897E+03  0.16887092897E+03  0.00000000000E+00 0. -1.
         25    1    1    2    0    0 -0.41398320529E+02  0.21924956175E+02  0.24260021754E+03  0.27690140880E+03  0.12500000000E+03 0.  0.
         25    1    1    2    0    0 -0.69693594068E+02 -0.10722738532E+03  0.17394256014E+03  0.24947128782E+03  0.12500000000E+03 0.  0.
         25    1    1    2    0    0  0.11109191460E+03  0.85302429149E+02 -0.36639006499E+02  0.19127293249E+03  0.12500000000E+03 0.  0.
</event>
<event>
 5    0  0.5474724E-005  0.2373215E+03  0.7546771E-02  0.1121590E+00
         21   -1    0    0  502  501  0.00000000000E+00  0.00000000000E+00  0.30566716427E+03  0.30566716427E+03  0.00000000000E+00 0.  1.
         21   -1    0    0  501  502 -0.00000000000E+00 -0.00000000000E+00 -0.18425766261E+03  0.18425766261E+03  0.00000000000E+00 0.  1.
         25    1    1    2    0    0  0.88847406983E+02 -0.28789075393E+02 -0.21156645139E+02  0.15746515876E+03  0.12500000000E+03 0.  0.
         25    1    1    2    0    0 -0.52768212424E+02  0.62447491992E+02  0.20223485184E+02  0.15072545522E+03  0.12500000000E+03 0.  0.
         25    1    1    2    0    0 -0.36079194559E+02 -0.33658416599E+02  0.12234266162E+03  0.18173421290E+03  0.12500000000E+03 0.  0.
</event>
<event>
 5    0  0.5474724E-005  0.3829509E+03  0.7546771E-02  0.1049848E+00
         21   -1    0    0  502  501  0.00000000000E+00  0.00000000000E+00  0.36099352838E+03  0.36099352838E+03  0.00000000000E+00 0. -1.
         21   -1    0    0  501  502 -0.00000000000E+00 -0.00000000000E+00 -0.40624392407E+03  0.40624392407E+03  0.00000000000E+00 0. -1.
         25    1    1    2    0    0  0.39365348032E+02 -0.17271693990E+03  0.16629491124E+03  0.27323939953E+03  0.12500000000E+03 0.  0.
         25    1    1    2    0    0  0.12030392626E+03  0.10721105709E+03 -0.19184204992E+03  0.27999217409E+03  0.12500000000E+03 0.  0.
         25    1    1    2    0    0 -0.15966927429E+03  0.65505882817E+02 -0.19703256996E+02  0.21400587882E+03  0.12500000000E+03 0.  0.
</event>
<event>
 5    0  0.5474724E-005  0.4236023E+03  0.7546771E-02  0.1035900E+00
         21   -1    0    0  502  501  0.00000000000E+00  0.00000000000E+00  0.85856707075E+03  0.85856707075E+03  0.00000000000E+00 0. -1.
         21   -1    0    0  501  502 -0.00000000000E+00 -0.00000000000E+00 -0.20899811846E+03  0.20899811846E+03  0.00000000000E+00 0. -1.
         25    1    1    2    0    0 -0.30958465222E+02  0.86075928227E+02  0.45520246328E+02  0.16144529976E+03  0.12500000000E+03 0.  0.
         25    1    1    2    0    0 -0.78900339774E+02 -0.16782396138E+03 -0.47563709251E+02  0.22864262959E+03  0.12500000000E+03 0.  0.
         25    1    1    2    0    0  0.10985880500E+03  0.81748033149E+02  0.65161241522E+03  0.67747725986E+03  0.12500000000E+03 0.  0.
</event>
<event>
 5    0  0.5474724E-005  0.3197116E+03  0.7546771E-02  0.1075782E+00
         21   -1    0    0  502  501  0.00000000000E+00  0.00000000000E+00  0.28301390733E+03  0.28301390733E+03  0.00000000000E+00 0.  1.
         21   -1    0    0  501  502 -0.00000000000E+00 -0.00000000000E+00 -0.36116790044E+03  0.36116790044E+03  0.00000000000E+00 0.  1.
         25    1    1    2    0    0  0.13810010265E+03  0.66344483050E+02  0.65939256121E+02  0.20843755487E+03  0.12500000000E+03 0.  0.
         25    1    1    2    0    0 -0.20310882203E+03  0.16441004785E+02 -0.12897690082E+03  0.27163125956E+03  0.12500000000E+03 0.  0.
         25    1    1    2    0    0  0.65008719383E+02 -0.82785487835E+02 -0.15116348415E+02  0.16411299333E+03  0.12500000000E+03 0.  0.
</event>
<event>
 5    0  0.5474724E-005  0.8545020E+03  0.7546771E-02  0.9484314E-01
         21   -1    0    0  502  501  0.00000000000E+00  0.00000000000E+00  0.12040895613E+04  0.12040895613E+04  0.00000000000E+00 0.  1.
         21   -1    0    0  501  502 -0.00000000000E+00 -0.00000000000E+00 -0.60641145392E+03  0.60641145392E+03  0.00000000000E+00 0.  1.
         25    1    1    2    0    0 -0.23261502084E+03 -0.95397782130E+02  0.40166912843E+03  0.49007506924E+03  0.12500000000E+03 0.  0.
         25    1    1    2    0    0  0.56218421053E+03  0.50181359763E+03  0.64323428766E+02  0.76657059481E+03  0.12500000000E+03 0.  0.
         25    1    1    2    0    0 -0.32956918969E+03 -0.40641581550E+03  0.13168555016E+03  0.55385535115E+03  0.12500000000E+03 0.  0.
</event>
<event>
 5    0  0.5474724E-005  0.3674107E+03  0.7546771E-02  0.1055687E+00
         21   -1    0    0  502  501  0.00000000000E+00  0.00000000000E+00  0.70520100226E+02  0.70520100226E+02  0.00000000000E+00 0. -1.
         21   -1    0    0  501  502 -0.00000000000E+00 -0.00000000000E+00 -0.19142144828E+04  0.19142144828E+04  0.00000000000E+00 0. -1.
         25    1    1    2    0    0  0.24723332975E+03 -0.14538835531E+03 -0.81595352795E+03  0.87388057134E+03  0.12500000000E+03 0.  0.
         25    1    1    2    0    0 -0.39079160225E+02 -0.56045740661E+01 -0.40321819395E+03  0.42399116023E+03  0.12500000000E+03 0.  0.
         25    1    1    2    0    0 -0.20815416953E+03  0.15099292938E+03 -0.62452266064E+03  0.68686285142E+03  0.12500000000E+03 0.  0.
</event>
<event>
 5    0  0.5474724E-005  0.2586622E+03  0.7546771E-02  0.1107950E+00
         21   -1    0    0  502  501  0.00000000000E+00  0.00000000000E+00  0.37928701309E+03  0.37928701309E+03  0.00000000000E+00 0. -1.
         21   -1    0    0  501  502 -0.00000000000E+00 -0.00000000000E+00 -0.17639976142E+03  0.17639976142E+03  0.00000000000E+00 0. -1.
         25    1    1    2    0    0  0.32455754801E+02 -0.80871528616E+02  0.19405299364E+03  0.24672888867E+03  0.12500000000E+03 0.  0.
         25    1    1    2    0    0 -0.84556186024E+02  0.22165909633E+02 -0.31916504872E+02  0.15583561669E+03  0.12500000000E+03 0.  0.
         25    1    1    2    0    0  0.52100431223E+02  0.58705618982E+02  0.40750762904E+02  0.15312226915E+03  0.12500000000E+03 0.  0.
</event>
<event>
 5    0  0.5474724E-005  0.2851403E+03  0.7546771E-02  0.1092914E+00
         21   -1    0    0  502  501  0.00000000000E+00  0.00000000000E+00  0.43275239017E+03  0.43275239017E+03  0.00000000000E+00 0.  1.
         21   -1    0    0  501  502 -0.00000000000E+00 -0.00000000000E+00 -0.18787876800E+03  0.18787876800E+03  0.00000000000E+00 0.  1.
         25    1    1    2    0    0 -0.20463173851E+02 -0.34107881461E+02 -0.82124619783E+02  0.15476285806E+03  0.12500000000E+03 0.  0.
         25    1    1    2    0    0  0.66832803558E+02 -0.68906701648E+02  0.11515269773E+03  0.19519195926E+03  0.12500000000E+03 0.  0.
         25    1    1    2    0    0 -0.46369629707E+02  0.10301458311E+03  0.21184554421E+03  0.27067634085E+03  0.12500000000E+03 0.  0.
</event>
<event>
 5    0  0.5474724E-005  0.4016089E+03  0.7546771E-02  0.1043224E+00
         21   -1    0    0  502  501  0.00000000000E+00  0.00000000000E+00  0.78817561965E+02  0.78817561965E+02  0.00000000000E+00 0. -1.
         21   -1    0    0  501  502 -0.00000000000E+00 -0.00000000000E+00 -0.20463678724E+04  0.20463678724E+04  0.00000000000E+00 0. -1.
         25    1    1    2    0    0 -0.16252459371E+03 -0.18484529902E+03 -0.80255453692E+03  0.84870537459E+03  0.12500000000E+03 0.  0.
         25    1    1    2    0    0 -0.17466676039E+02  0.78939095751E+02 -0.91699456117E+03  0.92899972595E+03  0.12500000000E+03 0.  0.
         25    1    1    2    0    0  0.17999126974E+03  0.10590620327E+03 -0.24800121240E+03  0.34748033387E+03  0.12500000000E+03 0.  0.
</event>
<event>
 5    0  0.5474724E-005  0.2939456E+03  0.7546771E-02  0.1088307E+00
         21   -1    0    0  502  501  0.00000000000E+00  0.00000000000E+00  0.21150627138E+03  0.21150627138E+03  0.00000000000E+00 0. -1.
         21   -1    0    0  501  502 -0.00000000000E+00 -0.00000000000E+00 -0.40851760200E+03  0.40851760200E+03  0.00000000000E+00 0. -1.
         25    1    1    2    0    0 -0.12930099494E+03 -0.81942135049E+01 -0.43952531602E+01  0.18008389899E+03  0.12500000000E+03 0.  0.
         25    1    1    2    0    0  0.10221331419E+03 -0.34985763722E+02  0.40907585787E+02  0.17020574560E+03  0.12500000000E+03 0.  0.
         25    1    1    2    0    0  0.27087680747E+02  0.43179977227E+02 -0.23352366325E+03  0.26973422879E+03  0.12500000000E+03 0.  0.
</event>
<event>
 5    0  0.5474724E-005  0.5329531E+03  0.7546771E-02  0.1005518E+00
         21   -1    0    0  502  501  0.00000000000E+00  0.00000000000E+00  0.37278777299E+03  0.37278777299E+03  0.00000000000E+00 0.  1.
         21   -1    0    0  501  502 -0.00000000000E+00 -0.00000000000E+00 -0.76193222739E+03  0.76193222739E+03  0.00000000000E+00 0.  1.
         25    1    1    2    0    0 -0.12838328851E+03  0.13718970416E+03 -0.22534113537E+03  0.31891520972E+03  0.12500000000E+03 0.  0.
         25    1    1    2    0    0 -0.21513106054E+03 -0.13552515367E+03 -0.31191599386E+03  0.42138465529E+03  0.12500000000E+03 0.  0.
         25    1    1    2    0    0  0.34351434905E+03 -0.16645504899E+01  0.14811267484E+03  0.39442013537E+03  0.12500000000E+03 0.  0.
</event>
<event>
 5    0  0.5474724E-005  0.3123978E+03  0.7546771E-02  0.1079202E+00
         21   -1    0    0  502  501  0.00000000000E+00  0.00000000000E+00  0.14303819844E+03  0.14303819844E+03  0.00000000000E+00 0.  1.
         21   -1    0    0  501  502 -0.00000000000E+00 -0.00000000000E+00 -0.68228191551E+03  0.68228191551E+03  0.00000000000E+00 0.  1.
         25    1    1    2    0    0  0.10264264667E+03  0.10792803288E+03 -0.90593574845E+01  0.19465622300E+03  0.12500000000E+03 0.  0.
         25    1    1    2    0    0 -0.77943401685E+02 -0.14674637213E+03 -0.33791522776E+03  0.39676362327E+03  0.12500000000E+03 0.  0.
         25    1    1    2    0    0 -0.24699244982E+02  0.38818339258E+02 -0.19226913183E+03  0.23390026768E+03  0.12500000000E+03 0.  0.
</event>
<event>
 5    0  0.5474724E-005  0.2514451E+03  0.7546771E-02  0.1112395E+00
         21   -1    0    0  502  501  0.00000000000E+00  0.00000000000E+00  0.32894394787E+02  0.32894394787E+02  0.00000000000E+00 0. -1.
         21   -1    0    0  501  502 -0.00000000000E+00 -0.00000000000E+00 -0.19220486473E+04  0.19220486473E+04  0.00000000000E+00 0. -1.
         25    1    1    2    0    0  0.12761428227E+02 -0.82620087582E+02 -0.29089736931E+03  0.32746787994E+03  0.12500000000E+03 0.  0.
         25    1    1    2    0    0 -0.45843813697E+02 -0.25941813671E+02 -0.60996022106E+03  0.62486086790E+03  0.12500000000E+03 0.  0.
         25    1    1    2    0    0  0.33082385471E+02  0.10856190125E+03 -0.98829666214E+03  0.10026142942E+04  0.12500000000E+03 0.  0.
</event>
<event>
 5    0  0.5474724E-005  0.4819728E+03  0.7546771E-02  0.1018594E+00
         21   -1    0    0  502  501  0.00000000000E+00  0.00000000000E+00  0.18862592758E+03  0.18862592758E+03  0.00000000000E+00 0.  1.
         21   -1    0    0  501  502 -0.00000000000E+00 -0.00000000000E+00 -0.12315264278E+04  0.12315264278E+04  0.00000000000E+00 0.  1.
         25    1    1    2    0    0 -0.20693188349E+02 -0.38580921971E+03 -0.35338232154E+03  0.53831313121E+03  0.12500000000E+03 0.  0.
         25    1    1    2    0    0  0.59812272095E+02  0.38625483401E+03 -0.45119393869E+03  0.60989447858E+03  0.12500000000E+03 0.  0.
         25    1    1    2    0    0 -0.39119083746E+02 -0.44561430753E+00 -0.23832423998E+03  0.27194474558E+03  0.12500000000E+03 0.  0.
</event>
<event>
 5    0  0.5474724E-005  0.3055910E+03  0.7546771E-02  0.1082479E+00
         21   -1    0    0  502  501  0.00000000000E+00  0.00000000000E+00  0.20586487900E+03  0.20586487900E+03  0.00000000000E+00 0.  1.
         21   -1    0    0  501  502 -0.00000000000E+00 -0.00000000000E+00 -0.45362710344E+03  0.45362710344E+03  0.00000000000E+00 0.  1.
         25    1    1    2    0    0  0.13190269304E+03 -0.46858122238E+02 -0.12865462157E+03  0.22753244978E+03  0.12500000000E+03 0.  0.
         25    1    1    2    0    0  0.11583126693E+02 -0.17212167245E+02  0.79460136973E+02  0.14956383551E+03  0.12500000000E+03 0.  0.
         25    1    1    2    0    0 -0.14348581974E+03  0.64070289483E+02 -0.19856773984E+03  0.28239569714E+03  0.12500000000E+03 0.  0.
</event>
<event>
 5    0  0.5474724E-005  0.2895026E+03  0.7546771E-02  0.1090609E+00
         21   -1    0    0  502  501  0.00000000000E+00  0.00000000000E+00  0.49637021951E+02  0.49637021951E+02  0.00000000000E+00 0.  1.
         21   -1    0    0  501  502 -0.00000000000E+00 -0.00000000000E+00 -0.16884928544E+04  0.16884928544E+04  0.00000000000E+00 0.  1.
         25    1    1    2    0    0  0.75426953782E+02  0.50542359599E+02 -0.60609214129E+03  0.62547297240E+03  0.12500000000E+03 0.  0.
         25    1    1    2    0    0  0.90743113556E+02  0.22441905722E+02 -0.67217622604E+03  0.69006074417E+03  0.12500000000E+03 0.  0.
         25    1    1    2    0    0 -0.16617006734E+03 -0.72984265321E+02 -0.36058746515E+03  0.42259615981E+03  0.12500000000E+03 0.  0.
</event>
<event>
 5    0  0.5474724E-005  0.2217551E+03  0.7546771E-02  0.1132581E+00
         21   -1    0    0  502  501  0.00000000000E+00  0.00000000000E+00  0.80108876291E+03  0.80108876291E+03  0.00000000000E+00 0.  1.
         21   -1    0    0  501  502 -0.00000000000E+00 -0.00000000000E+00 -0.61385607084E+02  0.61385607084E+02  0.00000000000E+00 0.  1.
         25    1    1    2    0    0  0.31392757780E+01 -0.38060176468E+02  0.10156651185E+03  0.16552700207E+03  0.12500000000E+03 0.  0.
         25    1    1    2    0    0 -0.54963422419E+02  0.11545952859E+02  0.38545373327E+03  0.40908907016E+03  0.12500000000E+03 0.  0.
         25    1    1    2    0    0  0.51824146641E+02  0.26514223609E+02  0.25268291070E+03  0.28785829776E+03  0.12500000000E+03 0.  0.
</event>
<event>
 5    0  0.5796391E-005  0.4564337E+03  0.7546771E-02  0.1025821E+00
         21   -1    0    0  502  501  0.00000000000E+00  0.00000000000E+00  0.19123266772E+03  0.19123266772E+03  0.00000000000E+00 0. -1.
         21   -1    0    0  501  502 -0.00000000000E+00 -0.00000000000E+00 -0.10894149555E+04  0.10894149555E+04  0.00000000000E+00 0.  1.
         25    1    1    2    0    0 -0.14178979945E+03 -0.91344062330E+02 -0.68955774899E+03  0.72080716849E+03  0.12500000000E+03 0.  0.
         25    1    1    2    0    0 -0.10487437741E+03 -0.58727370365E+02  0.14663563942E+02  0.17403321285E+03  0.12500000000E+03 0.  0.
         25    1    1    2    0    0  0.24666417686E+03  0.15007143270E+03 -0.22328810268E+03  0.38580724184E+03  0.12500000000E+03 0.  0.
</event>
<event>
 5    0  0.5474724E-005  0.3106427E+03  0.7546771E-02  0.1080038E+00
         21   -1    0    0  502  501  0.00000000000E+00  0.00000000000E+00  0.88035672043E+03  0.88035672043E+03  0.00000000000E+00 0. -1.
         21   -1    0    0  501  502 -0.00000000000E+00 -0.00000000000E+00 -0.10961339537E+03  0.10961339537E+03  0.00000000000E+00 0. -1.
         25    1    1    2    0    0  0.18373170240E+03  0.15784804613E+02  0.38387978069E+03  0.44384139571E+03  0.12500000000E+03 0.  0.
         25    1    1    2    0    0 -0.20694389878E+03 -0.23957006164E+02  0.17687390396E+03  0.30051471393E+03  0.12500000000E+03 0.  0.
         25    1    1    2    0    0  0.23212196383E+02  0.81722015510E+01  0.20998964042E+03  0.24561400617E+03  0.12500000000E+03 0.  0.
</event>
<event>
 5    0  0.5474724E-005  0.2304077E+03  0.7546771E-02  0.1126353E+00
         21   -1    0    0  502  501  0.00000000000E+00  0.00000000000E+00  0.30273191653E+03  0.30273191653E+03  0.00000000000E+00 0. -1.
         21   -1    0    0  501  502 -0.00000000000E+00 -0.00000000000E+00 -0.17536214821E+03  0.17536214821E+03  0.00000000000E+00 0. -1.
         25    1    1    2    0    0 -0.33886094525E+01 -0.73986224691E+02  0.29381462650E+02  0.14823533474E+03  0.12500000000E+03 0.  0.
         25    1    1    2    0    0 -0.78654608211E+02  0.70913579415E+02  0.67723883228E+02  0.17727607706E+03  0.12500000000E+03 0.  0.
         25    1    1    2    0    0  0.82043217664E+02  0.30726452758E+01  0.30264422442E+02  0.15258265294E+03  0.12500000000E+03 0.  0.
</event>
<event>
 5    0  0.5474724E-005  0.2467556E+03  0.7546771E-02  0.1115373E+00
         21   -1    0    0  502  501  0.00000000000E+00  0.00000000000E+00  0.35698811701E+03  0.35698811701E+03  0.00000000000E+00 0. -1.
         21   -1    0    0  501  502 -0.00000000000E+00 -0.00000000000E+00 -0.17056117567E+03  0.17056117567E+03  0.00000000000E+00 0. -1.
         25    1    1    2    0    0  0.42539268247E+02  0.17989095734E+02 -0.24591287076E+02  0.13550988270E+03  0.12500000000E+03 0.  0.
         25    1    1    2    0    0 -0.11090696337E+02 -0.93204127524E+01  0.22930614000E+03  0.26156486668E+03  0.12500000000E+03 0.  0.
         25    1    1    2    0    0 -0.31448571911E+02 -0.86686829817E+01 -0.18287911586E+02  0.13047454330E+03  0.12500000000E+03 0.  0.
</event>
<event>
 5    0  0.5474724E-005  0.3829845E+03  0.7546771E-02  0.1049836E+00
         21   -1    0    0  502  501  0.00000000000E+00  0.00000000000E+00  0.13517999638E+04  0.13517999638E+04  0.00000000000E+00 0. -1.
         21   -1    0    0  501  502 -0.00000000000E+00 -0.00000000000E+00 -0.10850506403E+03  0.10850506403E+03  0.00000000000E+00 0. -1.
         25    1    1    2    0    0 -0.97111858382E+02 -0.77467220460E+02  0.41634791692E+02  0.18108102928E+03  0.12500000000E+03 0.  0.
         25    1    1    2    0    0 -0.37680739680E+02  0.60131640822E+02  0.13665668161E+03  0.19833229943E+03  0.12500000000E+03 0.  0.
         25    1    1    2    0    0  0.13479259806E+03  0.17335579638E+02  0.10650034265E+04  0.10808916992E+04  0.12500000000E+03 0.  0.
</event>
<event>
 5    0  0.5474724E-005  0.2654312E+03  0.7546771E-02  0.1103923E+00
         21   -1    0    0  502  501  0.00000000000E+00  0.00000000000E+00  0.35883826410E+03  0.35883826410E+03  0.00000000000E+00 0. -1.
         21   -1    0    0  501  502 -0.00000000000E+00 -0.00000000000E+00 -0.19633838741E+03  0.19633838741E+03  0.00000000000E+00 0. -1.
         25    1    1    2    0    0  0.13112936119E+03  0.83972156012E+02  0.82099315928E+02  0.21589703571E+03  0.12500000000E+03 0.  0.
         25    1    1    2    0    0 -0.12788103336E+03 -0.45649351398E+02 -0.22416473556E+01  0.18457368978E+03  0.12500000000E+03 0.  0.
         25    1    1    2    0    0 -0.32483278326E+01 -0.38322804614E+02  0.82642208115E+02  0.15470592603E+03  0.12500000000E+03 0.  0.
</event>
<event>
 5    0  0.5474724E-005  0.3396613E+03  0.7546771E-02  0.1066940E+00
         21   -1    0    0  502  501  0.00000000000E+00  0.00000000000E+00  0.46985658457E+03  0.46985658457E+03  0.00000000000E+00 0.  1.
         21   -1    0    0  501  502 -0.00000000000E+00 -0.00000000000E+00 -0.24554263222E+03  0.24554263222E+03  0.00000000000E+00 0.  1.
         25    1    1    2    0    0  0.55477166685E+02  0.69305465590E+01  0.24809770353E+03  0.28337822605E+03  0.12500000000E+03 0.  0.
         25    1    1    2    0    0 -0.70050435088E+02 -0.16969447623E+03  0.15198970233E+02  0.22261915330E+03  0.12500000000E+03 0.  0.
         25    1    1    2    0    0  0.14573268403E+02  0.16276392968E+03 -0.38982721411E+02  0.20940183744E+03  0.12500000000E+03 0.  0.
</event>
<event>
 5    0  0.5474724E-005  0.6111718E+03  0.7546771E-02  0.9882495E-01
         21   -1    0    0  502  501  0.00000000000E+00  0.00000000000E+00  0.27089116511E+04  0.27089116511E+04  0.00000000000E+00 0.  1.
         21   -1    0    0  501  502 -0.00000000000E+00 -0.00000000000E+00 -0.13788970368E+03  0.13788970368E+03  0.00000000000E+00 0.  1.
         25    1    1    2    0    0 -0.16730758288E+03  0.11031586134E+03  0.23061263325E+02  0.23731464013E+03  0.12500000000E+03 0.  0.
         25    1    1    2    0    0 -0.88239750079E+02 -0.13095578819E+02  0.17507766176E+04  0.17574986521E+04  0.12500000000E+03 0.  0.
         25    1    1    2    0    0  0.25554733296E+03 -0.97220282525E+02  0.79718406656E+03  0.85198806253E+03  0.12500000000E+03 0.  0.
</event>
<event>
 5    0  0.5474724E-005  0.3197533E+03  0.7546771E-02  0.1075763E+00
         21   -1    0    0  502  501  0.00000000000E+00  0.00000000000E+00  0.11298831491E+03  0.11298831491E+03  0.00000000000E+00 0.  1.
         21   -1    0    0  501  502 -0.00000000000E+00 -0.00000000000E+00 -0.90489183821E+03  0.90489183821E+03  0.00000000000E+00 0.  1.
         25    1    1    2    0    0  0.13686088596E+03 -0.15628633255E+03 -0.27299565549E+03  0.36511360939E+03  0.12500000000E+03 0.  0.
         25    1    1    2    0    0 -0.18252157762E+03  0.56856330945E+02 -0.27211668741E+03  0.35527350061E+03  0.12500000000E+03 0.  0.
         25    1    1    2    0    0  0.45660691654E+02  0.99430001604E+02 -0.24679118040E+03  0.29749304312E+03  0.12500000000E+03 0.  0.
</event>
<event>
 5    0  0.5474724E-005  0.4487385E+03  0.7546771E-02  0.1028099E+00
         21   -1    0    0  502  501  0.00000000000E+00  0.00000000000E+00  0.10584156187E+04  0.10584156187E+04  0.00000000000E+00 0.  1.
         21   -1    0    0  501  502 -0.00000000000E+00 -0.00000000000E+00 -0.19025254025E+03  0.19025254025E+03  0.00000000000E+00 0.  1.
         25    1    1    2    0    0 -0.15763994396E+03 -0.83943491750E+02  0.31783447273E+03  0.38540967009E+03  0.12500000000E+03 0.  0.
         25    1    1    2    0    0  0.20292966686E+02 -0.13887685225E+03 -0.51758151350E+02  0.19494227560E+03  0.12500000000E+03 0.  0.
         25    1    1    2    0    0  0.13734697728E+03  0.22282034399E+03  0.60208675712E+03  0.66831621330E+03  0.12500000000E+03 0.  0.
</event>
<event>
 5    0  0.5602000E-005  0.2724131E+03  0.7546771E-02  0.1099906E+00
         21   -1    0    0  502  501  0.00000000000E+00  0.00000000000E+00  0.76345704392E+03  0.76345704392E+03  0.00000000000E+00 0. -1.
         21   -1    0    0  501  502 -0.00000000000E+00 -0.00000000000E+00 -0.97201154270E+02  0.97201154270E+02  0.00000000000E+00 0. -1.
         25    1    1    2    0    0  0.58331919432E+02 -0.84712366154E+02  0.15594852235E+03  0.22477486387E+03  0.12500000000E+03 0.  0.
         25    1    1    2    0    0 -0.11773046638E+03  0.11112363992E+03  0.16450531522E+03  0.26248033221E+03  0.12500000000E+03 0.  0.
         25    1    1    2    0    0  0.59398546949E+02 -0.26411273763E+02  0.34580205208E+03  0.37340300211E+03  0.12500000000E+03 0.  0.
</event>
<event>
 5    0  0.5474724E-005  0.3366980E+03  0.7546771E-02  0.1068211E+00
         21   -1    0    0  502  501  0.00000000000E+00  0.00000000000E+00  0.67472172205E+03  0.67472172205E+03  0.00000000000E+00 0. -1.
         21   -1    0    0  501  502 -0.00000000000E+00 -0.00000000000E+00 -0.16801825691E+03  0.16801825691E+03  0.00000000000E+00 0. -1.
         25    1    1    2    0    0  0.30116679860E+02 -0.39776545910E+02  0.13731114709E+03  0.19227204458E+03  0.12500000000E+03 0.  0.
         25    1    1    2    0    0 -0.68459338143E+02 -0.14078928144E+03  0.37752602783E+03  0.42738648135E+03  0.12500000000E+03 0.  0.
         25    1    1    2    0    0  0.38342658283E+02  0.18056582735E+03 -0.81337097864E+01  0.22308145303E+03  0.12500000000E+03 0.  0.
</event>
<event>
 5    0  0.5474724E-005  0.5235953E+03  0.7546771E-02  0.1007797E+00
         21   -1    0    0  502  501  0.00000000000E+00  0.00000000000E+00  0.62773220125E+03  0.62773220125E+03  0.00000000000E+00 0.  1.
         21   -1    0    0  501  502 -0.00000000000E+00 -0.00000000000E+00 -0.43673401960E+03  0.43673401960E+03  0.00000000000E+00 0.  1.
         25    1    1    2    0    0 -0.29881128955E+03 -0.12272020041E+03 -0.23563212864E+03  0.41892234889E+03  0.12500000000E+03 0.  0.
         25    1    1    2    0    0  0.34163015098E+02  0.12024789723E+03  0.24123115615E+03  0.29907213024E+03  0.12500000000E+03 0.  0.
         25    1    1    2    0    0  0.26464827445E+03  0.24723031789E+01  0.18539915413E+03  0.34647174171E+03  0.12500000000E+03 0.  0.
</event>
<event>
 5    0  0.5474724E-005  0.3227557E+03  0.7546771E-02  0.1074388E+00
         21   -1    0    0  502  501  0.00000000000E+00  0.00000000000E+00  0.31967318703E+04  0.31967318703E+04  0.00000000000E+00 0. -1.
         21   -1    0    0  501  502 -0.00000000000E+00 -0.00000000000E+00 -0.32586795628E+02  0.32586795628E+02  0.00000000000E+00 0. -1.
         25    1    1    2    0    0  0.17875028240E+02 -0.14157886252E+03  0.15292419953E+04  0.15409640395E+04  0.12500000000E+03 0.  0.
         25    1    1    2    0    0 -0.69013331748E+02  0.18390266092E+03  0.59612298685E+03  0.63997706530E+03  0.12500000000E+03 0.  0.
         25    1    1    2    0    0  0.51138303508E+02 -0.42323798400E+02  0.10387800926E+04  0.10483775611E+04  0.12500000000E+03 0.  0.
</event>
<event>
 5    0  0.5474724E-005  0.3403994E+03  0.7546771E-02  0.1066626E+00
         21   -1    0    0  502  501  0.00000000000E+00  0.00000000000E+00  0.16239974604E+03  0.16239974604E+03  0.00000000000E+00 0.  1.
         21   -1    0    0  501  502 -0.00000000000E+00 -0.00000000000E+00 -0.71349728623E+03  0.71349728623E+03  0.00000000000E+00 0.  1.
         25    1    1    2    0    0  0.54920193220E+02  0.12202799333E+03 -0.23670010119E+01  0.18313290658E+03  0.12500000000E+03 0.  0.
         25    1    1    2    0    0 -0.17004883574E+03 -0.43632065344E+02 -0.18633587501E+03  0.28489721300E+03  0.12500000000E+03 0.  0.
         25    1    1    2    0    0  0.11512864252E+03 -0.78395927982E+02 -0.36239466417E+03  0.40786691270E+03  0.12500000000E+03 0.  0.
</event>
<event>
 5    0  0.5474724E-005  0.3605040E+03  0.7546771E-02  0.1058384E+00
         21   -1    0    0  502  501  0.00000000000E+00  0.00000000000E+00  0.10611057330E+04  0.10611057330E+04  0.00000000000E+00 0.  1.
         21   -1    0    0  501  502 -0.00000000000E+00 -0.00000000000E+00 -0.12247894593E+03  0.12247894593E+03  0.00000000000E+00 0.  1.
         25    1    1    2    0    0 -0.17088052094E+03  0.21803424170E+03  0.22607615923E+03  0.37878029617E+03  0.12500000000E+03 0.  0.
         25    1    1    2    0    0  0.79289257535E+02 -0.10482177902E+03  0.31924518155E+03  0.36717417891E+03  0.12500000000E+03 0.  0.
         25    1    1    2    0    0  0.91591263407E+02 -0.11321246269E+03  0.39330544634E+03  0.43763020389E+03  0.12500000000E+03 0.  0.
</event>
<event>
 5    0  0.5474724E-005  0.3029546E+03  0.7546771E-02  0.1083773E+00
         21   -1    0    0  502  501  0.00000000000E+00  0.00000000000E+00  0.45567067980E+02  0.45567067980E+02  0.00000000000E+00 0. -1.
         21   -1    0    0  501  502 -0.00000000000E+00 -0.00000000000E+00 -0.20142070186E+04  0.20142070186E+04  0.00000000000E+00 0. -1.
         25    1    1    2    0    0  0.12245204749E+03  0.51629275224E+02 -0.28606547616E+03  0.33929123574E+03  0.12500000000E+03 0.  0.
         25    1    1    2    0    0 -0.81886143916E+02 -0.36122660241E+02 -0.14004783717E+04  0.14088913573E+04  0.12500000000E+03 0.  0.
         25    1    1    2    0    0 -0.40565903575E+02 -0.15506614982E+02 -0.28209610275E+03  0.31159149351E+03  0.12500000000E+03 0.  0.
</event>
<event>
 5    0  0.5474724E-005  0.2788872E+03  0.7546771E-02  0.1096298E+00
         21   -1    0    0  502  501  0.00000000000E+00  0.00000000000E+00  0.50946987942E+02  0.50946987942E+02  0.00000000000E+00 0.  1.
         21   -1    0    0  501  502 -0.00000000000E+00 -0.00000000000E+00 -0.15266466486E+04  0.15266466486E+04  0.00000000000E+00 0.  1.
         25    1    1    2    0    0  0.32159252916E+02 -0.15555845907E+02 -0.33353795316E+03  0.35797872575E+03  0.12500000000E+03 0.  0.
         25    1    1    2    0    0 -0.10903187445E+03  0.12495092519E+03 -0.35343841218E+03  0.40993218288E+03  0.12500000000E+03 0.  0.
         25    1    1    2    0    0  0.76872621532E+02 -0.10939507929E+03 -0.78872329534E+03  0.80968272794E+03  0.12500000000E+03 0.  0.
</event>
<event>
 5    0  0.5474724E-005  0.3229446E+03  0.7546771E-02  0.1074302E+00
         21   -1    0    0  502  501  0.00000000000E+00  0.00000000000E+00  0.29180120003E+04  0.29180120003E+04  0.00000000000E+00 0. -1.
         21   -1    0    0  501  502 -0.00000000000E+00 -0.00000000000E+00 -0.35741182655E+02  0.35741182655E+02  0.00000000000E+00 0. -1.
         25    1    1    2    0    0 -0.21039453022E+03  0.62356457988E+01  0.69722847630E+03  0.73895689305E+03  0.12500000000E+03 0.  0.
         25    1    1    2    0    0  0.73447837317E+02  0.70126607147E+02  0.10136541611E+04  0.10263683959E+04  0.12500000000E+03 0.  0.
         25    1    1    2    0    0  0.13694669290E+03 -0.76362252945E+02  0.11713881803E+04  0.11884278940E+04  0.12500000000E+03 0.  0.
</event>
<event>
 5    0  0.5474724E-005  0.3057197E+03  0.7546771E-02  0.1082416E+00
         21   -1    0    0  502  501  0.00000000000E+00  0.00000000000E+00  0.18065480078E+03  0.18065480078E+03  0.00000000000E+00 0. -1.
         21   -1    0    0  501  502 -0.00000000000E+00 -0.00000000000E+00 -0.51736527191E+03  0.51736527191E+03  0.00000000000E+00 0. -1.
         25    1    1    2    0    0  0.64324271508E+02  0.15178973528E+03 -0.30133467048E+03  0.36552061402E+03  0.12500000000E+03 0.  0.
         25    1    1    2    0    0 -0.39670380959E+01 -0.72901095025E+01  0.14228469501E+02  0.12608065844E+03  0.12500000000E+03 0.  0.
         25    1    1    2    0    0 -0.60357233412E+02 -0.14449962578E+03 -0.49604270147E+02  0.20641880024E+03  0.12500000000E+03 0.  0.
</event>
<event>
 5    0  0.5474724E-005  0.4691305E+03  0.7546771E-02  0.1022166E+00
         21   -1    0    0  502  501  0.00000000000E+00  0.00000000000E+00  0.31220783511E+03  0.31220783511E+03  0.00000000000E+00 0. -1.
         21   -1    0    0  501  502 -0.00000000000E+00 -0.00000000000E+00 -0.70492601947E+03  0.70492601947E+03  0.00000000000E+00 0. -1.
         25    1    1    2    0    0  0.15082833163E+03 -0.39588822490E+02 -0.47217430298E+03  0.51272803013E+03  0.12500000000E+03 0.  0.
         25    1    1    2    0    0  0.10946567115E+03 -0.11801908305E+02 -0.63327822037E+02  0.17820614817E+03  0.12500000000E+03 0.  0.
         25    1    1    2    0    0 -0.26029400278E+03  0.51390730795E+02  0.14278394066E+03  0.32619967628E+03  0.12500000000E+03 0.  0.
</event>
<event>
 5    0  0.5474724E-005  0.4679982E+03  0.7546771E-02  0.1022487E+00
         21   -1    0    0  502  501  0.00000000000E+00  0.00000000000E+00  0.51901146578E+03  0.51901146578E+03  0.00000000000E+00 0. -1.
         21   -1    0    0  501  502 -0.00000000000E+00 -0.00000000000E+00 -0.42199894905E+03  0.42199894905E+03  0.00000000000E+00 0. -1.
         25    1    1    2    0    0  0.11689129962E+03  0.16012853575E+03  0.79863104433E+02  0.24760419895E+03  0.12500000000E+03 0.  0.
         25    1    1    2    0    0 -0.57048235949E+01 -0.13846788884E+03  0.30628057549E+03  0.35866236515E+03  0.12500000000E+03 0.  0.
         25    1    1    2    0    0 -0.11118647603E+03 -0.21660646908E+02 -0.28913116319E+03  0.33474385074E+03  0.12500000000E+03 0.  0.
</event>
<event>
 5    0  0.5474724E-005  0.4654027E+03  0.7546771E-02  0.1023226E+00
         21   -1    0    0  502  501  0.00000000000E+00  0.00000000000E+00  0.10268505555E+04  0.10268505555E+04  0.00000000000E+00 0. -1.
         21   -1    0    0  501  502 -0.00000000000E+00 -0.00000000000E+00 -0.21093593125E+03  0.21093593125E+03  0.00000000000E+00 0. -1.
         25    1    1    2    0    0 -0.89572066435E+02  0.18430387691E+03  0.16787757176E+03  0.29291458350E+03  0.12500000000E+03 0.  0.
         25    1    1    2    0    0  0.27759449239E+03 -0.22276581687E+03  0.60326371443E+03  0.71150222805E+03  0.12500000000E+03 0.  0.
         25    1    1    2    0    0 -0.18802242595E+03  0.38461939962E+02  0.44773338023E+02  0.23336967516E+03  0.12500000000E+03 0.  0.
</event>
<event>
 5    0  0.5474724E-005  0.2548619E+03  0.7546771E-02  0.1110270E+00
         21   -1    0    0  502  501  0.00000000000E+00  0.00000000000E+00  0.11245464886E+04  0.11245464886E+04  0.00000000000E+00 0. -1.
         21   -1    0    0  501  502 -0.00000000000E+00 -0.00000000000E+00 -0.57760677972E+02  0.57760677972E+02  0.00000000000E+00 0. -1.
         25    1    1    2    0    0  0.48649145632E+02 -0.53787326555E+02  0.73968837067E+03  0.75367347145E+03  0.12500000000E+03 0.  0.
         25    1    1    2    0    0 -0.12830691181E+02 -0.34594287910E+01  0.20897359261E+03  0.24386790829E+03  0.12500000000E+03 0.  0.
         25    1    1    2    0    0 -0.35818454452E+02  0.57246755346E+02  0.11812384739E+03  0.18476578687E+03  0.12500000000E+03 0.  0.
</event>
<event>
 5    0  0.5474724E-005  0.3030837E+03  0.7546771E-02  0.1083709E+00
         21   -1    0    0  502  501  0.00000000000E+00  0.00000000000E+00  0.51898821886E+02  0.51898821886E+02  0.00000000000E+00 0.  1.
         21   -1    0    0  501  502 -0.00000000000E+00 -0.00000000000E+00 -0.17699775087E+04  0.17699775087E+04  0.00000000000E+00 0.  1.
         25    1    1    2    0    0  0.78207486066E+02 -0.18043116547E+03 -0.77011440618E+03  0.80459493844E+03  0.12500000000E+03 0.  0.
         25    1    1    2    0    0 -0.22276850101E+02  0.18280119887E+03 -0.46923027903E+03  0.51934053484E+03  0.12500000000E+03 0.  0.
         25    1    1    2    0    0 -0.55930635965E+02 -0.23700334070E+01 -0.47873400163E+03  0.49794085735E+03  0.12500000000E+03 0.  0.
</event>
<event>
 5    0  0.5474724E-005  0.3209957E+03  0.7546771E-02  0.1075192E+00
         21   -1    0    0  502  501  0.00000000000E+00  0.00000000000E+00  0.15571983381E+03  0.15571983381E+03  0.00000000000E+00 0. -1.
         21   -1    0    0  501  502 -0.00000000000E+00 -0.00000000000E+00 -0.66168978061E+03  0.66168978061E+03  0.00000000000E+00 0. -1.
         25    1    1    2    0    0 -0.15153777900E+03 -0.17842735510E+02 -0.14825642624E+03  0.24675297282E+03  0.12500000000E+03 0.  0.
         25    1    1    2    0    0  0.24003470333E+03  0.15858697122E+02 -0.14182872023E+03  0.30595513227E+03  0.12500000000E+03 0.  0.
         25    1    1    2    0    0 -0.88496924331E+02  0.19840383881E+01 -0.21588480033E+03  0.26470150932E+03  0.12500000000E+03 0.  0.
</event>
<event>
 5    0  0.5474724E-005  0.3258247E+03  0.7546771E-02  0.1072999E+00
         21   -1    0    0  502  501  0.00000000000E+00  0.00000000000E+00  0.22420837828E+04  0.22420837828E+04  0.00000000000E+00 0.  1.
         21   -1    0    0  501  502 -0.00000000000E+00 -0.00000000000E+00 -0.47349589482E+02  0.47349589482E+02  0.00000000000E+00 0.  1.
         25    1    1    2    0    0  0.18557900808E+03 -0.67773001194E+02  0.48842600960E+03  0.54149581234E+03  0.12500000000E+03 0.  0.
         25    1    1    2    0    0 -0.11966831744E+03  0.77798271744E+02  0.13690304054E+04  0.13821151646E+04  0.12500000000E+03 0.  0.
         25    1    1    2    0    0 -0.65910690639E+02 -0.10025270550E+02  0.33727777828E+03  0.36582239532E+03  0.12500000000E+03 0.  0.
</event>
<event>
 5    0  0.5474724E-005  0.2857492E+03  0.7546771E-02  0.1092590E+00
         21   -1    0    0  502  501  0.00000000000E+00  0.00000000000E+00  0.27269572774E+03  0.27269572774E+03  0.00000000000E+00 0. -1.
         21   -1    0    0  501  502 -0.00000000000E+00 -0.00000000000E+00 -0.29942743718E+03  0.29942743718E+03  0.00000000000E+00 0. -1.
         25    1    1    2    0    0 -0.12920819082E+03  0.16293104715E+03  0.12795837138E+02  0.24296093544E+03  0.12500000000E+03 0.  0.
         25    1    1    2    0    0  0.77798451981E+02 -0.94344432021E+02 -0.28743699550E+02  0.17721363166E+03  0.12500000000E+03 0.  0.
         25    1    1    2    0    0  0.51409738841E+02 -0.68586615132E+02 -0.10783847025E+02  0.15194859782E+03  0.12500000000E+03 0.  0.
</event>
<event>
 5    0  0.7150433E-005  0.5605982E+03  0.7546771E-02  0.9990702E-01
         21   -1    0    0  502  501  0.00000000000E+00  0.00000000000E+00  0.86660715386E+03  0.86660715386E+03  0.00000000000E+00 0.  1.
         21   -1    0    0  501  502 -0.00000000000E+00 -0.00000000000E+00 -0.36264448070E+03  0.36264448070E+03  0.00000000000E+00 0.  1.
         25    1    1    2    0    0 -0.16939260034E+02 -0.24954400202E+03  0.53871315281E+03  0.60695634809E+03  0.12500000000E+03 0.  0.
         25    1    1    2    0    0  0.26090523824E+03  0.13226376286E+03  0.21682592372E+02  0.31884225115E+03  0.12500000000E+03 0.  0.
         25    1    1    2    0    0 -0.24396597821E+03  0.11728023916E+03 -0.56433072022E+02  0.30345303531E+03  0.12500000000E+03 0.  0.
</event>
<event>
 5    0  0.5474724E-005  0.3982457E+03  0.7546771E-02  0.1044389E+00
         21   -1    0    0  502  501  0.00000000000E+00  0.00000000000E+00  0.74487688638E+03  0.74487688638E+03  0.00000000000E+00 0.  1.
         21   -1    0    0  501  502 -0.00000000000E+00 -0.00000000000E+00 -0.21292056944E+03  0.21292056944E+03  0.00000000000E+00 0.  1.
         25    1    1    2    0    0 -0.11700826049E+03 -0.98720131033E+02  0.46340625301E+03  0.50379256905E+03  0.12500000000E+03 0.  0.
         25    1    1    2    0    0  0.12343346363E+03 -0.10189515088E+03 -0.13959631011E+02  0.20356402682E+03  0.12500000000E+03 0.  0.
         25    1    1    2    0    0 -0.64252031491E+01  0.20061528191E+03  0.82509694938E+02  0.25044085995E+03  0.12500000000E+03 0.  0.
</event>
<event>
 5    0  0.5474724E-005  0.8711404E+03  0.7546771E-02  0.9462394E-01
         21   -1    0    0  502  501  0.00000000000E+00  0.00000000000E+00  0.21599762253E+04  0.21599762253E+04  0.00000000000E+00 0. -1.
         21   -1    0    0  501  502 -0.00000000000E+00 -0.00000000000E+00 -0.35133982905E+03  0.35133982905E+03  0.00000000000E+00 0. -1.
         25    1    1    2    0    0 -0.25481029854E+02 -0.30175526849E+03  0.24204590312E+03  0.40732879122E+03  0.12500000000E+03 0.  0.
         25    1    1    2    0    0 -0.81571505510E+02  0.59682379512E+03  0.16457484329E+04  0.17569762256E+04  0.12500000000E+03 0.  0.
         25    1    1    2    0    0  0.10705253536E+03 -0.29506852664E+03 -0.79157939770E+02  0.34701103753E+03  0.12500000000E+03 0.  0.
</event>
<event>
 5    0  0.5753853E-005  0.4219478E+03  0.7546771E-02  0.1036434E+00
         21   -1    0    0  502  501  0.00000000000E+00  0.00000000000E+00  0.14936610558E+03  0.14936610558E+03  0.00000000000E+00 0. -1.
         21   -1    0    0  501  502 -0.00000000000E+00 -0.00000000000E+00 -0.11919702455E+04  0.11919702455E+04  0.00000000000E+00 0. -1.
         25    1    1    2    0    0 -0.12186131522E+03  0.13569240794E+03 -0.10423687299E+03  0.24444413556E+03  0.12500000000E+03 0.  0.
         25    1    1    2    0    0  0.15134284375E+03  0.15403323473E+03 -0.45434607818E+03  0.51834954665E+03  0.12500000000E+03 0.  0.
         25    1    1    2    0    0 -0.29481528526E+02 -0.28972564267E+03 -0.48402118878E+03  0.57854266890E+03  0.12500000000E+03 0.  0.
</event>
<event>
 5    0  0.5474724E-005  0.2230792E+03  0.7546771E-02  0.1131608E+00
         21   -1    0    0  502  501  0.00000000000E+00  0.00000000000E+00  0.95561001563E+03  0.95561001563E+03  0.00000000000E+00 0. -1.
         21   -1    0    0  501  502 -0.00000000000E+00 -0.00000000000E+00 -0.52075992941E+02  0.52075992941E+02  0.00000000000E+00 0. -1.
         25    1    1    2    0    0  0.87738567413E+02  0.22329119719E+02  0.32958005163E+03  0.36392946601E+03  0.12500000000E+03 0.  0.
         25    1    1    2    0    0 -0.60661001237E+02  0.74431228465E+01  0.41426464778E+03  0.43700727173E+03  0.12500000000E+03 0.  0.
         25    1    1    2    0    0 -0.27077566176E+02 -0.29772242566E+02  0.15968932328E+03  0.20674927083E+03  0.12500000000E+03 0.  0.
</event>
<event>
 5    0  0.5474724E-005  0.3426647E+03  0.7546771E-02  0.1065667E+00
         21   -1    0    0  502  501  0.00000000000E+00  0.00000000000E+00  0.62925217219E+02  0.62925217219E+02  0.00000000000E+00 0.  1.
         21   -1    0    0  501  502 -0.00000000000E+00 -0.00000000000E+00 -0.18660098373E+04  0.18660098373E+04  0.00000000000E+00 0.  1.
         25    1    1    2    0    0  0.12973492525E+03 -0.21123648333E+03 -0.63850098888E+03  0.69624745279E+03  0.12500000000E+03 0.  0.
         25    1    1    2    0    0  0.13650123617E+02  0.93657119288E+02 -0.28673361254E+03  0.32680138682E+03  0.12500000000E+03 0.  0.
         25    1    1    2    0    0 -0.14338504887E+03  0.11757936405E+03 -0.87785001870E+03  0.90588621494E+03  0.12500000000E+03 0.  0.
</event>
<event>
 5    0  0.5474724E-005  0.4116828E+03  0.7546771E-02  0.1039808E+00
         21   -1    0    0  502  501  0.00000000000E+00  0.00000000000E+00  0.47919209064E+03  0.47919209064E+03  0.00000000000E+00 0.  1.
         21   -1    0    0  501  502 -0.00000000000E+00 -0.00000000000E+00 -0.35368432206E+03  0.35368432206E+03  0.00000000000E+00 0.  1.
         25    1    1    2    0    0 -0.15004696599E+01  0.41530450041E+02 -0.11386630149E+03  0.17411939669E+03  0.12500000000E+03 0.  0.
         25    1    1    2    0    0  0.13420770194E+03 -0.12240077226E+03 -0.11756355813E+03  0.24987966406E+03  0.12500000000E+03 0.  0.
         25    1    1    2    0    0 -0.13270723228E+03  0.80870322219E+02  0.35693762820E+03  0.40887735195E+03  0.12500000000E+03 0.  0.
</event>
<event>
 5    0  0.5474724E-005  0.3037078E+03  0.7546771E-02  0.1083402E+00
         21   -1    0    0  502  501  0.00000000000E+00  0.00000000000E+00  0.91593837282E+02  0.91593837282E+02  0.00000000000E+00 0. -1.
         21   -1    0    0  501  502 -0.00000000000E+00 -0.00000000000E+00 -0.10070374539E+04  0.10070374539E+04  0.00000000000E+00 0. -1.
         25    1    1    2    0    0  0.19037568323E+03  0.17774858611E+02 -0.54535996975E+03  0.59127095563E+03  0.12500000000E+03 0.  0.
         25    1    1    2    0    0 -0.38009475457E+02  0.32300345341E+02 -0.92670821908E+02  0.16340414244E+03  0.12500000000E+03 0.  0.
         25    1    1    2    0    0 -0.15236620778E+03 -0.50075203952E+02 -0.27741282493E+03  0.34395619308E+03  0.12500000000E+03 0.  0.
</event>
<event>
 5    0  0.5474724E-005  0.3541316E+03  0.7546771E-02  0.1060932E+00
         21   -1    0    0  502  501  0.00000000000E+00  0.00000000000E+00  0.15354397818E+03  0.15354397818E+03  0.00000000000E+00 0.  1.
         21   -1    0    0  501  502 -0.00000000000E+00 -0.00000000000E+00 -0.81676387435E+03  0.81676387435E+03  0.00000000000E+00 0.  1.
         25    1    1    2    0    0  0.60824376740E+02  0.16225506426E+02 -0.21076465611E+03  0.25300120974E+03  0.12500000000E+03 0.  0.
         25    1    1    2    0    0 -0.92253463128E+02 -0.24325645508E+03 -0.29355420526E+03  0.41168370847E+03  0.12500000000E+03 0.  0.
         25    1    1    2    0    0  0.31429086388E+02  0.22703094866E+03 -0.15890103481E+03  0.30562293432E+03  0.12500000000E+03 0.  0.
</event>
<event>
 5    0  0.5474724E-005  0.2333242E+03  0.7546771E-02  0.1124322E+00
         21   -1    0    0  502  501  0.00000000000E+00  0.00000000000E+00  0.53876254936E+03  0.53876254936E+03  0.00000000000E+00 0.  1.
         21   -1    0    0  501  502 -0.00000000000E+00 -0.00000000000E+00 -0.10104669584E+03  0.10104669584E+03  0.00000000000E+00 0.  1.
         25    1    1    2    0    0 -0.31968774999E+02  0.74318358129E+02  0.16803410985E+03  0.22451209991E+03  0.12500000000E+03 0.  0.
         25    1    1    2    0    0 -0.91237272859E+01 -0.19434713844E+02  0.23734538015E+03  0.26910737630E+03  0.12500000000E+03 0.  0.
         25    1    1    2    0    0  0.41092502285E+02 -0.54883644284E+02  0.32336363511E+02  0.14618976900E+03  0.12500000000E+03 0.  0.
</event>
<event>
 5    0  0.6526506E-005  0.2935442E+03  0.7546771E-02  0.1088513E+00
         21   -1    0    0  502  501  0.00000000000E+00  0.00000000000E+00  0.46847662937E+03  0.46847662937E+03  0.00000000000E+00 0.  1.
         21   -1    0    0  501  502 -0.00000000000E+00 -0.00000000000E+00 -0.18393273755E+03  0.18393273755E+03  0.00000000000E+00 0.  1.
         25    1    1    2    0    0  0.59402329777E+01 -0.84507076132E+00 -0.33754893996E+02  0.12961633146E+03  0.12500000000E+03 0.  0.
         25    1    1    2    0    0  0.13564552954E+02  0.14587185504E+03  0.62067955313E+02  0.20233641854E+03  0.12500000000E+03 0.  0.
         25    1    1    2    0    0 -0.19504785932E+02 -0.14502678428E+03  0.25623083050E+03  0.32045661692E+03  0.12500000000E+03 0.  0.
</event>
<event>
 5    0  0.5474724E-005  0.3415446E+03  0.7546771E-02  0.1066140E+00
         21   -1    0    0  502  501  0.00000000000E+00  0.00000000000E+00  0.14423492349E+03  0.14423492349E+03  0.00000000000E+00 0.  1.
         21   -1    0    0  501  502 -0.00000000000E+00 -0.00000000000E+00 -0.80876884765E+03  0.80876884765E+03  0.00000000000E+00 0.  1.
         25    1    1    2    0    0 -0.22390125629E+03  0.74211491121E+02 -0.41089167096E+03  0.48999600329E+03  0.12500000000E+03 0.  0.
         25    1    1    2    0    0  0.17215306455E+03 -0.11879377630E+03 -0.14198513207E+03  0.28201669570E+03  0.12500000000E+03 0.  0.
         25    1    1    2    0    0  0.51748191736E+02  0.44582285179E+02 -0.11165712113E+03  0.18099107215E+03  0.12500000000E+03 0.  0.
</event>
<event>
 5    0  0.5474724E-005  0.3869990E+03  0.7546771E-02  0.1048377E+00
         21   -1    0    0  502  501  0.00000000000E+00  0.00000000000E+00  0.25685536689E+03  0.25685536689E+03  0.00000000000E+00 0. -1.
         21   -1    0    0  501  502 -0.00000000000E+00 -0.00000000000E+00 -0.58308374012E+03  0.58308374012E+03  0.00000000000E+00 0. -1.
         25    1    1    2    0    0 -0.10646970337E+03  0.19559149279E+03 -0.29937766708E+03  0.39350199152E+03  0.12500000000E+03 0.  0.
         25    1    1    2    0    0 -0.82926410487E+02 -0.15217084341E+03 -0.27137529832E+02  0.21539313050E+03  0.12500000000E+03 0.  0.
         25    1    1    2    0    0  0.18939611385E+03 -0.43420649377E+02  0.28682367906E+00  0.23104398500E+03  0.12500000000E+03 0.  0.
</event>
<event>
 5    0  0.5474724E-005  0.2602026E+03  0.7546771E-02  0.1107022E+00
         21   -1    0    0  502  501  0.00000000000E+00  0.00000000000E+00  0.63819612596E+03  0.63819612596E+03  0.00000000000E+00 0.  1.
         21   -1    0    0  501  502 -0.00000000000E+00 -0.00000000000E+00 -0.10608871069E+03  0.10608871069E+03  0.00000000000E+00 0.  1.
         25    1    1    2    0    0 -0.46699701181E+02  0.26904126491E+02  0.27105377820E+03  0.30331476190E+03  0.12500000000E+03 0.  0.
         25    1    1    2    0    0  0.50809036716E+02  0.88877386582E+02  0.20612825819E+03  0.26190572136E+03  0.12500000000E+03 0.  0.
         25    1    1    2    0    0 -0.41093355347E+01 -0.11578151307E+03  0.54925378883E+02  0.17906435339E+03  0.12500000000E+03 0.  0.
</event>
<event>
 5    0  0.5474724E-005  0.3712517E+03  0.7546771E-02  0.1054215E+00
         21   -1    0    0  502  501  0.00000000000E+00  0.00000000000E+00  0.15763574377E+03  0.15763574377E+03  0.00000000000E+00 0. -1.
         21   -1    0    0  501  502 -0.00000000000E+00 -0.00000000000E+00 -0.87434396389E+03  0.87434396389E+03  0.00000000000E+00 0. -1.
         25    1    1    2    0    0 -0.20923702368E+03  0.97196255052E+02 -0.17645860007E+03  0.31621176704E+03  0.12500000000E+03 0.  0.
         25    1    1    2    0    0 -0.45280893777E+02 -0.68406093373E+01 -0.49893215217E+02  0.14216710661E+03  0.12500000000E+03 0.  0.
         25    1    1    2    0    0  0.25451791745E+03 -0.90355645715E+02 -0.49035640483E+03  0.57360083401E+03  0.12500000000E+03 0.  0.
</event>
<event>
 5    0  0.5474724E-005  0.2057661E+03  0.7546771E-02  0.1144963E+00
         21   -1    0    0  502  501  0.00000000000E+00  0.00000000000E+00  0.51829259142E+03  0.51829259142E+03  0.00000000000E+00 0.  1.
         21   -1    0    0  501  502 -0.00000000000E+00 -0.00000000000E+00 -0.81690708419E+02  0.81690708419E+02  0.00000000000E+00 0.  1.
         25    1    1    2    0    0  0.56407561422E+02 -0.53323915941E+01  0.20837527317E+03  0.24951052453E+03  0.12500000000E+03 0.  0.
         25    1    1    2    0    0 -0.40960066815E+02  0.35681891397E+02  0.11157566539E+03  0.17613930156E+03  0.12500000000E+03 0.  0.
         25    1    1    2    0    0 -0.15447494608E+02 -0.30349499803E+02  0.11665094445E+03  0.17433347375E+03  0.12500000000E+03 0.  0.
</event>
<event>
 5    0  0.5474724E-005  0.2647266E+03  0.7546771E-02  0.1104336E+00
         21   -1    0    0  502  501  0.00000000000E+00  0.00000000000E+00  0.46052390838E+03  0.46052390838E+03  0.00000000000E+00 0. -1.
         21   -1    0    0  501  502 -0.00000000000E+00 -0.00000000000E+00 -0.15217486299E+03  0.15217486299E+03  0.00000000000E+00 0. -1.
         25    1    1    2    0    0  0.30000439575E+01  0.69817205507E+02  0.18648178663E+03  0.23512528403E+03  0.12500000000E+03 0.  0.
         25    1    1    2    0    0  0.11175838626E+03 -0.68846029424E+02  0.98460629423E+02  0.20627459420E+03  0.12500000000E+03 0.  0.
         25    1    1    2    0    0 -0.11475843022E+03 -0.97117608343E+00  0.23406629341E+02  0.17129889313E+03  0.12500000000E+03 0.  0.
</event>
<event>
 5    0  0.5474724E-005  0.3366015E+03  0.7546771E-02  0.1068253E+00
         21   -1    0    0  502  501  0.00000000000E+00  0.00000000000E+00  0.33826763434E+03  0.33826763434E+03  0.00000000000E+00 0.  1.
         21   -1    0    0  501  502 -0.00000000000E+00 -0.00000000000E+00 -0.33494358983E+03  0.33494358983E+03  0.00000000000E+00 0.  1.
         25    1    1    2    0    0 -0.88684675326E+02  0.95048380549E+02 -0.17088312794E+02  0.18115235775E+03  0.12500000000E+03 0.  0.
         25    1    1    2    0    0 -0.90747502836E+02 -0.82064055765E+02 -0.13710320997E+03  0.22224290473E+03  0.12500000000E+03 0.  0.
         25    1    1    2    0    0  0.17943217816E+03 -0.12984324783E+02  0.15751556727E+03  0.26981596169E+03  0.12500000000E+03 0.  0.
</event>
<event>
 5    0  0.5474724E-005  0.2949706E+03  0.7546771E-02  0.1087782E+00
         21   -1    0    0  502  501  0.00000000000E+00  0.00000000000E+00  0.12722150008E+03  0.12722150008E+03  0.00000000000E+00 0.  1.
         21   -1    0    0  501  502 -0.00000000000E+00 -0.00000000000E+00 -0.68390677436E+03  0.68390677436E+03  0.00000000000E+00 0.  1.
         25    1    1    2    0    0  0.87053011680E+02  0.14571201301E+03 -0.75748724265E+02  0.22399349724E+03  0.12500000000E+03 0.  0.
         25    1    1    2    0    0 -0.62247202766E+02 -0.15540090653E+03 -0.30377843332E+03  0.36868752699E+03  0.12500000000E+03 0.  0.
         25    1    1    2    0    0 -0.24805808914E+02  0.96888935212E+01 -0.17715811670E+03  0.21844725021E+03  0.12500000000E+03 0.  0.
</event>
<event>
 5    0  0.6320153E-005  0.2742859E+03  0.7546771E-02  0.1098851E+00
         21   -1    0    0  502  501  0.00000000000E+00  0.00000000000E+00  0.40700290793E+03  0.40700290793E+03  0.00000000000E+00 0.  1.
         21   -1    0    0  501  502 -0.00000000000E+00 -0.00000000000E+00 -0.18484573210E+03  0.18484573210E+03  0.00000000000E+00 0.  1.
         25    1    1    2    0    0 -0.53285111646E+02  0.62648020629E+02  0.11598372502E+03  0.18931799197E+03  0.12500000000E+03 0.  0.
         25    1    1    2    0    0 -0.57055673731E+02  0.88146011018E+02  0.51343400729E+02  0.17113215350E+03  0.12500000000E+03 0.  0.
         25    1    1    2    0    0  0.11034078538E+03 -0.15079403165E+03  0.54830050077E+02  0.23139849457E+03  0.12500000000E+03 0.  0.
</event>
<event>
 5    0  0.5474724E-005  0.2701338E+03  0.7546771E-02  0.1101203E+00
         21   -1    0    0  502  501  0.00000000000E+00  0.00000000000E+00  0.11624354880E+03  0.11624354880E+03  0.00000000000E+00 0.  1.
         21   -1    0    0  501  502 -0.00000000000E+00 -0.00000000000E+00 -0.62775345650E+03  0.62775345650E+03  0.00000000000E+00 0.  1.
         25    1    1    2    0    0  0.89629646410E+02  0.12540288428E+02 -0.41703418131E+02  0.15985902362E+03  0.12500000000E+03 0.  0.
         25    1    1    2    0    0  0.62757141932E+02  0.16453274716E+02 -0.13835353889E+03  0.19742307574E+03  0.12500000000E+03 0.  0.
         25    1    1    2    0    0 -0.15238678834E+03 -0.28993563144E+02 -0.33145295067E+03  0.38671490594E+03  0.12500000000E+03 0.  0.
</event>
<event>
 5    0  0.5474724E-005  0.2010173E+03  0.7546771E-02  0.1148884E+00
         21   -1    0    0  502  501  0.00000000000E+00  0.00000000000E+00  0.23072299208E+02  0.23072299208E+02  0.00000000000E+00 0. -1.
         21   -1    0    0  501  502 -0.00000000000E+00 -0.00000000000E+00 -0.17513624336E+04  0.17513624336E+04  0.00000000000E+00 0. -1.
         25    1    1    2    0    0 -0.12685370765E+02  0.42051278364E+02 -0.68884963909E+03  0.70147562603E+03  0.12500000000E+03 0.  0.
         25    1    1    2    0    0 -0.27417796983E+00 -0.60313162147E+02 -0.56865700785E+03  0.58534907985E+03  0.12500000000E+03 0.  0.
         25    1    1    2    0    0  0.12959548734E+02  0.18261883783E+02 -0.47078348743E+03  0.48761002691E+03  0.12500000000E+03 0.  0.
</event>
<event>
 5    0  0.5474724E-005  0.4036237E+03  0.7546771E-02  0.1042532E+00
         21   -1    0    0  502  501  0.00000000000E+00  0.00000000000E+00  0.23222287711E+03  0.23222287711E+03  0.00000000000E+00 0.  1.
         21   -1    0    0  501  502 -0.00000000000E+00 -0.00000000000E+00 -0.70153348514E+03  0.70153348514E+03  0.00000000000E+00 0.  1.
         25    1    1    2    0    0 -0.10225023688E+03  0.12898918138E+03  0.84824743821E+02  0.22341342175E+03  0.12500000000E+03 0.  0.
         25    1    1    2    0    0  0.10278703005E+03 -0.22988643857E+03 -0.31442188872E+03  0.42178083442E+03  0.12500000000E+03 0.  0.
         25    1    1    2    0    0 -0.53679316627E+00  0.10089725719E+03 -0.23971346313E+03  0.28856210607E+03  0.12500000000E+03 0.  0.
</event>
<event>
 5    0  0.5474724E-005  0.2926372E+03  0.7546771E-02  0.1088980E+00
         21   -1    0    0  502  501  0.00000000000E+00  0.00000000000E+00  0.21739105484E+03  0.21739105484E+03  0.00000000000E+00 0.  1.
         21   -1    0    0  501  502 -0.00000000000E+00 -0.00000000000E+00 -0.39392855711E+03  0.39392855711E+03  0.00000000000E+00 0.  1.
         25    1    1    2    0    0  0.11064321448E+03  0.39414289566E+02 -0.15118408912E+03  0.22864171959E+03  0.12500000000E+03 0.  0.
         25    1    1    2    0    0  0.65034390090E+02  0.48160214529E+02 -0.16112066615E+02  0.14977809202E+03  0.12500000000E+03 0.  0.
         25    1    1    2    0    0 -0.17567760457E+03 -0.87574504095E+02 -0.92413465411E+01  0.23289980035E+03  0.12500000000E+03 0.  0.
</event>
<event>
 5    0  0.5474724E-005  0.4623994E+03  0.7546771E-02  0.1024088E+00
         21   -1    0    0  502  501  0.00000000000E+00  0.00000000000E+00  0.66773886629E+03  0.66773886629E+03  0.00000000000E+00 0.  1.
         21   -1    0    0  501  502 -0.00000000000E+00 -0.00000000000E+00 -0.32020481856E+03  0.32020481856E+03  0.00000000000E+00 0.  1.
         25    1    1    2    0    0 -0.71016332458E+02  0.50860072971E+02  0.38926554508E+03  0.41807024659E+03  0.12500000000E+03 0.  0.
         25    1    1    2    0    0  0.85816733299E+02 -0.72095994343E+02 -0.26440522962E+03  0.31320515571E+03  0.12500000000E+03 0.  0.
         25    1    1    2    0    0 -0.14800400841E+02  0.21235921372E+02  0.22267373227E+03  0.25666828254E+03  0.12500000000E+03 0.  0.
</event>
<event>
 5    0  0.5474724E-005  0.3320484E+03  0.7546771E-02  0.1070234E+00
         21   -1    0    0  502  501  0.00000000000E+00  0.00000000000E+00  0.17914345574E+04  0.17914345574E+04  0.00000000000E+00 0. -1.
         21   -1    0    0  501  502 -0.00000000000E+00 -0.00000000000E+00 -0.61546286124E+02  0.61546286124E+02  0.00000000000E+00 0. -1.
         25    1    1    2    0    0  0.22531611688E+03 -0.56229251111E+02  0.10611979353E+04  0.10934784584E+04  0.12500000000E+03 0.  0.
         25    1    1    2    0    0 -0.66987862052E+02 -0.21946534855E+02  0.28158815341E+03  0.31604732588E+03  0.12500000000E+03 0.  0.
         25    1    1    2    0    0 -0.15832825483E+03  0.78175785966E+02  0.38710218264E+03  0.44345505927E+03  0.12500000000E+03 0.  0.
</event>
<event>
 5    0  0.5474724E-005  0.4328142E+03  0.7546771E-02  0.1032975E+00
         21   -1    0    0  502  501  0.00000000000E+00  0.00000000000E+00  0.85234462716E+03  0.85234462716E+03  0.00000000000E+00 0. -1.
         21   -1    0    0  501  502 -0.00000000000E+00 -0.00000000000E+00 -0.21977981703E+03  0.21977981703E+03  0.00000000000E+00 0. -1.
         25    1    1    2    0    0 -0.27663516402E+02  0.17482782947E+03  0.30213000787E+03  0.37180314919E+03  0.12500000000E+03 0.  0.
         25    1    1    2    0    0 -0.96498720380E+02 -0.34061118724E+03  0.20731672927E+03  0.42887435239E+03  0.12500000000E+03 0.  0.
         25    1    1    2    0    0  0.12416223678E+03  0.16578335777E+03  0.12311807300E+03  0.27144694261E+03  0.12500000000E+03 0.  0.
</event>
<event>
 5    0  0.5474724E-005  0.2639422E+03  0.7546771E-02  0.1104798E+00
         21   -1    0    0  502  501  0.00000000000E+00  0.00000000000E+00  0.19931234275E+03  0.19931234275E+03  0.00000000000E+00 0.  1.
         21   -1    0    0  501  502 -0.00000000000E+00 -0.00000000000E+00 -0.34952929635E+03  0.34952929635E+03  0.00000000000E+00 0.  1.
         25    1    1    2    0    0  0.10534887109E+03 -0.57764855042E+02 -0.17491410210E+03  0.24628257395E+03  0.12500000000E+03 0.  0.
         25    1    1    2    0    0 -0.13630057293E+02  0.47691454058E+02 -0.30106116911E+02  0.13781012854E+03  0.12500000000E+03 0.  0.
         25    1    1    2    0    0 -0.91718813798E+02  0.10073400985E+02  0.54803265422E+02  0.16474893661E+03  0.12500000000E+03 0.  0.
</event>
<event>
 5    0  0.5474724E-005  0.2844878E+03  0.7546771E-02  0.1093263E+00
         21   -1    0    0  502  501  0.00000000000E+00  0.00000000000E+00  0.24021726172E+03  0.24021726172E+03  0.00000000000E+00 0.  1.
         21   -1    0    0  501  502 -0.00000000000E+00 -0.00000000000E+00 -0.33691714373E+03  0.33691714373E+03  0.00000000000E+00 0.  1.
         25    1    1    2    0    0  0.34291977794E+02 -0.19945136367E+02 -0.18794292602E+03  0.22917524222E+03  0.12500000000E+03 0.  0.
         25    1    1    2    0    0 -0.58661570285E+00 -0.80588793300E+02  0.10710350185E+03  0.18327863441E+03  0.12500000000E+03 0.  0.
         25    1    1    2    0    0 -0.33705362091E+02  0.10053392967E+03 -0.15860457843E+02  0.16468052882E+03  0.12500000000E+03 0.  0.
</event>
<event>
 5    0  0.5474724E-005  0.3218989E+03  0.7546771E-02  0.1074779E+00
         21   -1    0    0  502  501  0.00000000000E+00  0.00000000000E+00  0.19489591552E+04  0.19489591552E+04  0.00000000000E+00 0. -1.
         21   -1    0    0  501  502 -0.00000000000E+00 -0.00000000000E+00 -0.53166292442E+02  0.53166292442E+02  0.00000000000E+00 0. -1.
         25    1    1    2    0    0 -0.78870981522E+02  0.10356291547E+03  0.28523605500E+03  0.33753594810E+03  0.12500000000E+03 0.  0.
         25    1    1    2    0    0  0.88646178310E+02 -0.41712676851E+02  0.14167207735E+04  0.14255949083E+04  0.12500000000E+03 0.  0.
         25    1    1    2    0    0 -0.97751967885E+01 -0.61850238620E+02  0.19383603421E+03  0.23899459125E+03  0.12500000000E+03 0.  0.
</event>
<event>
 5    0  0.5474724E-005  0.2480076E+03  0.7546771E-02  0.1114570E+00
         21   -1    0    0  502  501  0.00000000000E+00  0.00000000000E+00  0.23620549935E+03  0.23620549935E+03  0.00000000000E+00 0.  1.
         21   -1    0    0  501  502 -0.00000000000E+00 -0.00000000000E+00 -0.26039935226E+03  0.26039935226E+03  0.00000000000E+00 0.  1.
         25    1    1    2    0    0  0.52034331891E+02  0.31258350393E+02  0.16621709761E+02  0.13994976742E+03  0.12500000000E+03 0.  0.
         25    1    1    2    0    0 -0.14125365368E+03  0.44109198102E+01 -0.59638506967E+02  0.19787319779E+03  0.12500000000E+03 0.  0.
         25    1    1    2    0    0  0.89219321786E+02 -0.35669270203E+02  0.18822944295E+02  0.15878188640E+03  0.12500000000E+03 0.  0.
</event>
<event>
 5    0  0.5474724E-005  0.3598764E+03  0.7546771E-02  0.1058633E+00
         21   -1    0    0  502  501  0.00000000000E+00  0.00000000000E+00  0.48259127199E+02  0.48259127199E+02  0.00000000000E+00 0. -1.
         21   -1    0    0  501  502 -0.00000000000E+00 -0.00000000000E+00 -0.26836588083E+04  0.26836588083E+04  0.00000000000E+00 0. -1.
         25    1    1    2    0    0  0.22584909612E+02 -0.37246231873E+02 -0.25724947017E+03  0.28930891765E+03  0.12500000000E+03 0.  0.
         25    1    1    2    0    0 -0.50622198130E+02 -0.17328474609E+03 -0.47179055846E+03  0.52038595410E+03  0.12500000000E+03 0.  0.
         25    1    1    2    0    0  0.28037288519E+02  0.21053097797E+03 -0.19063596525E+04  0.19222230638E+04  0.12500000000E+03 0.  0.
</event>
<event>
 5    0  0.5474724E-005  0.3224315E+03  0.7546771E-02  0.1074536E+00
         21   -1    0    0  502  501  0.00000000000E+00  0.00000000000E+00  0.96807241917E+03  0.96807241917E+03  0.00000000000E+00 0. -1.
         21   -1    0    0  501  502 -0.00000000000E+00 -0.00000000000E+00 -0.10739082960E+03  0.10739082960E+03  0.00000000000E+00 0. -1.
         25    1    1    2    0    0 -0.11103076408E+03  0.71588738379E+02  0.34531922862E+03  0.39028598193E+03  0.12500000000E+03 0.  0.
         25    1    1    2    0    0  0.18211391606E+03 -0.27100971219E+02  0.10112663259E+03  0.24444127492E+03  0.12500000000E+03 0.  0.
         25    1    1    2    0    0 -0.71083151978E+02 -0.44487767160E+02  0.41423572837E+03  0.44073599193E+03  0.12500000000E+03 0.  0.
</event>
<event>
 5    0  0.5474724E-005  0.8465050E+03  0.7546771E-02  0.9495040E-01
         21   -1    0    0  502  501  0.00000000000E+00  0.00000000000E+00  0.22270804835E+04  0.22270804835E+04  0.00000000000E+00 0. -1.
         21   -1    0    0  501  502 -0.00000000000E+00 -0.00000000000E+00 -0.32175338008E+03  0.32175338008E+03  0.00000000000E+00 0. -1.
         25    1    1    2    0    0 -0.42299101705E+03 -0.54428375667E+03  0.70467346566E+03  0.99365783923E+03  0.12500000000E+03 0.  0.
         25    1    1    2    0    0  0.14230210598E+03 -0.18102126269E+02  0.74483631428E+03  0.76875464969E+03  0.12500000000E+03 0.  0.
         25    1    1    2    0    0  0.28068891107E+03  0.56238588293E+03  0.45581732346E+03  0.78642137464E+03  0.12500000000E+03 0.  0.
</event>
<event>
 5    0  0.5994035E-005  0.2970032E+03  0.7546771E-02  0.1086748E+00
         21   -1    0    0  502  501  0.00000000000E+00  0.00000000000E+00  0.17730931879E+03  0.17730931879E+03  0.00000000000E+00 0. -1.
         21   -1    0    0  501  502 -0.00000000000E+00 -0.00000000000E+00 -0.49749714173E+03  0.49749714173E+03  0.00000000000E+00 0. -1.
         25    1    1    2    0    0  0.71228242119E+01  0.62588136783E+02 -0.19042362702E+03  0.23633486247E+03  0.12500000000E+03 0.  0.
         25    1    1    2    0    0  0.89272804743E+02 -0.45751415390E+02  0.76987194170E+02  0.17780566285E+03  0.12500000000E+03 0.  0.
         25    1    1    2    0    0 -0.96395628954E+02 -0.16836721393E+02 -0.20675139009E+03  0.26066593520E+03  0.12500000000E+03 0.  0.
</event>
<event>
 5    0  0.6273421E-005  0.2906655E+03  0.7546771E-02  0.1090002E+00
         21   -1    0    0  502  501  0.00000000000E+00  0.00000000000E+00  0.14291390117E+03  0.14291390117E+03  0.00000000000E+00 0.  1.
         21   -1    0    0  501  502 -0.00000000000E+00 -0.00000000000E+00 -0.59117033045E+03  0.59117033045E+03  0.00000000000E+00 0.  1.
         25    1    1    2    0    0  0.13497674157E+03 -0.10997243125E+01  0.35843800463E+01  0.18400483129E+03  0.12500000000E+03 0.  0.
         25    1    1    2    0    0 -0.57268561713E+02  0.65376433474E+02 -0.19937172413E+03  0.25085424174E+03  0.12500000000E+03 0.  0.
         25    1    1    2    0    0 -0.77708179857E+02 -0.64276709161E+02 -0.25246908519E+03  0.29922515859E+03  0.12500000000E+03 0.  0.
</event>
<event>
 5    0  0.5474724E-005  0.3336850E+03  0.7546771E-02  0.1069518E+00
         21   -1    0    0  502  501  0.00000000000E+00  0.00000000000E+00  0.52197541762E+03  0.52197541762E+03  0.00000000000E+00 0.  1.
         21   -1    0    0  501  502 -0.00000000000E+00 -0.00000000000E+00 -0.21331588363E+03  0.21331588363E+03  0.00000000000E+00 0.  1.
         25    1    1    2    0    0  0.17414391160E+03  0.10371467804E+03  0.16681960168E+03  0.29075181150E+03  0.12500000000E+03 0.  0.
         25    1    1    2    0    0 -0.61416019997E+02 -0.15440648874E+03 -0.15641193405E+02  0.20852562962E+03  0.12500000000E+03 0.  0.
         25    1    1    2    0    0 -0.11272789160E+03  0.50691810704E+02  0.15748112571E+03  0.23601386013E+03  0.12500000000E+03 0.  0.
</event>
<event>
 5    0  0.5474724E-005  0.3402098E+03  0.7546771E-02  0.1066707E+00
         21   -1    0    0  502  501  0.00000000000E+00  0.00000000000E+00  0.17472497604E+04  0.17472497604E+04  0.00000000000E+00 0. -1.
         21   -1    0    0  501  502 -0.00000000000E+00 -0.00000000000E+00 -0.66242794100E+02  0.66242794100E+02  0.00000000000E+00 0. -1.
         25    1    1    2    0    0  0.35224393875E+02 -0.13663053965E+03  0.20710392486E+03  0.28004588549E+03  0.12500000000E+03 0.  0.
         25    1    1    2    0    0  0.18876173798E+02  0.12895637331E+03  0.28945001354E+03  0.34116325490E+03  0.12500000000E+03 0.  0.
         25    1    1    2    0    0 -0.54100567673E+02  0.76741663406E+01  0.11844530279E+04  0.11922834141E+04  0.12500000000E+03 0.  0.
</event>
<event>
 5    0  0.5474724E-005  0.2037923E+03  0.7546771E-02  0.1146578E+00
         21   -1    0    0  502  501  0.00000000000E+00  0.00000000000E+00  0.19471713679E+03  0.19471713679E+03  0.00000000000E+00 0. -1.
         21   -1    0    0  501  502 -0.00000000000E+00 -0.00000000000E+00 -0.21329039093E+03  0.21329039093E+03  0.00000000000E+00 0. -1.
         25    1    1    2    0    0 -0.47573693959E+01  0.25643703787E+02 -0.41577655365E+02  0.13429048192E+03  0.12500000000E+03 0.  0.
         25    1    1    2    0    0  0.57245923735E+01  0.24409485026E+02  0.48993625404E+02  0.13657953451E+03  0.12500000000E+03 0.  0.
         25    1    1    2    0    0 -0.96722297759E+00 -0.50053188814E+02 -0.25989224173E+02  0.13713751129E+03  0.12500000000E+03 0.  0.
</event>
<event>
 5    0  0.5474724E-005  0.3078653E+03  0.7546771E-02  0.1081374E+00
         21   -1    0    0  502  501  0.00000000000E+00  0.00000000000E+00  0.79035617175E+03  0.79035617175E+03  0.00000000000E+00 0. -1.
         21   -1    0    0  501  502 -0.00000000000E+00 -0.00000000000E+00 -0.11992195486E+03  0.11992195486E+03  0.00000000000E+00 0. -1.
         25    1    1    2    0    0  0.27041771630E+02  0.29120547438E+02  0.33503159695E+03  0.35979221038E+03  0.12500000000E+03 0.  0.
         25    1    1    2    0    0  0.17665826127E+02 -0.76531980582E+02 -0.37085828162E+02  0.15221558434E+03  0.12500000000E+03 0.  0.
         25    1    1    2    0    0 -0.44707597757E+02  0.47411433144E+02  0.37248844811E+03  0.39827033189E+03  0.12500000000E+03 0.  0.
</event>
<event>
 5    0  0.5474724E-005  0.2693151E+03  0.7546771E-02  0.1101672E+00
         21   -1    0    0  502  501  0.00000000000E+00  0.00000000000E+00  0.51166844059E+02  0.51166844059E+02  0.00000000000E+00 0. -1.
         21   -1    0    0  501  502 -0.00000000000E+00 -0.00000000000E+00 -0.14175311702E+04  0.14175311702E+04  0.00000000000E+00 0. -1.
         25    1    1    2    0    0  0.84192837191E+02  0.11035024087E+03 -0.29998976661E+03  0.35338996811E+03  0.12500000000E+03 0.  0.
         25    1    1    2    0    0 -0.11110262286E+03 -0.87976283552E+02 -0.50702871166E+03  0.54109771180E+03  0.12500000000E+03 0.  0.
         25    1    1    2    0    0  0.26909785669E+02 -0.22373957314E+02 -0.55934584789E+03  0.57421033436E+03  0.12500000000E+03 0.  0.
</event>
<event>
 5    0  0.5474724E-005  0.3558320E+03  0.7546771E-02  0.1060247E+00
         21   -1    0    0  502  501  0.00000000000E+00  0.00000000000E+00  0.60587351573E+03  0.60587351573E+03  0.00000000000E+00 0. -1.
         21   -1    0    0  501  502 -0.00000000000E+00 -0.00000000000E+00 -0.20898154046E+03  0.20898154046E+03  0.00000000000E+00 0. -1.
         25    1    1    2    0    0  0.98076201022E+02  0.12650248978E+03  0.22606170680E+02  0.20434740047E+03  0.12500000000E+03 0.  0.
         25    1    1    2    0    0  0.21966365946E+02 -0.10502333121E+03  0.40130160809E+03  0.43379765097E+03  0.12500000000E+03 0.  0.
         25    1    1    2    0    0 -0.12004256697E+03 -0.21479158565E+02 -0.27015803512E+02  0.17671000474E+03  0.12500000000E+03 0.  0.
</event>
<event>
 5    0  0.5474724E-005  0.5553979E+03  0.7546771E-02  0.1000252E+00
         21   -1    0    0  502  501  0.00000000000E+00  0.00000000000E+00  0.26888504254E+03  0.26888504254E+03  0.00000000000E+00 0. -1.
         21   -1    0    0  501  502 -0.00000000000E+00 -0.00000000000E+00 -0.11472069450E+04  0.11472069450E+04  0.00000000000E+00 0. -1.
         25    1    1    2    0    0  0.31073543664E+02 -0.12406668777E+03  0.11147360637E+03  0.21073555240E+03  0.12500000000E+03 0.  0.
         25    1    1    2    0    0 -0.20117790300E+03  0.87601584019E+02 -0.95562484739E+03  0.98842826504E+03  0.12500000000E+03 0.  0.
         25    1    1    2    0    0  0.17010435934E+03  0.36465103749E+02 -0.34170661395E+02  0.21692817004E+03  0.12500000000E+03 0.  0.
</event>
<event>
 5    0  0.5474724E-005  0.2275199E+03  0.7546771E-02  0.1128398E+00
         21   -1    0    0  502  501  0.00000000000E+00  0.00000000000E+00  0.30042059306E+02  0.30042059306E+02  0.00000000000E+00 0. -1.
         21   -1    0    0  501  502 -0.00000000000E+00 -0.00000000000E+00 -0.17230939188E+04  0.17230939188E+04  0.00000000000E+00 0. -1.
         25    1    1    2    0    0 -0.47891892578E+02 -0.52706085867E+02 -0.67254331907E+03  0.68775801042E+03  0.12500000000E+03 0.  0.
         25    1    1    2    0    0  0.10401892488E+03  0.41851362918E+02 -0.59299837297E+03  0.61631448438E+03  0.12500000000E+03 0.  0.
         25    1    1    2    0    0 -0.56127032307E+02  0.10854722949E+02 -0.42751016743E+03  0.44906348328E+03  0.12500000000E+03 0.  0.
</event>
<event>
 5    0  0.5474724E-005  0.2133144E+03  0.7546771E-02  0.1138968E+00
         21   -1    0    0  502  501  0.00000000000E+00  0.00000000000E+00  0.10144026062E+04  0.10144026062E+04  0.00000000000E+00 0.  1.
         21   -1    0    0  501  502 -0.00000000000E+00 -0.00000000000E+00 -0.44856965166E+02  0.44856965166E+02  0.00000000000E+00 0.  1.
         25    1    1    2    0    0 -0.80761955336E+01  0.86226013251E+01  0.49037630619E+03  0.50619511639E+03  0.12500000000E+03 0.  0.
         25    1    1    2    0    0 -0.15098125327E+02  0.33468759646E+02  0.15599542839E+03  0.20324292100E+03  0.12500000000E+03 0.  0.
         25    1    1    2    0    0  0.23174320861E+02 -0.42091360971E+02  0.32317390651E+03  0.34982153402E+03  0.12500000000E+03 0.  0.
</event>
<event>
 5    0  0.5474724E-005  0.2161957E+03  0.7546771E-02  0.1136752E+00
         21   -1    0    0  502  501  0.00000000000E+00  0.00000000000E+00  0.87069543617E+03  0.87069543617E+03  0.00000000000E+00 0.  1.
         21   -1    0    0  501  502 -0.00000000000E+00 -0.00000000000E+00 -0.53681879246E+02  0.53681879246E+02  0.00000000000E+00 0.  1.
         25    1    1    2    0    0 -0.35782860782E+02 -0.60080204059E+02  0.22377443865E+03  0.26568786845E+03  0.12500000000E+03 0.  0.
         25    1    1    2    0    0  0.51998290065E+01 -0.30306785421E+02  0.25297466060E+03  0.28384277051E+03  0.12500000000E+03 0.  0.
         25    1    1    2    0    0  0.30583031775E+02  0.90386989480E+02  0.34026445767E+03  0.37484667646E+03  0.12500000000E+03 0.  0.
</event>
<event>
 5    0  0.5474724E-005  0.3771324E+03  0.7546771E-02  0.1051999E+00
         21   -1    0    0  502  501  0.00000000000E+00  0.00000000000E+00  0.56779199406E+03  0.56779199406E+03  0.00000000000E+00 0.  1.
         21   -1    0    0  501  502 -0.00000000000E+00 -0.00000000000E+00 -0.25049469515E+03  0.25049469515E+03  0.00000000000E+00 0.  1.
         25    1    1    2    0    0 -0.23547473283E+03 -0.34104300350E+02  0.69012620750E+02  0.27748728787E+03  0.12500000000E+03 0.  0.
         25    1    1    2    0    0 -0.41652443312E+02  0.81629271642E+02  0.15515497139E+03  0.21930875306E+03  0.12500000000E+03 0.  0.
         25    1    1    2    0    0  0.27712717615E+03 -0.47524971293E+02  0.93129706770E+02  0.32149064829E+03  0.12500000000E+03 0.  0.
</event>
<event>
 5    0  0.5474724E-005  0.3007485E+03  0.7546771E-02  0.1084867E+00
         21   -1    0    0  502  501  0.00000000000E+00  0.00000000000E+00  0.49005922522E+03  0.49005922522E+03  0.00000000000E+00 0. -1.
         21   -1    0    0  501  502 -0.00000000000E+00 -0.00000000000E+00 -0.18456878299E+03  0.18456878299E+03  0.00000000000E+00 0. -1.
         25    1    1    2    0    0 -0.38129896903E+02  0.32594214498E+01  0.83131643339E+02  0.15492056994E+03  0.12500000000E+03 0.  0.
         25    1    1    2    0    0 -0.10706168685E+03 -0.81049583591E+02  0.25106179572E+03  0.31094736703E+03  0.12500000000E+03 0.  0.
         25    1    1    2    0    0  0.14519158375E+03  0.77790162141E+02 -0.28702996823E+02  0.20876007124E+03  0.12500000000E+03 0.  0.
</event>
<event>
 5    0  0.5474724E-005  0.2595307E+03  0.7546771E-02  0.1107425E+00
         21   -1    0    0  502  501  0.00000000000E+00  0.00000000000E+00  0.12193292089E+04  0.12193292089E+04  0.00000000000E+00 0. -1.
         21   -1    0    0  501  502 -0.00000000000E+00 -0.00000000000E+00 -0.55240379526E+02  0.55240379526E+02  0.00000000000E+00 0. -1.
         25    1    1    2    0    0  0.40253017319E+02 -0.57852111816E+02  0.73855281187E+03  0.75236455802E+03  0.12500000000E+03 0.  0.
         25    1    1    2    0    0 -0.83817196493E+01  0.10237178157E+03  0.27466148572E+03  0.31876977056E+03  0.12500000000E+03 0.  0.
         25    1    1    2    0    0 -0.31871297670E+02 -0.44519669756E+02  0.15087453183E+03  0.20343525988E+03  0.12500000000E+03 0.  0.
</event>
<event>
 5    0  0.5771356E-005  0.2956037E+03  0.7546771E-02  0.1087459E+00
         21   -1    0    0  502  501  0.00000000000E+00  0.00000000000E+00  0.55034307414E+03  0.55034307414E+03  0.00000000000E+00 0.  1.
         21   -1    0    0  501  502 -0.00000000000E+00 -0.00000000000E+00 -0.15877645118E+03  0.15877645118E+03  0.00000000000E+00 0.  1.
         25    1    1    2    0    0  0.10129288267E+03  0.14715738944E+03  0.23367452804E+03  0.31960026658E+03  0.12500000000E+03 0.  0.
         25    1    1    2    0    0 -0.52872229865E+02 -0.15718039402E+03  0.14744648361E+03  0.25468925082E+03  0.12500000000E+03 0.  0.
         25    1    1    2    0    0 -0.48420652808E+02  0.10023004578E+02  0.10445611317E+02  0.13483000792E+03  0.12500000000E+03 0.  0.
</event>
<event>
 5    0  0.5474724E-005  0.2527881E+03  0.7546771E-02  0.1111555E+00
         21   -1    0    0  502  501  0.00000000000E+00  0.00000000000E+00  0.13180736880E+03  0.13180736880E+03  0.00000000000E+00 0.  1.
         21   -1    0    0  501  502 -0.00000000000E+00 -0.00000000000E+00 -0.48481226667E+03  0.48481226667E+03  0.00000000000E+00 0.  1.
         25    1    1    2    0    0 -0.18301616616E+02  0.12470147512E+02  0.40749847097E+02  0.13332668071E+03  0.12500000000E+03 0.  0.
         25    1    1    2    0    0  0.22634548325E+02  0.52660640678E+02 -0.16786965664E+03  0.21700388816E+03  0.12500000000E+03 0.  0.
         25    1    1    2    0    0 -0.43329317088E+01 -0.65130788190E+02 -0.22588508833E+03  0.26628906661E+03  0.12500000000E+03 0.  0.
</event>
<event>
 5    0  0.5474724E-005  0.2822033E+03  0.7546771E-02  0.1094492E+00
         21   -1    0    0  502  501  0.00000000000E+00  0.00000000000E+00  0.84799861109E+03  0.84799861109E+03  0.00000000000E+00 0.  1.
         21   -1    0    0  501  502 -0.00000000000E+00 -0.00000000000E+00 -0.93913691255E+02  0.93913691255E+02  0.00000000000E+00 0.  1.
         25    1    1    2    0    0  0.14950397077E+03  0.19608637184E+01  0.29656759500E+03  0.35486986441E+03  0.12500000000E+03 0.  0.
         25    1    1    2    0    0 -0.11097563256E+03  0.29199991752E+02  0.82560761374E+02  0.18870482204E+03  0.12500000000E+03 0.  0.
         25    1    1    2    0    0 -0.38528338203E+02 -0.31160855470E+02  0.37495656346E+03  0.39833761590E+03  0.12500000000E+03 0.  0.
</event>
<event>
 5    0  0.5474724E-005  0.2857650E+03  0.7546771E-02  0.1092581E+00
         21   -1    0    0  502  501  0.00000000000E+00  0.00000000000E+00  0.37197228084E+03  0.37197228084E+03  0.00000000000E+00 0. -1.
         21   -1    0    0  501  502 -0.00000000000E+00 -0.00000000000E+00 -0.21953691695E+03  0.21953691695E+03  0.00000000000E+00 0. -1.
         25    1    1    2    0    0 -0.13796385508E+03  0.94611930355E+02  0.13561604936E+03  0.24900232031E+03  0.12500000000E+03 0.  0.
         25    1    1    2    0    0 -0.47494089047E+01 -0.66690335788E+02 -0.30486508026E+02  0.14499856877E+03  0.12500000000E+03 0.  0.
         25    1    1    2    0    0  0.14271326399E+03 -0.27921594567E+02  0.47305822557E+02  0.19750830871E+03  0.12500000000E+03 0.  0.
</event>
<event>
 5    0  0.5474724E-005  0.2798086E+03  0.7546771E-02  0.1095794E+00
         21   -1    0    0  502  501  0.00000000000E+00  0.00000000000E+00  0.23553285798E+03  0.23553285798E+03  0.00000000000E+00 0. -1.
         21   -1    0    0  501  502 -0.00000000000E+00 -0.00000000000E+00 -0.33240727305E+03  0.33240727305E+03  0.00000000000E+00 0. -1.
         25    1    1    2    0    0 -0.43615645053E+02 -0.15259958934E+02 -0.18588024053E+03  0.22871741223E+03  0.12500000000E+03 0.  0.
         25    1    1    2    0    0  0.31980704403E+01 -0.83243163707E+02 -0.44673683140E+01  0.15028176649E+03  0.12500000000E+03 0.  0.
         25    1    1    2    0    0  0.40417574613E+02  0.98503122641E+02  0.93473193765E+02  0.18894095231E+03  0.12500000000E+03 0.  0.
</event>
<event>
 5    0  0.5474724E-005  0.2669462E+03  0.7546771E-02  0.1103040E+00
         21   -1    0    0  502  501  0.00000000000E+00  0.00000000000E+00  0.14467576928E+03  0.14467576928E+03  0.00000000000E+00 0. -1.
         21   -1    0    0  501  502 -0.00000000000E+00 -0.00000000000E+00 -0.49255170500E+03  0.49255170500E+03  0.00000000000E+00 0. -1.
         25    1    1    2    0    0  0.12807902344E+03 -0.10889403673E+03 -0.11458038936E+03  0.23877984233E+03  0.12500000000E+03 0.  0.
         25    1    1    2    0    0 -0.53660423671E+02  0.98716030064E+02 -0.17130113177E+03  0.23998619420E+03  0.12500000000E+03 0.  0.
         25    1    1    2    0    0 -0.74418599766E+02  0.10178006668E+02 -0.61994414594E+02  0.15846143774E+03  0.12500000000E+03 0.  0.
</event>
<event>
 5    0  0.5474724E-005  0.4197415E+03  0.7546771E-02  0.1037150E+00
         21   -1    0    0  502  501  0.00000000000E+00  0.00000000000E+00  0.32146979610E+03  0.32146979610E+03  0.00000000000E+00 0. -1.
         21   -1    0    0  501  502 -0.00000000000E+00 -0.00000000000E+00 -0.54805443371E+03  0.54805443371E+03  0.00000000000E+00 0. -1.
         25    1    1    2    0    0 -0.32053251137E+03  0.13594072662E+03 -0.18246360215E+03  0.41247901535E+03  0.12500000000E+03 0.  0.
         25    1    1    2    0    0  0.22019563556E+03 -0.80520541898E+02 -0.91402288573E+02  0.28097874287E+03  0.12500000000E+03 0.  0.
         25    1    1    2    0    0  0.10033687582E+03 -0.55420184719E+02  0.47281253102E+02  0.17606647159E+03  0.12500000000E+03 0.  0.
</event>
<event>
 5    0  0.5474724E-005  0.3008501E+03  0.7546771E-02  0.1084816E+00
         21   -1    0    0  502  501  0.00000000000E+00  0.00000000000E+00  0.16881275173E+03  0.16881275173E+03  0.00000000000E+00 0.  1.
         21   -1    0    0  501  502 -0.00000000000E+00 -0.00000000000E+00 -0.53616070915E+03  0.53616070915E+03  0.00000000000E+00 0.  1.
         25    1    1    2    0    0 -0.37664579003E+02 -0.17026298525E+03 -0.13223020021E+03  0.25202763837E+03  0.12500000000E+03 0.  0.
         25    1    1    2    0    0 -0.90494789278E+02  0.38424586324E+02 -0.13709055420E+03  0.20996327243E+03  0.12500000000E+03 0.  0.
         25    1    1    2    0    0  0.12815936828E+03  0.13183839892E+03 -0.98027203015E+02  0.24298255007E+03  0.12500000000E+03 0.  0.
</event>
<event>
 5    0  0.5474724E-005  0.3262867E+03  0.7546771E-02  0.1072792E+00
         21   -1    0    0  502  501  0.00000000000E+00  0.00000000000E+00  0.11803502906E+03  0.11803502906E+03  0.00000000000E+00 0. -1.
         21   -1    0    0  501  502 -0.00000000000E+00 -0.00000000000E+00 -0.90196091855E+03  0.90196091855E+03  0.00000000000E+00 0. -1.
         25    1    1    2    0    0 -0.22360536486E+03 -0.39396711031E+01 -0.23636939610E+03  0.34858337829E+03  0.12500000000E+03 0.  0.
         25    1    1    2    0    0  0.15654484739E+03 -0.84644880060E+02 -0.26213794458E+03  0.34060585279E+03  0.12500000000E+03 0.  0.
         25    1    1    2    0    0  0.67060517468E+02  0.88584551163E+02 -0.28541854880E+03  0.33080671654E+03  0.12500000000E+03 0.  0.
</event>
<event>
 5    0  0.5474724E-005  0.4152101E+03  0.7546771E-02  0.1038637E+00
         21   -1    0    0  502  501  0.00000000000E+00  0.00000000000E+00  0.84168754890E+02  0.84168754890E+02  0.00000000000E+00 0.  1.
         21   -1    0    0  501  502 -0.00000000000E+00 -0.00000000000E+00 -0.20482588052E+04  0.20482588052E+04  0.00000000000E+00 0.  1.
         25    1    1    2    0    0 -0.23660002102E+03  0.14456493849E+03 -0.10377024841E+04  0.10813556478E+04  0.12500000000E+03 0.  0.
         25    1    1    2    0    0  0.20953187344E+03  0.62062254651E+02 -0.42681441912E+03  0.49553090500E+03  0.12500000000E+03 0.  0.
         25    1    1    2    0    0  0.27068147575E+02 -0.20662719314E+03 -0.49957314709E+03  0.55554100735E+03  0.12500000000E+03 0.  0.
</event>
<event>
 5    0  0.5474724E-005  0.3143283E+03  0.7546771E-02  0.1078290E+00
         21   -1    0    0  502  501  0.00000000000E+00  0.00000000000E+00  0.38357875244E+03  0.38357875244E+03  0.00000000000E+00 0. -1.
         21   -1    0    0  501  502 -0.00000000000E+00 -0.00000000000E+00 -0.25758012995E+03  0.25758012995E+03  0.00000000000E+00 0. -1.
         25    1    1    2    0    0  0.39569307653E+01 -0.82543170693E+02 -0.77984072035E+02  0.16892468091E+03  0.12500000000E+03 0.  0.
         25    1    1    2    0    0 -0.13475689647E+03  0.11709156010E+03  0.32071283039E+02  0.22028032547E+03  0.12500000000E+03 0.  0.
         25    1    1    2    0    0  0.13079996571E+03 -0.34548389403E+02  0.17191141148E+03  0.25195387601E+03  0.12500000000E+03 0.  0.
</event>
<event>
 5    0  0.5474724E-005  0.4284583E+03  0.7546771E-02  0.1034348E+00
         21   -1    0    0  502  501  0.00000000000E+00  0.00000000000E+00  0.47255847396E+03  0.47255847396E+03  0.00000000000E+00 0.  1.
         21   -1    0    0  501  502 -0.00000000000E+00 -0.00000000000E+00 -0.38847360489E+03  0.38847360489E+03  0.00000000000E+00 0.  1.
         25    1    1    2    0    0 -0.87638511848E+02 -0.11698589975E+02  0.95665121429E+02  0.18053858653E+03  0.12500000000E+03 0.  0.
         25    1    1    2    0    0  0.14729104946E+02 -0.30536302178E+03 -0.28842305022E+02  0.33154245605E+03  0.12500000000E+03 0.  0.
         25    1    1    2    0    0  0.72909406902E+02  0.31706161175E+03  0.17262052666E+02  0.34895103629E+03  0.12500000000E+03 0.  0.
</event>
<event>
 5    0  0.5474724E-005  0.4078876E+03  0.7546771E-02  0.1041082E+00
         21   -1    0    0  502  501  0.00000000000E+00  0.00000000000E+00  0.34793450315E+03  0.34793450315E+03  0.00000000000E+00 0. -1.
         21   -1    0    0  501  502 -0.00000000000E+00 -0.00000000000E+00 -0.47817136354E+03  0.47817136354E+03  0.00000000000E+00 0. -1.
         25    1    1    2    0    0  0.22103455639E+03  0.63580994075E+02  0.11722116137E+03  0.28681809322E+03  0.12500000000E+03 0.  0.
         25    1    1    2    0    0 -0.24743308701E+03 -0.26874623028E+01 -0.28658314905E+02  0.27870531752E+03  0.12500000000E+03 0.  0.
         25    1    1    2    0    0  0.26398530619E+02 -0.60893531772E+02 -0.21879970685E+03  0.26058245595E+03  0.12500000000E+03 0.  0.
</event>
<event>
 5    0  0.5474724E-005  0.3209566E+03  0.7546771E-02  0.1075210E+00
         21   -1    0    0  502  501  0.00000000000E+00  0.00000000000E+00  0.85649909458E+03  0.85649909458E+03  0.00000000000E+00 0.  1.
         21   -1    0    0  501  502 -0.00000000000E+00 -0.00000000000E+00 -0.12027230698E+03  0.12027230698E+03  0.00000000000E+00 0.  1.
         25    1    1    2    0    0 -0.14221506649E+03  0.57057006180E+02  0.26794592852E+03  0.33301748858E+03  0.12500000000E+03 0.  0.
         25    1    1    2    0    0  0.75767286870E+02  0.64354344081E+02  0.23465282370E+02  0.16142423250E+03  0.12500000000E+03 0.  0.
         25    1    1    2    0    0  0.66447779619E+02 -0.12141135026E+03  0.44481557670E+03  0.48232968047E+03  0.12500000000E+03 0.  0.
</event>
<event>
 5    0  0.5474724E-005  0.2273502E+03  0.7546771E-02  0.1128519E+00
         21   -1    0    0  502  501  0.00000000000E+00  0.00000000000E+00  0.25641687027E+02  0.25641687027E+02  0.00000000000E+00 0. -1.
         21   -1    0    0  501  502 -0.00000000000E+00 -0.00000000000E+00 -0.20157841741E+04  0.20157841741E+04  0.00000000000E+00 0. -1.
         25    1    1    2    0    0 -0.34894231655E+01 -0.54691047786E+02 -0.37643504286E+03  0.40041432076E+03  0.12500000000E+03 0.  0.
         25    1    1    2    0    0  0.36225522576E+02  0.86738513882E+02 -0.67322733632E+03  0.69115548515E+03  0.12500000000E+03 0.  0.
         25    1    1    2    0    0 -0.32736099411E+02 -0.32047466096E+02 -0.94048010793E+03  0.94985605526E+03  0.12500000000E+03 0.  0.
</event>
<event>
 5    0  0.5474724E-005  0.2363063E+03  0.7546771E-02  0.1122278E+00
         21   -1    0    0  502  501  0.00000000000E+00  0.00000000000E+00  0.15697313737E+03  0.15697313737E+03  0.00000000000E+00 0.  1.
         21   -1    0    0  501  502 -0.00000000000E+00 -0.00000000000E+00 -0.35573394485E+03  0.35573394485E+03  0.00000000000E+00 0.  1.
         25    1    1    2    0    0 -0.69731733430E+01 -0.34336635379E+02 -0.43045440231E+02  0.13676819660E+03  0.12500000000E+03 0.  0.
         25    1    1    2    0    0 -0.56694345878E+02  0.42520563384E+01  0.30694624342E+02  0.14071065632E+03  0.12500000000E+03 0.  0.
         25    1    1    2    0    0  0.63667519221E+02  0.30084579041E+02 -0.18640999159E+03  0.23522822931E+03  0.12500000000E+03 0.  0.
</event>
<event>
 5    0  0.5474724E-005  0.2646921E+03  0.7546771E-02  0.1104356E+00
         21   -1    0    0  502  501  0.00000000000E+00  0.00000000000E+00  0.12245957028E+04  0.12245957028E+04  0.00000000000E+00 0.  1.
         21   -1    0    0  501  502 -0.00000000000E+00 -0.00000000000E+00 -0.57212290852E+02  0.57212290852E+02  0.00000000000E+00 0.  1.
         25    1    1    2    0    0  0.22410662281E+02 -0.92937383546E+02  0.31588948927E+03  0.35291750378E+03  0.12500000000E+03 0.  0.
         25    1    1    2    0    0 -0.16038995548E+02 -0.14033806216E+02  0.67781139622E+03  0.68957050832E+03  0.12500000000E+03 0.  0.
         25    1    1    2    0    0 -0.63716667329E+01  0.10697118976E+03  0.17368252648E+03  0.23931998157E+03  0.12500000000E+03 0.  0.
</event>
<event>
 5    0  0.5474724E-005  0.2497537E+03  0.7546771E-02  0.1113461E+00
         21   -1    0    0  502  501  0.00000000000E+00  0.00000000000E+00  0.20217734237E+04  0.20217734237E+04  0.00000000000E+00 0.  1.
         21   -1    0    0  501  502 -0.00000000000E+00 -0.00000000000E+00 -0.30852583856E+02  0.30852583856E+02  0.00000000000E+00 0.  1.
         25    1    1    2    0    0 -0.93193434199E+02  0.78687734198E+02  0.87160658983E+03  0.88893184392E+03  0.12500000000E+03 0.  0.
         25    1    1    2    0    0  0.10202885452E+03 -0.72313484094E+02  0.82524666444E+03  0.84397641217E+03  0.12500000000E+03 0.  0.
         25    1    1    2    0    0 -0.88354203165E+01 -0.63742501041E+01  0.29406758553E+03  0.31971775142E+03  0.12500000000E+03 0.  0.
</event>
<event>
 5    0  0.5474724E-005  0.2720975E+03  0.7546771E-02  0.1100085E+00
         21   -1    0    0  502  501  0.00000000000E+00  0.00000000000E+00  0.33456941550E+03  0.33456941550E+03  0.00000000000E+00 0.  1.
         21   -1    0    0  501  502 -0.00000000000E+00 -0.00000000000E+00 -0.22129048747E+03  0.22129048747E+03  0.00000000000E+00 0.  1.
         25    1    1    2    0    0 -0.79840427126E+02  0.57974307139E+02  0.17398096585E+03  0.23585989606E+03  0.12500000000E+03 0.  0.
         25    1    1    2    0    0  0.47371562545E+02 -0.10016400835E+03  0.90356560232E+01  0.16728280422E+03  0.12500000000E+03 0.  0.
         25    1    1    2    0    0  0.32468864580E+02  0.42189701213E+02 -0.69737693841E+02  0.15271720269E+03  0.12500000000E+03 0.  0.
</event>
<event>
 5    0  0.5474724E-005  0.3972423E+03  0.7546771E-02  0.1044739E+00
         21   -1    0    0  502  501  0.00000000000E+00  0.00000000000E+00  0.10835967782E+04  0.10835967782E+04  0.00000000000E+00 0. -1.
         21   -1    0    0  501  502 -0.00000000000E+00 -0.00000000000E+00 -0.14562748749E+03  0.14562748749E+03  0.00000000000E+00 0. -1.
         25    1    1    2    0    0 -0.10790794161E+03 -0.23940049326E+02  0.50769391290E+03  0.53441122650E+03  0.12500000000E+03 0.  0.
         25    1    1    2    0    0 -0.10186031946E+03 -0.15552522032E+02  0.41669897633E+03  0.44707990616E+03  0.12500000000E+03 0.  0.
         25    1    1    2    0    0  0.20976826106E+03  0.39492571357E+02  0.13576401532E+02  0.24773313307E+03  0.12500000000E+03 0.  0.
</event>
<event>
 5    0  0.5474724E-005  0.2470470E+03  0.7546771E-02  0.1115185E+00
         21   -1    0    0  502  501  0.00000000000E+00  0.00000000000E+00  0.77706924789E+02  0.77706924789E+02  0.00000000000E+00 0. -1.
         21   -1    0    0  501  502 -0.00000000000E+00 -0.00000000000E+00 -0.78541551964E+03  0.78541551964E+03  0.00000000000E+00 0. -1.
         25    1    1    2    0    0 -0.42093222035E+02 -0.40035483853E+02 -0.28257409012E+03  0.31440069293E+03  0.12500000000E+03 0.  0.
         25    1    1    2    0    0  0.71145813368E+02  0.12114416379E+03 -0.17955108666E+03  0.26000236133E+03  0.12500000000E+03 0.  0.
         25    1    1    2    0    0 -0.29052591333E+02 -0.81108679933E+02 -0.24558341807E+03  0.28871939016E+03  0.12500000000E+03 0.  0.
</event>
<event>
 5    0  0.5474724E-005  0.2419185E+03  0.7546771E-02  0.1118521E+00
         21   -1    0    0  502  501  0.00000000000E+00  0.00000000000E+00  0.72542626078E+03  0.72542626078E+03  0.00000000000E+00 0. -1.
         21   -1    0    0  501  502 -0.00000000000E+00 -0.00000000000E+00 -0.80676088229E+02  0.80676088229E+02  0.00000000000E+00 0. -1.
         25    1    1    2    0    0 -0.54967028293E+02 -0.40216239290E+01  0.11114775602E+03  0.17611465393E+03  0.12500000000E+03 0.  0.
         25    1    1    2    0    0 -0.34937893670E+02  0.97947420807E+01  0.41676431704E+03  0.43661663887E+03  0.12500000000E+03 0.  0.
         25    1    1    2    0    0  0.89904921963E+02 -0.57731181517E+01  0.11683809949E+03  0.19337105621E+03  0.12500000000E+03 0.  0.
</event>
<event>
 5    0  0.5474724E-005  0.2520207E+03  0.7546771E-02  0.1112034E+00
         21   -1    0    0  502  501  0.00000000000E+00  0.00000000000E+00  0.18705991812E+03  0.18705991812E+03  0.00000000000E+00 0.  1.
         21   -1    0    0  501  502 -0.00000000000E+00 -0.00000000000E+00 -0.33954057674E+03  0.33954057674E+03  0.00000000000E+00 0.  1.
         25    1    1    2    0    0  0.38386630393E+02 -0.55380406595E+02 -0.95568149430E+02  0.17116890492E+03  0.12500000000E+03 0.  0.
         25    1    1    2    0    0  0.13123079062E+02  0.13838613553E+03 -0.61266323405E+02  0.19672696839E+03  0.12500000000E+03 0.  0.
         25    1    1    2    0    0 -0.51509709455E+02 -0.83005728930E+02  0.43538142138E+01  0.15870462155E+03  0.12500000000E+03 0.  0.
</event>
<event>
 5    0  0.5474724E-005  0.3061799E+03  0.7546771E-02  0.1082192E+00
         21   -1    0    0  502  501  0.00000000000E+00  0.00000000000E+00  0.81883608525E+03  0.81883608525E+03  0.00000000000E+00 0.  1.
         21   -1    0    0  501  502 -0.00000000000E+00 -0.00000000000E+00 -0.11448705566E+03  0.11448705566E+03  0.00000000000E+00 0.  1.
         25    1    1    2    0    0 -0.61044134659E+02  0.98713846883E+02  0.23893599280E+03  0.29357489436E+03  0.12500000000E+03 0.  0.
         25    1    1    2    0    0 -0.13210334576E+03 -0.60304614598E+02  0.13132394086E+03  0.23229058945E+03  0.12500000000E+03 0.  0.
         25    1    1    2    0    0  0.19314748042E+03 -0.38409232285E+02  0.33408909593E+03  0.40745765711E+03  0.12500000000E+03 0.  0.
</event>
<event>
 5    0  0.5474724E-005  0.6623781E+03  0.7546771E-02  0.9783826E-01
         21   -1    0    0  502  501  0.00000000000E+00  0.00000000000E+00  0.82266741337E+03  0.82266741337E+03  0.00000000000E+00 0. -1.
         21   -1    0    0  501  502 -0.00000000000E+00 -0.00000000000E+00 -0.53331970071E+03  0.53331970071E+03  0.00000000000E+00 0. -1.
         25    1    1    2    0    0  0.33281742339E+03  0.10191067468E+03  0.33008693666E+03  0.49571726688E+03  0.12500000000E+03 0.  0.
         25    1    1    2    0    0 -0.19954657836E+03 -0.23656169870E+03 -0.34542367928E+03  0.48033612444E+03  0.12500000000E+03 0.  0.
         25    1    1    2    0    0 -0.13327084503E+03  0.13465102402E+03  0.30468445528E+03  0.37993372277E+03  0.12500000000E+03 0.  0.
</event>
<event>
 5    0  0.5474724E-005  0.3608881E+03  0.7546771E-02  0.1058233E+00
         21   -1    0    0  502  501  0.00000000000E+00  0.00000000000E+00  0.12619696969E+03  0.12619696969E+03  0.00000000000E+00 0. -1.
         21   -1    0    0  501  502 -0.00000000000E+00 -0.00000000000E+00 -0.10320390971E+04  0.10320390971E+04  0.00000000000E+00 0. -1.
         25    1    1    2    0    0  0.20421084492E+03 -0.47406261212E+02 -0.26866654807E+03  0.36298228171E+03  0.12500000000E+03 0.  0.
         25    1    1    2    0    0 -0.29071576033E+03  0.35996268333E+02 -0.48206084761E+03  0.57777075509E+03  0.12500000000E+03 0.  0.
         25    1    1    2    0    0  0.86504915418E+02  0.11409992879E+02 -0.15511473169E+03  0.21748302995E+03  0.12500000000E+03 0.  0.
</event>
<event>
 5    0  0.5474724E-005  0.2311503E+03  0.7546771E-02  0.1125833E+00
         21   -1    0    0  502  501  0.00000000000E+00  0.00000000000E+00  0.36720416468E+03  0.36720416468E+03  0.00000000000E+00 0.  1.
         21   -1    0    0  501  502 -0.00000000000E+00 -0.00000000000E+00 -0.14550617042E+03  0.14550617042E+03  0.00000000000E+00 0.  1.
         25    1    1    2    0    0  0.10034145946E+03  0.30443397316E+02  0.26156912265E+02  0.16524040966E+03  0.12500000000E+03 0.  0.
         25    1    1    2    0    0 -0.40508790451E+02 -0.29311843317E+02  0.42896087255E+02  0.14129833886E+03  0.12500000000E+03 0.  0.
         25    1    1    2    0    0 -0.59832669008E+02 -0.11315539995E+01  0.15264499474E+03  0.20617158658E+03  0.12500000000E+03 0.  0.
</event>
<event>
 5    0  0.5474724E-005  0.2606686E+03  0.7546771E-02  0.1106742E+00
         21   -1    0    0  502  501  0.00000000000E+00  0.00000000000E+00  0.43801648813E+02  0.43801648813E+02  0.00000000000E+00 0. -1.
         21   -1    0    0  501  502 -0.00000000000E+00 -0.00000000000E+00 -0.15512688234E+04  0.15512688234E+04  0.00000000000E+00 0. -1.
         25    1    1    2    0    0  0.64488121222E+02 -0.26277122710E+01 -0.22608571300E+03  0.26628062692E+03  0.12500000000E+03 0.  0.
         25    1    1    2    0    0 -0.14640077631E+03 -0.30645040416E+02 -0.62015587938E+03  0.65006970437E+03  0.12500000000E+03 0.  0.
         25    1    1    2    0    0  0.81912655084E+02  0.33272752687E+02 -0.66122558219E+03  0.67872014091E+03  0.12500000000E+03 0.  0.
</event>
<event>
 5    0  0.5474724E-005  0.3147146E+03  0.7546771E-02  0.1078108E+00
         21   -1    0    0  502  501  0.00000000000E+00  0.00000000000E+00  0.50765928686E+03  0.50765928686E+03  0.00000000000E+00 0.  1.
         21   -1    0    0  501  502 -0.00000000000E+00 -0.00000000000E+00 -0.19510183375E+03  0.19510183375E+03  0.00000000000E+00 0.  1.
         25    1    1    2    0    0  0.68094286708E+02 -0.18792839348E+03  0.21410593656E+03  0.31846548483E+03  0.12500000000E+03 0.  0.
         25    1    1    2    0    0 -0.98435373008E+02  0.31717674357E+02  0.80602348357E+02  0.18115538106E+03  0.12500000000E+03 0.  0.
         25    1    1    2    0    0  0.30341086300E+02  0.15621071912E+03  0.17849168194E+02  0.20314025473E+03  0.12500000000E+03 0.  0.
</event>
<event>
 5    0  0.5474724E-005  0.2429185E+03  0.7546771E-02  0.1117864E+00
         21   -1    0    0  502  501  0.00000000000E+00  0.00000000000E+00  0.35467580752E+02  0.35467580752E+02  0.00000000000E+00 0.  1.
         21   -1    0    0  501  502 -0.00000000000E+00 -0.00000000000E+00 -0.16637563023E+04  0.16637563023E+04  0.00000000000E+00 0.  1.
         25    1    1    2    0    0 -0.63122840669E+01  0.71724519571E+02 -0.26880947219E+03  0.30507012960E+03  0.12500000000E+03 0.  0.
         25    1    1    2    0    0 -0.37993031534E+02 -0.69268963250E+02 -0.41818626532E+03  0.44356105805E+03  0.12500000000E+03 0.  0.
         25    1    1    2    0    0  0.44305315601E+02 -0.24555563209E+01 -0.94129298408E+03  0.95059269544E+03  0.12500000000E+03 0.  0.
</event>
<event>
 5    0  0.5474724E-005  0.3001863E+03  0.7546771E-02  0.1085147E+00
         21   -1    0    0  502  501  0.00000000000E+00  0.00000000000E+00  0.17382703509E+03  0.17382703509E+03  0.00000000000E+00 0.  1.
         21   -1    0    0  501  502 -0.00000000000E+00 -0.00000000000E+00 -0.51839943999E+03  0.51839943999E+03  0.00000000000E+00 0.  1.
         25    1    1    2    0    0  0.31155606469E+02  0.68066176932E+01 -0.39958276851E+03  0.41989092720E+03  0.12500000000E+03 0.  0.
         25    1    1    2    0    0  0.43636403575E+01  0.35358786591E+02  0.22644593692E+02  0.13193582823E+03  0.12500000000E+03 0.  0.
         25    1    1    2    0    0 -0.35519246826E+02 -0.42165404284E+02  0.32365769915E+02  0.14039971964E+03  0.12500000000E+03 0.  0.
</event>
<event>
 5    0  0.5474724E-005  0.3766884E+03  0.7546771E-02  0.1052165E+00
         21   -1    0    0  502  501  0.00000000000E+00  0.00000000000E+00  0.39480710965E+03  0.39480710965E+03  0.00000000000E+00 0.  1.
         21   -1    0    0  501  502 -0.00000000000E+00 -0.00000000000E+00 -0.35940120170E+03  0.35940120170E+03  0.00000000000E+00 0.  1.
         25    1    1    2    0    0 -0.31857984238E+01  0.18487258611E+03 -0.11420420805E+03  0.25071023821E+03  0.12500000000E+03 0.  0.
         25    1    1    2    0    0 -0.15164438413E+03 -0.55620155870E+02  0.16945518437E+03  0.26538590861E+03  0.12500000000E+03 0.  0.
         25    1    1    2    0    0  0.15483018255E+03 -0.12925243024E+03 -0.19845068377E+02  0.23811216452E+03  0.12500000000E+03 0.  0.
</event>
<event>
 5    0  0.5474724E-005  0.3398891E+03  0.7546771E-02  0.1066843E+00
         21   -1    0    0  502  501  0.00000000000E+00  0.00000000000E+00  0.66759698497E+02  0.66759698497E+02  0.00000000000E+00 0.  1.
         21   -1    0    0  501  502 -0.00000000000E+00 -0.00000000000E+00 -0.17304541694E+04  0.17304541694E+04  0.00000000000E+00 0.  1.
         25    1    1    2    0    0 -0.11699294463E+03  0.17565332077E+03 -0.27560404072E+03  0.36894989559E+03  0.12500000000E+03 0.  0.
         25    1    1    2    0    0  0.51069428097E+02 -0.58251546508E+02 -0.49082253284E+03  0.51237982777E+03  0.12500000000E+03 0.  0.
         25    1    1    2    0    0  0.65923516528E+02 -0.11740177427E+03 -0.89726789738E+03  0.91588414458E+03  0.12500000000E+03 0.  0.
</event>
<event>
 5    0  0.5474724E-005  0.2250022E+03  0.7546771E-02  0.1130208E+00
         21   -1    0    0  502  501  0.00000000000E+00  0.00000000000E+00  0.25824339861E+03  0.25824339861E+03  0.00000000000E+00 0.  1.
         21   -1    0    0  501  502 -0.00000000000E+00 -0.00000000000E+00 -0.19603974579E+03  0.19603974579E+03  0.00000000000E+00 0.  1.
         25    1    1    2    0    0  0.15598199988E+02 -0.33326845306E+01 -0.11092665174E+02  0.12650082154E+03  0.12500000000E+03 0.  0.
         25    1    1    2    0    0 -0.89248823350E+02  0.57498739827E+02  0.27532578294E+02  0.16629642335E+03  0.12500000000E+03 0.  0.
         25    1    1    2    0    0  0.73650623362E+02 -0.54166055297E+02  0.45763739701E+02  0.16148589951E+03  0.12500000000E+03 0.  0.
</event>
<event>
 5    0  0.5474724E-005  0.4046963E+03  0.7546771E-02  0.1042166E+00
         21   -1    0    0  502  501  0.00000000000E+00  0.00000000000E+00  0.99103458801E+02  0.99103458801E+02  0.00000000000E+00 0.  1.
         21   -1    0    0  501  502 -0.00000000000E+00 -0.00000000000E+00 -0.16526074550E+04  0.16526074550E+04  0.00000000000E+00 0.  1.
         25    1    1    2    0    0  0.95498934019E+01  0.25605616321E+03 -0.33005540580E+03  0.43613934709E+03  0.12500000000E+03 0.  0.
         25    1    1    2    0    0 -0.31441183963E+02  0.21600309231E+02 -0.67819463878E+03  0.69067220118E+03  0.12500000000E+03 0.  0.
         25    1    1    2    0    0  0.21891290561E+02 -0.27765647244E+03 -0.54525395164E+03  0.62489936556E+03  0.12500000000E+03 0.  0.
</event>
<event>
 5    0  0.5474724E-005  0.4044158E+03  0.7546771E-02  0.1042261E+00
         21   -1    0    0  502  501  0.00000000000E+00  0.00000000000E+00  0.11657121961E+03  0.11657121961E+03  0.00000000000E+00 0.  1.
         21   -1    0    0  501  502 -0.00000000000E+00 -0.00000000000E+00 -0.14030232624E+04  0.14030232624E+04  0.00000000000E+00 0.  1.
         25    1    1    2    0    0 -0.17460860266E+03  0.91136098894E+02 -0.19525632385E+03  0.30421042823E+03  0.12500000000E+03 0.  0.
         25    1    1    2    0    0  0.13332147503E+03 -0.20621939596E+03 -0.95439074154E+03  0.99337190543E+03  0.12500000000E+03 0.  0.
         25    1    1    2    0    0  0.41287127626E+02  0.11508329706E+03 -0.13680497744E+03  0.22201214837E+03  0.12500000000E+03 0.  0.
</event>
<event>
 5    0  0.5474724E-005  0.3931047E+03  0.7546771E-02  0.1046194E+00
         21   -1    0    0  502  501  0.00000000000E+00  0.00000000000E+00  0.50681771764E+03  0.50681771764E+03  0.00000000000E+00 0. -1.
         21   -1    0    0  501  502 -0.00000000000E+00 -0.00000000000E+00 -0.30490512274E+03  0.30490512274E+03  0.00000000000E+00 0. -1.
         25    1    1    2    0    0 -0.98886559419E+02 -0.17146105824E+02 -0.41228866715E+02  0.16552147906E+03  0.12500000000E+03 0.  0.
         25    1    1    2    0    0  0.15648310790E+03 -0.23403906276E+03  0.16436918987E+03  0.34914678365E+03  0.12500000000E+03 0.  0.
         25    1    1    2    0    0 -0.57596548485E+02  0.25118516859E+03  0.78772271751E+02  0.29705457767E+03  0.12500000000E+03 0.  0.
</event>
<event>
 5    0  0.5474724E-005  0.2742536E+03  0.7546771E-02  0.1098870E+00
         21   -1    0    0  502  501  0.00000000000E+00  0.00000000000E+00  0.21102981312E+04  0.21102981312E+04  0.00000000000E+00 0. -1.
         21   -1    0    0  501  502 -0.00000000000E+00 -0.00000000000E+00 -0.35641897723E+02  0.35641897723E+02  0.00000000000E+00 0. -1.
         25    1    1    2    0    0 -0.15384658328E+03 -0.10144210038E+03  0.98771110020E+03  0.10125006115E+04  0.12500000000E+03 0.  0.
         25    1    1    2    0    0  0.55754792791E+02  0.84186536619E+02  0.50531008512E+03  0.53024452095E+03  0.12500000000E+03 0.  0.
         25    1    1    2    0    0  0.98091790493E+02  0.17255563762E+02  0.58163504819E+03  0.60319489647E+03  0.12500000000E+03 0.  0.
</event>
<event>
 5    0  0.5474724E-005  0.2762768E+03  0.7546771E-02  0.1097740E+00
         21   -1    0    0  502  501  0.00000000000E+00  0.00000000000E+00  0.28198138075E+03  0.28198138075E+03  0.00000000000E+00 0. -1.
         21   -1    0    0  501  502 -0.00000000000E+00 -0.00000000000E+00 -0.27068754322E+03  0.27068754322E+03  0.00000000000E+00 0. -1.
         25    1    1    2    0    0  0.72225923977E+02 -0.85336255208E+02 -0.28492933355E+02  0.17010499052E+03  0.12500000000E+03 0.  0.
         25    1    1    2    0    0 -0.16928866051E+03  0.63089861072E+02  0.94462418106E+01  0.21989363936E+03  0.12500000000E+03 0.  0.
         25    1    1    2    0    0  0.97062736533E+02  0.22246394136E+02  0.30340529071E+02  0.16267029409E+03  0.12500000000E+03 0.  0.
</event>
<event>
 5    0  0.5474724E-005  0.4335423E+03  0.7546771E-02  0.1032747E+00
         21   -1    0    0  502  501  0.00000000000E+00  0.00000000000E+00  0.52608180105E+03  0.52608180105E+03  0.00000000000E+00 0.  1.
         21   -1    0    0  501  502 -0.00000000000E+00 -0.00000000000E+00 -0.35728087486E+03  0.35728087486E+03  0.00000000000E+00 0.  1.
         25    1    1    2    0    0  0.11941764198E+03 -0.18449509921E+03  0.20167314742E+03  0.32341316182E+03  0.12500000000E+03 0.  0.
         25    1    1    2    0    0 -0.18472870952E+03 -0.22780160025E+01  0.14495069325E+03  0.26601802374E+03  0.12500000000E+03 0.  0.
         25    1    1    2    0    0  0.65311067543E+02  0.18677311521E+03 -0.17782291448E+03  0.29393149036E+03  0.12500000000E+03 0.  0.
</event>
<event>
 5    0  0.5474724E-005  0.2369753E+03  0.7546771E-02  0.1121824E+00
         21   -1    0    0  502  501  0.00000000000E+00  0.00000000000E+00  0.78687817352E+02  0.78687817352E+02  0.00000000000E+00 0.  1.
         21   -1    0    0  501  502 -0.00000000000E+00 -0.00000000000E+00 -0.71367230841E+03  0.71367230841E+03  0.00000000000E+00 0.  1.
         25    1    1    2    0    0  0.46069563517E+02  0.32431560032E+02 -0.12795056449E+03  0.18753815005E+03  0.12500000000E+03 0.  0.
         25    1    1    2    0    0 -0.72063338135E+02  0.63698075501E+02 -0.33345955651E+03  0.36887781900E+03  0.12500000000E+03 0.  0.
         25    1    1    2    0    0  0.25993774618E+02 -0.96129635532E+02 -0.17357437006E+03  0.23594415671E+03  0.12500000000E+03 0.  0.
</event>
<event>
 5    0  0.5474724E-005  0.2381430E+03  0.7546771E-02  0.1121036E+00
         21   -1    0    0  502  501  0.00000000000E+00  0.00000000000E+00  0.28235428954E+03  0.28235428954E+03  0.00000000000E+00 0.  1.
         21   -1    0    0  501  502 -0.00000000000E+00 -0.00000000000E+00 -0.20085438552E+03  0.20085438552E+03  0.00000000000E+00 0.  1.
         25    1    1    2    0    0  0.70398737742E+02 -0.17092104351E+02  0.18226843353E+02  0.14562053470E+03  0.12500000000E+03 0.  0.
         25    1    1    2    0    0 -0.11162485862E+02  0.89426706708E+02 -0.28207578440E+02  0.15666015589E+03  0.12500000000E+03 0.  0.
         25    1    1    2    0    0 -0.59236251879E+02 -0.72334602357E+02  0.91480639106E+02  0.18092798447E+03  0.12500000000E+03 0.  0.
</event>
<event>
 5    0  0.5474724E-005  0.4798680E+03  0.7546771E-02  0.1019171E+00
         21   -1    0    0  502  501  0.00000000000E+00  0.00000000000E+00  0.18884459663E+03  0.18884459663E+03  0.00000000000E+00 0. -1.
         21   -1    0    0  501  502 -0.00000000000E+00 -0.00000000000E+00 -0.12193800725E+04  0.12193800725E+04  0.00000000000E+00 0. -1.
         25    1    1    2    0    0 -0.24045229375E+02 -0.12971298013E+03 -0.38078083138E+03  0.42192733002E+03  0.12500000000E+03 0.  0.
         25    1    1    2    0    0 -0.63370894108E+02  0.37322179337E+03 -0.55578737965E+03  0.68398464065E+03  0.12500000000E+03 0.  0.
         25    1    1    2    0    0  0.87416123482E+02 -0.24350881324E+03 -0.93967264798E+02  0.30231269841E+03  0.12500000000E+03 0.  0.
</event>
<event>
 5    0  0.5474724E-005  0.2148793E+03  0.7546771E-02  0.1137759E+00
         21   -1    0    0  502  501  0.00000000000E+00  0.00000000000E+00  0.21647301073E+04  0.21647301073E+04  0.00000000000E+00 0. -1.
         21   -1    0    0  501  502 -0.00000000000E+00 -0.00000000000E+00 -0.21329724956E+02  0.21329724956E+02  0.00000000000E+00 0. -1.
         25    1    1    2    0    0 -0.70516186159E+02  0.46190812052E+02  0.10417146897E+04  0.10525685813E+04  0.12500000000E+03 0.  0.
         25    1    1    2    0    0  0.15896002780E+02 -0.22605041710E+02  0.50885690889E+03  0.52471327841E+03  0.12500000000E+03 0.  0.
         25    1    1    2    0    0  0.54620183379E+02 -0.23585770343E+02  0.59282878377E+03  0.60877797255E+03  0.12500000000E+03 0.  0.
</event>
<event>
 5    0  0.5474724E-005  0.3121181E+03  0.7546771E-02  0.1079335E+00
         21   -1    0    0  502  501  0.00000000000E+00  0.00000000000E+00  0.20925075472E+03  0.20925075472E+03  0.00000000000E+00 0.  1.
         21   -1    0    0  501  502 -0.00000000000E+00 -0.00000000000E+00 -0.46555477391E+03  0.46555477391E+03  0.00000000000E+00 0.  1.
         25    1    1    2    0    0 -0.40939329747E+02 -0.20040718617E+03 -0.14533571990E+03  0.28033291007E+03  0.12500000000E+03 0.  0.
         25    1    1    2    0    0  0.25871321324E+02  0.14069333782E+03 -0.15832589258E+03  0.24729745012E+03  0.12500000000E+03 0.  0.
         25    1    1    2    0    0  0.15068008423E+02  0.59713848349E+02  0.47357593298E+02  0.14717516844E+03  0.12500000000E+03 0.  0.
</event>
<event>
 5    0  0.5474724E-005  0.2692356E+03  0.7546771E-02  0.1101718E+00
         21   -1    0    0  502  501  0.00000000000E+00  0.00000000000E+00  0.21996873610E+03  0.21996873610E+03  0.00000000000E+00 0. -1.
         21   -1    0    0  501  502 -0.00000000000E+00 -0.00000000000E+00 -0.32953684920E+03  0.32953684920E+03  0.00000000000E+00 0. -1.
         25    1    1    2    0    0  0.70967988409E+02  0.14967751140E+03 -0.73915775648E+01  0.20765222902E+03  0.12500000000E+03 0.  0.
         25    1    1    2    0    0 -0.39599544226E+02 -0.57682221399E+02 -0.11399430913E+03  0.18307120222E+03  0.12500000000E+03 0.  0.
         25    1    1    2    0    0 -0.31368444182E+02 -0.91995290004E+02  0.11817773603E+02  0.15878215405E+03  0.12500000000E+03 0.  0.
</event>
<event>
 5    0  0.5474724E-005  0.5912246E+03  0.7546771E-02  0.9923781E-01
         21   -1    0    0  502  501  0.00000000000E+00  0.00000000000E+00  0.16843744146E+03  0.16843744146E+03  0.00000000000E+00 0.  1.
         21   -1    0    0  501  502 -0.00000000000E+00 -0.00000000000E+00 -0.20752302340E+04  0.20752302340E+04  0.00000000000E+00 0.  1.
         25    1    1    2    0    0  0.33525050638E+03  0.17226193678E+03 -0.49737323035E+03  0.63645283185E+03  0.12500000000E+03 0.  0.
         25    1    1    2    0    0 -0.18911530690E+03 -0.40763727850E+03 -0.91006887307E+03  0.10226353719E+04  0.12500000000E+03 0.  0.
         25    1    1    2    0    0 -0.14613519949E+03  0.23537534172E+03 -0.49935068910E+03  0.58457947169E+03  0.12500000000E+03 0.  0.
</event>
<event>
 5    0  0.5474724E-005  0.2522456E+03  0.7546771E-02  0.1111894E+00
         21   -1    0    0  502  501  0.00000000000E+00  0.00000000000E+00  0.17886376989E+03  0.17886376989E+03  0.00000000000E+00 0. -1.
         21   -1    0    0  501  502 -0.00000000000E+00 -0.00000000000E+00 -0.35573358661E+03  0.35573358661E+03  0.00000000000E+00 0. -1.
         25    1    1    2    0    0 -0.83934349740E+02 -0.13118819947E+03 -0.40034805572E+02  0.20367401504E+03  0.12500000000E+03 0.  0.
         25    1    1    2    0    0  0.56075039774E+02  0.82247429261E+02 -0.45356071877E+02  0.16610605938E+03  0.12500000000E+03 0.  0.
         25    1    1    2    0    0  0.27859309966E+02  0.48940770212E+02 -0.91478939278E+02  0.16481728208E+03  0.12500000000E+03 0.  0.
</event>
<event>
 5    0  0.5474724E-005  0.2475902E+03  0.7546771E-02  0.1114837E+00
         21   -1    0    0  502  501  0.00000000000E+00  0.00000000000E+00  0.81712201048E+03  0.81712201048E+03  0.00000000000E+00 0.  1.
         21   -1    0    0  501  502 -0.00000000000E+00 -0.00000000000E+00 -0.75020518028E+02  0.75020518028E+02  0.00000000000E+00 0.  1.
         25    1    1    2    0    0 -0.21337906442E+02  0.74082804804E+02  0.17596881938E+03  0.22920208030E+03  0.12500000000E+03 0.  0.
         25    1    1    2    0    0 -0.36034629720E+01  0.58839504115E+02  0.36471526180E+03  0.39002217165E+03  0.12500000000E+03 0.  0.
         25    1    1    2    0    0  0.24941369414E+02 -0.13292230892E+03  0.20141741127E+03  0.27291827656E+03  0.12500000000E+03 0.  0.
</event>
<event>
 5    0  0.5474724E-005  0.3619769E+03  0.7546771E-02  0.1057804E+00
         21   -1    0    0  502  501  0.00000000000E+00  0.00000000000E+00  0.53706066712E+03  0.53706066712E+03  0.00000000000E+00 0. -1.
         21   -1    0    0  501  502 -0.00000000000E+00 -0.00000000000E+00 -0.24397105176E+03  0.24397105176E+03  0.00000000000E+00 0. -1.
         25    1    1    2    0    0  0.12726791968E+03  0.23102954612E+03  0.14118932403E+03  0.32423941738E+03  0.12500000000E+03 0.  0.
         25    1    1    2    0    0 -0.12591202499E+03 -0.21842881721E+03  0.32172782598E+02  0.28324031169E+03  0.12500000000E+03 0.  0.
         25    1    1    2    0    0 -0.13558946937E+01 -0.12600728909E+02  0.11972750873E+03  0.17355198981E+03  0.12500000000E+03 0.  0.
</event>
<event>
 5    0  0.5474724E-005  0.4952269E+03  0.7546771E-02  0.1015032E+00
         21   -1    0    0  502  501  0.00000000000E+00  0.00000000000E+00  0.14088043795E+04  0.14088043795E+04  0.00000000000E+00 0.  1.
         21   -1    0    0  501  502 -0.00000000000E+00 -0.00000000000E+00 -0.17408358544E+03  0.17408358544E+03  0.00000000000E+00 0.  1.
         25    1    1    2    0    0 -0.21253680208E+03  0.28013969136E+03  0.31261981988E+03  0.48683291866E+03  0.12500000000E+03 0.  0.
         25    1    1    2    0    0 -0.94296202614E+01  0.67698303550E+02  0.12368259234E+03  0.18866468056E+03  0.12500000000E+03 0.  0.
         25    1    1    2    0    0  0.22196642234E+03 -0.34783799491E+03  0.79841838187E+03  0.90739036575E+03  0.12500000000E+03 0.  0.
</event>
<event>
 5    0  0.5474724E-005  0.8033708E+03  0.7546771E-02  0.9555151E-01
         21   -1    0    0  502  501  0.00000000000E+00  0.00000000000E+00  0.75669570690E+03  0.75669570690E+03  0.00000000000E+00 0. -1.
         21   -1    0    0  501  502 -0.00000000000E+00 -0.00000000000E+00 -0.85292488979E+03  0.85292488979E+03  0.00000000000E+00 0. -1.
         25    1    1    2    0    0 -0.19549647190E+03  0.28518445238E+03 -0.33769702833E+03  0.49921270552E+03  0.12500000000E+03 0.  0.
         25    1    1    2    0    0 -0.27842692867E+03  0.10620063282E+03 -0.16515845187E+03  0.36290831245E+03  0.12500000000E+03 0.  0.
         25    1    1    2    0    0  0.47392340057E+03 -0.39138508520E+03  0.40662629731E+03  0.74749957872E+03  0.12500000000E+03 0.  0.
</event>
<event>
 5    0  0.5474724E-005  0.3675119E+03  0.7546771E-02  0.1055648E+00
         21   -1    0    0  502  501  0.00000000000E+00  0.00000000000E+00  0.18183701730E+03  0.18183701730E+03  0.00000000000E+00 0.  1.
         21   -1    0    0  501  502 -0.00000000000E+00 -0.00000000000E+00 -0.74278047521E+03  0.74278047521E+03  0.00000000000E+00 0.  1.
         25    1    1    2    0    0  0.48820156153E+02 -0.19511978942E+03 -0.95832520238E+02  0.25546822073E+03  0.12500000000E+03 0.  0.
         25    1    1    2    0    0  0.13406003324E+03  0.35198099767E+02 -0.28921650511E+03  0.34421241344E+03  0.12500000000E+03 0.  0.
         25    1    1    2    0    0 -0.18288018939E+03  0.15992168965E+03 -0.17589443258E+03  0.32493685834E+03  0.12500000000E+03 0.  0.
</event>
<event>
 5    0  0.5474724E-005  0.2997913E+03  0.7546771E-02  0.1085345E+00
         21   -1    0    0  502  501  0.00000000000E+00  0.00000000000E+00  0.14256573780E+03  0.14256573780E+03  0.00000000000E+00 0. -1.
         21   -1    0    0  501  502 -0.00000000000E+00 -0.00000000000E+00 -0.63040961510E+03  0.63040961510E+03  0.00000000000E+00 0. -1.
         25    1    1    2    0    0 -0.86003489372E+02 -0.36725169866E+02 -0.15006839080E+03  0.21654297542E+03  0.12500000000E+03 0.  0.
         25    1    1    2    0    0 -0.73380235395E+02 -0.96982346258E+02 -0.23553045163E+03  0.29306966420E+03  0.12500000000E+03 0.  0.
         25    1    1    2    0    0  0.15938372477E+03  0.13370751612E+03 -0.10224503487E+03  0.26336271328E+03  0.12500000000E+03 0.  0.
</event>
<event>
 5    0  0.5474724E-005  0.4782098E+03  0.7546771E-02  0.1019628E+00
         21   -1    0    0  502  501  0.00000000000E+00  0.00000000000E+00  0.66995274302E+03  0.66995274302E+03  0.00000000000E+00 0. -1.
         21   -1    0    0  501  502 -0.00000000000E+00 -0.00000000000E+00 -0.34134440462E+03  0.34134440462E+03  0.00000000000E+00 0. -1.
         25    1    1    2    0    0 -0.86228798760E+02  0.24631126045E+03  0.37773891440E+03  0.47583225008E+03  0.12500000000E+03 0.  0.
         25    1    1    2    0    0  0.15078470152E+03 -0.13361755678E+03 -0.19229428869E+03  0.30527327292E+03  0.12500000000E+03 0.  0.
         25    1    1    2    0    0 -0.64555902759E+02 -0.11269370367E+03  0.14316371269E+03  0.23019162465E+03  0.12500000000E+03 0.  0.
</event>
<event>
 5    0  0.5474724E-005  0.3664506E+03  0.7546771E-02  0.1056058E+00
         21   -1    0    0  502  501  0.00000000000E+00  0.00000000000E+00  0.15019470396E+03  0.15019470396E+03  0.00000000000E+00 0. -1.
         21   -1    0    0  501  502 -0.00000000000E+00 -0.00000000000E+00 -0.89407985633E+03  0.89407985633E+03  0.00000000000E+00 0. -1.
         25    1    1    2    0    0 -0.23618000000E+03  0.79806549109E+02 -0.44342262624E+03  0.52383079629E+03  0.12500000000E+03 0.  0.
         25    1    1    2    0    0  0.13960529447E+03 -0.14995080364E+03 -0.11237628144E+03  0.26500624594E+03  0.12500000000E+03 0.  0.
         25    1    1    2    0    0  0.96574705528E+02  0.70144254528E+02 -0.18808624470E+03  0.25543751806E+03  0.12500000000E+03 0.  0.
</event>
<event>
 5    0  0.5474724E-005  0.3099444E+03  0.7546771E-02  0.1080373E+00
         21   -1    0    0  502  501  0.00000000000E+00  0.00000000000E+00  0.32282586545E+03  0.32282586545E+03  0.00000000000E+00 0. -1.
         21   -1    0    0  501  502 -0.00000000000E+00 -0.00000000000E+00 -0.29757685168E+03  0.29757685168E+03  0.00000000000E+00 0. -1.
         25    1    1    2    0    0 -0.21930798017E+02 -0.81138969109E+02  0.82082949072E+02  0.17154329698E+03  0.12500000000E+03 0.  0.
         25    1    1    2    0    0  0.57010551386E+02 -0.12839905892E+03 -0.73261262910E+02  0.20181361189E+03  0.12500000000E+03 0.  0.
         25    1    1    2    0    0 -0.35079753369E+02  0.20953802803E+03  0.16427327610E+02  0.24704580826E+03  0.12500000000E+03 0.  0.
</event>
<event>
 5    0  0.5474724E-005  0.3727962E+03  0.7546771E-02  0.1053629E+00
         21   -1    0    0  502  501  0.00000000000E+00  0.00000000000E+00  0.11234945464E+04  0.11234945464E+04  0.00000000000E+00 0. -1.
         21   -1    0    0  501  502 -0.00000000000E+00 -0.00000000000E+00 -0.12370066053E+03  0.12370066053E+03  0.00000000000E+00 0. -1.
         25    1    1    2    0    0 -0.96024830423E+02  0.33196822312E+02  0.14322363816E+02  0.16171866675E+03  0.12500000000E+03 0.  0.
         25    1    1    2    0    0 -0.21094100165E+02 -0.23371230001E+02  0.56412631205E+02  0.14070735735E+03  0.12500000000E+03 0.  0.
         25    1    1    2    0    0  0.11711893059E+03 -0.98255923106E+01  0.92905889085E+03  0.94476918283E+03  0.12500000000E+03 0.  0.
</event>
<event>
 5    0  0.5474724E-005  0.5138086E+03  0.7546771E-02  0.1010236E+00
         21   -1    0    0  502  501  0.00000000000E+00  0.00000000000E+00  0.17442877052E+04  0.17442877052E+04  0.00000000000E+00 0.  1.
         21   -1    0    0  501  502 -0.00000000000E+00 -0.00000000000E+00 -0.15135078407E+03  0.15135078407E+03  0.00000000000E+00 0.  1.
         25    1    1    2    0    0  0.24786014793E+03  0.25601614701E+03  0.78736485570E+03  0.87323956418E+03  0.12500000000E+03 0.  0.
         25    1    1    2    0    0  0.18619544196E+02 -0.19915481688E+02  0.55474035842E+03  0.56930236175E+03  0.12500000000E+03 0.  0.
         25    1    1    2    0    0 -0.26647969212E+03 -0.23610066532E+03  0.25083170705E+03  0.45309656338E+03  0.12500000000E+03 0.  0.
</event>
<event>
 5    0  0.5474724E-005  0.5218595E+03  0.7546771E-02  0.1008226E+00
         21   -1    0    0  502  501  0.00000000000E+00  0.00000000000E+00  0.32007353974E+03  0.32007353974E+03  0.00000000000E+00 0.  1.
         21   -1    0    0  501  502 -0.00000000000E+00 -0.00000000000E+00 -0.85085865962E+03  0.85085865962E+03  0.00000000000E+00 0.  1.
         25    1    1    2    0    0  0.18380066674E+03  0.31386954887E+02  0.74806652609E+02  0.23661965536E+03  0.12500000000E+03 0.  0.
         25    1    1    2    0    0  0.20860564664E+03 -0.35330524172E+02 -0.64051641946E+02  0.25395309524E+03  0.12500000000E+03 0.  0.
         25    1    1    2    0    0 -0.39240631337E+03  0.39435692856E+01 -0.54154013054E+03  0.68035944875E+03  0.12500000000E+03 0.  0.
</event>
<event>
 5    0  0.5474724E-005  0.2743266E+03  0.7546771E-02  0.1098829E+00
         21   -1    0    0  502  501  0.00000000000E+00  0.00000000000E+00  0.40925491292E+02  0.40925491292E+02  0.00000000000E+00 0.  1.
         21   -1    0    0  501  502 -0.00000000000E+00 -0.00000000000E+00 -0.18388319455E+04  0.18388319455E+04  0.00000000000E+00 0.  1.
         25    1    1    2    0    0 -0.77753866478E+02 -0.15392212611E+03 -0.92486287622E+03  0.94907008407E+03  0.12500000000E+03 0.  0.
         25    1    1    2    0    0  0.28165358423E+02  0.94924355377E+02 -0.30749408891E+03  0.34638350910E+03  0.12500000000E+03 0.  0.
         25    1    1    2    0    0  0.49588508055E+02  0.58997770737E+02 -0.56554948903E+03  0.58430384358E+03  0.12500000000E+03 0.  0.
</event>
<event>
 5    0  0.5474724E-005  0.2955365E+03  0.7546771E-02  0.1087493E+00
         21   -1    0    0  502  501  0.00000000000E+00  0.00000000000E+00  0.51407481934E+03  0.51407481934E+03  0.00000000000E+00 0.  1.
         21   -1    0    0  501  502 -0.00000000000E+00 -0.00000000000E+00 -0.16990099528E+03  0.16990099528E+03  0.00000000000E+00 0.  1.
         25    1    1    2    0    0  0.99671853537E+02 -0.12343384207E+03  0.15074176520E+03  0.25202871172E+03  0.12500000000E+03 0.  0.
         25    1    1    2    0    0  0.30885862939E+01 -0.53124278934E+02  0.12049618542E+03  0.18159311407E+03  0.12500000000E+03 0.  0.
         25    1    1    2    0    0 -0.10276043983E+03  0.17655812101E+03  0.72935873433E+02  0.25035398883E+03  0.12500000000E+03 0.  0.
</event>
<event>
 5    0  0.5474724E-005  0.3056697E+03  0.7546771E-02  0.1082440E+00
         21   -1    0    0  502  501  0.00000000000E+00  0.00000000000E+00  0.20346091883E+03  0.20346091883E+03  0.00000000000E+00 0. -1.
         21   -1    0    0  501  502 -0.00000000000E+00 -0.00000000000E+00 -0.45922308815E+03  0.45922308815E+03  0.00000000000E+00 0. -1.
         25    1    1    2    0    0  0.16261180673E+03 -0.30743805938E+02  0.44543052723E+02  0.21212464457E+03  0.12500000000E+03 0.  0.
         25    1    1    2    0    0 -0.65914862541E+02 -0.51944398468E+01 -0.23816876043E+03  0.27698575731E+03  0.12500000000E+03 0.  0.
         25    1    1    2    0    0 -0.96696944185E+02  0.35938245785E+02 -0.62136461615E+02  0.17357360510E+03  0.12500000000E+03 0.  0.
</event>
<event>
 5    0  0.5474724E-005  0.2751174E+03  0.7546771E-02  0.1098386E+00
         21   -1    0    0  502  501  0.00000000000E+00  0.00000000000E+00  0.80965947509E+02  0.80965947509E+02  0.00000000000E+00 0. -1.
         21   -1    0    0  501  502 -0.00000000000E+00 -0.00000000000E+00 -0.93483202816E+03  0.93483202816E+03  0.00000000000E+00 0. -1.
         25    1    1    2    0    0  0.44530009067E+02 -0.12833078784E+03 -0.60292168819E+03  0.63054839220E+03  0.12500000000E+03 0.  0.
         25    1    1    2    0    0 -0.37051407920E+02  0.34048276150E+02 -0.10175247792E+03  0.16885099556E+03  0.12500000000E+03 0.  0.
         25    1    1    2    0    0 -0.74786011475E+01  0.94282511690E+02 -0.14919191454E+03  0.21639858791E+03  0.12500000000E+03 0.  0.
</event>
<event>
 5    0  0.5474724E-005  0.4540120E+03  0.7546771E-02  0.1026532E+00
         21   -1    0    0  502  501  0.00000000000E+00  0.00000000000E+00  0.11077542763E+04  0.11077542763E+04  0.00000000000E+00 0.  1.
         21   -1    0    0  501  502 -0.00000000000E+00 -0.00000000000E+00 -0.18607636208E+03  0.18607636208E+03  0.00000000000E+00 0.  1.
         25    1    1    2    0    0 -0.24268738078E+03 -0.49388598095E+02  0.27402868996E+03  0.38993989451E+03  0.12500000000E+03 0.  0.
         25    1    1    2    0    0  0.28627732690E+03 -0.15341505841E+03  0.21792314730E+03  0.41061707974E+03  0.12500000000E+03 0.  0.
         25    1    1    2    0    0 -0.43589946121E+02  0.20280365650E+03  0.42972607694E+03  0.49327366410E+03  0.12500000000E+03 0.  0.
</event>
<event>
 5    0  0.5474724E-005  0.3147670E+03  0.7546771E-02  0.1078083E+00
         21   -1    0    0  502  501  0.00000000000E+00  0.00000000000E+00  0.10393542145E+03  0.10393542145E+03  0.00000000000E+00 0.  1.
         21   -1    0    0  501  502 -0.00000000000E+00 -0.00000000000E+00 -0.95326762643E+03  0.95326762643E+03  0.00000000000E+00 0.  1.
         25    1    1    2    0    0 -0.32905961485E+02  0.26466511102E+02 -0.57778481264E+03  0.59265805337E+03  0.12500000000E+03 0.  0.
         25    1    1    2    0    0  0.71848072024E+02  0.11480460424E+03 -0.13230815684E+03  0.22687593741E+03  0.12500000000E+03 0.  0.
         25    1    1    2    0    0 -0.38942110539E+02 -0.14127111534E+03 -0.13923923549E+03  0.23766905710E+03  0.12500000000E+03 0.  0.
</event>
<event>
 5    0  0.5474724E-005  0.3134400E+03  0.7546771E-02  0.1078709E+00
         21   -1    0    0  502  501  0.00000000000E+00  0.00000000000E+00  0.10996584625E+04  0.10996584625E+04  0.00000000000E+00 0. -1.
         21   -1    0    0  501  502 -0.00000000000E+00 -0.00000000000E+00 -0.89341056653E+02  0.89341056653E+02  0.00000000000E+00 0. -1.
         25    1    1    2    0    0  0.10346837157E+02  0.94731156233E+02  0.60972694643E+03  0.62966101848E+03  0.12500000000E+03 0.  0.
         25    1    1    2    0    0  0.50307365219E+02 -0.25135543415E+02  0.37828393162E+03  0.40235104008E+03  0.12500000000E+03 0.  0.
         25    1    1    2    0    0 -0.60654202377E+02 -0.69595612819E+02  0.22306527773E+02  0.15698746055E+03  0.12500000000E+03 0.  0.
</event>
<event>
 5    0  0.5474724E-005  0.2985446E+03  0.7546771E-02  0.1085970E+00
         21   -1    0    0  502  501  0.00000000000E+00  0.00000000000E+00  0.14873651885E+03  0.14873651885E+03  0.00000000000E+00 0. -1.
         21   -1    0    0  501  502 -0.00000000000E+00 -0.00000000000E+00 -0.59924014892E+03  0.59924014892E+03  0.00000000000E+00 0. -1.
         25    1    1    2    0    0 -0.70774638935E+02  0.71316780486E+02 -0.26064028632E+03  0.30602857963E+03  0.12500000000E+03 0.  0.
         25    1    1    2    0    0 -0.76725870666E+02 -0.13107810755E+03 -0.95316990024E+02  0.21858329784E+03  0.12500000000E+03 0.  0.
         25    1    1    2    0    0  0.14750050960E+03  0.59761327063E+02 -0.94546353715E+02  0.22336479030E+03  0.12500000000E+03 0.  0.
</event>
<event>
 5    0  0.6154789E-005  0.3521996E+03  0.7546771E-02  0.1061716E+00
         21   -1    0    0  502  501  0.00000000000E+00  0.00000000000E+00  0.26550689812E+03  0.26550689812E+03  0.00000000000E+00 0.  1.
         21   -1    0    0  501  502 -0.00000000000E+00 -0.00000000000E+00 -0.46719901867E+03  0.46719901867E+03  0.00000000000E+00 0.  1.
         25    1    1    2    0    0  0.15990330113E+03 -0.14374542863E+03 -0.12981695428E+03  0.28055169859E+03  0.12500000000E+03 0.  0.
         25    1    1    2    0    0 -0.54284615534E+02 -0.40545071912E+02  0.79518873947E+02  0.16290786861E+03  0.12500000000E+03 0.  0.
         25    1    1    2    0    0 -0.10561868559E+03  0.18429050054E+03 -0.15139404022E+03  0.28924634959E+03  0.12500000000E+03 0.  0.
</event>
<event>
 5    0  0.5474724E-005  0.4119090E+03  0.7546771E-02  0.1039732E+00
         21   -1    0    0  502  501  0.00000000000E+00  0.00000000000E+00  0.79864630856E+02  0.79864630856E+02  0.00000000000E+00 0. -1.
         21   -1    0    0  501  502 -0.00000000000E+00 -0.00000000000E+00 -0.21244576409E+04  0.21244576409E+04  0.00000000000E+00 0. -1.
         25    1    1    2    0    0  0.14386654143E+03 -0.15228195301E+03 -0.16810925138E+04  0.16987008020E+04  0.12500000000E+03 0.  0.
         25    1    1    2    0    0 -0.12564968031E+03  0.48276363512E+02 -0.23060003847E+03  0.29482168709E+03  0.12500000000E+03 0.  0.
         25    1    1    2    0    0 -0.18216861125E+02  0.10400558950E+03 -0.13290045781E+03  0.21079978264E+03  0.12500000000E+03 0.  0.
</event>
<event>
 5    0  0.5474724E-005  0.3741020E+03  0.7546771E-02  0.1053135E+00
         21   -1    0    0  502  501  0.00000000000E+00  0.00000000000E+00  0.67018162063E+03  0.67018162063E+03  0.00000000000E+00 0. -1.
         21   -1    0    0  501  502 -0.00000000000E+00 -0.00000000000E+00 -0.20882741220E+03  0.20882741220E+03  0.00000000000E+00 0. -1.
         25    1    1    2    0    0 -0.99355165890E+02 -0.37368578035E+02  0.20401206463E+03  0.26175137465E+03  0.12500000000E+03 0.  0.
         25    1    1    2    0    0 -0.10208029226E+03  0.18676011282E+03  0.15842585186E+02  0.24733724611E+03  0.12500000000E+03 0.  0.
         25    1    1    2    0    0  0.20143545815E+03 -0.14939153478E+03  0.24149955861E+03  0.36992041208E+03  0.12500000000E+03 0.  0.
</event>
<event>
 5    0  0.5474724E-005  0.3087848E+03  0.7546771E-02  0.1080930E+00
         21   -1    0    0  502  501  0.00000000000E+00  0.00000000000E+00  0.66228026371E+03  0.66228026371E+03  0.00000000000E+00 0.  1.
         21   -1    0    0  501  502 -0.00000000000E+00 -0.00000000000E+00 -0.14396932522E+03  0.14396932522E+03  0.00000000000E+00 0.  1.
         25    1    1    2    0    0 -0.12135110036E+03 -0.10428718273E+03  0.10982210194E+03  0.23084150432E+03  0.12500000000E+03 0.  0.
         25    1    1    2    0    0  0.15054673957E+03  0.15669381866E+03  0.33522785684E+03  0.41859286856E+03  0.12500000000E+03 0.  0.
         25    1    1    2    0    0 -0.29195639216E+02 -0.52406635924E+02  0.73260979710E+02  0.15681521605E+03  0.12500000000E+03 0.  0.
</event>
<event>
 5    0  0.5474724E-005  0.3729947E+03  0.7546771E-02  0.1053554E+00
         21   -1    0    0  502  501  0.00000000000E+00  0.00000000000E+00  0.58276042549E+03  0.58276042549E+03  0.00000000000E+00 0.  1.
         21   -1    0    0  501  502 -0.00000000000E+00 -0.00000000000E+00 -0.23873458709E+03  0.23873458709E+03  0.00000000000E+00 0.  1.
         25    1    1    2    0    0  0.49647815255E+02  0.16664279290E+02 -0.16160896464E+02  0.13648728270E+03  0.12500000000E+03 0.  0.
         25    1    1    2    0    0  0.24010960286E+02  0.23773526403E+03  0.26236482370E+03  0.37623780072E+03  0.12500000000E+03 0.  0.
         25    1    1    2    0    0 -0.73658775541E+02 -0.25439954332E+03  0.97821911173E+02  0.30876992917E+03  0.12500000000E+03 0.  0.
</event>
<event>
 5    0  0.5474724E-005  0.2502590E+03  0.7546771E-02  0.1113141E+00
         21   -1    0    0  502  501  0.00000000000E+00  0.00000000000E+00  0.24172966794E+03  0.24172966794E+03  0.00000000000E+00 0.  1.
         21   -1    0    0  501  502 -0.00000000000E+00 -0.00000000000E+00 -0.25908934562E+03  0.25908934562E+03  0.00000000000E+00 0.  1.
         25    1    1    2    0    0  0.44474611824E+02 -0.94185711097E+02 -0.80640014593E+02  0.18159501983E+03  0.12500000000E+03 0.  0.
         25    1    1    2    0    0  0.17225387724E+02 -0.31120808074E+01 -0.23452923691E+02  0.12838005553E+03  0.12500000000E+03 0.  0.
         25    1    1    2    0    0 -0.61699999547E+02  0.97297791905E+02  0.86733260599E+02  0.19084393820E+03  0.12500000000E+03 0.  0.
</event>
<event>
 5    0  0.5474724E-005  0.3172260E+03  0.7546771E-02  0.1076933E+00
         21   -1    0    0  502  501  0.00000000000E+00  0.00000000000E+00  0.18829083422E+03  0.18829083422E+03  0.00000000000E+00 0. -1.
         21   -1    0    0  501  502 -0.00000000000E+00 -0.00000000000E+00 -0.53445142226E+03  0.53445142226E+03  0.00000000000E+00 0. -1.
         25    1    1    2    0    0  0.17685932256E+03 -0.13741774740E+03 -0.20960536610E+03  0.33124351582E+03  0.12500000000E+03 0.  0.
         25    1    1    2    0    0 -0.69801511757E+02  0.13643252007E+03 -0.10502776129E+03  0.22392390274E+03  0.12500000000E+03 0.  0.
         25    1    1    2    0    0 -0.10705781080E+03  0.98522733382E+00 -0.31527460646E+02  0.16757483791E+03  0.12500000000E+03 0.  0.
</event>
<event>
 5    0  0.5474724E-005  0.3784056E+03  0.7546771E-02  0.1051525E+00
         21   -1    0    0  502  501  0.00000000000E+00  0.00000000000E+00  0.20675194802E+03  0.20675194802E+03  0.00000000000E+00 0.  1.
         21   -1    0    0  501  502 -0.00000000000E+00 -0.00000000000E+00 -0.69257279458E+03  0.69257279458E+03  0.00000000000E+00 0.  1.
         25    1    1    2    0    0  0.16922546541E+03 -0.77426216352E+02 -0.13126278169E+03  0.25978259175E+03  0.12500000000E+03 0.  0.
         25    1    1    2    0    0 -0.26784491813E+03 -0.67538270747E+01 -0.71718834799E+02  0.30422870609E+03  0.12500000000E+03 0.  0.
         25    1    1    2    0    0  0.98619452719E+02  0.84180043427E+02 -0.28283923007E+03  0.33531344475E+03  0.12500000000E+03 0.  0.
</event>
<event>
 5    0  0.5474724E-005  0.2721235E+03  0.7546771E-02  0.1100070E+00
         21   -1    0    0  502  501  0.00000000000E+00  0.00000000000E+00  0.40368816666E+03  0.40368816666E+03  0.00000000000E+00 0.  1.
         21   -1    0    0  501  502 -0.00000000000E+00 -0.00000000000E+00 -0.18343663616E+03  0.18343663616E+03  0.00000000000E+00 0.  1.
         25    1    1    2    0    0 -0.28695486606E+02 -0.14607868241E+02  0.11890844661E+03  0.17550224911E+03  0.12500000000E+03 0.  0.
         25    1    1    2    0    0 -0.10808814066E+03  0.88404824741E+02  0.99445592219E+02  0.21216240242E+03  0.12500000000E+03 0.  0.
         25    1    1    2    0    0  0.13678362727E+03 -0.73796956500E+02  0.18974916719E+01  0.19946015129E+03  0.12500000000E+03 0.  0.
</event>
<event>
 5    0  0.5474724E-005  0.2409251E+03  0.7546771E-02  0.1119178E+00
         21   -1    0    0  502  501  0.00000000000E+00  0.00000000000E+00  0.18319049344E+04  0.18319049344E+04  0.00000000000E+00 0. -1.
         21   -1    0    0  501  502 -0.00000000000E+00 -0.00000000000E+00 -0.31685543450E+02  0.31685543450E+02  0.00000000000E+00 0. -1.
         25    1    1    2    0    0 -0.87470692795E+02  0.44283555383E+01  0.39307456363E+03  0.42166733927E+03  0.12500000000E+03 0.  0.
         25    1    1    2    0    0 -0.33159121679E+02 -0.29342959543E+02  0.75608889027E+03  0.76763008449E+03  0.12500000000E+03 0.  0.
         25    1    1    2    0    0  0.12062981447E+03  0.24914604004E+02  0.65105593708E+03  0.67429305412E+03  0.12500000000E+03 0.  0.
</event>
<event>
 5    0  0.5540382E-005  0.3090315E+03  0.7546771E-02  0.1080811E+00
         21   -1    0    0  502  501  0.00000000000E+00  0.00000000000E+00  0.75791454080E+03  0.75791454080E+03  0.00000000000E+00 0.  1.
         21   -1    0    0  501  502 -0.00000000000E+00 -0.00000000000E+00 -0.12600429770E+03  0.12600429770E+03  0.00000000000E+00 0.  1.
         25    1    1    2    0    0  0.24969255172E+02 -0.10122272151E+01 -0.23682380161E+02  0.12965470851E+03  0.12500000000E+03 0.  0.
         25    1    1    2    0    0  0.39771787569E+02 -0.11301025291E+03  0.20327734353E+03  0.26702020662E+03  0.12500000000E+03 0.  0.
         25    1    1    2    0    0 -0.64741042741E+02  0.11402248012E+03  0.45231527973E+03  0.48724392338E+03  0.12500000000E+03 0.  0.
</event>
<event>
 5    0  0.5474724E-005  0.2291303E+03  0.7546771E-02  0.1127253E+00
         21   -1    0    0  502  501  0.00000000000E+00  0.00000000000E+00  0.13522552587E+04  0.13522552587E+04  0.00000000000E+00 0. -1.
         21   -1    0    0  501  502 -0.00000000000E+00 -0.00000000000E+00 -0.38824556824E+02  0.38824556824E+02  0.00000000000E+00 0. -1.
         25    1    1    2    0    0  0.41405682775E+00 -0.28732536517E+02  0.40718362823E+03  0.42690659072E+03  0.12500000000E+03 0.  0.
         25    1    1    2    0    0  0.75217427669E+02  0.83608815496E+02  0.55272262300E+03  0.57773297762E+03  0.12500000000E+03 0.  0.
         25    1    1    2    0    0 -0.75631484497E+02 -0.54876278979E+02  0.35352445063E+03  0.38644024717E+03  0.12500000000E+03 0.  0.
</event>
<event>
 5    0  0.5474724E-005  0.4678590E+03  0.7546771E-02  0.1022526E+00
         21   -1    0    0  502  501  0.00000000000E+00  0.00000000000E+00  0.77072856077E+03  0.77072856077E+03  0.00000000000E+00 0.  1.
         21   -1    0    0  501  502 -0.00000000000E+00 -0.00000000000E+00 -0.28400667205E+03  0.28400667205E+03  0.00000000000E+00 0.  1.
         25    1    1    2    0    0  0.12478839733E+03  0.74145681638E+02 -0.21616795612E+03  0.28883093925E+03  0.12500000000E+03 0.  0.
         25    1    1    2    0    0 -0.67638965700E+02 -0.84743533949E+02  0.35390118481E+03  0.39067575410E+03  0.12500000000E+03 0.  0.
         25    1    1    2    0    0 -0.57149431634E+02  0.10597852311E+02  0.34898866003E+03  0.37522853948E+03  0.12500000000E+03 0.  0.
</event>
<event>
 5    0  0.5474724E-005  0.2432480E+03  0.7546771E-02  0.1117648E+00
         21   -1    0    0  502  501  0.00000000000E+00  0.00000000000E+00  0.34098133629E+03  0.34098133629E+03  0.00000000000E+00 0.  1.
         21   -1    0    0  501  502 -0.00000000000E+00 -0.00000000000E+00 -0.17352738190E+03  0.17352738190E+03  0.00000000000E+00 0. -1.
         25    1    1    2    0    0  0.38432148492E+02 -0.32839134608E+02  0.35707642373E+02  0.13948288255E+03  0.12500000000E+03 0.  0.
         25    1    1    2    0    0  0.41206823522E+02  0.11894140530E+03  0.88488173129E+02  0.19824282328E+03  0.12500000000E+03 0.  0.
         25    1    1    2    0    0 -0.79638972015E+02 -0.86102270689E+02  0.43258138882E+02  0.17678301237E+03  0.12500000000E+03 0.  0.
</event>
<event>
 5    0  0.5474724E-005  0.3301621E+03  0.7546771E-02  0.1071065E+00
         21   -1    0    0  502  501  0.00000000000E+00  0.00000000000E+00  0.81324243995E+03  0.81324243995E+03  0.00000000000E+00 0. -1.
         21   -1    0    0  501  502 -0.00000000000E+00 -0.00000000000E+00 -0.13403995497E+03  0.13403995497E+03  0.00000000000E+00 0. -1.
         25    1    1    2    0    0  0.18922327444E+02 -0.15988113761E+02  0.53482364640E+03  0.54979542286E+03  0.12500000000E+03 0.  0.
         25    1    1    2    0    0  0.97312421769E+02 -0.29730142256E+02  0.15071397739E+03  0.22066556544E+03  0.12500000000E+03 0.  0.
         25    1    1    2    0    0 -0.11623474921E+03  0.45718256017E+02 -0.63351388067E+01  0.17682140663E+03  0.12500000000E+03 0.  0.
</event>
<event>
 5    0  0.5474724E-005  0.2467246E+03  0.7546771E-02  0.1115392E+00
         21   -1    0    0  502  501  0.00000000000E+00  0.00000000000E+00  0.21820442665E+03  0.21820442665E+03  0.00000000000E+00 0.  1.
         21   -1    0    0  501  502 -0.00000000000E+00 -0.00000000000E+00 -0.27897239443E+03  0.27897239443E+03  0.00000000000E+00 0.  1.
         25    1    1    2    0    0 -0.63356689281E+02 -0.44850869261E+02 -0.43984701737E+00  0.14714232571E+03  0.12500000000E+03 0.  0.
         25    1    1    2    0    0  0.78989506400E+02  0.11789124381E+03  0.77944191844E+01  0.18927081249E+03  0.12500000000E+03 0.  0.
         25    1    1    2    0    0 -0.15632817120E+02 -0.73040374549E+02 -0.68122539955E+02  0.16076368289E+03  0.12500000000E+03 0.  0.
</event>
<event>
 5    0  0.5474724E-005  0.3117306E+03  0.7546771E-02  0.1079519E+00
         21   -1    0    0  502  501  0.00000000000E+00  0.00000000000E+00  0.50421177664E+03  0.50421177664E+03  0.00000000000E+00 0.  1.
         21   -1    0    0  501  502 -0.00000000000E+00 -0.00000000000E+00 -0.19272847181E+03  0.19272847181E+03  0.00000000000E+00 0.  1.
         25    1    1    2    0    0  0.79355103115E+02  0.24200678427E+02  0.23302939873E+03  0.27714726393E+03  0.12500000000E+03 0.  0.
         25    1    1    2    0    0  0.92504465356E+02  0.34316827900E+02  0.11491158093E+03  0.19637818672E+03  0.12500000000E+03 0.  0.
         25    1    1    2    0    0 -0.17185956847E+03 -0.58517506327E+02 -0.36457674839E+02  0.22341479780E+03  0.12500000000E+03 0.  0.
</event>
<event>
 5    0  0.5474724E-005  0.2330735E+03  0.7546771E-02  0.1124495E+00
         21   -1    0    0  502  501  0.00000000000E+00  0.00000000000E+00  0.39806041737E+03  0.39806041737E+03  0.00000000000E+00 0.  1.
         21   -1    0    0  501  502 -0.00000000000E+00 -0.00000000000E+00 -0.13646988128E+03  0.13646988128E+03  0.00000000000E+00 0.  1.
         25    1    1    2    0    0 -0.11411804523E+02  0.37310428961E+02 -0.22515062911E+02  0.13286920429E+03  0.12500000000E+03 0.  0.
         25    1    1    2    0    0  0.38646425555E+02  0.23268977357E+02  0.86407055081E+02  0.15851236760E+03  0.12500000000E+03 0.  0.
         25    1    1    2    0    0 -0.27234621032E+02 -0.60579406318E+02  0.19769854392E+03  0.24314872675E+03  0.12500000000E+03 0.  0.
</event>
<event>
 5    0  0.5474724E-005  0.2458889E+03  0.7546771E-02  0.1115931E+00
         21   -1    0    0  502  501  0.00000000000E+00  0.00000000000E+00  0.32484063666E+03  0.32484063666E+03  0.00000000000E+00 0. -1.
         21   -1    0    0  501  502 -0.00000000000E+00 -0.00000000000E+00 -0.18612615149E+03  0.18612615149E+03  0.00000000000E+00 0. -1.
         25    1    1    2    0    0  0.92055068169E+02  0.41310228096E+02  0.20183421879E+02  0.16190441946E+03  0.12500000000E+03 0.  0.
         25    1    1    2    0    0 -0.93738957480E+02  0.39605834820E+02  0.40608327023E+01  0.16123617666E+03  0.12500000000E+03 0.  0.
         25    1    1    2    0    0  0.16838893109E+01 -0.80916062916E+02  0.11447023059E+03  0.18782619203E+03  0.12500000000E+03 0.  0.
</event>
<event>
 5    0  0.5474724E-005  0.2423536E+03  0.7546771E-02  0.1118235E+00
         21   -1    0    0  502  501  0.00000000000E+00  0.00000000000E+00  0.80619956623E+03  0.80619956623E+03  0.00000000000E+00 0.  1.
         21   -1    0    0  501  502 -0.00000000000E+00 -0.00000000000E+00 -0.72854523244E+02  0.72854523244E+02  0.00000000000E+00 0.  1.
         25    1    1    2    0    0 -0.44891153254E+02  0.63138926927E+02  0.12685484132E+03  0.19421351781E+03  0.12500000000E+03 0.  0.
         25    1    1    2    0    0 -0.32556591572E+02 -0.95992123106E+02  0.38153400151E+03  0.41408648090E+03  0.12500000000E+03 0.  0.
         25    1    1    2    0    0  0.77447744826E+02  0.32853196179E+02  0.22495620015E+03  0.27075409076E+03  0.12500000000E+03 0.  0.
</event>
<event>
 5    0  0.5474724E-005  0.2576245E+03  0.7546771E-02  0.1108579E+00
         21   -1    0    0  502  501  0.00000000000E+00  0.00000000000E+00  0.22376746885E+03  0.22376746885E+03  0.00000000000E+00 0. -1.
         21   -1    0    0  501  502 -0.00000000000E+00 -0.00000000000E+00 -0.29660414946E+03  0.29660414946E+03  0.00000000000E+00 0. -1.
         25    1    1    2    0    0  0.58115272907E+02  0.48545322140E+02  0.58730289189E+01  0.14626525806E+03  0.12500000000E+03 0.  0.
         25    1    1    2    0    0 -0.91147578940E+02 -0.91111511485E+02 -0.13719375523E+03  0.22595644524E+03  0.12500000000E+03 0.  0.
         25    1    1    2    0    0  0.33032306033E+02  0.42566189345E+02  0.58484045691E+02  0.14814991501E+03  0.12500000000E+03 0.  0.
</event>
<event>
 5    0  0.5474724E-005  0.5407093E+03  0.7546771E-02  0.1003668E+00
         21   -1    0    0  502  501  0.00000000000E+00  0.00000000000E+00  0.44505193831E+03  0.44505193831E+03  0.00000000000E+00 0. -1.
         21   -1    0    0  501  502 -0.00000000000E+00 -0.00000000000E+00 -0.65692679762E+03  0.65692679762E+03  0.00000000000E+00 0. -1.
         25    1    1    2    0    0  0.41166586205E+02  0.23041341518E+03 -0.97602783766E+02  0.28273014186E+03  0.12500000000E+03 0.  0.
         25    1    1    2    0    0  0.10461732788E+03  0.15785062493E+02  0.27509545882E+03  0.32015069101E+03  0.12500000000E+03 0.  0.
         25    1    1    2    0    0 -0.14578391408E+03 -0.24619847768E+03 -0.38936753437E+03  0.49909790306E+03  0.12500000000E+03 0.  0.
</event>
<event>
 5    0  0.5832399E-005  0.2921395E+03  0.7546771E-02  0.1089237E+00
         21   -1    0    0  502  501  0.00000000000E+00  0.00000000000E+00  0.13201886955E+03  0.13201886955E+03  0.00000000000E+00 0.  1.
         21   -1    0    0  501  502 -0.00000000000E+00 -0.00000000000E+00 -0.64646431222E+03  0.64646431222E+03  0.00000000000E+00 0.  1.
         25    1    1    2    0    0 -0.95367771735E+02 -0.35364835941E+02 -0.17042549446E+03  0.23455390142E+03  0.12500000000E+03 0.  0.
         25    1    1    2    0    0  0.11303409648E+03  0.16335065719E+03 -0.24248254738E+03  0.33746545002E+03  0.12500000000E+03 0.  0.
         25    1    1    2    0    0 -0.17666324743E+02 -0.12798582125E+03 -0.10153740083E+03  0.20646383034E+03  0.12500000000E+03 0.  0.
</event>
<event>
 5    0  0.5474724E-005  0.3899371E+03  0.7546771E-02  0.1047321E+00
         21   -1    0    0  502  501  0.00000000000E+00  0.00000000000E+00  0.27577633704E+03  0.27577633704E+03  0.00000000000E+00 0.  1.
         21   -1    0    0  501  502 -0.00000000000E+00 -0.00000000000E+00 -0.55135607872E+03  0.55135607872E+03  0.00000000000E+00 0.  1.
         25    1    1    2    0    0  0.79425621334E+02  0.30423425488E+02 -0.14934944432E+03  0.21251887131E+03  0.12500000000E+03 0.  0.
         25    1    1    2    0    0 -0.26869578013E+02 -0.26586626617E+03  0.37513731674E+02  0.29738716478E+03  0.12500000000E+03 0.  0.
         25    1    1    2    0    0 -0.52556043320E+02  0.23544284068E+03 -0.16374402903E+03  0.31722637967E+03  0.12500000000E+03 0.  0.
</event>
<event>
 5    0  0.5474724E-005  0.5249222E+03  0.7546771E-02  0.1007471E+00
         21   -1    0    0  502  501  0.00000000000E+00  0.00000000000E+00  0.83821199443E+03  0.83821199443E+03  0.00000000000E+00 0.  1.
         21   -1    0    0  501  502 -0.00000000000E+00 -0.00000000000E+00 -0.32872742509E+03  0.32872742509E+03  0.00000000000E+00 0.  1.
         25    1    1    2    0    0  0.53429835316E+00 -0.19469293247E+03 -0.48894714692E+00  0.23136737561E+03  0.12500000000E+03 0.  0.
         25    1    1    2    0    0  0.26368269892E+03  0.34193647286E+03  0.23039369475E+03  0.50512906446E+03  0.12500000000E+03 0.  0.
         25    1    1    2    0    0 -0.26421699727E+03 -0.14724354039E+03  0.27957982173E+03  0.43044297944E+03  0.12500000000E+03 0.  0.
</event>
<event>
 5    0  0.5474724E-005  0.2700786E+03  0.7546771E-02  0.1101235E+00
         21   -1    0    0  502  501  0.00000000000E+00  0.00000000000E+00  0.43070037361E+03  0.43070037361E+03  0.00000000000E+00 0.  1.
         21   -1    0    0  501  502 -0.00000000000E+00 -0.00000000000E+00 -0.16935779048E+03  0.16935779048E+03  0.00000000000E+00 0.  1.
         25    1    1    2    0    0  0.55383951524E+02 -0.24425039751E+02 -0.40023157957E+02  0.14453656225E+03  0.12500000000E+03 0.  0.
         25    1    1    2    0    0 -0.36972290677E+02  0.10306289376E+03  0.24572429780E+03  0.29663840089E+03  0.12500000000E+03 0.  0.
         25    1    1    2    0    0 -0.18411660847E+02 -0.78637854012E+02  0.55641443282E+02  0.15888320097E+03  0.12500000000E+03 0.  0.
</event>
<event>
 5    0  0.5474724E-005  0.3000487E+03  0.7546771E-02  0.1085216E+00
         21   -1    0    0  502  501  0.00000000000E+00  0.00000000000E+00  0.55410409753E+03  0.55410409753E+03  0.00000000000E+00 0.  1.
         21   -1    0    0  501  502 -0.00000000000E+00 -0.00000000000E+00 -0.16247704567E+03  0.16247704567E+03  0.00000000000E+00 0.  1.
         25    1    1    2    0    0  0.63027093660E+02 -0.76893111625E+02 -0.33223089848E+02  0.16313717801E+03  0.12500000000E+03 0.  0.
         25    1    1    2    0    0  0.53953530266E+02  0.80317354198E+02  0.30783006027E+03  0.34604364872E+03  0.12500000000E+03 0.  0.
         25    1    1    2    0    0 -0.11698062393E+03 -0.34242425725E+01  0.11702008143E+03  0.20740031647E+03  0.12500000000E+03 0.  0.
</event>
<event>
 5    0  0.5474724E-005  0.3414773E+03  0.7546771E-02  0.1066168E+00
         21   -1    0    0  502  501  0.00000000000E+00  0.00000000000E+00  0.21825230056E+03  0.21825230056E+03  0.00000000000E+00 0. -1.
         21   -1    0    0  501  502 -0.00000000000E+00 -0.00000000000E+00 -0.53427492167E+03  0.53427492167E+03  0.00000000000E+00 0. -1.
         25    1    1    2    0    0  0.11916397639E+03  0.12928472274E+03 -0.39369462041E+02  0.21929329069E+03  0.12500000000E+03 0.  0.
         25    1    1    2    0    0 -0.20634553928E+03 -0.16776190938E+03 -0.14246471197E+03  0.32656352211E+03  0.12500000000E+03 0.  0.
         25    1    1    2    0    0  0.87181562891E+02  0.38477186636E+02 -0.13418844710E+03  0.20667040943E+03  0.12500000000E+03 0.  0.
</event>
<event>
 5    0  0.5529734E-005  0.3785525E+03  0.7546771E-02  0.1051470E+00
         21   -1    0    0  502  501  0.00000000000E+00  0.00000000000E+00  0.39933682592E+03  0.39933682592E+03  0.00000000000E+00 0.  1.
         21   -1    0    0  501  502 -0.00000000000E+00 -0.00000000000E+00 -0.35885001734E+03  0.35885001734E+03  0.00000000000E+00 0.  1.
         25    1    1    2    0    0 -0.27778935828E+03 -0.68931682213E+02 -0.85485157191E+01  0.31243652396E+03  0.12500000000E+03 0.  0.
         25    1    1    2    0    0  0.14544519592E+03 -0.25852090409E+02 -0.73166286042E+02  0.20688388291E+03  0.12500000000E+03 0.  0.
         25    1    1    2    0    0  0.13234416236E+03  0.94783772622E+02  0.12220161034E+03  0.23886643639E+03  0.12500000000E+03 0.  0.
</event>
<event>
 5    0  0.5474724E-005  0.2294094E+03  0.7546771E-02  0.1127056E+00
         21   -1    0    0  502  501  0.00000000000E+00  0.00000000000E+00  0.31388629073E+04  0.31388629073E+04  0.00000000000E+00 0. -1.
         21   -1    0    0  501  502 -0.00000000000E+00 -0.00000000000E+00 -0.16766791793E+02  0.16766791793E+02  0.00000000000E+00 0. -1.
         25    1    1    2    0    0  0.10977009885E+02 -0.59063043976E+02  0.73850442191E+03  0.75141381348E+03  0.12500000000E+03 0.  0.
         25    1    1    2    0    0  0.77084259532E+02  0.66361487913E+02  0.12279894718E+04  0.12385188626E+04  0.12500000000E+03 0.  0.
         25    1    1    2    0    0 -0.88061269417E+02 -0.72984439370E+01  0.11556022218E+04  0.11656970230E+04  0.12500000000E+03 0.  0.
</event>
<event>
 5    0  0.6413152E-005  0.3333440E+03  0.7546771E-02  0.1069667E+00
         21   -1    0    0  502  501  0.00000000000E+00  0.00000000000E+00  0.16835286734E+03  0.16835286734E+03  0.00000000000E+00 0.  1.
         21   -1    0    0  501  502 -0.00000000000E+00 -0.00000000000E+00 -0.66003158168E+03  0.66003158168E+03  0.00000000000E+00 0.  1.
         25    1    1    2    0    0 -0.17505918504E+02 -0.55086894585E+02  0.21104718977E+02  0.13932491630E+03  0.12500000000E+03 0.  0.
         25    1    1    2    0    0  0.16904839893E+03 -0.72665069854E+02 -0.29222329922E+03  0.36725608255E+03  0.12500000000E+03 0.  0.
         25    1    1    2    0    0 -0.15154248043E+03  0.12775196444E+03 -0.22056013410E+03  0.32180345018E+03  0.12500000000E+03 0.  0.
</event>
<event>
 5    0  0.5474724E-005  0.2368673E+03  0.7546771E-02  0.1121898E+00
         21   -1    0    0  502  501  0.00000000000E+00  0.00000000000E+00  0.16975453664E+04  0.16975453664E+04  0.00000000000E+00 0. -1.
         21   -1    0    0  501  502 -0.00000000000E+00 -0.00000000000E+00 -0.33051317251E+02  0.33051317251E+02  0.00000000000E+00 0. -1.
         25    1    1    2    0    0 -0.68701780587E+02  0.63428120633E+02  0.81972102907E+03  0.83445229141E+03  0.12500000000E+03 0.  0.
         25    1    1    2    0    0  0.51019276753E+02 -0.77913061633E+02  0.60525210761E+03  0.62500282042E+03  0.12500000000E+03 0.  0.
         25    1    1    2    0    0  0.17682503834E+02  0.14484941000E+02  0.23952091250E+03  0.27114157184E+03  0.12500000000E+03 0.  0.
</event>
<event>
 5    0  0.5474724E-005  0.2499813E+03  0.7546771E-02  0.1113317E+00
         21   -1    0    0  502  501  0.00000000000E+00  0.00000000000E+00  0.77850216860E+03  0.77850216860E+03  0.00000000000E+00 0. -1.
         21   -1    0    0  501  502 -0.00000000000E+00 -0.00000000000E+00 -0.80270330818E+02  0.80270330818E+02  0.00000000000E+00 0. -1.
         25    1    1    2    0    0  0.66148916222E+02 -0.99020281950E+02  0.19185495608E+03  0.25809691886E+03  0.12500000000E+03 0.  0.
         25    1    1    2    0    0 -0.98334016977E+02  0.10303224376E+03  0.34869378601E+03  0.39685964591E+03  0.12500000000E+03 0.  0.
         25    1    1    2    0    0  0.32185100755E+02 -0.40119618110E+01  0.15768309569E+03  0.20381593465E+03  0.12500000000E+03 0.  0.
</event>
<event>
 5    0  0.5474724E-005  0.5512139E+03  0.7546771E-02  0.1001213E+00
         21   -1    0    0  502  501  0.00000000000E+00  0.00000000000E+00  0.22457329906E+04  0.22457329906E+04  0.00000000000E+00 0. -1.
         21   -1    0    0  501  502 -0.00000000000E+00 -0.00000000000E+00 -0.13529516614E+03  0.13529516614E+03  0.00000000000E+00 0. -1.
         25    1    1    2    0    0  0.50538268822E+01  0.73340963017E+02 -0.18197846845E+02  0.14615265872E+03  0.12500000000E+03 0.  0.
         25    1    1    2    0    0  0.66277388109E+02  0.12787522082E+03  0.15488350200E+03  0.24568000217E+03  0.12500000000E+03 0.  0.
         25    1    1    2    0    0 -0.71331214991E+02 -0.20121618384E+03  0.19737521693E+04  0.19891954959E+04  0.12500000000E+03 0.  0.
</event>
<event>
 5    0  0.5474724E-005  0.3483752E+03  0.7546771E-02  0.1063284E+00
         21   -1    0    0  502  501  0.00000000000E+00  0.00000000000E+00  0.65932201501E+03  0.65932201501E+03  0.00000000000E+00 0. -1.
         21   -1    0    0  501  502 -0.00000000000E+00 -0.00000000000E+00 -0.18407591942E+03  0.18407591942E+03  0.00000000000E+00 0. -1.
         25    1    1    2    0    0 -0.14025392883E+03  0.11239366583E+03  0.22701040000E+00  0.21892590574E+03  0.12500000000E+03 0.  0.
         25    1    1    2    0    0 -0.36938917769E+01 -0.16141647680E+03  0.19627058575E+03  0.28322441041E+03  0.12500000000E+03 0.  0.
         25    1    1    2    0    0  0.14394782060E+03  0.49022810971E+02  0.27874849943E+03  0.34124761829E+03  0.12500000000E+03 0.  0.
</event>
<event>
 5    0  0.5474724E-005  0.2472086E+03  0.7546771E-02  0.1115082E+00
         21   -1    0    0  502  501  0.00000000000E+00  0.00000000000E+00  0.39388411715E+02  0.39388411715E+02  0.00000000000E+00 0. -1.
         21   -1    0    0  501  502 -0.00000000000E+00 -0.00000000000E+00 -0.15515250924E+04  0.15515250924E+04  0.00000000000E+00 0. -1.
         25    1    1    2    0    0 -0.59112748144E+01 -0.59437315978E+02 -0.57662926075E+03  0.59303797691E+03  0.12500000000E+03 0.  0.
         25    1    1    2    0    0  0.98101175392E+02  0.47333275376E+02 -0.66839270713E+03  0.68864946854E+03  0.12500000000E+03 0.  0.
         25    1    1    2    0    0 -0.92189900578E+02  0.12104040602E+02 -0.26711471284E+03  0.30922605871E+03  0.12500000000E+03 0.  0.
</event>
<event>
 5    0  0.5474724E-005  0.3247960E+03  0.7546771E-02  0.1073463E+00
         21   -1    0    0  502  501  0.00000000000E+00  0.00000000000E+00  0.44588719633E+03  0.44588719633E+03  0.00000000000E+00 0. -1.
         21   -1    0    0  501  502 -0.00000000000E+00 -0.00000000000E+00 -0.23658992050E+03  0.23658992050E+03  0.00000000000E+00 0. -1.
         25    1    1    2    0    0  0.13824992349E+01  0.42367596038E+02  0.14978143223E+03  0.19964068207E+03  0.12500000000E+03 0.  0.
         25    1    1    2    0    0 -0.80230809950E+02 -0.78494741118E+02  0.20994205494E+03  0.26888487068E+03  0.12500000000E+03 0.  0.
         25    1    1    2    0    0  0.78848310715E+02  0.36127145080E+02 -0.15042621134E+03  0.21395156408E+03  0.12500000000E+03 0.  0.
</event>
<event>
 5    0  0.5474724E-005  0.4520876E+03  0.7546771E-02  0.1027101E+00
         21   -1    0    0  502  501  0.00000000000E+00  0.00000000000E+00  0.38791624043E+03  0.38791624043E+03  0.00000000000E+00 0.  1.
         21   -1    0    0  501  502 -0.00000000000E+00 -0.00000000000E+00 -0.52687455495E+03  0.52687455495E+03  0.00000000000E+00 0.  1.
         25    1    1    2    0    0 -0.61502268191E+02 -0.23117608337E+03 -0.61694854093E+02  0.27686849863E+03  0.12500000000E+03 0.  0.
         25    1    1    2    0    0  0.15313970741E+03 -0.71993828649E+02 -0.18566538302E+03  0.28059136801E+03  0.12500000000E+03 0.  0.
         25    1    1    2    0    0 -0.91637439223E+02  0.30316991201E+03  0.10840192259E+03  0.35733092875E+03  0.12500000000E+03 0.  0.
</event>
<event>
 5    0  0.5474724E-005  0.4933837E+03  0.7546771E-02  0.1015520E+00
         21   -1    0    0  502  501  0.00000000000E+00  0.00000000000E+00  0.52931409754E+03  0.52931409754E+03  0.00000000000E+00 0.  1.
         21   -1    0    0  501  502 -0.00000000000E+00 -0.00000000000E+00 -0.45989220339E+03  0.45989220339E+03  0.00000000000E+00 0.  1.
         25    1    1    2    0    0  0.10495276439E+03 -0.12440057943E+03 -0.28528816061E+03  0.35143266994E+03  0.12500000000E+03 0.  0.
         25    1    1    2    0    0  0.31349069934E+02 -0.15077566754E+03  0.12573999603E+03  0.23484380492E+03  0.12500000000E+03 0.  0.
         25    1    1    2    0    0 -0.13630183432E+03  0.27517624697E+03  0.22897005874E+03  0.40292982607E+03  0.12500000000E+03 0.  0.
</event>
<event>
 5    0  0.5474724E-005  0.2499270E+03  0.7546771E-02  0.1113351E+00
         21   -1    0    0  502  501  0.00000000000E+00  0.00000000000E+00  0.24900147450E+03  0.24900147450E+03  0.00000000000E+00 0.  1.
         21   -1    0    0  501  502 -0.00000000000E+00 -0.00000000000E+00 -0.25085588871E+03  0.25085588871E+03  0.00000000000E+00 0.  1.
         25    1    1    2    0    0 -0.15289253054E+02 -0.27093794103E+02  0.35585239563E+02  0.13363810913E+03  0.12500000000E+03 0.  0.
         25    1    1    2    0    0 -0.10772964276E+03  0.73967293221E+02  0.12335574829E+00  0.18083653284E+03  0.12500000000E+03 0.  0.
         25    1    1    2    0    0  0.12301889581E+03 -0.46873499119E+02 -0.37563009527E+02  0.18538272123E+03  0.12500000000E+03 0.  0.
</event>
<event>
 5    0  0.5474724E-005  0.4987539E+03  0.7546771E-02  0.1014105E+00
         21   -1    0    0  502  501  0.00000000000E+00  0.00000000000E+00  0.35192147407E+03  0.35192147407E+03  0.00000000000E+00 0. -1.
         21   -1    0    0  501  502 -0.00000000000E+00 -0.00000000000E+00 -0.70684922310E+03  0.70684922310E+03  0.00000000000E+00 0. -1.
         25    1    1    2    0    0  0.10835229165E+03  0.14470600892E+03 -0.36933398079E+03  0.42978208140E+03  0.12500000000E+03 0.  0.
         25    1    1    2    0    0  0.20021407041E+03  0.24566723495E+02 -0.67311259681E+02  0.24666780004E+03  0.12500000000E+03 0.  0.
         25    1    1    2    0    0 -0.30856636207E+03 -0.16927273241E+03  0.81717491439E+02  0.38232081574E+03  0.12500000000E+03 0.  0.
</event>
<event>
 5    0  0.5474724E-005  0.3194344E+03  0.7546771E-02  0.1075910E+00
         21   -1    0    0  502  501  0.00000000000E+00  0.00000000000E+00  0.54495089100E+02  0.54495089100E+02  0.00000000000E+00 0. -1.
         21   -1    0    0  501  502 -0.00000000000E+00 -0.00000000000E+00 -0.18724321525E+04  0.18724321525E+04  0.00000000000E+00 0. -1.
         25    1    1    2    0    0  0.40280483805E+02 -0.43235209970E+02 -0.45975725593E+03  0.48009742254E+03  0.12500000000E+03 0.  0.
         25    1    1    2    0    0 -0.13078584881E+03  0.19832933317E+03 -0.89833732819E+03  0.93758968523E+03  0.12500000000E+03 0.  0.
         25    1    1    2    0    0  0.90505365002E+02 -0.15509412320E+03 -0.45984247934E+03  0.50924013387E+03  0.12500000000E+03 0.  0.
</event>
<event>
 5    0  0.5474724E-005  0.2486994E+03  0.7546771E-02  0.1114130E+00
         21   -1    0    0  502  501  0.00000000000E+00  0.00000000000E+00  0.14139384411E+03  0.14139384411E+03  0.00000000000E+00 0. -1.
         21   -1    0    0  501  502 -0.00000000000E+00 -0.00000000000E+00 -0.43744065749E+03  0.43744065749E+03  0.00000000000E+00 0. -1.
         25    1    1    2    0    0  0.73357082406E+02 -0.21307740031E+02 -0.26553019073E+03  0.30325989434E+03  0.12500000000E+03 0.  0.
         25    1    1    2    0    0 -0.38714591273E+02  0.58754371845E+01  0.25491680944E+02  0.13344724102E+03  0.12500000000E+03 0.  0.
         25    1    1    2    0    0 -0.34642491133E+02  0.15432302846E+02 -0.56008303587E+02  0.14212736624E+03  0.12500000000E+03 0.  0.
</event>
<event>
 5    0  0.5474724E-005  0.3267864E+03  0.7546771E-02  0.1072568E+00
         21   -1    0    0  502  501  0.00000000000E+00  0.00000000000E+00  0.13196553168E+03  0.13196553168E+03  0.00000000000E+00 0.  1.
         21   -1    0    0  501  502 -0.00000000000E+00 -0.00000000000E+00 -0.80922136168E+03  0.80922136168E+03  0.00000000000E+00 0.  1.
         25    1    1    2    0    0  0.10685093208E+03 -0.57489009786E+02 -0.11153218258E+03  0.20684906498E+03  0.12500000000E+03 0.  0.
         25    1    1    2    0    0 -0.16620518862E+02  0.21403137511E+03 -0.30663315522E+03  0.39463218705E+03  0.12500000000E+03 0.  0.
         25    1    1    2    0    0 -0.90230413214E+02 -0.15654236532E+03 -0.25909049220E+03  0.33970564134E+03  0.12500000000E+03 0.  0.
</event>
<event>
 5    0  0.5474724E-005  0.4686559E+03  0.7546771E-02  0.1022300E+00
         21   -1    0    0  502  501  0.00000000000E+00  0.00000000000E+00  0.43783810826E+03  0.43783810826E+03  0.00000000000E+00 0.  1.
         21   -1    0    0  501  502 -0.00000000000E+00 -0.00000000000E+00 -0.50164284844E+03  0.50164284844E+03  0.00000000000E+00 0.  1.
         25    1    1    2    0    0 -0.47801321862E+02 -0.54480015632E+02 -0.65316616287E+02  0.15856953944E+03  0.12500000000E+03 0.  0.
         25    1    1    2    0    0  0.13270439086E+03  0.36289772411E+03  0.10997990968E+03  0.42074433335E+03  0.12500000000E+03 0.  0.
         25    1    1    2    0    0 -0.84903068996E+02 -0.30841770848E+03 -0.10846803357E+03  0.36016708391E+03  0.12500000000E+03 0.  0.
</event>
<event>
 5    0  0.5474724E-005  0.3379707E+03  0.7546771E-02  0.1067664E+00
         21   -1    0    0  502  501  0.00000000000E+00  0.00000000000E+00  0.17582517508E+04  0.17582517508E+04  0.00000000000E+00 0.  1.
         21   -1    0    0  501  502 -0.00000000000E+00 -0.00000000000E+00 -0.64964646560E+02  0.64964646560E+02  0.00000000000E+00 0.  1.
         25    1    1    2    0    0 -0.15968143614E+03 -0.56699819676E+02  0.25540126304E+03  0.33101032576E+03  0.12500000000E+03 0.  0.
         25    1    1    2    0    0  0.19053638566E+03  0.11383146228E+03  0.10151026468E+04  0.10465754151E+04  0.12500000000E+03 0.  0.
         25    1    1    2    0    0 -0.30854949525E+02 -0.57131642600E+02  0.42278319442E+03  0.44563065646E+03  0.12500000000E+03 0.  0.
</event>
<event>
 5    0  0.5474724E-005  0.3681265E+03  0.7546771E-02  0.1055412E+00
         21   -1    0    0  502  501  0.00000000000E+00  0.00000000000E+00  0.22446580361E+03  0.22446580361E+03  0.00000000000E+00 0. -1.
         21   -1    0    0  501  502 -0.00000000000E+00 -0.00000000000E+00 -0.60373183754E+03  0.60373183754E+03  0.00000000000E+00 0. -1.
         25    1    1    2    0    0  0.56965616584E+02 -0.21708218822E+03 -0.16008604277E+03  0.30269175576E+03  0.12500000000E+03 0.  0.
         25    1    1    2    0    0 -0.19223636362E+03  0.64376850292E+02 -0.10185540067E+03  0.25903420816E+03  0.12500000000E+03 0.  0.
         25    1    1    2    0    0  0.13527074704E+03  0.15270533792E+03 -0.11732459048E+03  0.26647167723E+03  0.12500000000E+03 0.  0.
</event>
<event>
 5    0  0.5474724E-005  0.5238828E+03  0.7546771E-02  0.1007727E+00
         21   -1    0    0  502  501  0.00000000000E+00  0.00000000000E+00  0.44696401792E+03  0.44696401792E+03  0.00000000000E+00 0. -1.
         21   -1    0    0  501  502 -0.00000000000E+00 -0.00000000000E+00 -0.61403868418E+03  0.61403868418E+03  0.00000000000E+00 0. -1.
         25    1    1    2    0    0 -0.15731840967E+03 -0.77098603789E+02  0.35498901102E+03  0.41513308068E+03  0.12500000000E+03 0.  0.
         25    1    1    2    0    0  0.30077584892E+01  0.98756797414E+01 -0.61203506511E+02  0.13956161675E+03  0.12500000000E+03 0.  0.
         25    1    1    2    0    0  0.15431065118E+03  0.67222924047E+02 -0.46086017077E+03  0.50630800467E+03  0.12500000000E+03 0.  0.
</event>
<event>
 5    0  0.5474724E-005  0.2812614E+03  0.7546771E-02  0.1095002E+00
         21   -1    0    0  502  501  0.00000000000E+00  0.00000000000E+00  0.36827508992E+04  0.36827508992E+04  0.00000000000E+00 0. -1.
         21   -1    0    0  501  502 -0.00000000000E+00 -0.00000000000E+00 -0.21480675489E+02  0.21480675489E+02  0.00000000000E+00 0. -1.
         25    1    1    2    0    0 -0.32667266476E+01 -0.73877495747E+02  0.62757610251E+03  0.64416249527E+03  0.12500000000E+03 0.  0.
         25    1    1    2    0    0 -0.95117429111E+02  0.14721120517E+03  0.20101924893E+04  0.20216867483E+04  0.12500000000E+03 0.  0.
         25    1    1    2    0    0  0.98384155758E+02 -0.73333709421E+02  0.10235016318E+04  0.10383823310E+04  0.12500000000E+03 0.  0.
</event>
<event>
 5    0  0.5474724E-005  0.3379182E+03  0.7546771E-02  0.1067686E+00
         21   -1    0    0  502  501  0.00000000000E+00  0.00000000000E+00  0.29590798475E+03  0.29590798475E+03  0.00000000000E+00 0.  1.
         21   -1    0    0  501  502 -0.00000000000E+00 -0.00000000000E+00 -0.38589256188E+03  0.38589256188E+03  0.00000000000E+00 0.  1.
         25    1    1    2    0    0  0.46751057415E+02  0.16116822486E+03  0.99025313442E+01  0.20948488776E+03  0.12500000000E+03 0.  0.
         25    1    1    2    0    0  0.72947624480E+02  0.79436934880E+02 -0.41566637872E+02  0.17024796012E+03  0.12500000000E+03 0.  0.
         25    1    1    2    0    0 -0.11969868190E+03 -0.24060515974E+03 -0.58320470604E+02  0.30206769876E+03  0.12500000000E+03 0.  0.
</event>
<event>
 5    0  0.5474724E-005  0.3138396E+03  0.7546771E-02  0.1078520E+00
         21   -1    0    0  502  501  0.00000000000E+00  0.00000000000E+00  0.83103181738E+02  0.83103181738E+02  0.00000000000E+00 0.  1.
         21   -1    0    0  501  502 -0.00000000000E+00 -0.00000000000E+00 -0.11852170520E+04  0.11852170520E+04  0.00000000000E+00 0.  1.
         25    1    1    2    0    0 -0.14178094609E+03  0.13509428548E+03 -0.72857485817E+03  0.76472127380E+03  0.12500000000E+03 0.  0.
         25    1    1    2    0    0  0.68871215854E+02 -0.53699130080E+02 -0.95997528131E+02  0.18018703159E+03  0.12500000000E+03 0.  0.
         25    1    1    2    0    0  0.72909730235E+02 -0.81395155398E+02 -0.27754148400E+03  0.32341192839E+03  0.12500000000E+03 0.  0.
</event>
<event>
 5    0  0.5474724E-005  0.4477281E+03  0.7546771E-02  0.1028402E+00
         21   -1    0    0  502  501  0.00000000000E+00  0.00000000000E+00  0.62744088743E+03  0.62744088743E+03  0.00000000000E+00 0. -1.
         21   -1    0    0  501  502 -0.00000000000E+00 -0.00000000000E+00 -0.31948892428E+03  0.31948892428E+03  0.00000000000E+00 0. -1.
         25    1    1    2    0    0 -0.26461163471E+03 -0.12790575349E+03  0.93106435419E+02  0.33267552858E+03  0.12500000000E+03 0.  0.
         25    1    1    2    0    0  0.35995682341E+03  0.30644092089E+02  0.19260999388E+03  0.42805558616E+03  0.12500000000E+03 0.  0.
         25    1    1    2    0    0 -0.95345188701E+02  0.97261661404E+02  0.22235533856E+02  0.18619869697E+03  0.12500000000E+03 0.  0.
</event>
<event>
 5    0  0.6010486E-005  0.3576318E+03  0.7546771E-02  0.1059526E+00
         21   -1    0    0  502  501  0.00000000000E+00  0.00000000000E+00  0.53292918745E+03  0.53292918745E+03  0.00000000000E+00 0. -1.
         21   -1    0    0  501  502 -0.00000000000E+00 -0.00000000000E+00 -0.23999535214E+03  0.23999535214E+03  0.00000000000E+00 0. -1.
         25    1    1    2    0    0 -0.56308648849E+02 -0.15773815447E+03  0.23581957046E+02  0.21031666128E+03  0.12500000000E+03 0.  0.
         25    1    1    2    0    0 -0.14580050936E+03 -0.25412888204E+02  0.11328952135E+03  0.22441728780E+03  0.12500000000E+03 0.  0.
         25    1    1    2    0    0  0.20210915821E+03  0.18315104268E+03  0.15606235692E+03  0.33819059052E+03  0.12500000000E+03 0.  0.
</event>
<event>
 5    0  0.5474724E-005  0.3236270E+03  0.7546771E-02  0.1073992E+00
         21   -1    0    0  502  501  0.00000000000E+00  0.00000000000E+00  0.67128743520E+02  0.67128743520E+02  0.00000000000E+00 0.  1.
         21   -1    0    0  501  502 -0.00000000000E+00 -0.00000000000E+00 -0.15602022032E+04  0.15602022032E+04  0.00000000000E+00 0.  1.
         25    1    1    2    0    0 -0.17312607004E+03 -0.10866164652E+02 -0.36042736311E+03  0.41907468754E+03  0.12500000000E+03 0.  0.
         25    1    1    2    0    0  0.12284649321E+03  0.12568969949E+03 -0.39903668467E+03  0.45359060524E+03  0.12500000000E+03 0.  0.
         25    1    1    2    0    0  0.50279576827E+02 -0.11482353484E+03 -0.73360941194E+03  0.75466565397E+03  0.12500000000E+03 0.  0.
</event>
<event>
 5    0  0.5474724E-005  0.5063085E+03  0.7546771E-02  0.1012145E+00
         21   -1    0    0  502  501  0.00000000000E+00  0.00000000000E+00  0.17341544557E+03  0.17341544557E+03  0.00000000000E+00 0. -1.
         21   -1    0    0  501  502 -0.00000000000E+00 -0.00000000000E+00 -0.14782321023E+04  0.14782321023E+04  0.00000000000E+00 0. -1.
         25    1    1    2    0    0 -0.78554719559E+01 -0.22227214527E+03 -0.85843281972E+02  0.26918522260E+03  0.12500000000E+03 0.  0.
         25    1    1    2    0    0  0.21812918901E+03  0.24641642997E+03 -0.97297227014E+03  0.10346987187E+04  0.12500000000E+03 0.  0.
         25    1    1    2    0    0 -0.21027371705E+03 -0.24144284699E+02 -0.24600110458E+03  0.34776360652E+03  0.12500000000E+03 0.  0.
</event>
<event>
 5    0  0.5474724E-005  0.3769989E+03  0.7546771E-02  0.1052049E+00
         21   -1    0    0  502  501  0.00000000000E+00  0.00000000000E+00  0.10387555039E+04  0.10387555039E+04  0.00000000000E+00 0.  1.
         21   -1    0    0  501  502 -0.00000000000E+00 -0.00000000000E+00 -0.13682541683E+03  0.13682541683E+03  0.00000000000E+00 0.  1.
         25    1    1    2    0    0  0.10011878005E+02 -0.11713812090E+03  0.52374309798E+03  0.55113828551E+03  0.12500000000E+03 0.  0.
         25    1    1    2    0    0 -0.81246600723E+02  0.17946770639E+03  0.20877400511E+02  0.23424460211E+03  0.12500000000E+03 0.  0.
         25    1    1    2    0    0  0.71234722719E+02 -0.62329585493E+02  0.35730958854E+03  0.39019803307E+03  0.12500000000E+03 0.  0.
</event>
<event>
 5    0  0.5474724E-005  0.2996168E+03  0.7546771E-02  0.1085432E+00
         21   -1    0    0  502  501  0.00000000000E+00  0.00000000000E+00  0.59203390049E+02  0.59203390049E+02  0.00000000000E+00 0.  1.
         21   -1    0    0  501  502 -0.00000000000E+00 -0.00000000000E+00 -0.15163022902E+04  0.15163022902E+04  0.00000000000E+00 0.  1.
         25    1    1    2    0    0 -0.80235108003E+02 -0.29687289789E+02 -0.15991634502E+03  0.22026630504E+03  0.12500000000E+03 0.  0.
         25    1    1    2    0    0  0.13500170240E+02 -0.78004558449E+02 -0.98363352805E+03  0.99469939340E+03  0.12500000000E+03 0.  0.
         25    1    1    2    0    0  0.66734937763E+02  0.10769184824E+03 -0.31354902706E+03  0.36053998178E+03  0.12500000000E+03 0.  0.
</event>
<event>
 5    0  0.5474724E-005  0.4082675E+03  0.7546771E-02  0.1040954E+00
         21   -1    0    0  502  501  0.00000000000E+00  0.00000000000E+00  0.44000339955E+03  0.44000339955E+03  0.00000000000E+00 0. -1.
         21   -1    0    0  501  502 -0.00000000000E+00 -0.00000000000E+00 -0.37882062599E+03  0.37882062599E+03  0.00000000000E+00 0. -1.
         25    1    1    2    0    0 -0.85850789143E+02 -0.30200928091E+02  0.12173820452E+03  0.19679340561E+03  0.12500000000E+03 0.  0.
         25    1    1    2    0    0  0.13660807298E+03 -0.24361714184E+03  0.18982044083E+02  0.30658831582E+03  0.12500000000E+03 0.  0.
         25    1    1    2    0    0 -0.50757283836E+02  0.27381806993E+03 -0.79537475040E+02  0.31544230410E+03  0.12500000000E+03 0.  0.
</event>
<event>
 5    0  0.5474724E-005  0.3527893E+03  0.7546771E-02  0.1061476E+00
         21   -1    0    0  502  501  0.00000000000E+00  0.00000000000E+00  0.55488811474E+03  0.55488811474E+03  0.00000000000E+00 0.  1.
         21   -1    0    0  501  502 -0.00000000000E+00 -0.00000000000E+00 -0.22429794976E+03  0.22429794976E+03  0.00000000000E+00 0.  1.
         25    1    1    2    0    0  0.83806843861E+02 -0.77500401374E+02  0.16641449209E+03  0.23737877426E+03  0.12500000000E+03 0.  0.
         25    1    1    2    0    0 -0.12473388695E+02  0.15597044949E+03  0.27772200664E+03  0.34239871423E+03  0.12500000000E+03 0.  0.
         25    1    1    2    0    0 -0.71333455166E+02 -0.78470048113E+02 -0.11354633375E+03  0.19940857601E+03  0.12500000000E+03 0.  0.
</event>
<event>
 5    0  0.5474724E-005  0.2832129E+03  0.7546771E-02  0.1093947E+00
         21   -1    0    0  502  501  0.00000000000E+00  0.00000000000E+00  0.16269006041E+04  0.16269006041E+04  0.00000000000E+00 0. -1.
         21   -1    0    0  501  502 -0.00000000000E+00 -0.00000000000E+00 -0.49302064792E+02  0.49302064792E+02  0.00000000000E+00 0. -1.
         25    1    1    2    0    0  0.12116539466E+03  0.15884994712E+03  0.67889784672E+03  0.71863874433E+03  0.12500000000E+03 0.  0.
         25    1    1    2    0    0 -0.62680765445E+02 -0.11125011026E+03  0.40356487820E+03  0.44135595193E+03  0.12500000000E+03 0.  0.
         25    1    1    2    0    0 -0.58484629211E+02 -0.47599836859E+02  0.49513581441E+03  0.51620797266E+03  0.12500000000E+03 0.  0.
</event>
<event>
 5    0  0.5474724E-005  0.2940332E+03  0.7546771E-02  0.1088262E+00
         21   -1    0    0  502  501  0.00000000000E+00  0.00000000000E+00  0.17143698610E+03  0.17143698610E+03  0.00000000000E+00 0.  1.
         21   -1    0    0  501  502 -0.00000000000E+00 -0.00000000000E+00 -0.50429908627E+03  0.50429908627E+03  0.00000000000E+00 0.  1.
         25    1    1    2    0    0  0.10409679060E+03  0.78791950134E+01  0.68516951880E+02  0.17668558578E+03  0.12500000000E+03 0.  0.
         25    1    1    2    0    0 -0.90316918574E+02  0.34246872837E+02 -0.16790326686E+03  0.23053524915E+03  0.12500000000E+03 0.  0.
         25    1    1    2    0    0 -0.13779872028E+02 -0.42126067850E+02 -0.23347578518E+03  0.26851523743E+03  0.12500000000E+03 0.  0.
</event>
<event>
 5    0  0.5474724E-005  0.4177326E+03  0.7546771E-02  0.1037807E+00
         21   -1    0    0  502  501  0.00000000000E+00  0.00000000000E+00  0.14053209807E+03  0.14053209807E+03  0.00000000000E+00 0.  1.
         21   -1    0    0  501  502 -0.00000000000E+00 -0.00000000000E+00 -0.12417127970E+04  0.12417127970E+04  0.00000000000E+00 0.  1.
         25    1    1    2    0    0  0.60443500756E+02 -0.27590509838E+03 -0.74158481311E+03  0.80333683790E+03  0.12500000000E+03 0.  0.
         25    1    1    2    0    0  0.72789634497E+02  0.21534014342E+03 -0.18075425273E+03  0.31617528072E+03  0.12500000000E+03 0.  0.
         25    1    1    2    0    0 -0.13323313525E+03  0.60564954965E+02 -0.17884163311E+03  0.26273277647E+03  0.12500000000E+03 0.  0.
</event>
<event>
 5    0  0.5474724E-005  0.3225398E+03  0.7546771E-02  0.1074486E+00
         21   -1    0    0  502  501  0.00000000000E+00  0.00000000000E+00  0.98839591149E+03  0.98839591149E+03  0.00000000000E+00 0.  1.
         21   -1    0    0  501  502 -0.00000000000E+00 -0.00000000000E+00 -0.10525329229E+03  0.10525329229E+03  0.00000000000E+00 0.  1.
         25    1    1    2    0    0 -0.50810750920E+02 -0.12308867973E+02  0.30452606611E+03  0.33330821409E+03  0.12500000000E+03 0.  0.
         25    1    1    2    0    0  0.14366529846E+03  0.96251315537E+02  0.74369386076E+02  0.22596424343E+03  0.12500000000E+03 0.  0.
         25    1    1    2    0    0 -0.92854547541E+02 -0.83942447564E+02  0.50424716701E+03  0.53437674626E+03  0.12500000000E+03 0.  0.
</event>
<event>
 5    0  0.5474724E-005  0.2936525E+03  0.7546771E-02  0.1088457E+00
         21   -1    0    0  502  501  0.00000000000E+00  0.00000000000E+00  0.21144395888E+03  0.21144395888E+03  0.00000000000E+00 0.  1.
         21   -1    0    0  501  502 -0.00000000000E+00 -0.00000000000E+00 -0.40782329494E+03  0.40782329494E+03  0.00000000000E+00 0. -1.
         25    1    1    2    0    0 -0.66372675912E+02 -0.18629696422E+03 -0.13748669616E+03  0.27136595697E+03  0.12500000000E+03 0.  0.
         25    1    1    2    0    0  0.76245973514E+02  0.15333292289E+03 -0.50712406314E+02  0.21799353631E+03  0.12500000000E+03 0.  0.
         25    1    1    2    0    0 -0.98732976013E+01  0.32964041327E+02 -0.81802335837E+01  0.12990776054E+03  0.12500000000E+03 0.  0.
</event>
<event>
 5    0  0.5474724E-005  0.4878568E+03  0.7546771E-02  0.1016998E+00
         21   -1    0    0  502  501  0.00000000000E+00  0.00000000000E+00  0.81446440465E+03  0.81446440465E+03  0.00000000000E+00 0.  1.
         21   -1    0    0  501  502 -0.00000000000E+00 -0.00000000000E+00 -0.29222183460E+03  0.29222183460E+03  0.00000000000E+00 0. -1.
         25    1    1    2    0    0 -0.36574494735E+03 -0.15503172797E+03  0.28442118167E+03  0.50430606954E+03  0.12500000000E+03 0.  0.
         25    1    1    2    0    0  0.27596518703E+02  0.94898857458E+02 -0.11788207126E+02  0.15978523968E+03  0.12500000000E+03 0.  0.
         25    1    1    2    0    0  0.33814842865E+03  0.60132870511E+02  0.24960959551E+03  0.44259493003E+03  0.12500000000E+03 0.  0.
</event>
<event>
 5    0  0.5474724E-005  0.2478247E+03  0.7546771E-02  0.1114687E+00
         21   -1    0    0  502  501  0.00000000000E+00  0.00000000000E+00  0.24770052728E+03  0.24770052728E+03  0.00000000000E+00 0. -1.
         21   -1    0    0  501  502 -0.00000000000E+00 -0.00000000000E+00 -0.24794883741E+03  0.24794883741E+03  0.00000000000E+00 0. -1.
         25    1    1    2    0    0  0.24786022827E+02  0.41729238319E+02 -0.36122602999E+02  0.13887231080E+03  0.12500000000E+03 0.  0.
         25    1    1    2    0    0  0.10949597973E+03  0.25985514366E+01  0.14264205612E+02  0.16680704304E+03  0.12500000000E+03 0.  0.
         25    1    1    2    0    0 -0.13428200255E+03 -0.44327789755E+02  0.21610087252E+02  0.18997001086E+03  0.12500000000E+03 0.  0.
</event>
<event>
 5    0  0.5474724E-005  0.4985436E+03  0.7546771E-02  0.1014160E+00
         21   -1    0    0  502  501  0.00000000000E+00  0.00000000000E+00  0.31128318753E+03  0.31128318753E+03  0.00000000000E+00 0.  1.
         21   -1    0    0  501  502 -0.00000000000E+00 -0.00000000000E+00 -0.79845533668E+03  0.79845533668E+03  0.00000000000E+00 0.  1.
         25    1    1    2    0    0 -0.15845105398E+03  0.22367381135E+03 -0.22799799192E+03  0.37781582115E+03  0.12500000000E+03 0.  0.
         25    1    1    2    0    0 -0.16023741364E+03 -0.11868490309E+03 -0.28890045939E+03  0.37262663672E+03  0.12500000000E+03 0.  0.
         25    1    1    2    0    0  0.31868846762E+03 -0.10498890826E+03  0.29726302169E+02  0.35929606635E+03  0.12500000000E+03 0.  0.
</event>
<event>
 5    0  0.5474724E-005  0.3047849E+03  0.7546771E-02  0.1082873E+00
         21   -1    0    0  502  501  0.00000000000E+00  0.00000000000E+00  0.31763082631E+03  0.31763082631E+03  0.00000000000E+00 0. -1.
         21   -1    0    0  501  502 -0.00000000000E+00 -0.00000000000E+00 -0.29245855600E+03  0.29245855600E+03  0.00000000000E+00 0. -1.
         25    1    1    2    0    0 -0.78954914657E+02  0.31979150255E+02  0.12256728124E+03  0.19469022325E+03  0.12500000000E+03 0.  0.
         25    1    1    2    0    0  0.64670365720E+02  0.91746892772E+02 -0.15620385049E+03  0.22940006854E+03  0.12500000000E+03 0.  0.
         25    1    1    2    0    0  0.14284548937E+02 -0.12372604303E+03  0.58808839568E+02  0.18599909052E+03  0.12500000000E+03 0.  0.
</event>
<event>
 5    0  0.6459862E-005  0.3175551E+03  0.7546771E-02  0.1076780E+00
         21   -1    0    0  502  501  0.00000000000E+00  0.00000000000E+00  0.48756591179E+03  0.48756591179E+03  0.00000000000E+00 0. -1.
         21   -1    0    0  501  502 -0.00000000000E+00 -0.00000000000E+00 -0.20682581643E+03  0.20682581643E+03  0.00000000000E+00 0. -1.
         25    1    1    2    0    0  0.15714905276E+03  0.12230615853E+03  0.20367591019E+03  0.31106831659E+03  0.12500000000E+03 0.  0.
         25    1    1    2    0    0 -0.19057520740E+02 -0.13916282096E+03  0.47951363282E+02  0.19404590456E+03  0.12500000000E+03 0.  0.
         25    1    1    2    0    0 -0.13809153202E+03  0.16856662431E+02  0.29112821893E+02  0.18927750707E+03  0.12500000000E+03 0.  0.
</event>
<event>
 5    0  0.5474724E-005  0.2388742E+03  0.7546771E-02  0.1120545E+00
         21   -1    0    0  502  501  0.00000000000E+00  0.00000000000E+00  0.53353940731E+02  0.53353940731E+02  0.00000000000E+00 0. -1.
         21   -1    0    0  501  502 -0.00000000000E+00 -0.00000000000E+00 -0.10694784748E+04  0.10694784748E+04  0.00000000000E+00 0. -1.
         25    1    1    2    0    0 -0.57367701837E+02 -0.91771121165E+02 -0.26029338505E+03  0.30836769966E+03  0.12500000000E+03 0.  0.
         25    1    1    2    0    0  0.89819975747E+02  0.26949349034E+02 -0.44629606879E+03  0.47286264018E+03  0.12500000000E+03 0.  0.
         25    1    1    2    0    0 -0.32452273910E+02  0.64821772131E+02 -0.30953508021E+03  0.34160207568E+03  0.12500000000E+03 0.  0.
</event>
<event>
 5    0  0.5510474E-005  0.2547690E+03  0.7546771E-02  0.1110327E+00
         21   -1    0    0  502  501  0.00000000000E+00  0.00000000000E+00  0.29660983843E+03  0.29660983843E+03  0.00000000000E+00 0. -1.
         21   -1    0    0  501  502 -0.00000000000E+00 -0.00000000000E+00 -0.21883040926E+03  0.21883040926E+03  0.00000000000E+00 0. -1.
         25    1    1    2    0    0  0.44620232235E+02  0.24717430223E+02  0.48696922331E+02  0.14352110202E+03  0.12500000000E+03 0.  0.
         25    1    1    2    0    0  0.62526920080E+02 -0.78886931049E+02 -0.66807079558E+02  0.17384173695E+03  0.12500000000E+03 0.  0.
         25    1    1    2    0    0 -0.10714715232E+03  0.54169500826E+02  0.95889586399E+02  0.19807740873E+03  0.12500000000E+03 0.  0.
</event>
<event>
 5    0  0.5474724E-005  0.2574018E+03  0.7546771E-02  0.1108714E+00
         21   -1    0    0  502  501  0.00000000000E+00  0.00000000000E+00  0.56597634899E+03  0.56597634899E+03  0.00000000000E+00 0.  1.
         21   -1    0    0  501  502 -0.00000000000E+00 -0.00000000000E+00 -0.11706440889E+03  0.11706440889E+03  0.00000000000E+00 0.  1.
         25    1    1    2    0    0 -0.33191384346E+02 -0.11509967368E+03  0.13078527553E+03  0.21697785871E+03  0.12500000000E+03 0.  0.
         25    1    1    2    0    0 -0.66989029848E+02  0.44251642334E+02  0.75025383314E+02  0.16643180619E+03  0.12500000000E+03 0.  0.
         25    1    1    2    0    0  0.10018041419E+03  0.70848031341E+02  0.24310128126E+03  0.29963109298E+03  0.12500000000E+03 0.  0.
</event>
<event>
 5    0  0.5474724E-005  0.2340139E+03  0.7546771E-02  0.1123846E+00
         21   -1    0    0  502  501  0.00000000000E+00  0.00000000000E+00  0.82156316413E+02  0.82156316413E+02  0.00000000000E+00 0. -1.
         21   -1    0    0  501  502 -0.00000000000E+00 -0.00000000000E+00 -0.66656483119E+03  0.66656483119E+03  0.00000000000E+00 0. -1.
         25    1    1    2    0    0  0.68599580330E+01 -0.42443785135E+02 -0.17572870099E+03  0.21989568043E+03  0.12500000000E+03 0.  0.
         25    1    1    2    0    0  0.76483098608E+02  0.45309056277E+02 -0.31867396836E+03  0.35366746114E+03  0.12500000000E+03 0.  0.
         25    1    1    2    0    0 -0.83343056641E+02 -0.28652711420E+01 -0.90005845427E+02  0.17515800604E+03  0.12500000000E+03 0.  0.
</event>
<event>
 5    0  0.5474724E-005  0.2818147E+03  0.7546771E-02  0.1094702E+00
         21   -1    0    0  502  501  0.00000000000E+00  0.00000000000E+00  0.43681589307E+03  0.43681589307E+03  0.00000000000E+00 0. -1.
         21   -1    0    0  501  502 -0.00000000000E+00 -0.00000000000E+00 -0.18181467514E+03  0.18181467514E+03  0.00000000000E+00 0. -1.
         25    1    1    2    0    0 -0.28776603981E+02  0.78245513482E+02  0.10958295918E+03  0.18596741182E+03  0.12500000000E+03 0.  0.
         25    1    1    2    0    0  0.36424993320E+02 -0.18849954599E+03  0.32963264822E+02  0.23145288031E+03  0.12500000000E+03 0.  0.
         25    1    1    2    0    0 -0.76483893396E+01  0.11025403251E+03  0.11245499393E+03  0.20121027609E+03  0.12500000000E+03 0.  0.
</event>
<event>
 5    0  0.5474724E-005  0.3100571E+03  0.7546771E-02  0.1080319E+00
         21   -1    0    0  502  501  0.00000000000E+00  0.00000000000E+00  0.96437479509E+03  0.96437479509E+03  0.00000000000E+00 0. -1.
         21   -1    0    0  501  502 -0.00000000000E+00 -0.00000000000E+00 -0.99686750986E+02  0.99686750986E+02  0.00000000000E+00 0. -1.
         25    1    1    2    0    0 -0.59444697922E+02 -0.16217086671E+02  0.14441850656E+03  0.20069472103E+03  0.12500000000E+03 0.  0.
         25    1    1    2    0    0  0.13394010785E+03 -0.94342540557E+02  0.62330162848E+03  0.65648334900E+03  0.12500000000E+03 0.  0.
         25    1    1    2    0    0 -0.74495409925E+02  0.11055962723E+03  0.96967909062E+02  0.20688347605E+03  0.12500000000E+03 0.  0.
</event>
<event>
 5    0  0.5474724E-005  0.3157622E+03  0.7546771E-02  0.1077616E+00
         21   -1    0    0  502  501  0.00000000000E+00  0.00000000000E+00  0.79639493267E+03  0.79639493267E+03  0.00000000000E+00 0.  1.
         21   -1    0    0  501  502 -0.00000000000E+00 -0.00000000000E+00 -0.12519637475E+03  0.12519637475E+03  0.00000000000E+00 0.  1.
         25    1    1    2    0    0 -0.20727696547E+01 -0.55281727087E+02  0.27429706709E+02  0.13941934777E+03  0.12500000000E+03 0.  0.
         25    1    1    2    0    0  0.16257598861E+03 -0.21783256778E+02  0.43138227887E+03  0.47814342291E+03  0.12500000000E+03 0.  0.
         25    1    1    2    0    0 -0.16050321896E+03  0.77064983865E+02  0.21238657234E+03  0.30402853673E+03  0.12500000000E+03 0.  0.
</event>
<event>
 5    0  0.5474724E-005  0.4434799E+03  0.7546771E-02  0.1029684E+00
         21   -1    0    0  502  501  0.00000000000E+00  0.00000000000E+00  0.25537859809E+03  0.25537859809E+03  0.00000000000E+00 0.  1.
         21   -1    0    0  501  502 -0.00000000000E+00 -0.00000000000E+00 -0.77012888617E+03  0.77012888617E+03  0.00000000000E+00 0.  1.
         25    1    1    2    0    0 -0.71856525083E+02 -0.87523135768E+02  0.15504929435E+02  0.16937845887E+03  0.12500000000E+03 0.  0.
         25    1    1    2    0    0  0.40578787735E+02 -0.25232709134E+03 -0.12208083735E+03  0.30958735421E+03  0.12500000000E+03 0.  0.
         25    1    1    2    0    0  0.31277737348E+02  0.33985022710E+03 -0.40817438016E+03  0.54654167118E+03  0.12500000000E+03 0.  0.
</event>
<event>
 5    0  0.5474724E-005  0.2034584E+03  0.7546771E-02  0.1146853E+00
         21   -1    0    0  502  501  0.00000000000E+00  0.00000000000E+00  0.98191876819E+02  0.98191876819E+02  0.00000000000E+00 0.  1.
         21   -1    0    0  501  502 -0.00000000000E+00 -0.00000000000E+00 -0.42157598933E+03  0.42157598933E+03  0.00000000000E+00 0.  1.
         25    1    1    2    0    0 -0.52076021998E+02  0.10941430488E+02 -0.10143087061E+03  0.16954305790E+03  0.12500000000E+03 0.  0.
         25    1    1    2    0    0 -0.71259207036E+01 -0.10115268481E+02 -0.66430792570E+02  0.14209555800E+03  0.12500000000E+03 0.  0.
         25    1    1    2    0    0  0.59201942702E+02 -0.82616200703E+00 -0.15552244933E+03  0.20812925025E+03  0.12500000000E+03 0.  0.
</event>
<event>
 5    0  0.5474724E-005  0.2949591E+03  0.7546771E-02  0.1087788E+00
         21   -1    0    0  502  501  0.00000000000E+00  0.00000000000E+00  0.71360802905E+03  0.71360802905E+03  0.00000000000E+00 0.  1.
         21   -1    0    0  501  502 -0.00000000000E+00 -0.00000000000E+00 -0.12191692509E+03  0.12191692509E+03  0.00000000000E+00 0.  1.
         25    1    1    2    0    0 -0.13427038881E+03  0.10865306400E+03  0.95729266669E+02  0.23371589190E+03  0.12500000000E+03 0.  0.
         25    1    1    2    0    0  0.96389691901E+01 -0.88643118635E+01  0.11554250607E+03  0.17072362596E+03  0.12500000000E+03 0.  0.
         25    1    1    2    0    0  0.12463141962E+03 -0.99788752134E+02  0.38041933122E+03  0.43108543628E+03  0.12500000000E+03 0.  0.
</event>
<event>
 5    0  0.5474724E-005  0.2611402E+03  0.7546771E-02  0.1106460E+00
         21   -1    0    0  502  501  0.00000000000E+00  0.00000000000E+00  0.41754264945E+03  0.41754264945E+03  0.00000000000E+00 0.  1.
         21   -1    0    0  501  502 -0.00000000000E+00 -0.00000000000E+00 -0.16332269186E+03  0.16332269186E+03  0.00000000000E+00 0.  1.
         25    1    1    2    0    0  0.14733181434E+02 -0.20400208395E+02  0.15518341799E+03  0.20084852092E+03  0.12500000000E+03 0.  0.
         25    1    1    2    0    0  0.11527356418E+03 -0.25846755536E+02  0.65298221838E+01  0.17211533327E+03  0.12500000000E+03 0.  0.
         25    1    1    2    0    0 -0.13000674561E+03  0.46246963931E+02  0.92506717419E+02  0.20790148712E+03  0.12500000000E+03 0.  0.
</event>
<event>
 5    0  0.5474724E-005  0.3761919E+03  0.7546771E-02  0.1052350E+00
         21   -1    0    0  502  501  0.00000000000E+00  0.00000000000E+00  0.47651504761E+03  0.47651504761E+03  0.00000000000E+00 0.  1.
         21   -1    0    0  501  502 -0.00000000000E+00 -0.00000000000E+00 -0.29699028292E+03  0.29699028292E+03  0.00000000000E+00 0.  1.
         25    1    1    2    0    0  0.78335955593E+02 -0.68809648927E+02  0.96198443372E+02  0.18907784172E+03  0.12500000000E+03 0.  0.
         25    1    1    2    0    0 -0.32607746821E+02 -0.18248522819E+03  0.17685518360E+03  0.28507346356E+03  0.12500000000E+03 0.  0.
         25    1    1    2    0    0 -0.45728208772E+02  0.25129487712E+03 -0.93528862283E+02  0.29935402523E+03  0.12500000000E+03 0.  0.
</event>
<event>
 5    0  0.5474724E-005  0.3734939E+03  0.7546771E-02  0.1053365E+00
         21   -1    0    0  502  501  0.00000000000E+00  0.00000000000E+00  0.75679812959E+02  0.75679812959E+02  0.00000000000E+00 0. -1.
         21   -1    0    0  501  502 -0.00000000000E+00 -0.00000000000E+00 -0.18432613480E+04  0.18432613480E+04  0.00000000000E+00 0. -1.
         25    1    1    2    0    0 -0.86500096182E+02  0.54060113602E+02 -0.36009221941E+03  0.39458353869E+03  0.12500000000E+03 0.  0.
         25    1    1    2    0    0 -0.15482972740E+02  0.19164857468E+03 -0.97383192673E+03  0.10004711491E+04  0.12500000000E+03 0.  0.
         25    1    1    2    0    0  0.10198306892E+03 -0.24570868828E+03 -0.43365738889E+03  0.52388647318E+03  0.12500000000E+03 0.  0.
</event>
<event>
 5    0  0.5474724E-005  0.2507619E+03  0.7546771E-02  0.1112824E+00
         21   -1    0    0  502  501  0.00000000000E+00  0.00000000000E+00  0.11745230526E+03  0.11745230526E+03  0.00000000000E+00 0.  1.
         21   -1    0    0  501  502 -0.00000000000E+00 -0.00000000000E+00 -0.53537934966E+03  0.53537934966E+03  0.00000000000E+00 0.  1.
         25    1    1    2    0    0 -0.35719465942E+01  0.23283373985E+02 -0.67175890819E+01  0.12737739324E+03  0.12500000000E+03 0.  0.
         25    1    1    2    0    0 -0.41881542483E+02 -0.31220372948E+02 -0.56939039745E+02  0.14695519567E+03  0.12500000000E+03 0.  0.
         25    1    1    2    0    0  0.45453489077E+02  0.79369989624E+01 -0.35427041557E+03  0.37849906601E+03  0.12500000000E+03 0.  0.
</event>
<event>
 5    0  0.5474724E-005  0.2147322E+03  0.7546771E-02  0.1137872E+00
         21   -1    0    0  502  501  0.00000000000E+00  0.00000000000E+00  0.13738887410E+03  0.13738887410E+03  0.00000000000E+00 0. -1.
         21   -1    0    0  501  502 -0.00000000000E+00 -0.00000000000E+00 -0.33561610016E+03  0.33561610016E+03  0.00000000000E+00 0. -1.
         25    1    1    2    0    0  0.50737355624E+02  0.26005794549E+02 -0.12085456206E+03  0.18297924958E+03  0.12500000000E+03 0.  0.
         25    1    1    2    0    0  0.21117170626E+02 -0.15802158497E+02 -0.37330585410E+01  0.12780680277E+03  0.12500000000E+03 0.  0.
         25    1    1    2    0    0 -0.71854526251E+02 -0.10203636052E+02 -0.73639605462E+02  0.16221892191E+03  0.12500000000E+03 0.  0.
</event>
<event>
 5    0  0.5643669E-005  0.3204243E+03  0.7546771E-02  0.1075454E+00
         21   -1    0    0  502  501  0.00000000000E+00  0.00000000000E+00  0.19266133683E+03  0.19266133683E+03  0.00000000000E+00 0. -1.
         21   -1    0    0  501  502 -0.00000000000E+00 -0.00000000000E+00 -0.53291309397E+03  0.53291309397E+03  0.00000000000E+00 0. -1.
         25    1    1    2    0    0 -0.51942369111E+02  0.66349096227E+02  0.40714941828E+02  0.15615030825E+03  0.12500000000E+03 0.  0.
         25    1    1    2    0    0  0.13509040434E+03  0.91327323648E+02 -0.18145793434E+03  0.27412055618E+03  0.12500000000E+03 0.  0.
         25    1    1    2    0    0 -0.83148035226E+02 -0.15767641988E+03 -0.19950876463E+03  0.29530356637E+03  0.12500000000E+03 0.  0.
</event>
<event>
 5    0  0.5474724E-005  0.2222240E+03  0.7546771E-02  0.1132236E+00
         21   -1    0    0  502  501  0.00000000000E+00  0.00000000000E+00  0.49588435278E+03  0.49588435278E+03  0.00000000000E+00 0.  1.
         21   -1    0    0  501  502 -0.00000000000E+00 -0.00000000000E+00 -0.99586739715E+02  0.99586739715E+02  0.00000000000E+00 0.  1.
         25    1    1    2    0    0  0.81211562970E+02 -0.40367826558E+02  0.13780655125E+03  0.20697952785E+03  0.12500000000E+03 0.  0.
         25    1    1    2    0    0 -0.39005220790E+02 -0.58413150982E+01  0.19499692119E+03  0.23495601181E+03  0.12500000000E+03 0.  0.
         25    1    1    2    0    0 -0.42206342180E+02  0.46209141656E+02  0.63494140629E+02  0.15353555284E+03  0.12500000000E+03 0.  0.
</event>
<event>
 5    0  0.5474724E-005  0.2543171E+03  0.7546771E-02  0.1110607E+00
         21   -1    0    0  502  501  0.00000000000E+00  0.00000000000E+00  0.31414664152E+02  0.31414664152E+02  0.00000000000E+00 0.  1.
         21   -1    0    0  501  502 -0.00000000000E+00 -0.00000000000E+00 -0.20588211066E+04  0.20588211066E+04  0.00000000000E+00 0.  1.
         25    1    1    2    0    0 -0.53629311898E+02  0.31872824169E+02 -0.91056729605E+03  0.92122189545E+03  0.12500000000E+03 0.  0.
         25    1    1    2    0    0 -0.14274167999E+02  0.45667658667E+02 -0.21890478574E+03  0.25658057631E+03  0.12500000000E+03 0.  0.
         25    1    1    2    0    0  0.67903479897E+02 -0.77540482835E+02 -0.89793436065E+03  0.91243329899E+03  0.12500000000E+03 0.  0.
</event>
<event>
 5    0  0.5474724E-005  0.3130224E+03  0.7546771E-02  0.1078906E+00
         21   -1    0    0  502  501  0.00000000000E+00  0.00000000000E+00  0.38198804212E+03  0.38198804212E+03  0.00000000000E+00 0. -1.
         21   -1    0    0  501  502 -0.00000000000E+00 -0.00000000000E+00 -0.25650816131E+03  0.25650816131E+03  0.00000000000E+00 0. -1.
         25    1    1    2    0    0 -0.98592689240E+02 -0.99054806326E+02 -0.16602857693E+02  0.18823662744E+03  0.12500000000E+03 0.  0.
         25    1    1    2    0    0  0.74764304360E+02 -0.10912577704E+03  0.77891322724E+02  0.19796513475E+03  0.12500000000E+03 0.  0.
         25    1    1    2    0    0  0.23828384880E+02  0.20818058337E+03  0.64191415780E+02  0.25229444123E+03  0.12500000000E+03 0.  0.
</event>
<event>
 5    0  0.5474724E-005  0.3984103E+03  0.7546771E-02  0.1044332E+00
         21   -1    0    0  502  501  0.00000000000E+00  0.00000000000E+00  0.55980845908E+03  0.55980845908E+03  0.00000000000E+00 0.  1.
         21   -1    0    0  501  502 -0.00000000000E+00 -0.00000000000E+00 -0.28354481543E+03  0.28354481543E+03  0.00000000000E+00 0.  1.
         25    1    1    2    0    0 -0.10208325806E+02 -0.13442694640E+03  0.45560384557E+03  0.49129897000E+03  0.12500000000E+03 0.  0.
         25    1    1    2    0    0 -0.36425628288E+02  0.44883705891E+02 -0.11329409866E+03  0.17833094583E+03  0.12500000000E+03 0.  0.
         25    1    1    2    0    0  0.46633954093E+02  0.89543240507E+02 -0.66046103260E+02  0.17372335868E+03  0.12500000000E+03 0.  0.
</event>
<event>
 5    0  0.5474724E-005  0.3947063E+03  0.7546771E-02  0.1045628E+00
         21   -1    0    0  502  501  0.00000000000E+00  0.00000000000E+00  0.19346869764E+03  0.19346869764E+03  0.00000000000E+00 0.  1.
         21   -1    0    0  501  502 -0.00000000000E+00 -0.00000000000E+00 -0.80526233694E+03  0.80526233694E+03  0.00000000000E+00 0.  1.
         25    1    1    2    0    0  0.27108798840E+03 -0.15217399417E+03 -0.24595360215E+03  0.41564864533E+03  0.12500000000E+03 0.  0.
         25    1    1    2    0    0 -0.10815693327E+03  0.18203108354E+03 -0.21370692873E+03  0.32577429146E+03  0.12500000000E+03 0.  0.
         25    1    1    2    0    0 -0.16293105513E+03 -0.29857089372E+02 -0.15213310842E+03  0.25730809779E+03  0.12500000000E+03 0.  0.
</event>
<event>
 5    0  0.5474724E-005  0.3456304E+03  0.7546771E-02  0.1064423E+00
         21   -1    0    0  502  501  0.00000000000E+00  0.00000000000E+00  0.18736081073E+03  0.18736081073E+03  0.00000000000E+00 0.  1.
         21   -1    0    0  501  502 -0.00000000000E+00 -0.00000000000E+00 -0.63759518047E+03  0.63759518047E+03  0.00000000000E+00 0.  1.
         25    1    1    2    0    0  0.14300854891E+03 -0.16782853117E+03 -0.39526047099E+03  0.46954627127E+03  0.12500000000E+03 0.  0.
         25    1    1    2    0    0 -0.12980868914E+03  0.11068783624E+03 -0.49628462191E+02  0.21723277176E+03  0.12500000000E+03 0.  0.
         25    1    1    2    0    0 -0.13199859773E+02  0.57140694923E+02 -0.53454365563E+01  0.13817694817E+03  0.12500000000E+03 0.  0.
</event>
<event>
 5    0  0.5474724E-005  0.3242179E+03  0.7546771E-02  0.1073724E+00
         21   -1    0    0  502  501  0.00000000000E+00  0.00000000000E+00  0.16220891899E+04  0.16220891899E+04  0.00000000000E+00 0. -1.
         21   -1    0    0  501  502 -0.00000000000E+00 -0.00000000000E+00 -0.64803598445E+02  0.64803598445E+02  0.00000000000E+00 0. -1.
         25    1    1    2    0    0 -0.16667318323E+03  0.84580223595E+02  0.43431583084E+03  0.48906952997E+03  0.12500000000E+03 0.  0.
         25    1    1    2    0    0  0.97505585842E+02 -0.23317715823E+02  0.17533986961E+03  0.23752920877E+03  0.12500000000E+03 0.  0.
         25    1    1    2    0    0  0.69167597384E+02 -0.61262507772E+02  0.94762989103E+03  0.96029404963E+03  0.12500000000E+03 0.  0.
</event>
<event>
 5    0  0.5474724E-005  0.5056894E+03  0.7546771E-02  0.1012304E+00
         21   -1    0    0  502  501  0.00000000000E+00  0.00000000000E+00  0.86467014708E+03  0.86467014708E+03  0.00000000000E+00 0. -1.
         21   -1    0    0  501  502 -0.00000000000E+00 -0.00000000000E+00 -0.29574490177E+03  0.29574490177E+03  0.00000000000E+00 0. -1.
         25    1    1    2    0    0 -0.34734749457E+03 -0.18281885283E+03  0.46725901041E+03  0.62291973620E+03  0.12500000000E+03 0.  0.
         25    1    1    2    0    0  0.28570081577E+03  0.12170277660E+03 -0.30215594926E+02  0.33611680134E+03  0.12500000000E+03 0.  0.
         25    1    1    2    0    0  0.61646678798E+02  0.61116076233E+02  0.13188182982E+03  0.20137851131E+03  0.12500000000E+03 0.  0.
</event>
<event>
 5    0  0.5474724E-005  0.4085884E+03  0.7546771E-02  0.1040846E+00
         21   -1    0    0  502  501  0.00000000000E+00  0.00000000000E+00  0.59752268964E+03  0.59752268964E+03  0.00000000000E+00 0.  1.
         21   -1    0    0  501  502 -0.00000000000E+00 -0.00000000000E+00 -0.27939437971E+03  0.27939437971E+03  0.00000000000E+00 0.  1.
         25    1    1    2    0    0  0.69465623461E+02 -0.36199331909E+02 -0.31927787275E+01  0.14755018912E+03  0.12500000000E+03 0.  0.
         25    1    1    2    0    0  0.25540425013E+03  0.87505837533E+02  0.19406984373E+03  0.35521360733E+03  0.12500000000E+03 0.  0.
         25    1    1    2    0    0 -0.32486987359E+03 -0.51306505624E+02  0.12725124492E+03  0.37415327290E+03  0.12500000000E+03 0.  0.
</event>
<event>
 5    0  0.5474724E-005  0.2586544E+03  0.7546771E-02  0.1107954E+00
         21   -1    0    0  502  501  0.00000000000E+00  0.00000000000E+00  0.15768972000E+03  0.15768972000E+03  0.00000000000E+00 0. -1.
         21   -1    0    0  501  502 -0.00000000000E+00 -0.00000000000E+00 -0.42426415962E+03  0.42426415962E+03  0.00000000000E+00 0. -1.
         25    1    1    2    0    0 -0.11200512326E+03  0.55161265006E+02 -0.18680562706E+02  0.17765662447E+03  0.12500000000E+03 0.  0.
         25    1    1    2    0    0  0.22644807972E+02 -0.34986262509E+02 -0.20465364479E+03  0.24340283527E+03  0.12500000000E+03 0.  0.
         25    1    1    2    0    0  0.89360315293E+02 -0.20175002497E+02 -0.43240232124E+02  0.16089441988E+03  0.12500000000E+03 0.  0.
</event>
<event>
 5    0  0.5474724E-005  0.3049091E+03  0.7546771E-02  0.1082812E+00
         21   -1    0    0  502  501  0.00000000000E+00  0.00000000000E+00  0.67746268680E+02  0.67746268680E+02  0.00000000000E+00 0. -1.
         21   -1    0    0  501  502 -0.00000000000E+00 -0.00000000000E+00 -0.13723199939E+04  0.13723199939E+04  0.00000000000E+00 0.  1.
         25    1    1    2    0    0  0.86367231041E+00  0.12754151298E+03 -0.37400100252E+03  0.41445064043E+03  0.12500000000E+03 0.  0.
         25    1    1    2    0    0 -0.29673591051E+02 -0.23164774996E+03 -0.60805203729E+03  0.66324466234E+03  0.12500000000E+03 0.  0.
         25    1    1    2    0    0  0.28809918740E+02  0.10410623698E+03 -0.32252068536E+03  0.36237095977E+03  0.12500000000E+03 0.  0.
</event>
<event>
 5    0  0.5474724E-005  0.3603490E+03  0.7546771E-02  0.1058446E+00
         21   -1    0    0  502  501  0.00000000000E+00  0.00000000000E+00  0.48499065147E+03  0.48499065147E+03  0.00000000000E+00 0.  1.
         21   -1    0    0  501  502 -0.00000000000E+00 -0.00000000000E+00 -0.26774004692E+03  0.26774004692E+03  0.00000000000E+00 0.  1.
         25    1    1    2    0    0  0.18859384053E+03  0.22156068200E+02  0.36385149470E+02  0.23023337540E+03  0.12500000000E+03 0.  0.
         25    1    1    2    0    0 -0.23095162308E+03 -0.55347309721E+02 -0.31548729533E+02  0.27022638515E+03  0.12500000000E+03 0.  0.
         25    1    1    2    0    0  0.42357782549E+02  0.33191241521E+02  0.21241418461E+03  0.25227093784E+03  0.12500000000E+03 0.  0.
</event>
<event>
 5    0  0.5474724E-005  0.3202729E+03  0.7546771E-02  0.1075524E+00
         21   -1    0    0  502  501  0.00000000000E+00  0.00000000000E+00  0.19264295248E+04  0.19264295248E+04  0.00000000000E+00 0. -1.
         21   -1    0    0  501  502 -0.00000000000E+00 -0.00000000000E+00 -0.53246048169E+02  0.53246048169E+02  0.00000000000E+00 0. -1.
         25    1    1    2    0    0 -0.45182222017E+02  0.47102017597E+02  0.13003042400E+04  0.13079281898E+04  0.12500000000E+03 0.  0.
         25    1    1    2    0    0  0.78701470530E+02  0.14812196729E+02  0.10359945420E+03  0.18102809049E+03  0.12500000000E+03 0.  0.
         25    1    1    2    0    0 -0.33519248513E+02 -0.61914214326E+02  0.46927978242E+03  0.49071929261E+03  0.12500000000E+03 0.  0.
</event>
<event>
 5    0  0.5474724E-005  0.2644610E+03  0.7546771E-02  0.1104492E+00
         21   -1    0    0  502  501  0.00000000000E+00  0.00000000000E+00  0.14927630835E+03  0.14927630835E+03  0.00000000000E+00 0. -1.
         21   -1    0    0  501  502 -0.00000000000E+00 -0.00000000000E+00 -0.46852463284E+03  0.46852463284E+03  0.00000000000E+00 0. -1.
         25    1    1    2    0    0  0.27888804680E+00  0.11759193990E+03 -0.47074432446E+01  0.17168314457E+03  0.12500000000E+03 0.  0.
         25    1    1    2    0    0 -0.10426855858E+02  0.18406586952E+02 -0.91541357508E+02  0.15637244610E+03  0.12500000000E+03 0.  0.
         25    1    1    2    0    0  0.10147967811E+02 -0.13599852686E+03 -0.22299952374E+03  0.28974535051E+03  0.12500000000E+03 0.  0.
</event>
<event>
 5    0  0.5474724E-005  0.4171721E+03  0.7546771E-02  0.1037991E+00
         21   -1    0    0  502  501  0.00000000000E+00  0.00000000000E+00  0.19954645618E+03  0.19954645618E+03  0.00000000000E+00 0.  1.
         21   -1    0    0  501  502 -0.00000000000E+00 -0.00000000000E+00 -0.87214061748E+03  0.87214061748E+03  0.00000000000E+00 0.  1.
         25    1    1    2    0    0 -0.71735215619E+02 -0.15467751589E+03 -0.15504307078E+03  0.26217251740E+03  0.12500000000E+03 0.  0.
         25    1    1    2    0    0  0.17514810965E+03 -0.14764267601E+03 -0.32246778441E+03  0.41483212518E+03  0.12500000000E+03 0.  0.
         25    1    1    2    0    0 -0.10341289403E+03  0.30232019190E+03 -0.19508330610E+03  0.39468243108E+03  0.12500000000E+03 0.  0.
</event>
<event>
 5    0  0.5474724E-005  0.2724443E+03  0.7546771E-02  0.1099889E+00
         21   -1    0    0  502  501  0.00000000000E+00  0.00000000000E+00  0.71399989181E+03  0.71399989181E+03  0.00000000000E+00 0.  1.
         21   -1    0    0  501  502 -0.00000000000E+00 -0.00000000000E+00 -0.10395785547E+03  0.10395785547E+03  0.00000000000E+00 0.  1.
         25    1    1    2    0    0  0.84686367720E+02  0.70660761771E+01  0.26889715081E+03  0.30846780711E+03  0.12500000000E+03 0.  0.
         25    1    1    2    0    0  0.20674061060E+02  0.32949106384E+02  0.20553812342E+01  0.13092854923E+03  0.12500000000E+03 0.  0.
         25    1    1    2    0    0 -0.10536042878E+03 -0.40015182561E+02  0.33908950429E+03  0.37856139094E+03  0.12500000000E+03 0.  0.
</event>
<event>
 5    0  0.5474724E-005  0.4127469E+03  0.7546771E-02  0.1039453E+00
         21   -1    0    0  502  501  0.00000000000E+00  0.00000000000E+00  0.47202776460E+03  0.47202776460E+03  0.00000000000E+00 0.  1.
         21   -1    0    0  501  502 -0.00000000000E+00 -0.00000000000E+00 -0.36091100455E+03  0.36091100455E+03  0.00000000000E+00 0.  1.
         25    1    1    2    0    0 -0.45150297810E+02  0.15667134242E+03 -0.41895861617E+02  0.20967766249E+03  0.12500000000E+03 0.  0.
         25    1    1    2    0    0 -0.20177407645E+03 -0.11992402856E+03  0.20934496257E+03  0.33844477231E+03  0.12500000000E+03 0.  0.
         25    1    1    2    0    0  0.24692437426E+03 -0.36747313856E+02 -0.56332340910E+02  0.28481633434E+03  0.12500000000E+03 0.  0.
</event>
<event>
 5    0  0.5474724E-005  0.3538613E+03  0.7546771E-02  0.1061041E+00
         21   -1    0    0  502  501  0.00000000000E+00  0.00000000000E+00  0.33495272697E+03  0.33495272697E+03  0.00000000000E+00 0. -1.
         21   -1    0    0  501  502 -0.00000000000E+00 -0.00000000000E+00 -0.37383727088E+03  0.37383727088E+03  0.00000000000E+00 0. -1.
         25    1    1    2    0    0 -0.21321380820E+02 -0.19550049779E+02  0.18971563033E+03  0.22902800291E+03  0.12500000000E+03 0.  0.
         25    1    1    2    0    0 -0.10839736744E+03 -0.98370359471E+02 -0.47116157437E+02  0.19817075763E+03  0.12500000000E+03 0.  0.
         25    1    1    2    0    0  0.12971874826E+03  0.11792040925E+03 -0.18148401681E+03  0.28159123730E+03  0.12500000000E+03 0.  0.
</event>
<event>
 5    0  0.5474724E-005  0.3038820E+03  0.7546771E-02  0.1083316E+00
         21   -1    0    0  502  501  0.00000000000E+00  0.00000000000E+00  0.53153395048E+03  0.53153395048E+03  0.00000000000E+00 0. -1.
         21   -1    0    0  501  502 -0.00000000000E+00 -0.00000000000E+00 -0.17373162164E+03  0.17373162164E+03  0.00000000000E+00 0. -1.
         25    1    1    2    0    0  0.82607372322E+02  0.43908648148E+02 -0.40028099833E+02  0.16118063196E+03  0.12500000000E+03 0.  0.
         25    1    1    2    0    0 -0.14487082891E+03  0.50153687071E+02  0.17020998595E+03  0.26095859578E+03  0.12500000000E+03 0.  0.
         25    1    1    2    0    0  0.62263456592E+02 -0.94062335219E+02  0.22762044272E+03  0.28312634437E+03  0.12500000000E+03 0.  0.
</event>
<event>
 5    0  0.5474724E-005  0.2764811E+03  0.7546771E-02  0.1097627E+00
         21   -1    0    0  502  501  0.00000000000E+00  0.00000000000E+00  0.10595088275E+03  0.10595088275E+03  0.00000000000E+00 0. -1.
         21   -1    0    0  501  502 -0.00000000000E+00 -0.00000000000E+00 -0.72148356934E+03  0.72148356934E+03  0.00000000000E+00 0. -1.
         25    1    1    2    0    0  0.45392762453E+02 -0.18674943177E+02 -0.36992959929E+03  0.39355071442E+03  0.12500000000E+03 0.  0.
         25    1    1    2    0    0  0.51571828094E+02 -0.91352998170E+02 -0.13433382642E+03  0.21136603476E+03  0.12500000000E+03 0.  0.
         25    1    1    2    0    0 -0.96964590547E+02  0.11002794135E+03 -0.11126926088E+03  0.22251770292E+03  0.12500000000E+03 0.  0.
</event>
<event>
 5    0  0.5474724E-005  0.5722779E+03  0.7546771E-02  0.9964650E-01
         21   -1    0    0  502  501  0.00000000000E+00  0.00000000000E+00  0.13519988956E+04  0.13519988956E+04  0.00000000000E+00 0.  1.
         21   -1    0    0  501  502 -0.00000000000E+00 -0.00000000000E+00 -0.24223543325E+03  0.24223543325E+03  0.00000000000E+00 0.  1.
         25    1    1    2    0    0  0.40304894774E+03 -0.46466934036E+02  0.82110272533E+02  0.43240574358E+03  0.12500000000E+03 0.  0.
         25    1    1    2    0    0 -0.25985504802E+03  0.12365212358E+03  0.77679921482E+03  0.83776877108E+03  0.12500000000E+03 0.  0.
         25    1    1    2    0    0 -0.14319389971E+03 -0.77185189542E+02  0.25085397501E+03  0.32405981420E+03  0.12500000000E+03 0.  0.
</event>
<event>
 5    0  0.6322578E-005  0.4163034E+03  0.7546771E-02  0.1038276E+00
         21   -1    0    0  502  501  0.00000000000E+00  0.00000000000E+00  0.65090347969E+03  0.65090347969E+03  0.00000000000E+00 0. -1.
         21   -1    0    0  501  502 -0.00000000000E+00 -0.00000000000E+00 -0.26625836639E+03  0.26625836639E+03  0.00000000000E+00 0. -1.
         25    1    1    2    0    0 -0.61531235328E+02 -0.79809131485E+02 -0.10907095722E+03  0.19410580645E+03  0.12500000000E+03 0.  0.
         25    1    1    2    0    0 -0.19749611465E+03  0.49045161799E+02  0.21380205329E+03  0.32054088848E+03  0.12500000000E+03 0.  0.
         25    1    1    2    0    0  0.25902734998E+03  0.30763969686E+02  0.27991401722E+03  0.40251515115E+03  0.12500000000E+03 0.  0.
</event>
<event>
 5    0  0.5474724E-005  0.2123343E+03  0.7546771E-02  0.1139731E+00
         21   -1    0    0  502  501  0.00000000000E+00  0.00000000000E+00  0.37364502631E+02  0.37364502631E+02  0.00000000000E+00 0. -1.
         21   -1    0    0  501  502 -0.00000000000E+00 -0.00000000000E+00 -0.12066488428E+04  0.12066488428E+04  0.00000000000E+00 0. -1.
         25    1    1    2    0    0 -0.44726090710E+01  0.57629884539E+02 -0.43429177808E+03  0.45560460526E+03  0.12500000000E+03 0.  0.
         25    1    1    2    0    0  0.36033689444E+02  0.24305383255E+02 -0.32786742732E+03  0.35356926949E+03  0.12500000000E+03 0.  0.
         25    1    1    2    0    0 -0.31561080373E+02 -0.81935267793E+02 -0.40712513474E+03  0.43483947065E+03  0.12500000000E+03 0.  0.
</event>
<event>
 5    0  0.5474724E-005  0.2871211E+03  0.7546771E-02  0.1091862E+00
         21   -1    0    0  502  501  0.00000000000E+00  0.00000000000E+00  0.27503692966E+03  0.27503692966E+03  0.00000000000E+00 0. -1.
         21   -1    0    0  501  502 -0.00000000000E+00 -0.00000000000E+00 -0.29973621308E+03  0.29973621308E+03  0.00000000000E+00 0. -1.
         25    1    1    2    0    0  0.39890030254E+02  0.11927574616E+03 -0.91371876342E+02  0.19947866533E+03  0.12500000000E+03 0.  0.
         25    1    1    2    0    0  0.33782653938E+02 -0.14447383813E+03  0.10838988579E+03  0.22223259201E+03  0.12500000000E+03 0.  0.
         25    1    1    2    0    0 -0.73672684192E+02  0.25198091969E+02 -0.41717292874E+02  0.15306188539E+03  0.12500000000E+03 0.  0.
</event>
<event>
 5    0  0.5474724E-005  0.2239740E+03  0.7546771E-02  0.1130954E+00
         21   -1    0    0  502  501  0.00000000000E+00  0.00000000000E+00  0.29913781980E+03  0.29913781980E+03  0.00000000000E+00 0.  1.
         21   -1    0    0  501  502 -0.00000000000E+00 -0.00000000000E+00 -0.16769647359E+03  0.16769647359E+03  0.00000000000E+00 0.  1.
         25    1    1    2    0    0  0.79209735540E+00  0.95292254522E+02  0.70256043175E+02  0.17216896582E+03  0.12500000000E+03 0.  0.
         25    1    1    2    0    0 -0.39997275216E+02 -0.44546033564E+02 -0.64417306757E+01  0.13874662888E+03  0.12500000000E+03 0.  0.
         25    1    1    2    0    0  0.39205177860E+02 -0.50746220958E+02  0.67627033706E+02  0.15591869869E+03  0.12500000000E+03 0.  0.
</event>
<event>
 5    0  0.5474724E-005  0.2772433E+03  0.7546771E-02  0.1097204E+00
         21   -1    0    0  502  501  0.00000000000E+00  0.00000000000E+00  0.16986061903E+03  0.16986061903E+03  0.00000000000E+00 0.  1.
         21   -1    0    0  501  502 -0.00000000000E+00 -0.00000000000E+00 -0.45251143394E+03  0.45251143394E+03  0.00000000000E+00 0.  1.
         25    1    1    2    0    0  0.14422644034E+03  0.11839546795E+02 -0.23911653769E+03  0.30617504725E+03  0.12500000000E+03 0.  0.
         25    1    1    2    0    0 -0.97003332414E+02  0.43714784293E+02  0.30287408216E+01  0.16417917693E+03  0.12500000000E+03 0.  0.
         25    1    1    2    0    0 -0.47223107924E+02 -0.55554331088E+02 -0.46563018041E+02  0.15201782880E+03  0.12500000000E+03 0.  0.
</event>
<event>
 5    0  0.5474724E-005  0.2817855E+03  0.7546771E-02  0.1094718E+00
         21   -1    0    0  502  501  0.00000000000E+00  0.00000000000E+00  0.74388845486E+03  0.74388845486E+03  0.00000000000E+00 0.  1.
         21   -1    0    0  501  502 -0.00000000000E+00 -0.00000000000E+00 -0.10674056531E+03  0.10674056531E+03  0.00000000000E+00 0.  1.
         25    1    1    2    0    0 -0.55033956673E+02  0.10741414294E+03  0.13666253862E+03  0.22106149360E+03  0.12500000000E+03 0.  0.
         25    1    1    2    0    0  0.12382093605E+03  0.14613637519E+02  0.33775566604E+03  0.38111556324E+03  0.12500000000E+03 0.  0.
         25    1    1    2    0    0 -0.68786979373E+02 -0.12202778046E+03  0.16272968489E+03  0.24845196333E+03  0.12500000000E+03 0.  0.
</event>
<event>
 5    0  0.5474724E-005  0.2823675E+03  0.7546771E-02  0.1094403E+00
         21   -1    0    0  502  501  0.00000000000E+00  0.00000000000E+00  0.48102768924E+02  0.48102768924E+02  0.00000000000E+00 0. -1.
         21   -1    0    0  501  502 -0.00000000000E+00 -0.00000000000E+00 -0.16575221345E+04  0.16575221345E+04  0.00000000000E+00 0. -1.
         25    1    1    2    0    0 -0.20934272523E+02  0.37716369610E+02 -0.25596570109E+03  0.28810450957E+03  0.12500000000E+03 0.  0.
         25    1    1    2    0    0  0.10349583470E+03  0.11511616687E+03 -0.79348717329E+03  0.81805257401E+03  0.12500000000E+03 0.  0.
         25    1    1    2    0    0 -0.82561562180E+02 -0.15283253648E+03 -0.55996649122E+03  0.59946781986E+03  0.12500000000E+03 0.  0.
</event>
<event>
 5    0  0.5474724E-005  0.3471674E+03  0.7546771E-02  0.1063784E+00
         21   -1    0    0  502  501  0.00000000000E+00  0.00000000000E+00  0.20293278624E+04  0.20293278624E+04  0.00000000000E+00 0.  1.
         21   -1    0    0  501  502 -0.00000000000E+00 -0.00000000000E+00 -0.59391670095E+02  0.59391670095E+02  0.00000000000E+00 0.  1.
         25    1    1    2    0    0  0.95192665747E+02  0.46376017236E+02  0.19531630958E+03  0.25492320290E+03  0.12500000000E+03 0.  0.
         25    1    1    2    0    0  0.13960213593E+03  0.28980940619E+01  0.85000776804E+03  0.87042251869E+03  0.12500000000E+03 0.  0.
         25    1    1    2    0    0 -0.23479480168E+03 -0.49274111298E+02  0.92461211472E+03  0.96337381095E+03  0.12500000000E+03 0.  0.
</event>
<event>
 5    0  0.5474724E-005  0.2529505E+03  0.7546771E-02  0.1111454E+00
         21   -1    0    0  502  501  0.00000000000E+00  0.00000000000E+00  0.29761462811E+03  0.29761462811E+03  0.00000000000E+00 0.  1.
         21   -1    0    0  501  502 -0.00000000000E+00 -0.00000000000E+00 -0.21498928676E+03  0.21498928676E+03  0.00000000000E+00 0.  1.
         25    1    1    2    0    0  0.10198460979E+03 -0.10873248901E+03  0.91878859818E+02  0.21515189909E+03  0.12500000000E+03 0.  0.
         25    1    1    2    0    0 -0.32995913049E+02  0.69630504371E+02  0.14390189860E+02  0.14754394254E+03  0.12500000000E+03 0.  0.
         25    1    1    2    0    0 -0.68988696739E+02  0.39101984638E+02 -0.23643708324E+02  0.14990807324E+03  0.12500000000E+03 0.  0.
</event>
<event>
 5    0  0.5474724E-005  0.4533057E+03  0.7546771E-02  0.1026741E+00
         21   -1    0    0  502  501  0.00000000000E+00  0.00000000000E+00  0.62141553837E+03  0.62141553837E+03  0.00000000000E+00 0.  1.
         21   -1    0    0  501  502 -0.00000000000E+00 -0.00000000000E+00 -0.33067411775E+03  0.33067411775E+03  0.00000000000E+00 0.  1.
         25    1    1    2    0    0  0.59137937294E+02  0.27251505526E+03  0.45954285258E+02  0.30902839239E+03  0.12500000000E+03 0.  0.
         25    1    1    2    0    0  0.19495159368E+03 -0.79130088747E+02  0.15098519807E+03  0.28755734187E+03  0.12500000000E+03 0.  0.
         25    1    1    2    0    0 -0.25408953098E+03 -0.19338496651E+03  0.93801937293E+02  0.35550392187E+03  0.12500000000E+03 0.  0.
</event>
<event>
 5    0  0.5474724E-005  0.2556371E+03  0.7546771E-02  0.1109793E+00
         21   -1    0    0  502  501  0.00000000000E+00  0.00000000000E+00  0.35163338190E+03  0.35163338190E+03  0.00000000000E+00 0. -1.
         21   -1    0    0  501  502 -0.00000000000E+00 -0.00000000000E+00 -0.18584784129E+03  0.18584784129E+03  0.00000000000E+00 0. -1.
         25    1    1    2    0    0  0.29762147098E+02 -0.85675154865E+02  0.55398596432E+02  0.16407322160E+03  0.12500000000E+03 0.  0.
         25    1    1    2    0    0  0.10375771689E+03  0.43372283170E+02  0.39325606845E+02  0.17267982544E+03  0.12500000000E+03 0.  0.
         25    1    1    2    0    0 -0.13351986399E+03  0.42302871696E+02  0.71061337338E+02  0.20072817614E+03  0.12500000000E+03 0.  0.
</event>
<event>
 5    0  0.5474724E-005  0.3014753E+03  0.7546771E-02  0.1084505E+00
         21   -1    0    0  502  501  0.00000000000E+00  0.00000000000E+00  0.30487746479E+02  0.30487746479E+02  0.00000000000E+00 0.  1.
         21   -1    0    0  501  502 -0.00000000000E+00 -0.00000000000E+00 -0.29811101549E+04  0.29811101549E+04  0.00000000000E+00 0.  1.
         25    1    1    2    0    0 -0.18323035995E+02  0.14658544387E+02 -0.17038913475E+04  0.17086314204E+04  0.12500000000E+03 0.  0.
         25    1    1    2    0    0 -0.12764865091E+03 -0.42944261388E+02 -0.64461037575E+03  0.67028794125E+03  0.12500000000E+03 0.  0.
         25    1    1    2    0    0  0.14597168690E+03  0.28285717001E+02 -0.60212068515E+03  0.63267853974E+03  0.12500000000E+03 0.  0.
</event>
<event>
 5    0  0.5474724E-005  0.4662088E+03  0.7546771E-02  0.1022996E+00
         21   -1    0    0  502  501  0.00000000000E+00  0.00000000000E+00  0.30717861615E+03  0.30717861615E+03  0.00000000000E+00 0.  1.
         21   -1    0    0  501  502 -0.00000000000E+00 -0.00000000000E+00 -0.70757076360E+03  0.70757076360E+03  0.00000000000E+00 0.  1.
         25    1    1    2    0    0  0.50135039045E+02 -0.31473332832E+03  0.22814778234E+02  0.34309780559E+03  0.12500000000E+03 0.  0.
         25    1    1    2    0    0 -0.18945636401E+03  0.18796830338E+03 -0.25760097464E+03  0.39141928807E+03  0.12500000000E+03 0.  0.
         25    1    1    2    0    0  0.13932132497E+03  0.12676502494E+03 -0.16560595105E+03  0.28023228608E+03  0.12500000000E+03 0.  0.
</event>
<event>
 5    0  0.6421687E-005  0.5661310E+03  0.7546771E-02  0.9978277E-01
         21   -1    0    0  502  501  0.00000000000E+00  0.00000000000E+00  0.89163677482E+03  0.89163677482E+03  0.00000000000E+00 0.  1.
         21   -1    0    0  501  502 -0.00000000000E+00 -0.00000000000E+00 -0.35945611637E+03  0.35945611637E+03  0.00000000000E+00 0.  1.
         25    1    1    2    0    0  0.12193736693E+03  0.13625792475E+03 -0.13265932382E+03  0.25818295782E+03  0.12500000000E+03 0.  0.
         25    1    1    2    0    0 -0.34067801305E+03  0.11575322308E+03  0.35563464012E+03  0.52111545216E+03  0.12500000000E+03 0.  0.
         25    1    1    2    0    0  0.21874064612E+03 -0.25201114782E+03  0.30920534215E+03  0.47179448121E+03  0.12500000000E+03 0.  0.
</event>
<event>
 5    0  0.5474724E-005  0.2578150E+03  0.7546771E-02  0.1108463E+00
         21   -1    0    0  502  501  0.00000000000E+00  0.00000000000E+00  0.12240154682E+04  0.12240154682E+04  0.00000000000E+00 0. -1.
         21   -1    0    0  501  502 -0.00000000000E+00 -0.00000000000E+00 -0.54303712111E+02  0.54303712111E+02  0.00000000000E+00 0. -1.
         25    1    1    2    0    0 -0.44081997108E+02  0.61168922399E+02  0.11294468522E+03  0.18457074919E+03  0.12500000000E+03 0.  0.
         25    1    1    2    0    0  0.45758961238E+02  0.16500264308E+02  0.54256438678E+03  0.55889825107E+03  0.12500000000E+03 0.  0.
         25    1    1    2    0    0 -0.16769641300E+01 -0.77669186706E+02  0.51420268414E+03  0.53485018010E+03  0.12500000000E+03 0.  0.
</event>
<event>
 5    0  0.5474724E-005  0.2325631E+03  0.7546771E-02  0.1124849E+00
         21   -1    0    0  502  501  0.00000000000E+00  0.00000000000E+00  0.29122137454E+03  0.29122137454E+03  0.00000000000E+00 0.  1.
         21   -1    0    0  501  502 -0.00000000000E+00 -0.00000000000E+00 -0.18571979648E+03  0.18571979648E+03  0.00000000000E+00 0.  1.
         25    1    1    2    0    0 -0.41507241583E+02 -0.46729147852E+02  0.84542843682E+01  0.14001049706E+03  0.12500000000E+03 0.  0.
         25    1    1    2    0    0 -0.16548451329E+01  0.11548559218E+03  0.27282653567E+02  0.17236299980E+03  0.12500000000E+03 0.  0.
         25    1    1    2    0    0  0.43162086716E+02 -0.68756444330E+02  0.69764640127E+02  0.16456767416E+03  0.12500000000E+03 0.  0.
</event>
<event>
 5    0  0.5474724E-005  0.5311425E+03  0.7546771E-02  0.1005955E+00
         21   -1    0    0  502  501  0.00000000000E+00  0.00000000000E+00  0.11069957123E+04  0.11069957123E+04  0.00000000000E+00 0.  1.
         21   -1    0    0  501  502 -0.00000000000E+00 -0.00000000000E+00 -0.25484502611E+03  0.25484502611E+03  0.00000000000E+00 0.  1.
         25    1    1    2    0    0 -0.66035793196E+02  0.28851419326E+02  0.27229788683E+03  0.30816273226E+03  0.12500000000E+03 0.  0.
         25    1    1    2    0    0 -0.18242164746E+03  0.31051456069E+02  0.70745777858E+03  0.74186478476E+03  0.12500000000E+03 0.  0.
         25    1    1    2    0    0  0.24845744065E+03 -0.59902875396E+02 -0.12760497925E+03  0.31181322138E+03  0.12500000000E+03 0.  0.
</event>
<event>
 5    0  0.5474724E-005  0.4773561E+03  0.7546771E-02  0.1019864E+00
         21   -1    0    0  502  501  0.00000000000E+00  0.00000000000E+00  0.11500560642E+04  0.11500560642E+04  0.00000000000E+00 0. -1.
         21   -1    0    0  501  502 -0.00000000000E+00 -0.00000000000E+00 -0.19813714635E+03  0.19813714635E+03  0.00000000000E+00 0. -1.
         25    1    1    2    0    0  0.17695148393E+03 -0.27298989613E+03  0.28001060653E+03  0.44706403437E+03  0.12500000000E+03 0.  0.
         25    1    1    2    0    0 -0.21548321495E+03  0.22311129709E+03  0.16056399649E+03  0.37096827868E+03  0.12500000000E+03 0.  0.
         25    1    1    2    0    0  0.38531731022E+02  0.49878599041E+02  0.51134431482E+03  0.53016089750E+03  0.12500000000E+03 0.  0.
</event>
<event>
 5    0  0.5474724E-005  0.2179244E+03  0.7546771E-02  0.1135440E+00
         21   -1    0    0  502  501  0.00000000000E+00  0.00000000000E+00  0.84214984173E+02  0.84214984173E+02  0.00000000000E+00 0. -1.
         21   -1    0    0  501  502 -0.00000000000E+00 -0.00000000000E+00 -0.56392633619E+03  0.56392633619E+03  0.00000000000E+00 0. -1.
         25    1    1    2    0    0 -0.70776572297E+02 -0.65596680062E+01 -0.11618472876E+03  0.18486817906E+03  0.12500000000E+03 0.  0.
         25    1    1    2    0    0  0.92681593491E+02  0.15550157940E+02 -0.23620172117E+03  0.28328067048E+03  0.12500000000E+03 0.  0.
         25    1    1    2    0    0 -0.21905021194E+02 -0.89904899337E+01 -0.12732490208E+03  0.17999247082E+03  0.12500000000E+03 0.  0.
</event>
<event>
 5    0  0.5474724E-005  0.2954778E+03  0.7546771E-02  0.1087523E+00
         21   -1    0    0  502  501  0.00000000000E+00  0.00000000000E+00  0.49982815595E+03  0.49982815595E+03  0.00000000000E+00 0. -1.
         21   -1    0    0  501  502 -0.00000000000E+00 -0.00000000000E+00 -0.17467426699E+03  0.17467426699E+03  0.00000000000E+00 0. -1.
         25    1    1    2    0    0 -0.70495086972E+02  0.16264644048E+03  0.15357868289E+03  0.26577214626E+03  0.12500000000E+03 0.  0.
         25    1    1    2    0    0  0.27526135578E+02 -0.40137186905E+02  0.18442759481E+03  0.22805091458E+03  0.12500000000E+03 0.  0.
         25    1    1    2    0    0  0.42968951394E+02 -0.12250925358E+03 -0.12852388736E+02  0.18067936211E+03  0.12500000000E+03 0.  0.
</event>
<event>
 5    0  0.5474724E-005  0.2582276E+03  0.7546771E-02  0.1108213E+00
         21   -1    0    0  502  501  0.00000000000E+00  0.00000000000E+00  0.27250338354E+03  0.27250338354E+03  0.00000000000E+00 0.  1.
         21   -1    0    0  501  502 -0.00000000000E+00 -0.00000000000E+00 -0.24469965602E+03  0.24469965602E+03  0.00000000000E+00 0.  1.
         25    1    1    2    0    0 -0.92233363990E+02  0.75458790001E+02  0.15111399210E+02  0.17336198201E+03  0.12500000000E+03 0.  0.
         25    1    1    2    0    0 -0.14610124357E+02 -0.10829735455E+03  0.47261410063E+02  0.17262796302E+03  0.12500000000E+03 0.  0.
         25    1    1    2    0    0  0.10684348835E+03  0.32838564553E+02 -0.34569081754E+02  0.17121309453E+03  0.12500000000E+03 0.  0.
</event>
<event>
 5    0  0.5474724E-005  0.3442616E+03  0.7546771E-02  0.1064995E+00
         21   -1    0    0  502  501  0.00000000000E+00  0.00000000000E+00  0.95785102699E+03  0.95785102699E+03  0.00000000000E+00 0.  1.
         21   -1    0    0  501  502 -0.00000000000E+00 -0.00000000000E+00 -0.12373118366E+03  0.12373118366E+03  0.00000000000E+00 0.  1.
         25    1    1    2    0    0 -0.19375647527E+02  0.17568370933E+03  0.10329324550E+03  0.23986386974E+03  0.12500000000E+03 0.  0.
         25    1    1    2    0    0  0.10557292232E+02 -0.23496691349E+03  0.57152512073E+03  0.63054489965E+03  0.12500000000E+03 0.  0.
         25    1    1    2    0    0  0.88183552945E+01  0.59283204167E+02  0.15930147711E+03  0.21117344126E+03  0.12500000000E+03 0.  0.
</event>
<event>
 5    0  0.5474724E-005  0.2594210E+03  0.7546771E-02  0.1107492E+00
         21   -1    0    0  502  501  0.00000000000E+00  0.00000000000E+00  0.56248760848E+02  0.56248760848E+02  0.00000000000E+00 0. -1.
         21   -1    0    0  501  502 -0.00000000000E+00 -0.00000000000E+00 -0.11964579828E+04  0.11964579828E+04  0.00000000000E+00 0. -1.
         25    1    1    2    0    0  0.58665847806E+02  0.21108168151E+02 -0.30123260961E+03  0.33204415603E+03  0.12500000000E+03 0.  0.
         25    1    1    2    0    0 -0.10296294818E+03  0.92366013114E+02 -0.57269436481E+03  0.60227625270E+03  0.12500000000E+03 0.  0.
         25    1    1    2    0    0  0.44297100371E+02 -0.11347418126E+03 -0.26628224753E+03  0.31838633493E+03  0.12500000000E+03 0.  0.
</event>
<event>
 5    0  0.5474724E-005  0.2788808E+03  0.7546771E-02  0.1096302E+00
         21   -1    0    0  502  501  0.00000000000E+00  0.00000000000E+00  0.29525356059E+03  0.29525356059E+03  0.00000000000E+00 0.  1.
         21   -1    0    0  501  502 -0.00000000000E+00 -0.00000000000E+00 -0.26341597962E+03  0.26341597962E+03  0.00000000000E+00 0.  1.
         25    1    1    2    0    0  0.12166747618E+03 -0.31994890001E+02 -0.88497087836E+02  0.19820035899E+03  0.12500000000E+03 0.  0.
         25    1    1    2    0    0 -0.16162705740E+03  0.38962897020E+02  0.65542859179E+02  0.21808777916E+03  0.12500000000E+03 0.  0.
         25    1    1    2    0    0  0.39959581218E+02 -0.69680070194E+01  0.54791809633E+02  0.14238140207E+03  0.12500000000E+03 0.  0.
</event>
<event>
 5    0  0.5474724E-005  0.3837300E+03  0.7546771E-02  0.1049564E+00
         21   -1    0    0  502  501  0.00000000000E+00  0.00000000000E+00  0.14445301266E+03  0.14445301266E+03  0.00000000000E+00 0.  1.
         21   -1    0    0  501  502 -0.00000000000E+00 -0.00000000000E+00 -0.10193535602E+04  0.10193535602E+04  0.00000000000E+00 0.  1.
         25    1    1    2    0    0 -0.44671818772E+02 -0.52001240112E+02 -0.21695395455E+03  0.25960300222E+03  0.12500000000E+03 0.  0.
         25    1    1    2    0    0 -0.11885430753E+03  0.25737342078E+03 -0.22593599884E+03  0.38345729842E+03  0.12500000000E+03 0.  0.
         25    1    1    2    0    0  0.16352612630E+03 -0.20537218067E+03 -0.43201059413E+03  0.52074627221E+03  0.12500000000E+03 0.  0.
</event>
<event>
 5    0  0.5474724E-005  0.2170932E+03  0.7546771E-02  0.1136069E+00
         21   -1    0    0  502  501  0.00000000000E+00  0.00000000000E+00  0.13223002157E+03  0.13223002157E+03  0.00000000000E+00 0.  1.
         21   -1    0    0  501  502 -0.00000000000E+00 -0.00000000000E+00 -0.35642037495E+03  0.35642037495E+03  0.00000000000E+00 0.  1.
         25    1    1    2    0    0  0.29421232610E+02  0.48918504337E+02 -0.75851624157E+02  0.15696209059E+03  0.12500000000E+03 0.  0.
         25    1    1    2    0    0  0.11217237123E+02 -0.94641583445E+02 -0.86313746334E+02  0.17932629069E+03  0.12500000000E+03 0.  0.
         25    1    1    2    0    0 -0.40638469734E+02  0.45723079109E+02 -0.62024982894E+02  0.15236201524E+03  0.12500000000E+03 0.  0.
</event>
<event>
 5    0  0.5474724E-005  0.3681948E+03  0.7546771E-02  0.1055385E+00
         21   -1    0    0  502  501  0.00000000000E+00  0.00000000000E+00  0.24751662824E+03  0.24751662824E+03  0.00000000000E+00 0.  1.
         21   -1    0    0  501  502 -0.00000000000E+00 -0.00000000000E+00 -0.54771041931E+03  0.54771041931E+03  0.00000000000E+00 0.  1.
         25    1    1    2    0    0 -0.19626318211E+02 -0.15322300649E+03 -0.34233776781E+03  0.39583156690E+03  0.12500000000E+03 0.  0.
         25    1    1    2    0    0 -0.73169265056E+02  0.46980470874E+01 -0.65238006827E+02  0.15892391428E+03  0.12500000000E+03 0.  0.
         25    1    1    2    0    0  0.92795583266E+02  0.14852495940E+03  0.10738198356E+03  0.24047156637E+03  0.12500000000E+03 0.  0.
</event>
<event>
 5    0  0.5474724E-005  0.2345166E+03  0.7546771E-02  0.1123501E+00
         21   -1    0    0  502  501  0.00000000000E+00  0.00000000000E+00  0.20710514374E+03  0.20710514374E+03  0.00000000000E+00 0.  1.
         21   -1    0    0  501  502 -0.00000000000E+00 -0.00000000000E+00 -0.26555604035E+03  0.26555604035E+03  0.00000000000E+00 0.  1.
         25    1    1    2    0    0  0.53891202788E+02  0.15296903512E+02 -0.46015441680E+02  0.14450148050E+03  0.12500000000E+03 0.  0.
         25    1    1    2    0    0 -0.63285295940E+02 -0.65039966722E+02 -0.83636305136E+02  0.17565664659E+03  0.12500000000E+03 0.  0.
         25    1    1    2    0    0  0.93940931522E+01  0.49743063210E+02  0.71200850212E+02  0.15250305700E+03  0.12500000000E+03 0.  0.
</event>
<event>
 5    0  0.5474724E-005  0.4503428E+03  0.7546771E-02  0.1027620E+00
         21   -1    0    0  502  501  0.00000000000E+00  0.00000000000E+00  0.19283128707E+03  0.19283128707E+03  0.00000000000E+00 0. -1.
         21   -1    0    0  501  502 -0.00000000000E+00 -0.00000000000E+00 -0.10517411849E+04  0.10517411849E+04  0.00000000000E+00 0. -1.
         25    1    1    2    0    0 -0.10120172917E+03  0.31561102124E+02 -0.41354951281E+01  0.16395119846E+03  0.12500000000E+03 0.  0.
         25    1    1    2    0    0  0.33825369709E+03 -0.11803217082E+03 -0.48106537871E+03  0.61269572835E+03  0.12500000000E+03 0.  0.
         25    1    1    2    0    0 -0.23705196791E+03  0.86471068696E+02 -0.37370902402E+03  0.46792554519E+03  0.12500000000E+03 0.  0.
</event>
<event>
 5    0  0.5474724E-005  0.2271227E+03  0.7546771E-02  0.1128681E+00
         21   -1    0    0  502  501  0.00000000000E+00  0.00000000000E+00  0.41055906923E+03  0.41055906923E+03  0.00000000000E+00 0. -1.
         21   -1    0    0  501  502 -0.00000000000E+00 -0.00000000000E+00 -0.12564509576E+03  0.12564509576E+03  0.00000000000E+00 0. -1.
         25    1    1    2    0    0 -0.35358004668E+02 -0.29278168368E+02  0.79718912771E+02  0.15520149706E+03  0.12500000000E+03 0.  0.
         25    1    1    2    0    0  0.85234047693E+02 -0.30937464353E+02  0.39880905914E+02  0.15949124190E+03  0.12500000000E+03 0.  0.
         25    1    1    2    0    0 -0.49876043024E+02  0.60215632720E+02  0.16531415478E+03  0.22151142603E+03  0.12500000000E+03 0.  0.
</event>
<event>
 5    0  0.5474724E-005  0.2635404E+03  0.7546771E-02  0.1105035E+00
         21   -1    0    0  502  501  0.00000000000E+00  0.00000000000E+00  0.13368168430E+03  0.13368168430E+03  0.00000000000E+00 0.  1.
         21   -1    0    0  501  502 -0.00000000000E+00 -0.00000000000E+00 -0.51954418201E+03  0.51954418201E+03  0.00000000000E+00 0.  1.
         25    1    1    2    0    0  0.46544449903E+02 -0.78401915884E+02  0.37635289079E+01  0.15476566280E+03  0.12500000000E+03 0.  0.
         25    1    1    2    0    0  0.11484776945E+02  0.10520234225E+03 -0.15777287040E+03  0.22741308571E+03  0.12500000000E+03 0.  0.
         25    1    1    2    0    0 -0.58029226848E+02 -0.26800426366E+02 -0.23185315621E+03  0.27104711780E+03  0.12500000000E+03 0.  0.
</event>
<event>
 5    0  0.5474724E-005  0.2614190E+03  0.7546771E-02  0.1106294E+00
         21   -1    0    0  502  501  0.00000000000E+00  0.00000000000E+00  0.16296088419E+04  0.16296088419E+04  0.00000000000E+00 0. -1.
         21   -1    0    0  501  502 -0.00000000000E+00 -0.00000000000E+00 -0.41936369871E+02  0.41936369871E+02  0.00000000000E+00 0. -1.
         25    1    1    2    0    0 -0.72434181536E+02 -0.13049617573E+02  0.21750827748E+03  0.26144187489E+03  0.12500000000E+03 0.  0.
         25    1    1    2    0    0  0.98536800434E+02 -0.18148184841E+02  0.39704075953E+03  0.42814159151E+03  0.12500000000E+03 0.  0.
         25    1    1    2    0    0 -0.26102618898E+02  0.31197802414E+02  0.97312343506E+03  0.98196174542E+03  0.12500000000E+03 0.  0.
</event>
<event>
 5    0  0.5474724E-005  0.3587205E+03  0.7546771E-02  0.1059092E+00
         21   -1    0    0  502  501  0.00000000000E+00  0.00000000000E+00  0.21939975261E+03  0.21939975261E+03  0.00000000000E+00 0.  1.
         21   -1    0    0  501  502 -0.00000000000E+00 -0.00000000000E+00 -0.58651114827E+03  0.58651114827E+03  0.00000000000E+00 0.  1.
         25    1    1    2    0    0 -0.18432648882E+03 -0.42484107347E+02 -0.25602189503E+03  0.34198445081E+03  0.12500000000E+03 0.  0.
         25    1    1    2    0    0  0.13477775422E+03  0.94931269127E+02  0.82267437381E+02  0.22264303300E+03  0.12500000000E+03 0.  0.
         25    1    1    2    0    0  0.49548734602E+02 -0.52447161780E+02 -0.19335693801E+03  0.24128341708E+03  0.12500000000E+03 0.  0.
</event>
<event>
 5    0  0.5474724E-005  0.5576365E+03  0.7546771E-02  0.9997417E-01
         21   -1    0    0  502  501  0.00000000000E+00  0.00000000000E+00  0.93989381151E+03  0.93989381151E+03  0.00000000000E+00 0.  1.
         21   -1    0    0  501  502 -0.00000000000E+00 -0.00000000000E+00 -0.33084420112E+03  0.33084420112E+03  0.00000000000E+00 0.  1.
         25    1    1    2    0    0  0.29063756424E+03  0.16208120449E+03  0.22763789891E+02  0.35620738444E+03  0.12500000000E+03 0.  0.
         25    1    1    2    0    0 -0.39893493937E+03 -0.20404750670E+03  0.58036754156E+03  0.74379832894E+03  0.12500000000E+03 0.  0.
         25    1    1    2    0    0  0.10829737513E+03  0.41966302211E+02  0.59182789399E+01  0.17073229925E+03  0.12500000000E+03 0.  0.
</event>
<event>
 5    0  0.5474724E-005  0.2291557E+03  0.7546771E-02  0.1127235E+00
         21   -1    0    0  502  501  0.00000000000E+00  0.00000000000E+00  0.33688436230E+02  0.33688436230E+02  0.00000000000E+00 0. -1.
         21   -1    0    0  501  502 -0.00000000000E+00 -0.00000000000E+00 -0.15587646647E+04  0.15587646647E+04  0.00000000000E+00 0. -1.
         25    1    1    2    0    0  0.92779743877E+02  0.56096508032E+02 -0.45923014759E+03  0.48813136300E+03  0.12500000000E+03 0.  0.
         25    1    1    2    0    0 -0.34885940879E+02 -0.50658449649E+02 -0.37941337094E+03  0.40418165896E+03  0.12500000000E+03 0.  0.
         25    1    1    2    0    0 -0.57893802999E+02 -0.54380583833E+01 -0.68643270990E+03  0.70014007894E+03  0.12500000000E+03 0.  0.
</event>
<event>
 5    0  0.5474724E-005  0.4870229E+03  0.7546771E-02  0.1017223E+00
         21   -1    0    0  502  501  0.00000000000E+00  0.00000000000E+00  0.10034255472E+04  0.10034255472E+04  0.00000000000E+00 0. -1.
         21   -1    0    0  501  502 -0.00000000000E+00 -0.00000000000E+00 -0.23638152515E+03  0.23638152515E+03  0.00000000000E+00 0. -1.
         25    1    1    2    0    0  0.11769964523E+03 -0.23460271114E+01  0.40650290248E+03  0.44128031913E+03  0.12500000000E+03 0.  0.
         25    1    1    2    0    0 -0.22660043774E+03  0.24377759008E+03  0.35956298700E+03  0.50565384744E+03  0.12500000000E+03 0.  0.
         25    1    1    2    0    0  0.10890079251E+03 -0.24143156297E+03  0.97813260536E+00  0.29287290580E+03  0.12500000000E+03 0.  0.
</event>
<event>
 5    0  0.5474724E-005  0.3160523E+03  0.7546771E-02  0.1077481E+00
         21   -1    0    0  502  501  0.00000000000E+00  0.00000000000E+00  0.44025519830E+03  0.44025519830E+03  0.00000000000E+00 0. -1.
         21   -1    0    0  501  502 -0.00000000000E+00 -0.00000000000E+00 -0.22688902823E+03  0.22688902823E+03  0.00000000000E+00 0. -1.
         25    1    1    2    0    0  0.51174361548E+02  0.81042280550E+02  0.73484039009E+02  0.17381475917E+03  0.12500000000E+03 0.  0.
         25    1    1    2    0    0 -0.13129875853E+02 -0.76738309697E+02  0.27084015075E+03  0.30828647242E+03  0.12500000000E+03 0.  0.
         25    1    1    2    0    0 -0.38044485695E+02 -0.43039708540E+01 -0.13095801969E+03  0.18504299494E+03  0.12500000000E+03 0.  0.
</event>
<event>
 5    0  0.5474724E-005  0.3588229E+03  0.7546771E-02  0.1059051E+00
         21   -1    0    0  502  501  0.00000000000E+00  0.00000000000E+00  0.16851345891E+03  0.16851345891E+03  0.00000000000E+00 0.  1.
         21   -1    0    0  501  502 -0.00000000000E+00 -0.00000000000E+00 -0.76405671207E+03  0.76405671207E+03  0.00000000000E+00 0.  1.
         25    1    1    2    0    0  0.19993160599E+03  0.15245897840E+03 -0.11690768659E+03  0.30415258400E+03  0.12500000000E+03 0.  0.
         25    1    1    2    0    0 -0.16843246954E+03 -0.83313332145E+02 -0.15654977712E+03  0.27466969404E+03  0.12500000000E+03 0.  0.
         25    1    1    2    0    0 -0.31499136447E+02 -0.69145646251E+02 -0.32208578945E+03  0.35374789293E+03  0.12500000000E+03 0.  0.
</event>
<event>
 5    0  0.5474724E-005  0.2885985E+03  0.7546771E-02  0.1091083E+00
         21   -1    0    0  502  501  0.00000000000E+00  0.00000000000E+00  0.51543246219E+03  0.51543246219E+03  0.00000000000E+00 0.  1.
         21   -1    0    0  501  502 -0.00000000000E+00 -0.00000000000E+00 -0.16159068974E+03  0.16159068974E+03  0.00000000000E+00 0.  1.
         25    1    1    2    0    0 -0.94044481292E+01 -0.88312702199E+02 -0.29944743916E+02  0.15623464629E+03  0.12500000000E+03 0.  0.
         25    1    1    2    0    0  0.63714908008E+02  0.13096374144E+03  0.29719217367E+03  0.35377857364E+03  0.12500000000E+03 0.  0.
         25    1    1    2    0    0 -0.54310459878E+02 -0.42651039245E+02  0.86594342696E+02  0.16700993200E+03  0.12500000000E+03 0.  0.
</event>
<event>
 5    0  0.5474724E-005  0.2562265E+03  0.7546771E-02  0.1109432E+00
         21   -1    0    0  502  501  0.00000000000E+00  0.00000000000E+00  0.89894056854E+03  0.89894056854E+03  0.00000000000E+00 0.  1.
         21   -1    0    0  501  502 -0.00000000000E+00 -0.00000000000E+00 -0.73032666676E+02  0.73032666676E+02  0.00000000000E+00 0.  1.
         25    1    1    2    0    0  0.59944558430E+02 -0.47237084502E+01  0.44367607052E+03  0.46485386850E+03  0.12500000000E+03 0.  0.
         25    1    1    2    0    0 -0.63152557061E+02  0.80052572199E+02  0.29726670157E+03  0.33821465321E+03  0.12500000000E+03 0.  0.
         25    1    1    2    0    0  0.32079986302E+01 -0.75328863749E+02  0.84965129771E+02  0.16890471351E+03  0.12500000000E+03 0.  0.
</event>
<event>
 5    0  0.5474724E-005  0.3397159E+03  0.7546771E-02  0.1066917E+00
         21   -1    0    0  502  501  0.00000000000E+00  0.00000000000E+00  0.18045067940E+04  0.18045067940E+04  0.00000000000E+00 0.  1.
         21   -1    0    0  501  502 -0.00000000000E+00 -0.00000000000E+00 -0.63954813322E+02  0.63954813322E+02  0.00000000000E+00 0.  1.
         25    1    1    2    0    0 -0.10452808400E+03  0.29798601115E+02  0.56184729356E+03  0.58575716663E+03  0.12500000000E+03 0.  0.
         25    1    1    2    0    0  0.28314617687E+02  0.18876730530E+03  0.70307603015E+03  0.73917231908E+03  0.12500000000E+03 0.  0.
         25    1    1    2    0    0  0.76213466314E+02 -0.21856590641E+03  0.47562865694E+03  0.54353212159E+03  0.12500000000E+03 0.  0.
</event>
<event>
 5    0  0.5474724E-005  0.6198768E+03  0.7546771E-02  0.9865005E-01
         21   -1    0    0  502  501  0.00000000000E+00  0.00000000000E+00  0.40107693986E+03  0.40107693986E+03  0.00000000000E+00 0. -1.
         21   -1    0    0  501  502 -0.00000000000E+00 -0.00000000000E+00 -0.95803868988E+03  0.95803868988E+03  0.00000000000E+00 0. -1.
         25    1    1    2    0    0  0.43736016423E+03  0.18662200790E+03 -0.23511249300E+03  0.54499043245E+03  0.12500000000E+03 0.  0.
         25    1    1    2    0    0 -0.52032089181E+03 -0.17976748364E+03 -0.34585773774E+03  0.66203682177E+03  0.12500000000E+03 0.  0.
         25    1    1    2    0    0  0.82960727576E+02 -0.68545242605E+01  0.24008480720E+02  0.15208837552E+03  0.12500000000E+03 0.  0.
</event>
<event>
 5    0  0.5474724E-005  0.2571809E+03  0.7546771E-02  0.1108849E+00
         21   -1    0    0  502  501  0.00000000000E+00  0.00000000000E+00  0.24982750260E+03  0.24982750260E+03  0.00000000000E+00 0. -1.
         21   -1    0    0  501  502 -0.00000000000E+00 -0.00000000000E+00 -0.26475066915E+03  0.26475066915E+03  0.00000000000E+00 0. -1.
         25    1    1    2    0    0 -0.51554179934E+02  0.28244705724E+02  0.72914591467E+02  0.15619582107E+03  0.12500000000E+03 0.  0.
         25    1    1    2    0    0  0.12138811081E+03 -0.47781210696E+02 -0.11096973891E+03  0.21203160259E+03  0.12500000000E+03 0.  0.
         25    1    1    2    0    0 -0.69833930872E+02  0.19536504972E+02  0.23131980905E+02  0.14635074810E+03  0.12500000000E+03 0.  0.
</event>
<event>
 5    0  0.5474724E-005  0.3903742E+03  0.7546771E-02  0.1047165E+00
         21   -1    0    0  502  501  0.00000000000E+00  0.00000000000E+00  0.78042096933E+02  0.78042096933E+02  0.00000000000E+00 0.  1.
         21   -1    0    0  501  502 -0.00000000000E+00 -0.00000000000E+00 -0.19526902337E+04  0.19526902337E+04  0.00000000000E+00 0.  1.
         25    1    1    2    0    0 -0.12944659233E+03 -0.12959681689E+03 -0.11722691690E+04  0.11930598308E+04  0.12500000000E+03 0.  0.
         25    1    1    2    0    0  0.50309011489E+02 -0.10954123234E+03 -0.30287678303E+03  0.34912694528E+03  0.12500000000E+03 0.  0.
         25    1    1    2    0    0  0.79137580843E+02  0.23913804923E+03 -0.39950218472E+03  0.48854555457E+03  0.12500000000E+03 0.  0.
</event>
<event>
 5    0  0.5474724E-005  0.3273681E+03  0.7546771E-02  0.1072307E+00
         21   -1    0    0  502  501  0.00000000000E+00  0.00000000000E+00  0.20445119021E+03  0.20445119021E+03  0.00000000000E+00 0.  1.
         21   -1    0    0  501  502 -0.00000000000E+00 -0.00000000000E+00 -0.52418330176E+03  0.52418330176E+03  0.00000000000E+00 0.  1.
         25    1    1    2    0    0 -0.43301298149E+02 -0.17733950765E+03  0.12128077971E+02  0.22157706034E+03  0.12500000000E+03 0.  0.
         25    1    1    2    0    0 -0.69747409207E+02  0.80952392840E+01 -0.14377622165E+03  0.20304392604E+03  0.12500000000E+03 0.  0.
         25    1    1    2    0    0  0.11304870736E+03  0.16924426837E+03 -0.18808396787E+03  0.30401350559E+03  0.12500000000E+03 0.  0.
</event>
<event>
 5    0  0.5474724E-005  0.3887721E+03  0.7546771E-02  0.1047738E+00
         21   -1    0    0  502  501  0.00000000000E+00  0.00000000000E+00  0.12526602385E+03  0.12526602385E+03  0.00000000000E+00 0.  1.
         21   -1    0    0  501  502 -0.00000000000E+00 -0.00000000000E+00 -0.12065822611E+04  0.12065822611E+04  0.00000000000E+00 0.  1.
         25    1    1    2    0    0  0.11707026793E+03  0.16034667652E+03 -0.37721966286E+03  0.44422536887E+03  0.12500000000E+03 0.  0.
         25    1    1    2    0    0 -0.13403715637E+03 -0.11121420558E+03 -0.72007115370E+03  0.75130687818E+03  0.12500000000E+03 0.  0.
         25    1    1    2    0    0  0.16966888437E+02 -0.49132470940E+02  0.15974579311E+02  0.13631603790E+03  0.12500000000E+03 0.  0.
</event>
<event>
 5    0  0.5474724E-005  0.2570591E+03  0.7546771E-02  0.1108923E+00
         21   -1    0    0  502  501  0.00000000000E+00  0.00000000000E+00  0.62207739168E+03  0.62207739168E+03  0.00000000000E+00 0.  1.
         21   -1    0    0  501  502 -0.00000000000E+00 -0.00000000000E+00 -0.10622374183E+03  0.10622374183E+03  0.00000000000E+00 0.  1.
         25    1    1    2    0    0 -0.60543318750E+01  0.62366192576E+02  0.19946360994E+03  0.24359172523E+03  0.12500000000E+03 0.  0.
         25    1    1    2    0    0 -0.52101875596E+02 -0.91208825186E+01  0.25108532764E+00  0.13573083284E+03  0.12500000000E+03 0.  0.
         25    1    1    2    0    0  0.58156207471E+02 -0.53245310057E+02  0.31613895459E+03  0.34897857545E+03  0.12500000000E+03 0.  0.
</event>
<event>
 5    0  0.5474724E-005  0.2229431E+03  0.7546771E-02  0.1131708E+00
         21   -1    0    0  502  501  0.00000000000E+00  0.00000000000E+00  0.54530328744E+03  0.54530328744E+03  0.00000000000E+00 0. -1.
         21   -1    0    0  501  502 -0.00000000000E+00 -0.00000000000E+00 -0.91148569671E+02  0.91148569671E+02  0.00000000000E+00 0. -1.
         25    1    1    2    0    0  0.34888029913E+02 -0.63498658692E+02  0.88976110119E+02  0.16967911615E+03  0.12500000000E+03 0.  0.
         25    1    1    2    0    0 -0.49972139755E+02  0.56015724129E+02  0.27650038329E+03  0.31258988797E+03  0.12500000000E+03 0.  0.
         25    1    1    2    0    0  0.15084109842E+02  0.74829345627E+01  0.88678224358E+02  0.15418285299E+03  0.12500000000E+03 0.  0.
</event>
<event>
 5    0  0.5474724E-005  0.2574797E+03  0.7546771E-02  0.1108667E+00
         21   -1    0    0  502  501  0.00000000000E+00  0.00000000000E+00  0.20136484655E+03  0.20136484655E+03  0.00000000000E+00 0.  1.
         21   -1    0    0  501  502 -0.00000000000E+00 -0.00000000000E+00 -0.32923231130E+03  0.32923231130E+03  0.00000000000E+00 0.  1.
         25    1    1    2    0    0  0.28399264546E+02 -0.12585041327E+03 -0.22874681844E+02  0.18108864077E+03  0.12500000000E+03 0.  0.
         25    1    1    2    0    0 -0.34701775266E+02  0.15771472079E+03 -0.63905683585E+02  0.21397916430E+03  0.12500000000E+03 0.  0.
         25    1    1    2    0    0  0.63025107196E+01 -0.31864307515E+02 -0.41087099325E+02  0.13552935278E+03  0.12500000000E+03 0.  0.
</event>
<event>
 5    0  0.5474724E-005  0.2172093E+03  0.7546771E-02  0.1135981E+00
         21   -1    0    0  502  501  0.00000000000E+00  0.00000000000E+00  0.27797839266E+02  0.27797839266E+02  0.00000000000E+00 0. -1.
         21   -1    0    0  501  502 -0.00000000000E+00 -0.00000000000E+00 -0.16972500896E+04  0.16972500896E+04  0.00000000000E+00 0. -1.
         25    1    1    2    0    0 -0.62659493628E+02  0.13106627578E+02 -0.57540676189E+03  0.59229716989E+03  0.12500000000E+03 0.  0.
         25    1    1    2    0    0  0.16966456062E+02 -0.14568354080E+02 -0.27426267418E+03  0.30223353887E+03  0.12500000000E+03 0.  0.
         25    1    1    2    0    0  0.45693037566E+02  0.14617265014E+01 -0.81978281429E+03  0.83051722013E+03  0.12500000000E+03 0.  0.
</event>
<event>
 5    0  0.5474724E-005  0.2121170E+03  0.7546771E-02  0.1139900E+00
         21   -1    0    0  502  501  0.00000000000E+00  0.00000000000E+00  0.36335550340E+03  0.36335550340E+03  0.00000000000E+00 0.  1.
         21   -1    0    0  501  502 -0.00000000000E+00 -0.00000000000E+00 -0.12382805362E+03  0.12382805362E+03  0.00000000000E+00 0.  1.
         25    1    1    2    0    0 -0.41970154690E+02 -0.54087082018E+02  0.11609988995E+03  0.18382353161E+03  0.12500000000E+03 0.  0.
         25    1    1    2    0    0  0.18451041690E+02  0.21143580328E+02  0.78195963908E+01  0.12834967088E+03  0.12500000000E+03 0.  0.
         25    1    1    2    0    0  0.23519113000E+02  0.32943501690E+02  0.11560796344E+03  0.17501035453E+03  0.12500000000E+03 0.  0.
</event>
<event>
 5    0  0.5474724E-005  0.2418749E+03  0.7546771E-02  0.1118550E+00
         21   -1    0    0  502  501  0.00000000000E+00  0.00000000000E+00  0.82313233259E+02  0.82313233259E+02  0.00000000000E+00 0. -1.
         21   -1    0    0  501  502 -0.00000000000E+00 -0.00000000000E+00 -0.71074185502E+03  0.71074185502E+03  0.00000000000E+00 0. -1.
         25    1    1    2    0    0  0.42714354748E+02 -0.60503887118E+02 -0.79015144232E+02  0.16538932697E+03  0.12500000000E+03 0.  0.
         25    1    1    2    0    0 -0.56003129698E+02  0.10129155718E+03 -0.28414252639E+03  0.33129791034E+03  0.12500000000E+03 0.  0.
         25    1    1    2    0    0  0.13288774950E+02 -0.40787670064E+02 -0.26527095113E+03  0.29636785096E+03  0.12500000000E+03 0.  0.
</event>
<event>
 5    0  0.5474724E-005  0.2724960E+03  0.7546771E-02  0.1099860E+00
         21   -1    0    0  502  501  0.00000000000E+00  0.00000000000E+00  0.41222709615E+03  0.41222709615E+03  0.00000000000E+00 0. -1.
         21   -1    0    0  501  502 -0.00000000000E+00 -0.00000000000E+00 -0.18012908000E+03  0.18012908000E+03  0.00000000000E+00 0. -1.
         25    1    1    2    0    0 -0.16826928625E+02 -0.49343281108E+02  0.51826665554E+02  0.14501347586E+03  0.12500000000E+03 0.  0.
         25    1    1    2    0    0  0.42996184265E+01  0.11369648156E+03 -0.50865389067E+02  0.17651533770E+03  0.12500000000E+03 0.  0.
         25    1    1    2    0    0  0.12527310198E+02 -0.64353200451E+02  0.23113673966E+03  0.27082736259E+03  0.12500000000E+03 0.  0.
</event>
<event>
 5    0  0.5474724E-005  0.4552894E+03  0.7546771E-02  0.1026156E+00
         21   -1    0    0  502  501  0.00000000000E+00  0.00000000000E+00  0.32524186372E+04  0.32524186372E+04  0.00000000000E+00 0.  1.
         21   -1    0    0  501  502 -0.00000000000E+00 -0.00000000000E+00 -0.63733619537E+02  0.63733619537E+02  0.00000000000E+00 0.  1.
         25    1    1    2    0    0 -0.27343227731E+02 -0.17351700036E+03  0.16009268700E+03  0.26853392699E+03  0.12500000000E+03 0.  0.
         25    1    1    2    0    0  0.58902581754E+02  0.15549680370E+03  0.20119945996E+04  0.20227199606E+04  0.12500000000E+03 0.  0.
         25    1    1    2    0    0 -0.31559354023E+02  0.18020196655E+02  0.10165977310E+04  0.10248983691E+04  0.12500000000E+03 0.  0.
</event>
<event>
 5    0  0.5474724E-005  0.3290008E+03  0.7546771E-02  0.1071580E+00
         21   -1    0    0  502  501  0.00000000000E+00  0.00000000000E+00  0.35917134131E+03  0.35917134131E+03  0.00000000000E+00 0.  1.
         21   -1    0    0  501  502 -0.00000000000E+00 -0.00000000000E+00 -0.30136456472E+03  0.30136456472E+03  0.00000000000E+00 0.  1.
         25    1    1    2    0    0  0.70043596779E+02  0.53530991283E+02 -0.69773417494E+02  0.16812198627E+03  0.12500000000E+03 0.  0.
         25    1    1    2    0    0 -0.19352313767E+03 -0.77261132717E+02 -0.42551438644E+02  0.24669031674E+03  0.12500000000E+03 0.  0.
         25    1    1    2    0    0  0.12347954089E+03  0.23730141433E+02  0.17013163272E+03  0.24572360302E+03  0.12500000000E+03 0.  0.
</event>
<event>
 5    0  0.5474724E-005  0.3343471E+03  0.7546771E-02  0.1069229E+00
         21   -1    0    0  502  501  0.00000000000E+00  0.00000000000E+00  0.41439444457E+03  0.41439444457E+03  0.00000000000E+00 0. -1.
         21   -1    0    0  501  502 -0.00000000000E+00 -0.00000000000E+00 -0.26976228349E+03  0.26976228349E+03  0.00000000000E+00 0. -1.
         25    1    1    2    0    0 -0.15539489068E+03 -0.20657369664E+03  0.97982978470E+02  0.30339071881E+03  0.12500000000E+03 0.  0.
         25    1    1    2    0    0  0.51970968039E+02  0.15553834778E+03  0.43081597834E+02  0.21065180564E+03  0.12500000000E+03 0.  0.
         25    1    1    2    0    0  0.10342392264E+03  0.51035348861E+02  0.35675847710E+01  0.17011420361E+03  0.12500000000E+03 0.  0.
</event>
<event>
 5    0  0.5474724E-005  0.2816012E+03  0.7546771E-02  0.1094818E+00
         21   -1    0    0  502  501  0.00000000000E+00  0.00000000000E+00  0.49491489450E+02  0.49491489450E+02  0.00000000000E+00 0.  1.
         21   -1    0    0  501  502 -0.00000000000E+00 -0.00000000000E+00 -0.16022801509E+04  0.16022801509E+04  0.00000000000E+00 0.  1.
         25    1    1    2    0    0  0.19336295051E+02  0.34919952534E+02 -0.49867079487E+03  0.51564605792E+03  0.12500000000E+03 0.  0.
         25    1    1    2    0    0 -0.75451153652E+02 -0.17166435057E+03 -0.65179203364E+03  0.68965163739E+03  0.12500000000E+03 0.  0.
         25    1    1    2    0    0  0.56114858601E+02  0.13674439803E+03 -0.40232583298E+03  0.44647394507E+03  0.12500000000E+03 0.  0.
</event>
<event>
 5    0  0.5474724E-005  0.2870599E+03  0.7546771E-02  0.1091894E+00
         21   -1    0    0  502  501  0.00000000000E+00  0.00000000000E+00  0.25956761676E+03  0.25956761676E+03  0.00000000000E+00 0.  1.
         21   -1    0    0  501  502 -0.00000000000E+00 -0.00000000000E+00 -0.31746407493E+03  0.31746407493E+03  0.00000000000E+00 0.  1.
         25    1    1    2    0    0  0.30094023131E+02  0.15870919115E+03 -0.52254936163E+02  0.21083129734E+03  0.12500000000E+03 0.  0.
         25    1    1    2    0    0  0.17278166874E+02 -0.18961331085E+03 -0.17813822730E+02  0.22846022626E+03  0.12500000000E+03 0.  0.
         25    1    1    2    0    0 -0.47372190005E+02  0.30904119701E+02  0.12172300723E+02  0.13774016809E+03  0.12500000000E+03 0.  0.
</event>
<event>
 5    0  0.5474724E-005  0.3520598E+03  0.7546771E-02  0.1061773E+00
         21   -1    0    0  502  501  0.00000000000E+00  0.00000000000E+00  0.66934839412E+03  0.66934839412E+03  0.00000000000E+00 0.  1.
         21   -1    0    0  501  502 -0.00000000000E+00 -0.00000000000E+00 -0.18517432274E+03  0.18517432274E+03  0.00000000000E+00 0.  1.
         25    1    1    2    0    0 -0.13566312073E+03  0.57270039637E+01  0.25031678605E+03  0.31099963710E+03  0.12500000000E+03 0.  0.
         25    1    1    2    0    0  0.80301313467E+02  0.18715458648E+03  0.18477882159E+03  0.30206514710E+03  0.12500000000E+03 0.  0.
         25    1    1    2    0    0  0.55361807262E+02 -0.19288159044E+03  0.49078463734E+02  0.24145793264E+03  0.12500000000E+03 0.  0.
</event>
<event>
 5    0  0.5474724E-005  0.4143063E+03  0.7546771E-02  0.1038935E+00
         21   -1    0    0  502  501  0.00000000000E+00  0.00000000000E+00  0.21851084428E+03  0.21851084428E+03  0.00000000000E+00 0.  1.
         21   -1    0    0  501  502 -0.00000000000E+00 -0.00000000000E+00 -0.78554332617E+03  0.78554332617E+03  0.00000000000E+00 0.  1.
         25    1    1    2    0    0 -0.35545577304E+03 -0.87469964312E+01 -0.30718996676E+03  0.48622627676E+03  0.12500000000E+03 0.  0.
         25    1    1    2    0    0  0.10468708865E+03  0.19174746733E+02 -0.65922154485E+02  0.17691180824E+03  0.12500000000E+03 0.  0.
         25    1    1    2    0    0  0.25076868439E+03 -0.10427750302E+02 -0.19392036065E+03  0.34091608546E+03  0.12500000000E+03 0.  0.
</event>
<event>
 5    0  0.5474724E-005  0.4138211E+03  0.7546771E-02  0.1039096E+00
         21   -1    0    0  502  501  0.00000000000E+00  0.00000000000E+00  0.52566862934E+03  0.52566862934E+03  0.00000000000E+00 0.  1.
         21   -1    0    0  501  502 -0.00000000000E+00 -0.00000000000E+00 -0.32577165462E+03  0.32577165462E+03  0.00000000000E+00 0.  1.
         25    1    1    2    0    0  0.35414132436E+02 -0.78408685027E+02  0.42581433478E+03  0.45204527469E+03  0.12500000000E+03 0.  0.
         25    1    1    2    0    0 -0.66538894238E+02  0.12021414327E+03 -0.86086581507E+02  0.20473095566E+03  0.12500000000E+03 0.  0.
         25    1    1    2    0    0  0.31124761802E+02 -0.41805458248E+02 -0.13983077855E+03  0.19466405361E+03  0.12500000000E+03 0.  0.
</event>
<event>
 5    0  0.5474724E-005  0.2467543E+03  0.7546771E-02  0.1115373E+00
         21   -1    0    0  502  501  0.00000000000E+00  0.00000000000E+00  0.21448886551E+03  0.21448886551E+03  0.00000000000E+00 0.  1.
         21   -1    0    0  501  502 -0.00000000000E+00 -0.00000000000E+00 -0.28387337973E+03  0.28387337973E+03  0.00000000000E+00 0.  1.
         25    1    1    2    0    0 -0.46486375341E+02 -0.19812769328E+01 -0.54626567856E+02  0.14413178160E+03  0.12500000000E+03 0.  0.
         25    1    1    2    0    0 -0.52822487573E+02 -0.78407524004E+02  0.49389810138E+02  0.16432379122E+03  0.12500000000E+03 0.  0.
         25    1    1    2    0    0  0.99308862914E+02  0.80388800937E+02 -0.64147756495E+02  0.18990667243E+03  0.12500000000E+03 0.  0.
</event>
<event>
 5    0  0.5474724E-005  0.2711004E+03  0.7546771E-02  0.1100651E+00
         21   -1    0    0  502  501  0.00000000000E+00  0.00000000000E+00  0.16802144626E+04  0.16802144626E+04  0.00000000000E+00 0. -1.
         21   -1    0    0  501  502 -0.00000000000E+00 -0.00000000000E+00 -0.43741679012E+02  0.43741679012E+02  0.00000000000E+00 0. -1.
         25    1    1    2    0    0 -0.68520999001E+02  0.62743253828E+02  0.45702223814E+03  0.48283140884E+03  0.12500000000E+03 0.  0.
         25    1    1    2    0    0  0.16658669432E+03 -0.18203987342E+02  0.50044306537E+03  0.54235668481E+03  0.12500000000E+03 0.  0.
         25    1    1    2    0    0 -0.98065695319E+02 -0.44539266486E+02  0.67900748012E+03  0.69876804801E+03  0.12500000000E+03 0.  0.
</event>
<event>
 5    0  0.5474724E-005  0.3525796E+03  0.7546771E-02  0.1061561E+00
         21   -1    0    0  502  501  0.00000000000E+00  0.00000000000E+00  0.12320556742E+03  0.12320556742E+03  0.00000000000E+00 0.  1.
         21   -1    0    0  501  502 -0.00000000000E+00 -0.00000000000E+00 -0.10089835381E+04  0.10089835381E+04  0.00000000000E+00 0.  1.
         25    1    1    2    0    0  0.11185677819E+03 -0.20975144806E+03 -0.20253303111E+03  0.33638108966E+03  0.12500000000E+03 0.  0.
         25    1    1    2    0    0 -0.86205863890E+02  0.20763326461E+03 -0.31863246842E+03  0.40950540103E+03  0.12500000000E+03 0.  0.
         25    1    1    2    0    0 -0.25650914304E+02  0.21181834505E+01 -0.36461247113E+03  0.38630261481E+03  0.12500000000E+03 0.  0.
</event>
<event>
 5    0  0.5474724E-005  0.4712316E+03  0.7546771E-02  0.1021573E+00
         21   -1    0    0  502  501  0.00000000000E+00  0.00000000000E+00  0.16388950124E+03  0.16388950124E+03  0.00000000000E+00 0. -1.
         21   -1    0    0  501  502 -0.00000000000E+00 -0.00000000000E+00 -0.13549325867E+04  0.13549325867E+04  0.00000000000E+00 0. -1.
         25    1    1    2    0    0  0.48023579454E+02 -0.62635407125E+02 -0.47065275716E+03  0.49332390600E+03  0.12500000000E+03 0.  0.
         25    1    1    2    0    0 -0.18137712801E+03  0.15569272697E+03  0.69060216488E+01  0.26983435832E+03  0.12500000000E+03 0.  0.
         25    1    1    2    0    0  0.13335354855E+03 -0.93057319847E+02 -0.72729634995E+03  0.75566382363E+03  0.12500000000E+03 0.  0.
</event>
<event>
 5    0  0.5474724E-005  0.3069163E+03  0.7546771E-02  0.1081833E+00
         21   -1    0    0  502  501  0.00000000000E+00  0.00000000000E+00  0.11199487316E+03  0.11199487316E+03  0.00000000000E+00 0. -1.
         21   -1    0    0  501  502 -0.00000000000E+00 -0.00000000000E+00 -0.84108878737E+03  0.84108878737E+03  0.00000000000E+00 0. -1.
         25    1    1    2    0    0  0.36611241216E+02  0.11253235593E+03 -0.24107643977E+03  0.29622080266E+03  0.12500000000E+03 0.  0.
         25    1    1    2    0    0 -0.19607128108E+02 -0.18191741476E+03 -0.45943095635E+03  0.51007861052E+03  0.12500000000E+03 0.  0.
         25    1    1    2    0    0 -0.17004113108E+02  0.69385058830E+02 -0.28586518089E+02  0.14678424734E+03  0.12500000000E+03 0.  0.
</event>
<event>
 5    0  0.5474724E-005  0.2492415E+03  0.7546771E-02  0.1113785E+00
         21   -1    0    0  502  501  0.00000000000E+00  0.00000000000E+00  0.54566387789E+03  0.54566387789E+03  0.00000000000E+00 0.  1.
         21   -1    0    0  501  502 -0.00000000000E+00 -0.00000000000E+00 -0.11384539512E+03  0.11384539512E+03  0.00000000000E+00 0.  1.
         25    1    1    2    0    0  0.11588561602E+03 -0.28572016797E+02  0.18282637284E+03  0.25158759658E+03  0.12500000000E+03 0.  0.
         25    1    1    2    0    0 -0.10547081979E+03  0.68989254983E+02  0.82932587942E+02  0.19592453974E+03  0.12500000000E+03 0.  0.
         25    1    1    2    0    0 -0.10414796239E+02 -0.40417238185E+02  0.16605952199E+03  0.21199713669E+03  0.12500000000E+03 0.  0.
</event>
<event>
 5    0  0.5474724E-005  0.5213884E+03  0.7546771E-02  0.1008342E+00
         21   -1    0    0  502  501  0.00000000000E+00  0.00000000000E+00  0.14052976162E+03  0.14052976162E+03  0.00000000000E+00 0.  1.
         21   -1    0    0  501  502 -0.00000000000E+00 -0.00000000000E+00 -0.19344360136E+04  0.19344360136E+04  0.00000000000E+00 0.  1.
         25    1    1    2    0    0  0.13312412345E+03 -0.89335429088E+01 -0.84329410346E+03  0.86288573135E+03  0.12500000000E+03 0.  0.
         25    1    1    2    0    0  0.18051010066E+03  0.16843572046E+03 -0.72449536191E+03  0.77554691528E+03  0.12500000000E+03 0.  0.
         25    1    1    2    0    0 -0.31363422411E+03 -0.15950217755E+03 -0.22611678660E+03  0.43653312860E+03  0.12500000000E+03 0.  0.
</event>
<event>
 5    0  0.5474724E-005  0.2332869E+03  0.7546771E-02  0.1124347E+00
         21   -1    0    0  502  501  0.00000000000E+00  0.00000000000E+00  0.29934393009E+04  0.29934393009E+04  0.00000000000E+00 0.  1.
         21   -1    0    0  501  502 -0.00000000000E+00 -0.00000000000E+00 -0.18180678523E+02  0.18180678523E+02  0.00000000000E+00 0.  1.
         25    1    1    2    0    0  0.26744326362E+02  0.53878047660E+02  0.40983854235E+03  0.43267855714E+03  0.12500000000E+03 0.  0.
         25    1    1    2    0    0  0.11735066059E+02 -0.40184025491E+02  0.13563624907E+04  0.13627533430E+04  0.12500000000E+03 0.  0.
         25    1    1    2    0    0 -0.38479392421E+02 -0.13694022169E+02  0.12090575894E+04  0.12161880794E+04  0.12500000000E+03 0.  0.
</event>
<event>
 5    0  0.5474724E-005  0.2572245E+03  0.7546771E-02  0.1108822E+00
         21   -1    0    0  502  501  0.00000000000E+00  0.00000000000E+00  0.30703779909E+03  0.30703779909E+03  0.00000000000E+00 0.  1.
         21   -1    0    0  501  502 -0.00000000000E+00 -0.00000000000E+00 -0.21549278283E+03  0.21549278283E+03  0.00000000000E+00 0.  1.
         25    1    1    2    0    0 -0.28582852951E+01  0.33373020912E+02  0.87186572944E+02  0.15603982447E+03  0.12500000000E+03 0.  0.
         25    1    1    2    0    0 -0.49497942187E+02 -0.10665460374E+03 -0.81648169499E+02  0.19004387483E+03  0.12500000000E+03 0.  0.
         25    1    1    2    0    0  0.52356227483E+02  0.73281582825E+02  0.86006612809E+02  0.17644688261E+03  0.12500000000E+03 0.  0.
</event>
<event>
 5    0  0.5474724E-005  0.2275919E+03  0.7546771E-02  0.1128346E+00
         21   -1    0    0  502  501  0.00000000000E+00  0.00000000000E+00  0.10633277158E+03  0.10633277158E+03  0.00000000000E+00 0. -1.
         21   -1    0    0  501  502 -0.00000000000E+00 -0.00000000000E+00 -0.48713184163E+03  0.48713184163E+03  0.00000000000E+00 0. -1.
         25    1    1    2    0    0  0.52268252022E+02 -0.33374898817E+02 -0.14928645169E+03  0.20434602687E+03  0.12500000000E+03 0.  0.
         25    1    1    2    0    0  0.59251254568E+02 -0.12429881876E+02 -0.95987188501E+02  0.16883054667E+03  0.12500000000E+03 0.  0.
         25    1    1    2    0    0 -0.11151950659E+03  0.45804780693E+02 -0.13552542986E+03  0.22028803967E+03  0.12500000000E+03 0.  0.
</event>
<event>
 5    0  0.5474724E-005  0.3063829E+03  0.7546771E-02  0.1082093E+00
         21   -1    0    0  502  501  0.00000000000E+00  0.00000000000E+00  0.36990323809E+03  0.36990323809E+03  0.00000000000E+00 0. -1.
         21   -1    0    0  501  502 -0.00000000000E+00 -0.00000000000E+00 -0.25377043455E+03  0.25377043455E+03  0.00000000000E+00 0. -1.
         25    1    1    2    0    0 -0.68027619303E+02  0.68484841141E+02 -0.41919552879E+02  0.16340189524E+03  0.12500000000E+03 0.  0.
         25    1    1    2    0    0  0.11850255282E+03  0.10979877653E+03  0.10866078319E+03  0.23136722360E+03  0.12500000000E+03 0.  0.
         25    1    1    2    0    0 -0.50474933519E+02 -0.17828361767E+03  0.49391573229E+02  0.22890455380E+03  0.12500000000E+03 0.  0.
</event>
<event>
 5    0  0.5474724E-005  0.4994962E+03  0.7546771E-02  0.1013910E+00
         21   -1    0    0  502  501  0.00000000000E+00  0.00000000000E+00  0.54455204434E+03  0.54455204434E+03  0.00000000000E+00 0. -1.
         21   -1    0    0  501  502 -0.00000000000E+00 -0.00000000000E+00 -0.45816826180E+03  0.45816826180E+03  0.00000000000E+00 0. -1.
         25    1    1    2    0    0 -0.51679455906E+01 -0.32563357079E+03  0.31613610868E+03  0.47077698467E+03  0.12500000000E+03 0.  0.
         25    1    1    2    0    0 -0.10023510256E+03  0.18837415396E+03 -0.19655056610E+03  0.31589400548E+03  0.12500000000E+03 0.  0.
         25    1    1    2    0    0  0.10540304815E+03  0.13725941683E+03 -0.33201760041E+02  0.21604931598E+03  0.12500000000E+03 0.  0.
</event>
<event>
 5    0  0.5474724E-005  0.4723065E+03  0.7546771E-02  0.1021271E+00
         21   -1    0    0  502  501  0.00000000000E+00  0.00000000000E+00  0.51399437508E+03  0.51399437508E+03  0.00000000000E+00 0. -1.
         21   -1    0    0  501  502 -0.00000000000E+00 -0.00000000000E+00 -0.43399974904E+03  0.43399974904E+03  0.00000000000E+00 0. -1.
         25    1    1    2    0    0 -0.55462610006E+02  0.11251400622E+03 -0.92815630163E+01  0.17733203353E+03  0.12500000000E+03 0.  0.
         25    1    1    2    0    0 -0.26328906910E+03  0.15340992612E+03  0.69933002103E+02  0.33670664401E+03  0.12500000000E+03 0.  0.
         25    1    1    2    0    0  0.31875167911E+03 -0.26592393233E+03  0.19343186954E+02  0.43395544657E+03  0.12500000000E+03 0.  0.
</event>
<event>
 5    0  0.5474724E-005  0.2722503E+03  0.7546771E-02  0.1099999E+00
         21   -1    0    0  502  501  0.00000000000E+00  0.00000000000E+00  0.32775961355E+03  0.32775961355E+03  0.00000000000E+00 0.  1.
         21   -1    0    0  501  502 -0.00000000000E+00 -0.00000000000E+00 -0.22614195718E+03  0.22614195718E+03  0.00000000000E+00 0.  1.
         25    1    1    2    0    0 -0.17212826237E+02 -0.27653364541E+02 -0.55347615671E+02  0.14053237534E+03  0.12500000000E+03 0.  0.
         25    1    1    2    0    0  0.24731896578E+02 -0.10408498636E+03 -0.12313449758E+02  0.16499082441E+03  0.12500000000E+03 0.  0.
         25    1    1    2    0    0 -0.75190703414E+01  0.13173835090E+03  0.16927872180E+03  0.24837837098E+03  0.12500000000E+03 0.  0.
</event>
<event>
 5    0  0.5474724E-005  0.3635235E+03  0.7546771E-02  0.1057197E+00
         21   -1    0    0  502  501  0.00000000000E+00  0.00000000000E+00  0.11306791028E+04  0.11306791028E+04  0.00000000000E+00 0. -1.
         21   -1    0    0  501  502 -0.00000000000E+00 -0.00000000000E+00 -0.11687608042E+03  0.11687608042E+03  0.00000000000E+00 0.  1.
         25    1    1    2    0    0  0.63187213093E+02 -0.16693020031E+03  0.54041254389E+03  0.58269119890E+03  0.12500000000E+03 0.  0.
         25    1    1    2    0    0 -0.52107556672E+01  0.89908397063E+02  0.48274265743E+03  0.50673084092E+03  0.12500000000E+03 0.  0.
         25    1    1    2    0    0 -0.57976457425E+02  0.77021803252E+02 -0.93521789395E+01  0.15813314340E+03  0.12500000000E+03 0.  0.
</event>
<event>
 5    0  0.5474724E-005  0.3790746E+03  0.7546771E-02  0.1051276E+00
         21   -1    0    0  502  501  0.00000000000E+00  0.00000000000E+00  0.75694422979E+03  0.75694422979E+03  0.00000000000E+00 0. -1.
         21   -1    0    0  501  502 -0.00000000000E+00 -0.00000000000E+00 -0.18983904722E+03  0.18983904722E+03  0.00000000000E+00 0. -1.
         25    1    1    2    0    0  0.10055222836E+02 -0.13907859543E+02  0.38185342567E+03  0.40215864377E+03  0.12500000000E+03 0.  0.
         25    1    1    2    0    0 -0.20043589527E+03  0.80698589821E+02  0.10418128527E+02  0.24984064504E+03  0.12500000000E+03 0.  0.
         25    1    1    2    0    0  0.19038067244E+03 -0.66790730278E+02  0.17483362837E+03  0.29478398820E+03  0.12500000000E+03 0.  0.
</event>
<event>
 5    0  0.5474724E-005  0.3047083E+03  0.7546771E-02  0.1082910E+00
         21   -1    0    0  502  501  0.00000000000E+00  0.00000000000E+00  0.65682250349E+03  0.65682250349E+03  0.00000000000E+00 0. -1.
         21   -1    0    0  501  502 -0.00000000000E+00 -0.00000000000E+00 -0.14135806780E+03  0.14135806780E+03  0.00000000000E+00 0. -1.
         25    1    1    2    0    0  0.52952536445E+02 -0.12035511608E+03  0.82915529876E+02  0.19947258001E+03  0.12500000000E+03 0.  0.
         25    1    1    2    0    0 -0.71942024635E+02  0.21102823454E+03  0.30165093906E+03  0.39538191628E+03  0.12500000000E+03 0.  0.
         25    1    1    2    0    0  0.18989488190E+02 -0.90673118462E+02  0.13089796676E+03  0.20332607500E+03  0.12500000000E+03 0.  0.
</event>
<event>
 5    0  0.5474724E-005  0.2772664E+03  0.7546771E-02  0.1097191E+00
         21   -1    0    0  502  501  0.00000000000E+00  0.00000000000E+00  0.81139680067E+02  0.81139680067E+02  0.00000000000E+00 0. -1.
         21   -1    0    0  501  502 -0.00000000000E+00 -0.00000000000E+00 -0.94746064240E+03  0.94746064240E+03  0.00000000000E+00 0. -1.
         25    1    1    2    0    0  0.16918919151E+03 -0.13536989847E+02 -0.52531309132E+03  0.56602745210E+03  0.12500000000E+03 0.  0.
         25    1    1    2    0    0 -0.11719092634E+03 -0.17726243982E+02 -0.20990618939E+03  0.27153920764E+03  0.12500000000E+03 0.  0.
         25    1    1    2    0    0 -0.51998265173E+02  0.31263233829E+02 -0.13110168162E+03  0.19103366273E+03  0.12500000000E+03 0.  0.
</event>
<event>
 5    0  0.5474724E-005  0.2637458E+03  0.7546771E-02  0.1104913E+00
         21   -1    0    0  502  501  0.00000000000E+00  0.00000000000E+00  0.25225424209E+03  0.25225424209E+03  0.00000000000E+00 0. -1.
         21   -1    0    0  501  502 -0.00000000000E+00 -0.00000000000E+00 -0.27576084423E+03  0.27576084423E+03  0.00000000000E+00 0. -1.
         25    1    1    2    0    0  0.10116927189E+03  0.14428078990E+02  0.37088144355E+02  0.16566207016E+03  0.12500000000E+03 0.  0.
         25    1    1    2    0    0  0.40057234090E+02  0.43985313422E+02  0.35290607581E+02  0.14286258007E+03  0.12500000000E+03 0.  0.
         25    1    1    2    0    0 -0.14122650598E+03 -0.58413392413E+02 -0.95885354080E+02  0.21949043609E+03  0.12500000000E+03 0.  0.
</event>
<event>
 5    0  0.5474724E-005  0.4165562E+03  0.7546771E-02  0.1038193E+00
         21   -1    0    0  502  501  0.00000000000E+00  0.00000000000E+00  0.84062295763E+02  0.84062295763E+02  0.00000000000E+00 0.  1.
         21   -1    0    0  501  502 -0.00000000000E+00 -0.00000000000E+00 -0.20641721709E+04  0.20641721709E+04  0.00000000000E+00 0.  1.
         25    1    1    2    0    0  0.19264763179E+03 -0.17260523921E+03 -0.10100747857E+04  0.10501341587E+04  0.12500000000E+03 0.  0.
         25    1    1    2    0    0 -0.31689420462E+02 -0.88553046448E+02 -0.16397207233E+03  0.22662237734E+03  0.12500000000E+03 0.  0.
         25    1    1    2    0    0 -0.16095821133E+03  0.26115828565E+03 -0.80606301710E+03  0.87147793058E+03  0.12500000000E+03 0.  0.
</event>
<event>
 5    0  0.6206936E-005  0.2785123E+03  0.7546771E-02  0.1096504E+00
         21   -1    0    0  502  501  0.00000000000E+00  0.00000000000E+00  0.55548805666E+03  0.55548805666E+03  0.00000000000E+00 0. -1.
         21   -1    0    0  501  502 -0.00000000000E+00 -0.00000000000E+00 -0.13964137509E+03  0.13964137509E+03  0.00000000000E+00 0. -1.
         25    1    1    2    0    0 -0.97143447563E+01  0.55555094474E+02  0.30390274780E+03  0.33341058342E+03  0.12500000000E+03 0.  0.
         25    1    1    2    0    0 -0.82520679432E+02  0.47919032325E+02  0.48189837837E+02  0.16447843829E+03  0.12500000000E+03 0.  0.
         25    1    1    2    0    0  0.92235024189E+02 -0.10347412680E+03  0.63754095930E+02  0.19724041004E+03  0.12500000000E+03 0.  0.
</event>
<event>
 5    0  0.5474724E-005  0.1943856E+03  0.7546771E-02  0.1154564E+00
         21   -1    0    0  502  501  0.00000000000E+00  0.00000000000E+00  0.24841211134E+03  0.24841211134E+03  0.00000000000E+00 0. -1.
         21   -1    0    0  501  502 -0.00000000000E+00 -0.00000000000E+00 -0.15210921115E+03  0.15210921115E+03  0.00000000000E+00 0. -1.
         25    1    1    2    0    0  0.53188364773E+01 -0.14094741633E+02  0.17900653131E+02  0.12717069295E+03  0.12500000000E+03 0.  0.
         25    1    1    2    0    0  0.11302597466E+02 -0.27768423848E+02  0.46590369589E+02  0.13672781945E+03  0.12500000000E+03 0.  0.
         25    1    1    2    0    0 -0.16621433943E+02  0.41863165481E+02  0.31811877464E+02  0.13662281009E+03  0.12500000000E+03 0.  0.
</event>
<event>
 5    0  0.5474724E-005  0.3600886E+03  0.7546771E-02  0.1058549E+00
         21   -1    0    0  502  501  0.00000000000E+00  0.00000000000E+00  0.29961294201E+03  0.29961294201E+03  0.00000000000E+00 0. -1.
         21   -1    0    0  501  502 -0.00000000000E+00 -0.00000000000E+00 -0.43277104176E+03  0.43277104176E+03  0.00000000000E+00 0. -1.
         25    1    1    2    0    0 -0.71985308849E+02 -0.13406207809E+03 -0.16248846646E+03  0.25530771082E+03  0.12500000000E+03 0.  0.
         25    1    1    2    0    0 -0.66920101263E+01  0.10120389325E+03 -0.16518003687E+03  0.23064356828E+03  0.12500000000E+03 0.  0.
         25    1    1    2    0    0  0.78677318975E+02  0.32858184843E+02  0.19451040358E+03  0.24643270468E+03  0.12500000000E+03 0.  0.
</event>
<event>
 5    0  0.5474724E-005  0.2956491E+03  0.7546771E-02  0.1087436E+00
         21   -1    0    0  502  501  0.00000000000E+00  0.00000000000E+00  0.27091989521E+04  0.27091989521E+04  0.00000000000E+00 0. -1.
         21   -1    0    0  501  502 -0.00000000000E+00 -0.00000000000E+00 -0.32263545629E+02  0.32263545629E+02  0.00000000000E+00 0. -1.
         25    1    1    2    0    0 -0.66732450171E+02  0.11704913899E+03  0.69377520572E+03  0.71770659528E+03  0.12500000000E+03 0.  0.
         25    1    1    2    0    0  0.14032166329E+03 -0.35890709726E+02  0.15136418477E+04  0.15256850774E+04  0.12500000000E+03 0.  0.
         25    1    1    2    0    0 -0.73589213117E+02 -0.81158429263E+02  0.46951835304E+03  0.49807082505E+03  0.12500000000E+03 0.  0.
</event>
<event>
 5    0  0.5474724E-005  0.4479637E+03  0.7546771E-02  0.1028331E+00
         21   -1    0    0  502  501  0.00000000000E+00  0.00000000000E+00  0.35106436447E+03  0.35106436447E+03  0.00000000000E+00 0.  1.
         21   -1    0    0  501  502 -0.00000000000E+00 -0.00000000000E+00 -0.57160881372E+03  0.57160881372E+03  0.00000000000E+00 0.  1.
         25    1    1    2    0    0 -0.10383559183E+03 -0.34828529902E+02  0.19464023455E+03  0.25593881600E+03  0.12500000000E+03 0.  0.
         25    1    1    2    0    0  0.27007622533E+03  0.68422797314E+02 -0.29290479558E+03  0.42313244493E+03  0.12500000000E+03 0.  0.
         25    1    1    2    0    0 -0.16624063350E+03 -0.33594267412E+02 -0.12227988822E+03  0.24360191726E+03  0.12500000000E+03 0.  0.
</event>
<event>
 5    0  0.5474724E-005  0.2589403E+03  0.7546771E-02  0.1107782E+00
         21   -1    0    0  502  501  0.00000000000E+00  0.00000000000E+00  0.18154692687E+04  0.18154692687E+04  0.00000000000E+00 0. -1.
         21   -1    0    0  501  502 -0.00000000000E+00 -0.00000000000E+00 -0.36932641157E+02  0.36932641157E+02  0.00000000000E+00 0. -1.
         25    1    1    2    0    0 -0.14135265980E+03 -0.27529979808E+02  0.46915456602E+03  0.50642815980E+03  0.12500000000E+03 0.  0.
         25    1    1    2    0    0  0.70575172366E+02  0.55217308324E+02  0.85185615673E+03  0.86562908792E+03  0.12500000000E+03 0.  0.
         25    1    1    2    0    0  0.70777487438E+02 -0.27687328516E+02  0.45752590481E+03  0.48034466215E+03  0.12500000000E+03 0.  0.
</event>
<event>
 5    0  0.5513441E-005  0.3598711E+03  0.7546771E-02  0.1058635E+00
         21   -1    0    0  502  501  0.00000000000E+00  0.00000000000E+00  0.29326717630E+03  0.29326717630E+03  0.00000000000E+00 0. -1.
         21   -1    0    0  501  502 -0.00000000000E+00 -0.00000000000E+00 -0.44160151246E+03  0.44160151246E+03  0.00000000000E+00 0. -1.
         25    1    1    2    0    0  0.14306786646E+03  0.33421296749E+01  0.41039291198E+02  0.19439343525E+03  0.12500000000E+03 0.  0.
         25    1    1    2    0    0  0.53065276683E+01 -0.16164686707E+03 -0.20511919909E+03  0.28958030787E+03  0.12500000000E+03 0.  0.
         25    1    1    2    0    0 -0.14837439413E+03  0.15830473740E+03  0.15745571741E+02  0.25089494564E+03  0.12500000000E+03 0.  0.
</event>
<event>
 5    0  0.5474724E-005  0.4039732E+03  0.7546771E-02  0.1042413E+00
         21   -1    0    0  502  501  0.00000000000E+00  0.00000000000E+00  0.30518347230E+03  0.30518347230E+03  0.00000000000E+00 0.  1.
         21   -1    0    0  501  502 -0.00000000000E+00 -0.00000000000E+00 -0.53474174559E+03  0.53474174559E+03  0.00000000000E+00 0.  1.
         25    1    1    2    0    0  0.35896711961E+02 -0.20214259755E+03 -0.16770182480E+03  0.29308549216E+03  0.12500000000E+03 0.  0.
         25    1    1    2    0    0 -0.16866996401E+03  0.13151191483E+03  0.12401944887E+03  0.27703928278E+03  0.12500000000E+03 0.  0.
         25    1    1    2    0    0  0.13277325205E+03  0.70630682718E+02 -0.18587589735E+03  0.26980044296E+03  0.12500000000E+03 0.  0.
</event>
<event>
 5    0  0.5474724E-005  0.2842114E+03  0.7546771E-02  0.1093411E+00
         21   -1    0    0  502  501  0.00000000000E+00  0.00000000000E+00  0.97069994320E+02  0.97069994320E+02  0.00000000000E+00 0. -1.
         21   -1    0    0  501  502 -0.00000000000E+00 -0.00000000000E+00 -0.83214287779E+03  0.83214287779E+03  0.00000000000E+00 0. -1.
         25    1    1    2    0    0  0.62924695041E+02 -0.32631380475E+02 -0.59039950279E+03  0.60763549693E+03  0.12500000000E+03 0.  0.
         25    1    1    2    0    0 -0.31662496597E+02  0.77868709727E+02 -0.75666634655E+02  0.16857191120E+03  0.12500000000E+03 0.  0.
         25    1    1    2    0    0 -0.31262198444E+02 -0.45237329251E+02 -0.69006746020E+02  0.15300546397E+03  0.12500000000E+03 0.  0.
</event>
<event>
 5    0  0.5474724E-005  0.3233698E+03  0.7546771E-02  0.1074109E+00
         21   -1    0    0  502  501  0.00000000000E+00  0.00000000000E+00  0.20314830858E+03  0.20314830858E+03  0.00000000000E+00 0.  1.
         21   -1    0    0  501  502 -0.00000000000E+00 -0.00000000000E+00 -0.51473739735E+03  0.51473739735E+03  0.00000000000E+00 0.  1.
         25    1    1    2    0    0  0.99615047886E+02 -0.46549572017E+02  0.26522757244E+02  0.16857780718E+03  0.12500000000E+03 0.  0.
         25    1    1    2    0    0 -0.14805243282E+03  0.16410815787E+03 -0.21388485231E+03  0.33199810299E+03  0.12500000000E+03 0.  0.
         25    1    1    2    0    0  0.48437384936E+02 -0.11755858585E+03 -0.12422699371E+03  0.21730979576E+03  0.12500000000E+03 0.  0.
</event>
<event>
 5    0  0.5474724E-005  0.3073730E+03  0.7546771E-02  0.1081612E+00
         21   -1    0    0  502  501  0.00000000000E+00  0.00000000000E+00  0.24943264481E+02  0.24943264481E+02  0.00000000000E+00 0.  1.
         21   -1    0    0  501  502 -0.00000000000E+00 -0.00000000000E+00 -0.37877226254E+04  0.37877226254E+04  0.00000000000E+00 0.  1.
         25    1    1    2    0    0 -0.94576973912E+01  0.92484917806E+02 -0.15110112779E+04  0.15190204047E+04  0.12500000000E+03 0.  0.
         25    1    1    2    0    0 -0.12362789945E+03  0.68225925154E+02 -0.82383477559E+03  0.84514340313E+03  0.12500000000E+03 0.  0.
         25    1    1    2    0    0  0.13308559684E+03 -0.16071084296E+03 -0.14279333075E+04  0.14485020821E+04  0.12500000000E+03 0.  0.
</event>
<event>
 5    0  0.5474724E-005  0.2698947E+03  0.7546771E-02  0.1101340E+00
         21   -1    0    0  502  501  0.00000000000E+00  0.00000000000E+00  0.15193306738E+03  0.15193306738E+03  0.00000000000E+00 0. -1.
         21   -1    0    0  501  502 -0.00000000000E+00 -0.00000000000E+00 -0.47944231950E+03  0.47944231950E+03  0.00000000000E+00 0. -1.
         25    1    1    2    0    0  0.26047550032E+02  0.48446465029E+02 -0.18114757738E+03  0.22685894214E+03  0.12500000000E+03 0.  0.
         25    1    1    2    0    0 -0.72584476526E+02  0.92169620993E+02 -0.11922158990E+03  0.20881219496E+03  0.12500000000E+03 0.  0.
         25    1    1    2    0    0  0.46536926495E+02 -0.14061608602E+03 -0.27140084842E+02  0.19570424978E+03  0.12500000000E+03 0.  0.
</event>
<event>
 5    0  0.5474724E-005  0.3016190E+03  0.7546771E-02  0.1084434E+00
         21   -1    0    0  502  501  0.00000000000E+00  0.00000000000E+00  0.17782072674E+04  0.17782072674E+04  0.00000000000E+00 0.  1.
         21   -1    0    0  501  502 -0.00000000000E+00 -0.00000000000E+00 -0.51160541165E+02  0.51160541165E+02  0.00000000000E+00 0.  1.
         25    1    1    2    0    0  0.12158867745E+03  0.32628048440E+02  0.23919580093E+03  0.29780535121E+03  0.12500000000E+03 0.  0.
         25    1    1    2    0    0 -0.35071830225E+01  0.39853004162E+02  0.27822489041E+03  0.30762745637E+03  0.12500000000E+03 0.  0.
         25    1    1    2    0    0 -0.11808149443E+03 -0.72481052601E+02  0.12096260350E+04  0.12239350010E+04  0.12500000000E+03 0.  0.
</event>
<event>
 5    0  0.5474724E-005  0.2098744E+03  0.7546771E-02  0.1141665E+00
         21   -1    0    0  502  501  0.00000000000E+00  0.00000000000E+00  0.22611898234E+03  0.22611898234E+03  0.00000000000E+00 0.  1.
         21   -1    0    0  501  502 -0.00000000000E+00 -0.00000000000E+00 -0.19479690675E+03  0.19479690675E+03  0.00000000000E+00 0.  1.
         25    1    1    2    0    0 -0.69759945173E+00 -0.48746464522E+02  0.16546909361E+02  0.13518692488E+03  0.12500000000E+03 0.  0.
         25    1    1    2    0    0 -0.39936143027E+01  0.45369230338E+02 -0.53250764034E+02  0.14330024385E+03  0.12500000000E+03 0.  0.
         25    1    1    2    0    0  0.46912137545E+01  0.33772341836E+01  0.68025930261E+02  0.14242872037E+03  0.12500000000E+03 0.  0.
</event>
<event>
 5    0  0.5474724E-005  0.3209182E+03  0.7546771E-02  0.1075228E+00
         21   -1    0    0  502  501  0.00000000000E+00  0.00000000000E+00  0.21386627855E+03  0.21386627855E+03  0.00000000000E+00 0.  1.
         21   -1    0    0  501  502 -0.00000000000E+00 -0.00000000000E+00 -0.48155542298E+03  0.48155542298E+03  0.00000000000E+00 0.  1.
         25    1    1    2    0    0  0.23336757504E+02 -0.71715688566E+02 -0.10579325756E+03  0.18029131311E+03  0.12500000000E+03 0.  0.
         25    1    1    2    0    0  0.15349712460E+03  0.15980124899E+03 -0.99426493216E+02  0.27314544476E+03  0.12500000000E+03 0.  0.
         25    1    1    2    0    0 -0.17683388211E+03 -0.88085560425E+02 -0.62469393649E+02  0.24198494366E+03  0.12500000000E+03 0.  0.
</event>
<event>
 5    0  0.5474724E-005  0.4241912E+03  0.7546771E-02  0.1035711E+00
         21   -1    0    0  502  501  0.00000000000E+00  0.00000000000E+00  0.55110532914E+02  0.55110532914E+02  0.00000000000E+00 0. -1.
         21   -1    0    0  501  502 -0.00000000000E+00 -0.00000000000E+00 -0.32650408765E+04  0.32650408765E+04  0.00000000000E+00 0. -1.
         25    1    1    2    0    0 -0.14868277891E+03  0.12346233875E+03 -0.19258708072E+04  0.19395754391E+04  0.12500000000E+03 0.  0.
         25    1    1    2    0    0  0.22580245485E+03  0.40636724240E+02 -0.90732061121E+03  0.94418948495E+03  0.12500000000E+03 0.  0.
         25    1    1    2    0    0 -0.77119675941E+02 -0.16409906299E+03 -0.37673892524E+03  0.43638648545E+03  0.12500000000E+03 0.  0.
</event>
<event>
 5    0  0.5474724E-005  0.3401847E+03  0.7546771E-02  0.1066717E+00
         21   -1    0    0  502  501  0.00000000000E+00  0.00000000000E+00  0.13688966034E+04  0.13688966034E+04  0.00000000000E+00 0.  1.
         21   -1    0    0  501  502 -0.00000000000E+00 -0.00000000000E+00 -0.84539352002E+02  0.84539352002E+02  0.00000000000E+00 0.  1.
         25    1    1    2    0    0 -0.19446649212E+02  0.17808161053E+03  0.21882876978E+03  0.30919615564E+03  0.12500000000E+03 0.  0.
         25    1    1    2    0    0 -0.29688630100E+02  0.47983458377E+02  0.53253164648E+03  0.54990797552E+03  0.12500000000E+03 0.  0.
         25    1    1    2    0    0  0.49135279312E+02 -0.22606506891E+03  0.53299683514E+03  0.59433182425E+03  0.12500000000E+03 0.  0.
</event>
<event>
 5    0  0.5474724E-005  0.3112413E+03  0.7546771E-02  0.1079752E+00
         21   -1    0    0  502  501  0.00000000000E+00  0.00000000000E+00  0.45867453609E+03  0.45867453609E+03  0.00000000000E+00 0.  1.
         21   -1    0    0  501  502 -0.00000000000E+00 -0.00000000000E+00 -0.21119805462E+03  0.21119805462E+03  0.00000000000E+00 0.  1.
         25    1    1    2    0    0 -0.66146838719E+02 -0.47829635524E+01 -0.88688915229E+02  0.16700001406E+03  0.12500000000E+03 0.  0.
         25    1    1    2    0    0  0.13613800822E+03 -0.79464075204E+02  0.13663096162E+03  0.24318946565E+03  0.12500000000E+03 0.  0.
         25    1    1    2    0    0 -0.69991169506E+02  0.84247038757E+02  0.19953443509E+03  0.25968311099E+03  0.12500000000E+03 0.  0.
</event>
<event>
 5    0  0.5474724E-005  0.2609065E+03  0.7546771E-02  0.1106600E+00
         21   -1    0    0  502  501  0.00000000000E+00  0.00000000000E+00  0.24842137093E+04  0.24842137093E+04  0.00000000000E+00 0. -1.
         21   -1    0    0  501  502 -0.00000000000E+00 -0.00000000000E+00 -0.27401910346E+02  0.27401910346E+02  0.00000000000E+00 0. -1.
         25    1    1    2    0    0  0.81881605181E+02  0.36348556544E+02  0.31732165185E+03  0.35262422714E+03  0.12500000000E+03 0.  0.
         25    1    1    2    0    0 -0.88801303244E+02 -0.53668196343E+02  0.12766041425E+04  0.12868990183E+04  0.12500000000E+03 0.  0.
         25    1    1    2    0    0  0.69196980627E+01  0.17319639799E+02  0.86288600462E+03  0.87209237419E+03  0.12500000000E+03 0.  0.
</event>
<event>
 5    0  0.5474724E-005  0.2504555E+03  0.7546771E-02  0.1113017E+00
         21   -1    0    0  502  501  0.00000000000E+00  0.00000000000E+00  0.55198845839E+03  0.55198845839E+03  0.00000000000E+00 0.  1.
         21   -1    0    0  501  502 -0.00000000000E+00 -0.00000000000E+00 -0.11363997199E+03  0.11363997199E+03  0.00000000000E+00 0.  1.
         25    1    1    2    0    0 -0.51570332607E+02 -0.61565265058E+02  0.78501190724E+02  0.16803933472E+03  0.12500000000E+03 0.  0.
         25    1    1    2    0    0 -0.25800638254E+02  0.12516921405E+03  0.14849662660E+03  0.23239890961E+03  0.12500000000E+03 0.  0.
         25    1    1    2    0    0  0.77370970861E+02 -0.63603948989E+02  0.21135066908E+03  0.26519018606E+03  0.12500000000E+03 0.  0.
</event>
<event>
 5    0  0.5474724E-005  0.3666402E+03  0.7546771E-02  0.1055985E+00
         21   -1    0    0  502  501  0.00000000000E+00  0.00000000000E+00  0.21318133864E+03  0.21318133864E+03  0.00000000000E+00 0.  1.
         21   -1    0    0  501  502 -0.00000000000E+00 -0.00000000000E+00 -0.63056665006E+03  0.63056665006E+03  0.00000000000E+00 0.  1.
         25    1    1    2    0    0 -0.12260901056E+02 -0.96316848700E+02 -0.17204239800E+03  0.23377521629E+03  0.12500000000E+03 0.  0.
         25    1    1    2    0    0  0.16349810003E+02 -0.19321960521E+03 -0.41420518017E+02  0.23439665407E+03  0.12500000000E+03 0.  0.
         25    1    1    2    0    0 -0.40889089475E+01  0.28953645391E+03 -0.20392239541E+03  0.37557611834E+03  0.12500000000E+03 0.  0.
</event>
<event>
 5    0  0.5474724E-005  0.2660149E+03  0.7546771E-02  0.1103582E+00
         21   -1    0    0  502  501  0.00000000000E+00  0.00000000000E+00  0.11215566811E+03  0.11215566811E+03  0.00000000000E+00 0.  1.
         21   -1    0    0  501  502 -0.00000000000E+00 -0.00000000000E+00 -0.63094402529E+03  0.63094402529E+03  0.00000000000E+00 0.  1.
         25    1    1    2    0    0  0.36625540141E+02  0.84848284139E+02 -0.22434891277E+03  0.27294339371E+03  0.12500000000E+03 0.  0.
         25    1    1    2    0    0 -0.11313862599E+03 -0.11840597133E+03 -0.11461290874E+03  0.23575716656E+03  0.12500000000E+03 0.  0.
         25    1    1    2    0    0  0.76513085845E+02  0.33557687187E+02 -0.17982653567E+03  0.23439913312E+03  0.12500000000E+03 0.  0.
</event>
<event>
 5    0  0.5474724E-005  0.3227999E+03  0.7546771E-02  0.1074368E+00
         21   -1    0    0  502  501  0.00000000000E+00  0.00000000000E+00  0.95630614958E+02  0.95630614958E+02  0.00000000000E+00 0. -1.
         21   -1    0    0  501  502 -0.00000000000E+00 -0.00000000000E+00 -0.10896069122E+04  0.10896069122E+04  0.00000000000E+00 0. -1.
         25    1    1    2    0    0 -0.40138768971E+02 -0.40174228549E+02 -0.50694797213E+02  0.14635590825E+03  0.12500000000E+03 0.  0.
         25    1    1    2    0    0 -0.13578205971E+03  0.10061672157E+03 -0.49167506106E+03  0.53472409528E+03  0.12500000000E+03 0.  0.
         25    1    1    2    0    0  0.17592082868E+03 -0.60442493025E+02 -0.45160643901E+03  0.50415752368E+03  0.12500000000E+03 0.  0.
</event>
<event>
 5    0  0.5474724E-005  0.6631010E+03  0.7546771E-02  0.9782502E-01
         21   -1    0    0  502  501  0.00000000000E+00  0.00000000000E+00  0.99331171526E+03  0.99331171526E+03  0.00000000000E+00 0. -1.
         21   -1    0    0  501  502 -0.00000000000E+00 -0.00000000000E+00 -0.44266356618E+03  0.44266356618E+03  0.00000000000E+00 0. -1.
         25    1    1    2    0    0 -0.12086153906E+03 -0.15406327573E+02  0.24328687231E+03  0.29943007329E+03  0.12500000000E+03 0.  0.
         25    1    1    2    0    0  0.41257833501E+03 -0.14752648818E+03 -0.21513164084E+03  0.50387654254E+03  0.12500000000E+03 0.  0.
         25    1    1    2    0    0 -0.29171679596E+03  0.16293281575E+03  0.52249291760E+03  0.63266866560E+03  0.12500000000E+03 0.  0.
</event>
<event>
 5    0  0.5474724E-005  0.6163792E+03  0.7546771E-02  0.9871995E-01
         21   -1    0    0  502  501  0.00000000000E+00  0.00000000000E+00  0.90770484147E+03  0.90770484147E+03  0.00000000000E+00 0.  1.
         21   -1    0    0  501  502 -0.00000000000E+00 -0.00000000000E+00 -0.41855386633E+03  0.41855386633E+03  0.00000000000E+00 0.  1.
         25    1    1    2    0    0  0.27548194026E+02 -0.39048421044E+03  0.51611137224E+03  0.65972173691E+03  0.12500000000E+03 0.  0.
         25    1    1    2    0    0 -0.39350950005E+02  0.47414770490E+03  0.54738040605E+02  0.49496039884E+03  0.12500000000E+03 0.  0.
         25    1    1    2    0    0  0.11802755979E+02 -0.83663494458E+02 -0.81698437696E+02  0.17157657205E+03  0.12500000000E+03 0.  0.
</event>
<event>
 5    0  0.5474724E-005  0.3645768E+03  0.7546771E-02  0.1056786E+00
         21   -1    0    0  502  501  0.00000000000E+00  0.00000000000E+00  0.45251945903E+03  0.45251945903E+03  0.00000000000E+00 0. -1.
         21   -1    0    0  501  502 -0.00000000000E+00 -0.00000000000E+00 -0.29372490693E+03  0.29372490693E+03  0.00000000000E+00 0. -1.
         25    1    1    2    0    0 -0.58807059901E+02  0.91853613039E+02  0.12348618383E+03  0.20680714233E+03  0.12500000000E+03 0.  0.
         25    1    1    2    0    0 -0.70634288592E+02  0.39454551485E+02  0.20924381657E+03  0.25681479539E+03  0.12500000000E+03 0.  0.
         25    1    1    2    0    0  0.12944134849E+03 -0.13130816452E+03 -0.17393544830E+03  0.28262242824E+03  0.12500000000E+03 0.  0.
</event>
<event>
 5    0  0.5820935E-005  0.3005527E+03  0.7546771E-02  0.1084965E+00
         21   -1    0    0  502  501  0.00000000000E+00  0.00000000000E+00  0.22403603820E+03  0.22403603820E+03  0.00000000000E+00 0.  1.
         21   -1    0    0  501  502 -0.00000000000E+00 -0.00000000000E+00 -0.40320252498E+03  0.40320252498E+03  0.00000000000E+00 0.  1.
         25    1    1    2    0    0 -0.85581368224E+02 -0.45070673975E+02 -0.12773975786E+03  0.20321904925E+03  0.12500000000E+03 0.  0.
         25    1    1    2    0    0  0.22873658639E+02  0.13750716930E+03 -0.14059498609E+03  0.23414392151E+03  0.12500000000E+03 0.  0.
         25    1    1    2    0    0  0.62707709584E+02 -0.92436495325E+02  0.89168257168E+02  0.18987559242E+03  0.12500000000E+03 0.  0.
</event>
<event>
 5    0  0.5474724E-005  0.3208096E+03  0.7546771E-02  0.1075277E+00
         21   -1    0    0  502  501  0.00000000000E+00  0.00000000000E+00  0.47674107217E+03  0.47674107217E+03  0.00000000000E+00 0. -1.
         21   -1    0    0  501  502 -0.00000000000E+00 -0.00000000000E+00 -0.21587992718E+03  0.21587992718E+03  0.00000000000E+00 0. -1.
         25    1    1    2    0    0  0.31269560017E+02  0.20105378105E+02  0.14232406070E+03  0.19303665420E+03  0.12500000000E+03 0.  0.
         25    1    1    2    0    0 -0.19331280543E+03 -0.76911676550E+02 -0.23846918334E+02  0.24388300934E+03  0.12500000000E+03 0.  0.
         25    1    1    2    0    0  0.16204324541E+03  0.56806298445E+02  0.14238400263E+03  0.25570133580E+03  0.12500000000E+03 0.  0.
</event>
<event>
 5    0  0.5474724E-005  0.3304873E+03  0.7546771E-02  0.1070921E+00
         21   -1    0    0  502  501  0.00000000000E+00  0.00000000000E+00  0.48058130029E+03  0.48058130029E+03  0.00000000000E+00 0.  1.
         21   -1    0    0  501  502 -0.00000000000E+00 -0.00000000000E+00 -0.22727026201E+03  0.22727026201E+03  0.00000000000E+00 0.  1.
         25    1    1    2    0    0 -0.21400994918E+03  0.83466350989E+02  0.69378639601E+02  0.27056475330E+03  0.12500000000E+03 0.  0.
         25    1    1    2    0    0  0.19385774689E+03  0.22293331292E+02  0.10589214171E+03  0.25478611486E+03  0.12500000000E+03 0.  0.
         25    1    1    2    0    0  0.20152202289E+02 -0.10575968228E+03  0.78040256975E+02  0.18250069414E+03  0.12500000000E+03 0.  0.
</event>
<event>
 5    0  0.5474724E-005  0.2447162E+03  0.7546771E-02  0.1116690E+00
         21   -1    0    0  502  501  0.00000000000E+00  0.00000000000E+00  0.24302172605E+03  0.24302172605E+03  0.00000000000E+00 0.  1.
         21   -1    0    0  501  502 -0.00000000000E+00 -0.00000000000E+00 -0.24642253087E+03  0.24642253087E+03  0.00000000000E+00 0.  1.
         25    1    1    2    0    0 -0.10221310629E+03 -0.20960041808E+02  0.46029177495E+02  0.16920557801E+03  0.12500000000E+03 0.  0.
         25    1    1    2    0    0  0.64596115657E+01 -0.46574107391E+02 -0.64374410708E+02  0.14825632808E+03  0.12500000000E+03 0.  0.
         25    1    1    2    0    0  0.95753494721E+02  0.67534149200E+02  0.14944428388E+02  0.17198235084E+03  0.12500000000E+03 0.  0.
</event>
<event>
 5    0  0.5474724E-005  0.3210523E+03  0.7546771E-02  0.1075166E+00
         21   -1    0    0  502  501  0.00000000000E+00  0.00000000000E+00  0.16878453275E+04  0.16878453275E+04  0.00000000000E+00 0. -1.
         21   -1    0    0  501  502 -0.00000000000E+00 -0.00000000000E+00 -0.61068721802E+02  0.61068721802E+02  0.00000000000E+00 0. -1.
         25    1    1    2    0    0  0.14663871040E+03 -0.94534607957E+02  0.39051933339E+03  0.44561199854E+03  0.12500000000E+03 0.  0.
         25    1    1    2    0    0 -0.99924102585E+01 -0.84149703115E+02  0.55086184026E+03  0.57118717409E+03  0.12500000000E+03 0.  0.
         25    1    1    2    0    0 -0.13664630015E+03  0.17868431107E+03  0.68539543208E+03  0.73211487670E+03  0.12500000000E+03 0.  0.
</event>
<event>
 5    0  0.5474724E-005  0.4610994E+03  0.7546771E-02  0.1024463E+00
         21   -1    0    0  502  501  0.00000000000E+00  0.00000000000E+00  0.10054348341E+04  0.10054348341E+04  0.00000000000E+00 0. -1.
         21   -1    0    0  501  502 -0.00000000000E+00 -0.00000000000E+00 -0.21146334567E+03  0.21146334567E+03  0.00000000000E+00 0. -1.
         25    1    1    2    0    0  0.36072040908E+03 -0.16792367168E+02  0.13535969169E+03  0.40539911600E+03  0.12500000000E+03 0.  0.
         25    1    1    2    0    0 -0.20491106579E+03 -0.78781649720E+02  0.35494578478E+03  0.43566799670E+03  0.12500000000E+03 0.  0.
         25    1    1    2    0    0 -0.15580934329E+03  0.95574016888E+02  0.30366601201E+03  0.37583106712E+03  0.12500000000E+03 0.  0.
</event>
<event>
 5    0  0.5474724E-005  0.3137102E+03  0.7546771E-02  0.1078581E+00
         21   -1    0    0  502  501  0.00000000000E+00  0.00000000000E+00  0.38572180996E+03  0.38572180996E+03  0.00000000000E+00 0.  1.
         21   -1    0    0  501  502 -0.00000000000E+00 -0.00000000000E+00 -0.25514260214E+03  0.25514260214E+03  0.00000000000E+00 0.  1.
         25    1    1    2    0    0 -0.45727442611E+02  0.96616723641E+02 -0.11110459932E+03  0.19848179334E+03  0.12500000000E+03 0.  0.
         25    1    1    2    0    0  0.24692238085E+02 -0.17813011469E+03  0.12866262116E+03  0.25400613076E+03  0.12500000000E+03 0.  0.
         25    1    1    2    0    0  0.21035204526E+02  0.81513391047E+02  0.11302118599E+03  0.18837648800E+03  0.12500000000E+03 0.  0.
</event>
<event>
 5    0  0.5474724E-005  0.3837445E+03  0.7546771E-02  0.1049558E+00
         21   -1    0    0  502  501  0.00000000000E+00  0.00000000000E+00  0.21794190373E+04  0.21794190373E+04  0.00000000000E+00 0.  1.
         21   -1    0    0  501  502 -0.00000000000E+00 -0.00000000000E+00 -0.67568404839E+02  0.67568404839E+02  0.00000000000E+00 0.  1.
         25    1    1    2    0    0 -0.17457497798E+03  0.16656060043E+03  0.69716176066E+03  0.74825021021E+03  0.12500000000E+03 0.  0.
         25    1    1    2    0    0  0.10233735100E+03 -0.13967577881E+03  0.26799744744E+03  0.34268044653E+03  0.12500000000E+03 0.  0.
         25    1    1    2    0    0  0.72237626979E+02 -0.26884821615E+02  0.11466914244E+04  0.11560567854E+04  0.12500000000E+03 0.  0.
</event>
<event>
 5    0  0.6155468E-005  0.5022472E+03  0.7546771E-02  0.1013194E+00
         21   -1    0    0  502  501  0.00000000000E+00  0.00000000000E+00  0.30124532365E+03  0.30124532365E+03  0.00000000000E+00 0.  1.
         21   -1    0    0  501  502 -0.00000000000E+00 -0.00000000000E+00 -0.83736471243E+03  0.83736471243E+03  0.00000000000E+00 0.  1.
         25    1    1    2    0    0  0.50690259889E+02 -0.13994200608E+03  0.17381844820E+03  0.26075106988E+03  0.12500000000E+03 0.  0.
         25    1    1    2    0    0 -0.14086388742E+03  0.20750086563E+03 -0.20948488440E+03  0.34986877655E+03  0.12500000000E+03 0.  0.
         25    1    1    2    0    0  0.90173627530E+02 -0.67558859551E+02 -0.50045295258E+03  0.52799018964E+03  0.12500000000E+03 0.  0.
</event>
<event>
 5    0  0.6642001E-005  0.3360177E+03  0.7546771E-02  0.1068505E+00
         21   -1    0    0  502  501  0.00000000000E+00  0.00000000000E+00  0.51765479482E+03  0.51765479482E+03  0.00000000000E+00 0.  1.
         21   -1    0    0  501  502 -0.00000000000E+00 -0.00000000000E+00 -0.21811420379E+03  0.21811420379E+03  0.00000000000E+00 0.  1.
         25    1    1    2    0    0  0.10604039966E+03  0.24558726782E+02  0.29652008863E+03  0.33970113391E+03  0.12500000000E+03 0.  0.
         25    1    1    2    0    0 -0.15390666398E+03  0.56411587228E+02  0.80738972480E+02  0.22138949855E+03  0.12500000000E+03 0.  0.
         25    1    1    2    0    0  0.47866264319E+02 -0.80970314010E+02 -0.77718470080E+02  0.17467836615E+03  0.12500000000E+03 0.  0.
</event>
<event>
 5    0  0.5474724E-005  0.4023130E+03  0.7546771E-02  0.1042982E+00
         21   -1    0    0  502  501  0.00000000000E+00  0.00000000000E+00  0.33984030224E+03  0.33984030224E+03  0.00000000000E+00 0.  1.
         21   -1    0    0  501  502 -0.00000000000E+00 -0.00000000000E+00 -0.47627000108E+03  0.47627000108E+03  0.00000000000E+00 0.  1.
         25    1    1    2    0    0 -0.39901848271E+02 -0.31420414669E+02 -0.48572533242E+02  0.14340045655E+03  0.12500000000E+03 0.  0.
         25    1    1    2    0    0  0.23737532573E+03  0.23381823357E+03 -0.72366307933E+02  0.36315271462E+03  0.12500000000E+03 0.  0.
         25    1    1    2    0    0 -0.19747347746E+03 -0.20239781890E+03 -0.15490857657E+02  0.30955713215E+03  0.12500000000E+03 0.  0.
</event>
<event>
 5    0  0.5474724E-005  0.3315715E+03  0.7546771E-02  0.1070444E+00
         21   -1    0    0  502  501  0.00000000000E+00  0.00000000000E+00  0.81255464331E+02  0.81255464331E+02  0.00000000000E+00 0.  1.
         21   -1    0    0  501  502 -0.00000000000E+00 -0.00000000000E+00 -0.13530121969E+04  0.13530121969E+04  0.00000000000E+00 0.  1.
         25    1    1    2    0    0 -0.66389275591E+02 -0.23788242736E+03 -0.53006713458E+03  0.59798975938E+03  0.12500000000E+03 0.  0.
         25    1    1    2    0    0 -0.41734531812E+02  0.14723974995E+03 -0.39424553132E+03  0.44099416558E+03  0.12500000000E+03 0.  0.
         25    1    1    2    0    0  0.10812380740E+03  0.90642677410E+02 -0.34744406663E+03  0.39528373623E+03  0.12500000000E+03 0.  0.
</event>
<event>
 5    0  0.5474724E-005  0.3672717E+03  0.7546771E-02  0.1055741E+00
         21   -1    0    0  502  501  0.00000000000E+00  0.00000000000E+00  0.11008107209E+04  0.11008107209E+04  0.00000000000E+00 0.  1.
         21   -1    0    0  501  502 -0.00000000000E+00 -0.00000000000E+00 -0.12253560936E+03  0.12253560936E+03  0.00000000000E+00 0.  1.
         25    1    1    2    0    0 -0.20066290527E+03  0.39573188907E+02  0.57800534136E+03  0.62573701623E+03  0.12500000000E+03 0.  0.
         25    1    1    2    0    0 -0.31237222175E+02  0.21983964437E+02  0.26423128155E+03  0.29479183993E+03  0.12500000000E+03 0.  0.
         25    1    1    2    0    0  0.23190012745E+03 -0.61557153344E+02  0.13603848863E+03  0.30281747411E+03  0.12500000000E+03 0.  0.
</event>
<event>
 5    0  0.5474724E-005  0.2768339E+03  0.7546771E-02  0.1097431E+00
         21   -1    0    0  502  501  0.00000000000E+00  0.00000000000E+00  0.10558724268E+04  0.10558724268E+04  0.00000000000E+00 0.  1.
         21   -1    0    0  501  502 -0.00000000000E+00 -0.00000000000E+00 -0.72581694017E+02  0.72581694017E+02  0.00000000000E+00 0.  1.
         25    1    1    2    0    0 -0.30130340177E+02  0.13476450389E+03  0.50215094339E+03  0.53558368053E+03  0.12500000000E+03 0.  0.
         25    1    1    2    0    0 -0.36041784763E+02 -0.10113362744E+03  0.12081645863E+03  0.20432483335E+03  0.12500000000E+03 0.  0.
         25    1    1    2    0    0  0.66172124941E+02 -0.33630876450E+02  0.36032333075E+03  0.38854560692E+03  0.12500000000E+03 0.  0.
</event>
<event>
 5    0  0.5474724E-005  0.3492095E+03  0.7546771E-02  0.1062940E+00
         21   -1    0    0  502  501  0.00000000000E+00  0.00000000000E+00  0.19775010903E+03  0.19775010903E+03  0.00000000000E+00 0. -1.
         21   -1    0    0  501  502 -0.00000000000E+00 -0.00000000000E+00 -0.61667365167E+03  0.61667365167E+03  0.00000000000E+00 0. -1.
         25    1    1    2    0    0 -0.45872307827E+02  0.10350616901E+03 -0.16817795191E+02  0.16948638259E+03  0.12500000000E+03 0.  0.
         25    1    1    2    0    0  0.16015631930E+03  0.11920000402E+02 -0.38965318820E+03  0.43959838500E+03  0.12500000000E+03 0.  0.
         25    1    1    2    0    0 -0.11428401147E+03 -0.11542616941E+03 -0.12452559256E+02  0.20533899312E+03  0.12500000000E+03 0.  0.
</event>
<event>
 5    0  0.5474724E-005  0.2346491E+03  0.7546771E-02  0.1123410E+00
         21   -1    0    0  502  501  0.00000000000E+00  0.00000000000E+00  0.32572266193E+03  0.32572266193E+03  0.00000000000E+00 0. -1.
         21   -1    0    0  501  502 -0.00000000000E+00 -0.00000000000E+00 -0.16904019310E+03  0.16904019310E+03  0.00000000000E+00 0. -1.
         25    1    1    2    0    0  0.25653944368E+02 -0.15147794613E+02 -0.36767546255E+01  0.12855387613E+03  0.12500000000E+03 0.  0.
         25    1    1    2    0    0 -0.88863702451E+02 -0.63248238800E+02  0.10536942120E+03  0.19653196241E+03  0.12500000000E+03 0.  0.
         25    1    1    2    0    0  0.63209758083E+02  0.78396033412E+02  0.54989802251E+02  0.16967701648E+03  0.12500000000E+03 0.  0.
</event>
<event>
 5    0  0.5474724E-005  0.2469527E+03  0.7546771E-02  0.1115246E+00
         21   -1    0    0  502  501  0.00000000000E+00  0.00000000000E+00  0.25760009871E+03  0.25760009871E+03  0.00000000000E+00 0.  1.
         21   -1    0    0  501  502 -0.00000000000E+00 -0.00000000000E+00 -0.23674541569E+03  0.23674541569E+03  0.00000000000E+00 0.  1.
         25    1    1    2    0    0  0.94666320465E+02  0.55936314417E+02  0.62996317717E+02  0.17800033581E+03  0.12500000000E+03 0.  0.
         25    1    1    2    0    0 -0.11371902330E+03 -0.52645072186E+02  0.14832879795E+02  0.17761907051E+03  0.12500000000E+03 0.  0.
         25    1    1    2    0    0  0.19052702835E+02 -0.32912422312E+01 -0.56974514496E+02  0.13872610808E+03  0.12500000000E+03 0.  0.
</event>
<event>
 5    0  0.5474724E-005  0.2278361E+03  0.7546771E-02  0.1128172E+00
         21   -1    0    0  502  501  0.00000000000E+00  0.00000000000E+00  0.44773743657E+03  0.44773743657E+03  0.00000000000E+00 0. -1.
         21   -1    0    0  501  502 -0.00000000000E+00 -0.00000000000E+00 -0.11593694062E+03  0.11593694062E+03  0.00000000000E+00 0. -1.
         25    1    1    2    0    0 -0.71960941403E+02  0.87091381205E+01  0.12932884639E+03  0.19392054219E+03  0.12500000000E+03 0.  0.
         25    1    1    2    0    0  0.28101143568E+02 -0.87263353911E+02  0.92578541518E+02  0.18055567993E+03  0.12500000000E+03 0.  0.
         25    1    1    2    0    0  0.43859797835E+02  0.78554215790E+02  0.10989310804E+03  0.18919815506E+03  0.12500000000E+03 0.  0.
</event>
<event>
 5    0  0.5474724E-005  0.4000520E+03  0.7546771E-02  0.1043762E+00
         21   -1    0    0  502  501  0.00000000000E+00  0.00000000000E+00  0.60407437569E+03  0.60407437569E+03  0.00000000000E+00 0. -1.
         21   -1    0    0  501  502 -0.00000000000E+00 -0.00000000000E+00 -0.26493691843E+03  0.26493691843E+03  0.00000000000E+00 0. -1.
         25    1    1    2    0    0  0.57797103887E+02  0.28618561768E+02  0.75529285914E+02  0.15965337556E+03  0.12500000000E+03 0.  0.
         25    1    1    2    0    0  0.27920222706E+02 -0.17734144367E+03  0.40075486125E+03  0.45657308867E+03  0.12500000000E+03 0.  0.
         25    1    1    2    0    0 -0.85717326593E+02  0.14872288190E+03 -0.13714668990E+03  0.25278482991E+03  0.12500000000E+03 0.  0.
</event>
<event>
 5    0  0.5474724E-005  0.2980061E+03  0.7546771E-02  0.1086242E+00
         21   -1    0    0  502  501  0.00000000000E+00  0.00000000000E+00  0.11152499335E+04  0.11152499335E+04  0.00000000000E+00 0.  1.
         21   -1    0    0  501  502 -0.00000000000E+00 -0.00000000000E+00 -0.79630238920E+02  0.79630238920E+02  0.00000000000E+00 0.  1.
         25    1    1    2    0    0 -0.27631932499E+02  0.70582337633E+02  0.70420523404E+02  0.16226349003E+03  0.12500000000E+03 0.  0.
         25    1    1    2    0    0  0.13136245750E+03 -0.70855161261E+02  0.64239998598E+03  0.67125203248E+03  0.12500000000E+03 0.  0.
         25    1    1    2    0    0 -0.10373052500E+03  0.27282362852E+00  0.32279918524E+03  0.36136464996E+03  0.12500000000E+03 0.  0.
</event>
<event>
 5    0  0.5474724E-005  0.4444434E+03  0.7546771E-02  0.1029392E+00
         21   -1    0    0  502  501  0.00000000000E+00  0.00000000000E+00  0.18889849977E+03  0.18889849977E+03  0.00000000000E+00 0. -1.
         21   -1    0    0  501  502 -0.00000000000E+00 -0.00000000000E+00 -0.10456935737E+04  0.10456935737E+04  0.00000000000E+00 0. -1.
         25    1    1    2    0    0 -0.20814750428E+03  0.15648620762E+03 -0.43580440780E+03  0.52284203979E+03  0.12500000000E+03 0.  0.
         25    1    1    2    0    0 -0.13498556299E+03 -0.27162994183E+02 -0.12259054646E+03  0.22273834997E+03  0.12500000000E+03 0.  0.
         25    1    1    2    0    0  0.34313306726E+03 -0.12932321343E+03 -0.29840011965E+03  0.48901168369E+03  0.12500000000E+03 0.  0.
</event>
<event>
 5    0  0.5474724E-005  0.2989690E+03  0.7546771E-02  0.1085757E+00
         21   -1    0    0  502  501  0.00000000000E+00  0.00000000000E+00  0.96668286784E+03  0.96668286784E+03  0.00000000000E+00 0.  1.
         21   -1    0    0  501  502 -0.00000000000E+00 -0.00000000000E+00 -0.92463048826E+02  0.92463048826E+02  0.00000000000E+00 0.  1.
         25    1    1    2    0    0  0.44570017513E+02 -0.12526731681E+03  0.24211993891E+03  0.30319210402E+03  0.12500000000E+03 0.  0.
         25    1    1    2    0    0  0.26419284652E+02  0.19162383276E+03  0.49719482833E+03  0.54794650214E+03  0.12500000000E+03 0.  0.
         25    1    1    2    0    0 -0.70989302165E+02 -0.66356515950E+02  0.13490505177E+03  0.20800731050E+03  0.12500000000E+03 0.  0.
</event>
<event>
 5    0  0.5474724E-005  0.4554959E+03  0.7546771E-02  0.1026096E+00
         21   -1    0    0  502  501  0.00000000000E+00  0.00000000000E+00  0.12641033596E+03  0.12641033596E+03  0.00000000000E+00 0. -1.
         21   -1    0    0  501  502 -0.00000000000E+00 -0.00000000000E+00 -0.16412939856E+04  0.16412939856E+04  0.00000000000E+00 0. -1.
         25    1    1    2    0    0  0.99901252375E+02  0.12142196997E+03 -0.18078461721E+03  0.27024365457E+03  0.12500000000E+03 0.  0.
         25    1    1    2    0    0  0.19386896573E+02 -0.35923847096E+03 -0.65902607322E+03  0.76116259496E+03  0.12500000000E+03 0.  0.
         25    1    1    2    0    0 -0.11928814895E+03  0.23781650099E+03 -0.67507295920E+03  0.73629807202E+03  0.12500000000E+03 0.  0.
</event>
<event>
 5    0  0.5474724E-005  0.4118629E+03  0.7546771E-02  0.1039748E+00
         21   -1    0    0  502  501  0.00000000000E+00  0.00000000000E+00  0.78120909851E+03  0.78120909851E+03  0.00000000000E+00 0. -1.
         21   -1    0    0  501  502 -0.00000000000E+00 -0.00000000000E+00 -0.21713908956E+03  0.21713908956E+03  0.00000000000E+00 0. -1.
         25    1    1    2    0    0 -0.14135439881E+02 -0.36281035461E+02  0.64859980503E+02  0.14610934695E+03  0.12500000000E+03 0.  0.
         25    1    1    2    0    0  0.17901871495E+03  0.12923248980E+03 -0.49490685136E+02  0.25850157570E+03  0.12500000000E+03 0.  0.
         25    1    1    2    0    0 -0.16488327507E+03 -0.92951454340E+02  0.54870071358E+03  0.59373726542E+03  0.12500000000E+03 0.  0.
</event>
<event>
 5    0  0.5474724E-005  0.4000568E+03  0.7546771E-02  0.1043760E+00
         21   -1    0    0  502  501  0.00000000000E+00  0.00000000000E+00  0.36205160951E+03  0.36205160951E+03  0.00000000000E+00 0. -1.
         21   -1    0    0  501  502 -0.00000000000E+00 -0.00000000000E+00 -0.44205146332E+03  0.44205146332E+03  0.00000000000E+00 0. -1.
         25    1    1    2    0    0  0.20223151791E+03 -0.23233595348E+03 -0.77902209548E+02  0.34142544774E+03  0.12500000000E+03 0.  0.
         25    1    1    2    0    0 -0.22630988268E+03  0.19628380938E+03  0.31627358237E+02  0.32614227971E+03  0.12500000000E+03 0.  0.
         25    1    1    2    0    0  0.24078364762E+02  0.36052144091E+02 -0.33725002504E+02  0.13653534538E+03  0.12500000000E+03 0.  0.
</event>
<event>
 5    0  0.5474724E-005  0.3726823E+03  0.7546771E-02  0.1053672E+00
         21   -1    0    0  502  501  0.00000000000E+00  0.00000000000E+00  0.13841022748E+04  0.13841022748E+04  0.00000000000E+00 0. -1.
         21   -1    0    0  501  502 -0.00000000000E+00 -0.00000000000E+00 -0.10034816227E+03  0.10034816227E+03  0.00000000000E+00 0. -1.
         25    1    1    2    0    0  0.72825155492E+02 -0.80673579111E+02  0.10202563794E+04  0.10336149231E+04  0.12500000000E+03 0.  0.
         25    1    1    2    0    0  0.78244567689E+02  0.77368113086E+02  0.91643725241E+02  0.19008316514E+03  0.12500000000E+03 0.  0.
         25    1    1    2    0    0 -0.15106972318E+03  0.33054660247E+01  0.17185400791E+03  0.26075234880E+03  0.12500000000E+03 0.  0.
</event>
<event>
 5    0  0.5474724E-005  0.3959912E+03  0.7546771E-02  0.1045177E+00
         21   -1    0    0  502  501  0.00000000000E+00  0.00000000000E+00  0.14853677536E+03  0.14853677536E+03  0.00000000000E+00 0.  1.
         21   -1    0    0  501  502 -0.00000000000E+00 -0.00000000000E+00 -0.10556918583E+04  0.10556918583E+04  0.00000000000E+00 0.  1.
         25    1    1    2    0    0  0.25389201987E+02 -0.48921404780E+02 -0.31772551887E+03  0.34585028663E+03  0.12500000000E+03 0.  0.
         25    1    1    2    0    0 -0.11042481716E+03  0.26281561410E+03 -0.48522106320E+03  0.57648084741E+03  0.12500000000E+03 0.  0.
         25    1    1    2    0    0  0.85035615176E+02 -0.21389420932E+03 -0.10420850083E+03  0.28189749959E+03  0.12500000000E+03 0.  0.
</event>
<event>
 5    0  0.5474724E-005  0.2946851E+03  0.7546771E-02  0.1087928E+00
         21   -1    0    0  502  501  0.00000000000E+00  0.00000000000E+00  0.10307807732E+03  0.10307807732E+03  0.00000000000E+00 0. -1.
         21   -1    0    0  501  502 -0.00000000000E+00 -0.00000000000E+00 -0.84246129729E+03  0.84246129729E+03  0.00000000000E+00 0. -1.
         25    1    1    2    0    0  0.34727408515E+02  0.19746269725E+02 -0.61629884110E+02  0.14497982855E+03  0.12500000000E+03 0.  0.
         25    1    1    2    0    0  0.83460357958E+02 -0.14842439547E+03 -0.33235247417E+03  0.39380020266E+03  0.12500000000E+03 0.  0.
         25    1    1    2    0    0 -0.11818776647E+03  0.12867812575E+03 -0.34540086169E+03  0.40675934340E+03  0.12500000000E+03 0.  0.
</event>
<event>
 5    0  0.6178456E-005  0.3473591E+03  0.7546771E-02  0.1063704E+00
         21   -1    0    0  502  501  0.00000000000E+00  0.00000000000E+00  0.16203979752E+03  0.16203979752E+03  0.00000000000E+00 0. -1.
         21   -1    0    0  501  502 -0.00000000000E+00 -0.00000000000E+00 -0.74462179953E+03  0.74462179953E+03  0.00000000000E+00 0. -1.
         25    1    1    2    0    0 -0.14604288881E+03 -0.41941343536E+02 -0.27600226254E+03  0.33895405381E+03  0.12500000000E+03 0.  0.
         25    1    1    2    0    0 -0.38059609165E+02  0.14045962397E+03 -0.21746412216E+02  0.19306824250E+03  0.12500000000E+03 0.  0.
         25    1    1    2    0    0  0.18410249797E+03 -0.98518280439E+02 -0.28483332726E+03  0.37463930074E+03  0.12500000000E+03 0.  0.
</event>
<event>
 5    0  0.5474724E-005  0.3013471E+03  0.7546771E-02  0.1084569E+00
         21   -1    0    0  502  501  0.00000000000E+00  0.00000000000E+00  0.76237381967E+03  0.76237381967E+03  0.00000000000E+00 0.  1.
         21   -1    0    0  501  502 -0.00000000000E+00 -0.00000000000E+00 -0.11911486612E+03  0.11911486612E+03  0.00000000000E+00 0.  1.
         25    1    1    2    0    0  0.71792383604E+02 -0.15126380443E+03  0.22601114947E+03  0.30780013736E+03  0.12500000000E+03 0.  0.
         25    1    1    2    0    0 -0.14026925602E+03  0.53997344451E+01  0.17259471625E+03  0.25518337993E+03  0.12500000000E+03 0.  0.
         25    1    1    2    0    0  0.68476872421E+02  0.14586406998E+03  0.24465308784E+03  0.31850516849E+03  0.12500000000E+03 0.  0.
</event>
<event>
 5    0  0.5474724E-005  0.2724704E+03  0.7546771E-02  0.1099874E+00
         21   -1    0    0  502  501  0.00000000000E+00  0.00000000000E+00  0.17439882646E+03  0.17439882646E+03  0.00000000000E+00 0. -1.
         21   -1    0    0  501  502 -0.00000000000E+00 -0.00000000000E+00 -0.42569161437E+03  0.42569161437E+03  0.00000000000E+00 0. -1.
         25    1    1    2    0    0 -0.91170467156E+02  0.12371324618E+01  0.12521900346E+02  0.15522687450E+03  0.12500000000E+03 0.  0.
         25    1    1    2    0    0  0.11744185217E+03  0.87368859566E+02 -0.19771734676E+03  0.27594031143E+03  0.12500000000E+03 0.  0.
         25    1    1    2    0    0 -0.26271385013E+02 -0.88605992028E+02 -0.66097341500E+02  0.16892325490E+03  0.12500000000E+03 0.  0.
</event>
<event>
 5    0  0.5474724E-005  0.2334466E+03  0.7546771E-02  0.1124237E+00
         21   -1    0    0  502  501  0.00000000000E+00  0.00000000000E+00  0.17921173172E+03  0.17921173172E+03  0.00000000000E+00 0. -1.
         21   -1    0    0  501  502 -0.00000000000E+00 -0.00000000000E+00 -0.30409449123E+03  0.30409449123E+03  0.00000000000E+00 0. -1.
         25    1    1    2    0    0 -0.79153069439E+02 -0.29356953899E+02 -0.36913295429E-01  0.15083779535E+03  0.12500000000E+03 0.  0.
         25    1    1    2    0    0  0.29107212754E+02  0.84122999878E+02 -0.23445792172E+02  0.15523728326E+03  0.12500000000E+03 0.  0.
         25    1    1    2    0    0  0.50045856684E+02 -0.54766045978E+02 -0.10140005405E+03  0.17723114434E+03  0.12500000000E+03 0.  0.
</event>
<event>
 5    0  0.5474724E-005  0.3006738E+03  0.7546771E-02  0.1084904E+00
         21   -1    0    0  502  501  0.00000000000E+00  0.00000000000E+00  0.11146268981E+04  0.11146268981E+04  0.00000000000E+00 0. -1.
         21   -1    0    0  501  502 -0.00000000000E+00 -0.00000000000E+00 -0.81107610700E+02  0.81107610700E+02  0.00000000000E+00 0. -1.
         25    1    1    2    0    0  0.65426311057E+02 -0.16143648539E+02  0.77377032675E+02  0.16172020515E+03  0.12500000000E+03 0.  0.
         25    1    1    2    0    0 -0.12484295736E+03  0.23893849871E+01  0.20735719790E+03  0.27242151288E+03  0.12500000000E+03 0.  0.
         25    1    1    2    0    0  0.59416646299E+02  0.13754263552E+02  0.74878505683E+03  0.76159279077E+03  0.12500000000E+03 0.  0.
</event>
<event>
 5    0  0.5474724E-005  0.3343518E+03  0.7546771E-02  0.1069227E+00
         21   -1    0    0  502  501  0.00000000000E+00  0.00000000000E+00  0.12108379660E+04  0.12108379660E+04  0.00000000000E+00 0.  1.
         21   -1    0    0  501  502 -0.00000000000E+00 -0.00000000000E+00 -0.92325400319E+02  0.92325400319E+02  0.00000000000E+00 0.  1.
         25    1    1    2    0    0  0.52738072461E+02  0.10958826767E+03  0.34556698253E+03  0.38708194496E+03  0.12500000000E+03 0.  0.
         25    1    1    2    0    0  0.48239903264E+02  0.13989448670E+03  0.27402777348E+03  0.33557976148E+03  0.12500000000E+03 0.  0.
         25    1    1    2    0    0 -0.10097797572E+03 -0.24948275437E+03  0.49891780964E+03  0.58050165985E+03  0.12500000000E+03 0.  0.
</event>
<event>
 5    0  0.5474724E-005  0.4350217E+03  0.7546771E-02  0.1032285E+00
         21   -1    0    0  502  501  0.00000000000E+00  0.00000000000E+00  0.46516275733E+03  0.46516275733E+03  0.00000000000E+00 0. -1.
         21   -1    0    0  501  502 -0.00000000000E+00 -0.00000000000E+00 -0.40683359642E+03  0.40683359642E+03  0.00000000000E+00 0. -1.
         25    1    1    2    0    0 -0.24289346717E+03  0.14750923487E+03  0.53713134148E+01  0.31049969690E+03  0.12500000000E+03 0.  0.
         25    1    1    2    0    0  0.77977729802E+02 -0.24480546623E+03 -0.80358726597E+02  0.29680425802E+03  0.12500000000E+03 0.  0.
         25    1    1    2    0    0  0.16491573737E+03  0.97296231363E+02  0.13331657409E+03  0.26469239883E+03  0.12500000000E+03 0.  0.
</event>
<event>
 5    0  0.5474724E-005  0.2680637E+03  0.7546771E-02  0.1102393E+00
         21   -1    0    0  502  501  0.00000000000E+00  0.00000000000E+00  0.23007704826E+03  0.23007704826E+03  0.00000000000E+00 0. -1.
         21   -1    0    0  501  502 -0.00000000000E+00 -0.00000000000E+00 -0.31232220705E+03  0.31232220705E+03  0.00000000000E+00 0. -1.
         25    1    1    2    0    0  0.62483242911E+01 -0.17385880481E+02 -0.17021748890E+03  0.21199128266E+03  0.12500000000E+03 0.  0.
         25    1    1    2    0    0  0.62171353397E+02 -0.64459500062E+02  0.50584179486E+02  0.16187669241E+03  0.12500000000E+03 0.  0.
         25    1    1    2    0    0 -0.68419677688E+02  0.81845380544E+02  0.37388150620E+02  0.16853128024E+03  0.12500000000E+03 0.  0.
</event>
<event>
 5    0  0.5474724E-005  0.3556613E+03  0.7546771E-02  0.1060315E+00
         21   -1    0    0  502  501  0.00000000000E+00  0.00000000000E+00  0.14105421301E+03  0.14105421301E+03  0.00000000000E+00 0.  1.
         21   -1    0    0  501  502 -0.00000000000E+00 -0.00000000000E+00 -0.89678266018E+03  0.89678266018E+03  0.00000000000E+00 0.  1.
         25    1    1    2    0    0 -0.12731964157E+03 -0.13607003960E+03 -0.23326200355E+03  0.32366882628E+03  0.12500000000E+03 0.  0.
         25    1    1    2    0    0 -0.12368556234E+03  0.30974978604E+01 -0.20728264539E+03  0.27184335177E+03  0.12500000000E+03 0.  0.
         25    1    1    2    0    0  0.25100520391E+03  0.13297254174E+03 -0.31518379824E+03  0.44232469513E+03  0.12500000000E+03 0.  0.
</event>
<event>
 5    0  0.5474724E-005  0.5350881E+03  0.7546771E-02  0.1005006E+00
         21   -1    0    0  502  501  0.00000000000E+00  0.00000000000E+00  0.21366765552E+03  0.21366765552E+03  0.00000000000E+00 0.  1.
         21   -1    0    0  501  502 -0.00000000000E+00 -0.00000000000E+00 -0.13400214793E+04  0.13400214793E+04  0.00000000000E+00 0.  1.
         25    1    1    2    0    0 -0.30267107525E+03  0.21893922163E+03 -0.38211391991E+03  0.54879887970E+03  0.12500000000E+03 0.  0.
         25    1    1    2    0    0 -0.54206630357E+02 -0.29026585008E+02  0.10419441878E+02  0.13969418807E+03  0.12500000000E+03 0.  0.
         25    1    1    2    0    0  0.35687770561E+03 -0.18991263662E+03 -0.75465934570E+03  0.86519606701E+03  0.12500000000E+03 0.  0.
</event>
<event>
 5    0  0.5474724E-005  0.2543757E+03  0.7546771E-02  0.1110570E+00
         21   -1    0    0  502  501  0.00000000000E+00  0.00000000000E+00  0.20376925866E+03  0.20376925866E+03  0.00000000000E+00 0. -1.
         21   -1    0    0  501  502 -0.00000000000E+00 -0.00000000000E+00 -0.31755034550E+03  0.31755034550E+03  0.00000000000E+00 0. -1.
         25    1    1    2    0    0 -0.17987190941E+02 -0.58837552989E+02  0.87484689093E+00  0.13932394639E+03  0.12500000000E+03 0.  0.
         25    1    1    2    0    0  0.40641364746E+02 -0.82775941963E+02 -0.11240644400E+03  0.19173884778E+03  0.12500000000E+03 0.  0.
         25    1    1    2    0    0 -0.22654173805E+02  0.14161349495E+03 -0.22494897249E+01  0.19025680999E+03  0.12500000000E+03 0.  0.
</event>
<event>
 5    0  0.5474724E-005  0.3081457E+03  0.7546771E-02  0.1081238E+00
         21   -1    0    0  502  501  0.00000000000E+00  0.00000000000E+00  0.35367047083E+03  0.35367047083E+03  0.00000000000E+00 0.  1.
         21   -1    0    0  501  502 -0.00000000000E+00 -0.00000000000E+00 -0.26848095563E+03  0.26848095563E+03  0.00000000000E+00 0.  1.
         25    1    1    2    0    0  0.97716529489E+02 -0.64813603832E+02  0.22600618157E+03  0.28364258757E+03  0.12500000000E+03 0.  0.
         25    1    1    2    0    0 -0.88255549824E+01  0.28101915241E+02 -0.20558578081E+01  0.12844000394E+03  0.12500000000E+03 0.  0.
         25    1    1    2    0    0 -0.88890974506E+02  0.36711688591E+02 -0.13876080856E+03  0.21006883496E+03  0.12500000000E+03 0.  0.
</event>
<event>
 5    0  0.5474724E-005  0.3666541E+03  0.7546771E-02  0.1055980E+00
         21   -1    0    0  502  501  0.00000000000E+00  0.00000000000E+00  0.38859339636E+03  0.38859339636E+03  0.00000000000E+00 0. -1.
         21   -1    0    0  501  502 -0.00000000000E+00 -0.00000000000E+00 -0.34595354950E+03  0.34595354950E+03  0.00000000000E+00 0. -1.
         25    1    1    2    0    0  0.38760983357E+02 -0.18748165783E+03  0.17107147327E+03  0.28555600995E+03  0.12500000000E+03 0.  0.
         25    1    1    2    0    0  0.36425093684E+02  0.23615641988E+03 -0.11948429240E+03  0.29495446806E+03  0.12500000000E+03 0.  0.
         25    1    1    2    0    0 -0.75186077042E+02 -0.48674762049E+02 -0.89473340176E+01  0.15403646785E+03  0.12500000000E+03 0.  0.
</event>
<event>
 5    0  0.5474724E-005  0.2349224E+03  0.7546771E-02  0.1123222E+00
         21   -1    0    0  502  501  0.00000000000E+00  0.00000000000E+00  0.10810998989E+03  0.10810998989E+03  0.00000000000E+00 0. -1.
         21   -1    0    0  501  502 -0.00000000000E+00 -0.00000000000E+00 -0.51048497186E+03  0.51048497186E+03  0.00000000000E+00 0. -1.
         25    1    1    2    0    0  0.98561506582E+01 -0.48899270119E+00 -0.20037037629E+03  0.23636977496E+03  0.12500000000E+03 0.  0.
         25    1    1    2    0    0  0.74340807278E+02 -0.48407773488E+02 -0.46400858531E+02  0.16014964200E+03  0.12500000000E+03 0.  0.
         25    1    1    2    0    0 -0.84196957936E+02  0.48896766189E+02 -0.15560374715E+03  0.22207554480E+03  0.12500000000E+03 0.  0.
</event>
<event>
 5    0  0.5676391E-005  0.2914558E+03  0.7546771E-02  0.1089591E+00
         21   -1    0    0  502  501  0.00000000000E+00  0.00000000000E+00  0.86346333534E+02  0.86346333534E+02  0.00000000000E+00 0. -1.
         21   -1    0    0  501  502 -0.00000000000E+00 -0.00000000000E+00 -0.98378828239E+03  0.98378828239E+03  0.00000000000E+00 0. -1.
         25    1    1    2    0    0 -0.23987344039E+02  0.52016486967E+02 -0.53775357721E+02  0.14764110772E+03  0.12500000000E+03 0.  0.
         25    1    1    2    0    0 -0.11312438610E+03 -0.36507570057E+02 -0.53395122107E+03  0.56112283493E+03  0.12500000000E+03 0.  0.
         25    1    1    2    0    0  0.13711173014E+03 -0.15508916911E+02 -0.30971537007E+03  0.36137067327E+03  0.12500000000E+03 0.  0.
</event>
<event>
 5    0  0.6587106E-005  0.2764959E+03  0.7546771E-02  0.1097618E+00
         21   -1    0    0  502  501  0.00000000000E+00  0.00000000000E+00  0.58047036964E+03  0.58047036964E+03  0.00000000000E+00 0. -1.
         21   -1    0    0  501  502 -0.00000000000E+00 -0.00000000000E+00 -0.13170354320E+03  0.13170354320E+03  0.00000000000E+00 0. -1.
         25    1    1    2    0    0  0.69938481788E+02 -0.64597764738E+02  0.36703468042E+03  0.39925395311E+03  0.12500000000E+03 0.  0.
         25    1    1    2    0    0 -0.91840135231E+02 -0.82053597393E+01  0.50375063768E+02  0.16329294356E+03  0.12500000000E+03 0.  0.
         25    1    1    2    0    0  0.21901653443E+02  0.72803124478E+02  0.31357082253E+02  0.14962701616E+03  0.12500000000E+03 0.  0.
</event>
<event>
 5    0  0.5474724E-005  0.2559767E+03  0.7546771E-02  0.1109585E+00
         21   -1    0    0  502  501  0.00000000000E+00  0.00000000000E+00  0.98540739842E+03  0.98540739842E+03  0.00000000000E+00 0. -1.
         21   -1    0    0  501  502 -0.00000000000E+00 -0.00000000000E+00 -0.66494409701E+02  0.66494409701E+02  0.00000000000E+00 0. -1.
         25    1    1    2    0    0  0.82457621544E+02  0.13035336615E+03  0.39859800662E+03  0.44530509800E+03  0.12500000000E+03 0.  0.
         25    1    1    2    0    0 -0.10573267433E+02 -0.14540407315E+02  0.22959517352E+03  0.26203465635E+03  0.12500000000E+03 0.  0.
         25    1    1    2    0    0 -0.71884354111E+02 -0.11581295883E+03  0.29071980858E+03  0.34456205377E+03  0.12500000000E+03 0.  0.
</event>
<event>
 5    0  0.5474724E-005  0.4176410E+03  0.7546771E-02  0.1037837E+00
         21   -1    0    0  502  501  0.00000000000E+00  0.00000000000E+00  0.20459202022E+03  0.20459202022E+03  0.00000000000E+00 0.  1.
         21   -1    0    0  501  502 -0.00000000000E+00 -0.00000000000E+00 -0.85254529909E+03  0.85254529909E+03  0.00000000000E+00 0.  1.
         25    1    1    2    0    0  0.13996590594E+03 -0.56811258795E+02 -0.15789566747E+03  0.25174196265E+03  0.12500000000E+03 0.  0.
         25    1    1    2    0    0 -0.61870889006E+02  0.67730023252E+02  0.10825324408E+03  0.18910084032E+03  0.12500000000E+03 0.  0.
         25    1    1    2    0    0 -0.78095016935E+02 -0.10918764457E+02 -0.59831085548E+03  0.61629451635E+03  0.12500000000E+03 0.  0.
</event>
<event>
 5    0  0.5474724E-005  0.2487666E+03  0.7546771E-02  0.1114087E+00
         21   -1    0    0  502  501  0.00000000000E+00  0.00000000000E+00  0.21472003962E+03  0.21472003962E+03  0.00000000000E+00 0.  1.
         21   -1    0    0  501  502 -0.00000000000E+00 -0.00000000000E+00 -0.28821173567E+03  0.28821173567E+03  0.00000000000E+00 0.  1.
         25    1    1    2    0    0  0.75856872190E+02  0.86142448926E+02 -0.53008475978E+02  0.17779112771E+03  0.12500000000E+03 0.  0.
         25    1    1    2    0    0 -0.71119450161E+02 -0.46327440128E+02  0.69170366296E+02  0.16617384714E+03  0.12500000000E+03 0.  0.
         25    1    1    2    0    0 -0.47374220289E+01 -0.39815008798E+02 -0.89653586369E+02  0.15896680044E+03  0.12500000000E+03 0.  0.
</event>
<event>
 5    0  0.5474724E-005  0.2507392E+03  0.7546771E-02  0.1112839E+00
         21   -1    0    0  502  501  0.00000000000E+00  0.00000000000E+00  0.17523325428E+03  0.17523325428E+03  0.00000000000E+00 0.  1.
         21   -1    0    0  501  502 -0.00000000000E+00 -0.00000000000E+00 -0.35877974112E+03  0.35877974112E+03  0.00000000000E+00 0.  1.
         25    1    1    2    0    0 -0.61347399609E+02 -0.55498747393E+02 -0.17239315141E+03  0.22844695895E+03  0.12500000000E+03 0.  0.
         25    1    1    2    0    0  0.41851324554E+02  0.25545200049E+02 -0.82175470399E+02  0.15742267482E+03  0.12500000000E+03 0.  0.
         25    1    1    2    0    0  0.19496075055E+02  0.29953547344E+02  0.71022134968E+02  0.14814336163E+03  0.12500000000E+03 0.  0.
</event>
<event>
 5    0  0.5474724E-005  0.3096789E+03  0.7546771E-02  0.1080500E+00
         21   -1    0    0  502  501  0.00000000000E+00  0.00000000000E+00  0.95160622048E+03  0.95160622048E+03  0.00000000000E+00 0.  1.
         21   -1    0    0  501  502 -0.00000000000E+00 -0.00000000000E+00 -0.10077804226E+03  0.10077804226E+03  0.00000000000E+00 0.  1.
         25    1    1    2    0    0  0.30345847775E+02  0.11965460040E+03  0.36707542852E+03  0.40694896989E+03  0.12500000000E+03 0.  0.
         25    1    1    2    0    0 -0.15178280929E+03 -0.14492478149E+03  0.33693428300E+03  0.41616213733E+03  0.12500000000E+03 0.  0.
         25    1    1    2    0    0  0.12143696152E+03  0.25270181090E+02  0.14681846670E+03  0.22927315552E+03  0.12500000000E+03 0.  0.
</event>
<event>
 5    0  0.5474724E-005  0.3342378E+03  0.7546771E-02  0.1069277E+00
         21   -1    0    0  502  501  0.00000000000E+00  0.00000000000E+00  0.39116277040E+03  0.39116277040E+03  0.00000000000E+00 0. -1.
         21   -1    0    0  501  502 -0.00000000000E+00 -0.00000000000E+00 -0.28559702967E+03  0.28559702967E+03  0.00000000000E+00 0. -1.
         25    1    1    2    0    0 -0.11625051199E+02  0.18857272177E+03  0.55039185179E+02  0.23312898815E+03  0.12500000000E+03 0.  0.
         25    1    1    2    0    0 -0.14485675782E+03 -0.13015465920E+03  0.13967098768E+02  0.23182708091E+03  0.12500000000E+03 0.  0.
         25    1    1    2    0    0  0.15648180902E+03 -0.58418062570E+02  0.36559456789E+02  0.21180373101E+03  0.12500000000E+03 0.  0.
</event>
<event>
 5    0  0.5474724E-005  0.4215037E+03  0.7546771E-02  0.1036578E+00
         21   -1    0    0  502  501  0.00000000000E+00  0.00000000000E+00  0.33325183383E+03  0.33325183383E+03  0.00000000000E+00 0.  1.
         21   -1    0    0  501  502 -0.00000000000E+00 -0.00000000000E+00 -0.53312643926E+03  0.53312643926E+03  0.00000000000E+00 0.  1.
         25    1    1    2    0    0  0.34952398255E+02  0.16862503259E+02 -0.10193961495E+03  0.16589966623E+03  0.12500000000E+03 0.  0.
         25    1    1    2    0    0  0.88757197304E+02  0.13004960386E+03 -0.32224449934E+03  0.37981213369E+03  0.12500000000E+03 0.  0.
         25    1    1    2    0    0 -0.12370959556E+03 -0.14691210712E+03  0.22430950886E+03  0.32066647318E+03  0.12500000000E+03 0.  0.
</event>
<event>
 5    0  0.5474724E-005  0.2604351E+03  0.7546771E-02  0.1106882E+00
         21   -1    0    0  502  501  0.00000000000E+00  0.00000000000E+00  0.56114186416E+02  0.56114186416E+02  0.00000000000E+00 0.  1.
         21   -1    0    0  501  502 -0.00000000000E+00 -0.00000000000E+00 -0.12087216781E+04  0.12087216781E+04  0.00000000000E+00 0.  1.
         25    1    1    2    0    0  0.16343805321E+02 -0.94402988980E+02 -0.35708489144E+03  0.39027383206E+03  0.12500000000E+03 0.  0.
         25    1    1    2    0    0  0.31906598864E+02 -0.55060385425E+02 -0.18681643633E+03  0.23361305181E+03  0.12500000000E+03 0.  0.
         25    1    1    2    0    0 -0.48250404185E+02  0.14946337441E+03 -0.60870616392E+03  0.64094898064E+03  0.12500000000E+03 0.  0.
</event>
<event>
 5    0  0.5474724E-005  0.2738339E+03  0.7546771E-02  0.1099105E+00
         21   -1    0    0  502  501  0.00000000000E+00  0.00000000000E+00  0.43402874142E+03  0.43402874142E+03  0.00000000000E+00 0.  1.
         21   -1    0    0  501  502 -0.00000000000E+00 -0.00000000000E+00 -0.17276505523E+03  0.17276505523E+03  0.00000000000E+00 0.  1.
         25    1    1    2    0    0  0.38476830944E+02  0.92686451267E+02  0.14055820393E+03  0.21319674824E+03  0.12500000000E+03 0.  0.
         25    1    1    2    0    0  0.21070966580E+02 -0.11664621170E+03 -0.43303774362E+02  0.17762472016E+03  0.12500000000E+03 0.  0.
         25    1    1    2    0    0 -0.59547797524E+02  0.23959760438E+02  0.16400925662E+03  0.21597232825E+03  0.12500000000E+03 0.  0.
</event>
<event>
 5    0  0.5474724E-005  0.3498114E+03  0.7546771E-02  0.1062692E+00
         21   -1    0    0  502  501  0.00000000000E+00  0.00000000000E+00  0.55717889039E+03  0.55717889039E+03  0.00000000000E+00 0. -1.
         21   -1    0    0  501  502 -0.00000000000E+00 -0.00000000000E+00 -0.21962064109E+03  0.21962064109E+03  0.00000000000E+00 0. -1.
         25    1    1    2    0    0  0.53923502365E+02  0.72565862107E+02 -0.99263948278E+02  0.18344448718E+03  0.12500000000E+03 0.  0.
         25    1    1    2    0    0 -0.17601711483E+03 -0.28744012489E+02  0.27833240639E+03  0.35341501300E+03  0.12500000000E+03 0.  0.
         25    1    1    2    0    0  0.12209361246E+03 -0.43821849618E+02  0.15848979119E+03  0.23994003130E+03  0.12500000000E+03 0.  0.
</event>
<event>
 5    0  0.5474724E-005  0.3795134E+03  0.7546771E-02  0.1051114E+00
         21   -1    0    0  502  501  0.00000000000E+00  0.00000000000E+00  0.14199717194E+03  0.14199717194E+03  0.00000000000E+00 0.  1.
         21   -1    0    0  501  502 -0.00000000000E+00 -0.00000000000E+00 -0.10143188308E+04  0.10143188308E+04  0.00000000000E+00 0.  1.
         25    1    1    2    0    0  0.16780402026E+03  0.18955353383E+03 -0.68131205266E+03  0.73749565727E+03  0.12500000000E+03 0.  0.
         25    1    1    2    0    0 -0.44300584756E+02 -0.88156128761E+02 -0.13389746410E+03  0.20805666473E+03  0.12500000000E+03 0.  0.
         25    1    1    2    0    0 -0.12350343550E+03 -0.10139740507E+03 -0.57112142099E+02  0.21076368072E+03  0.12500000000E+03 0.  0.
</event>
<event>
 5    0  0.5474724E-005  0.5389351E+03  0.7546771E-02  0.1004088E+00
         21   -1    0    0  502  501  0.00000000000E+00  0.00000000000E+00  0.98209773375E+03  0.98209773375E+03  0.00000000000E+00 0. -1.
         21   -1    0    0  501  502 -0.00000000000E+00 -0.00000000000E+00 -0.29574558295E+03  0.29574558295E+03  0.00000000000E+00 0. -1.
         25    1    1    2    0    0  0.39002650244E+03 -0.30977625023E+02  0.91654286027E+02  0.42083939218E+03  0.12500000000E+03 0.  0.
         25    1    1    2    0    0 -0.87667409393E+02  0.11989681650E+03  0.27318670114E+02  0.19604114622E+03  0.12500000000E+03 0.  0.
         25    1    1    2    0    0 -0.30235909305E+03 -0.88919191472E+02  0.56737919467E+03  0.66096277830E+03  0.12500000000E+03 0.  0.
</event>
<event>
 5    0  0.5474724E-005  0.3060280E+03  0.7546771E-02  0.1082265E+00
         21   -1    0    0  502  501  0.00000000000E+00  0.00000000000E+00  0.33365578341E+03  0.33365578341E+03  0.00000000000E+00 0. -1.
         21   -1    0    0  501  502 -0.00000000000E+00 -0.00000000000E+00 -0.28068792498E+03  0.28068792498E+03  0.00000000000E+00 0. -1.
         25    1    1    2    0    0 -0.44767907309E+02  0.16190945107E+03  0.65050895150E+02  0.21926115669E+03  0.12500000000E+03 0.  0.
         25    1    1    2    0    0 -0.59723020721E+02 -0.33150750558E+02 -0.95283780749E+02  0.17137622455E+03  0.12500000000E+03 0.  0.
         25    1    1    2    0    0  0.10449092803E+03 -0.12875870052E+03  0.83200744027E+02  0.22370632715E+03  0.12500000000E+03 0.  0.
</event>
<event>
 5    0  0.5474724E-005  0.2886198E+03  0.7546771E-02  0.1091072E+00
         21   -1    0    0  502  501  0.00000000000E+00  0.00000000000E+00  0.13100135048E+04  0.13100135048E+04  0.00000000000E+00 0. -1.
         21   -1    0    0  501  502 -0.00000000000E+00 -0.00000000000E+00 -0.63588172948E+02  0.63588172948E+02  0.00000000000E+00 0. -1.
         25    1    1    2    0    0  0.15307957488E+02  0.12114451543E+03  0.32097560358E+03  0.36545952618E+03  0.12500000000E+03 0.  0.
         25    1    1    2    0    0  0.47540254705E+02  0.77967172706E+02  0.31526411397E+03  0.35121989892E+03  0.12500000000E+03 0.  0.
         25    1    1    2    0    0 -0.62848212193E+02 -0.19911168813E+03  0.61018561426E+03  0.65692225261E+03  0.12500000000E+03 0.  0.
</event>
<event>
 5    0  0.5474724E-005  0.2363780E+03  0.7546771E-02  0.1122229E+00
         21   -1    0    0  502  501  0.00000000000E+00  0.00000000000E+00  0.17900655692E+03  0.17900655692E+03  0.00000000000E+00 0. -1.
         21   -1    0    0  501  502 -0.00000000000E+00 -0.00000000000E+00 -0.31213694695E+03  0.31213694695E+03  0.00000000000E+00 0. -1.
         25    1    1    2    0    0 -0.30352003307E+02 -0.96946413024E+02 -0.23222897819E+02  0.16273952835E+03  0.12500000000E+03 0.  0.
         25    1    1    2    0    0 -0.27576685738E+02 -0.11838939931E+02 -0.76864609581E+02  0.14977917846E+03  0.12500000000E+03 0.  0.
         25    1    1    2    0    0  0.57928689045E+02  0.10878535295E+03 -0.33042882634E+02  0.17862479706E+03  0.12500000000E+03 0.  0.
</event>
<event>
 5    0  0.5474724E-005  0.3933397E+03  0.7546771E-02  0.1046111E+00
         21   -1    0    0  502  501  0.00000000000E+00  0.00000000000E+00  0.15595125845E+03  0.15595125845E+03  0.00000000000E+00 0.  1.
         21   -1    0    0  501  502 -0.00000000000E+00 -0.00000000000E+00 -0.99208005149E+03  0.99208005149E+03  0.00000000000E+00 0.  1.
         25    1    1    2    0    0  0.82513251679E+02 -0.33614544984E+02 -0.24808966339E+03  0.29173936213E+03  0.12500000000E+03 0.  0.
         25    1    1    2    0    0 -0.23258023311E+02 -0.23722113107E+03 -0.44535247857E+03  0.52036394076E+03  0.12500000000E+03 0.  0.
         25    1    1    2    0    0 -0.59255228367E+02  0.27083567606E+03 -0.14268665108E+03  0.33592800704E+03  0.12500000000E+03 0.  0.
</event>
<event>
 5    0  0.5474724E-005  0.2871613E+03  0.7546771E-02  0.1091841E+00
         21   -1    0    0  502  501  0.00000000000E+00  0.00000000000E+00  0.32433266365E+03  0.32433266365E+03  0.00000000000E+00 0.  1.
         21   -1    0    0  501  502 -0.00000000000E+00 -0.00000000000E+00 -0.25425006822E+03  0.25425006822E+03  0.00000000000E+00 0.  1.
         25    1    1    2    0    0  0.38583333427E+02  0.18552400093E+02 -0.16330238260E+03  0.21006078485E+03  0.12500000000E+03 0.  0.
         25    1    1    2    0    0 -0.43920307052E+02  0.23875878570E+02  0.52436039252E+02  0.14447695028E+03  0.12500000000E+03 0.  0.
         25    1    1    2    0    0  0.53369736250E+01 -0.42428278662E+02  0.18094893878E+03  0.22404499674E+03  0.12500000000E+03 0.  0.
</event>
<event>
 5    0  0.5474724E-005  0.2454911E+03  0.7546771E-02  0.1116188E+00
         21   -1    0    0  502  501  0.00000000000E+00  0.00000000000E+00  0.60207563531E+03  0.60207563531E+03  0.00000000000E+00 0. -1.
         21   -1    0    0  501  502 -0.00000000000E+00 -0.00000000000E+00 -0.10009686108E+03  0.10009686108E+03  0.00000000000E+00 0. -1.
         25    1    1    2    0    0 -0.36163530718E+02 -0.58128019284E+02  0.18832642401E+03  0.23617474369E+03  0.12500000000E+03 0.  0.
         25    1    1    2    0    0  0.56908836057E+02  0.85734371689E+02  0.29289301116E+03  0.33466447989E+03  0.12500000000E+03 0.  0.
         25    1    1    2    0    0 -0.20745305339E+02 -0.27606352405E+02  0.20759339065E+02  0.13133327280E+03  0.12500000000E+03 0.  0.
</event>
<event>
 5    0  0.5863933E-005  0.3611281E+03  0.7546771E-02  0.1058138E+00
         21   -1    0    0  502  501  0.00000000000E+00  0.00000000000E+00  0.43958950650E+03  0.43958950650E+03  0.00000000000E+00 0. -1.
         21   -1    0    0  501  502 -0.00000000000E+00 -0.00000000000E+00 -0.29667117171E+03  0.29667117171E+03  0.00000000000E+00 0. -1.
         25    1    1    2    0    0 -0.88817338671E+02 -0.34019918583E+02 -0.86271393432E+02  0.17920275621E+03  0.12500000000E+03 0.  0.
         25    1    1    2    0    0  0.52812584792E+02 -0.80564886128E+02  0.32333395417E+03  0.35979121155E+03  0.12500000000E+03 0.  0.
         25    1    1    2    0    0  0.36004753879E+02  0.11458480471E+03 -0.94144225949E+02  0.19726671045E+03  0.12500000000E+03 0.  0.
</event>
<event>
 5    0  0.5474724E-005  0.3607658E+03  0.7546771E-02  0.1058281E+00
         21   -1    0    0  502  501  0.00000000000E+00  0.00000000000E+00  0.21885088608E+03  0.21885088608E+03  0.00000000000E+00 0. -1.
         21   -1    0    0  501  502 -0.00000000000E+00 -0.00000000000E+00 -0.59470613163E+03  0.59470613163E+03  0.00000000000E+00 0. -1.
         25    1    1    2    0    0  0.10928049573E+03  0.41676999225E+02 -0.17187275830E+03  0.24257873784E+03  0.12500000000E+03 0.  0.
         25    1    1    2    0    0  0.12634647889E+03 -0.47236968211E+02 -0.23936578497E+03  0.30185384362E+03  0.12500000000E+03 0.  0.
         25    1    1    2    0    0 -0.23562697462E+03  0.55599689859E+01  0.35383297711E+02  0.26912443624E+03  0.12500000000E+03 0.  0.
</event>
<event>
 5    0  0.5621644E-005  0.3344639E+03  0.7546771E-02  0.1069179E+00
         21   -1    0    0  502  501  0.00000000000E+00  0.00000000000E+00  0.17669578693E+03  0.17669578693E+03  0.00000000000E+00 0. -1.
         21   -1    0    0  501  502 -0.00000000000E+00 -0.00000000000E+00 -0.63309982426E+03  0.63309982426E+03  0.00000000000E+00 0. -1.
         25    1    1    2    0    0  0.71695257644E+02 -0.17496475423E+03 -0.12023259125E+03  0.25658088625E+03  0.12500000000E+03 0.  0.
         25    1    1    2    0    0  0.53666348748E+01 -0.29798701153E+02 -0.25984466618E+03  0.28993277480E+03  0.12500000000E+03 0.  0.
         25    1    1    2    0    0 -0.77061892519E+02  0.20476345538E+03 -0.76326779895E+02  0.26328195014E+03  0.12500000000E+03 0.  0.
</event>
<event>
 5    0  0.5474724E-005  0.2624179E+03  0.7546771E-02  0.1105699E+00
         21   -1    0    0  502  501  0.00000000000E+00  0.00000000000E+00  0.19944742684E+04  0.19944742684E+04  0.00000000000E+00 0.  1.
         21   -1    0    0  501  502 -0.00000000000E+00 -0.00000000000E+00 -0.34526983073E+02  0.34526983073E+02  0.00000000000E+00 0.  1.
         25    1    1    2    0    0  0.57380575295E+02 -0.12173369733E+03  0.50272500132E+03  0.53522803592E+03  0.12500000000E+03 0.  0.
         25    1    1    2    0    0 -0.87147893819E+02  0.68815506339E+02  0.10562836124E+04  0.10694346166E+04  0.12500000000E+03 0.  0.
         25    1    1    2    0    0  0.29767318524E+02  0.52918190986E+02  0.40093867165E+03  0.42433859902E+03  0.12500000000E+03 0.  0.
</event>
<event>
 5    0  0.5474724E-005  0.4885307E+03  0.7546771E-02  0.1016817E+00
         21   -1    0    0  502  501  0.00000000000E+00  0.00000000000E+00  0.19372967707E+04  0.19372967707E+04  0.00000000000E+00 0.  1.
         21   -1    0    0  501  502 -0.00000000000E+00 -0.00000000000E+00 -0.12319341163E+03  0.12319341163E+03  0.00000000000E+00 0. -1.
         25    1    1    2    0    0  0.17783065514E+03 -0.24917959759E+03  0.36323927718E+03  0.49120462767E+03  0.12500000000E+03 0.  0.
         25    1    1    2    0    0 -0.13187257396E+03  0.34782189454E+03  0.12427901787E+04  0.13032739061E+04  0.12500000000E+03 0.  0.
         25    1    1    2    0    0 -0.45958081186E+02 -0.98642296956E+02  0.20807390322E+03  0.26601164857E+03  0.12500000000E+03 0.  0.
</event>
<event>
 5    0  0.5474724E-005  0.2472199E+03  0.7546771E-02  0.1115074E+00
         21   -1    0    0  502  501  0.00000000000E+00  0.00000000000E+00  0.81146623772E+02  0.81146623772E+02  0.00000000000E+00 0.  1.
         21   -1    0    0  501  502 -0.00000000000E+00 -0.00000000000E+00 -0.75317592722E+03  0.75317592722E+03  0.00000000000E+00 0.  1.
         25    1    1    2    0    0  0.58822708426E+02 -0.82099135497E+02 -0.36429609126E+03  0.39816707697E+03  0.12500000000E+03 0.  0.
         25    1    1    2    0    0 -0.20791392545E+02  0.11845249856E+03 -0.17193064027E+03  0.24423026324E+03  0.12500000000E+03 0.  0.
         25    1    1    2    0    0 -0.38031315880E+02 -0.36353363061E+02 -0.13580257191E+03  0.19192521077E+03  0.12500000000E+03 0.  0.
</event>
<event>
 5    0  0.5474724E-005  0.3516692E+03  0.7546771E-02  0.1061932E+00
         21   -1    0    0  502  501  0.00000000000E+00  0.00000000000E+00  0.11351269665E+03  0.11351269665E+03  0.00000000000E+00 0. -1.
         21   -1    0    0  501  502 -0.00000000000E+00 -0.00000000000E+00 -0.10894923491E+04  0.10894923491E+04  0.00000000000E+00 0. -1.
         25    1    1    2    0    0  0.99716333174E+02 -0.52821729813E+02 -0.47403753867E+03  0.50306070241E+03  0.12500000000E+03 0.  0.
         25    1    1    2    0    0 -0.25366788576E+03  0.45477491498E+02 -0.25811843571E+03  0.38557194575E+03  0.12500000000E+03 0.  0.
         25    1    1    2    0    0  0.15395155258E+03  0.73442383151E+01 -0.24382367809E+03  0.31437239761E+03  0.12500000000E+03 0.  0.
</event>
<event>
 5    0  0.5474724E-005  0.2031421E+03  0.7546771E-02  0.1147115E+00
         21   -1    0    0  502  501  0.00000000000E+00  0.00000000000E+00  0.18913952793E+03  0.18913952793E+03  0.00000000000E+00 0. -1.
         21   -1    0    0  501  502 -0.00000000000E+00 -0.00000000000E+00 -0.21818142926E+03  0.21818142926E+03  0.00000000000E+00 0. -1.
         25    1    1    2    0    0  0.34466886512E+02  0.35279396197E+02 -0.63937270655E+02  0.14881389935E+03  0.12500000000E+03 0.  0.
         25    1    1    2    0    0 -0.22896933291E+02 -0.89712813572E+01  0.25327415896E+02  0.12988930456E+03  0.12500000000E+03 0.  0.
         25    1    1    2    0    0 -0.11569953220E+02 -0.26308114840E+02  0.95679534354E+01  0.12861775327E+03  0.12500000000E+03 0.  0.
</event>
<event>
 5    0  0.5474724E-005  0.3633401E+03  0.7546771E-02  0.1057269E+00
         21   -1    0    0  502  501  0.00000000000E+00  0.00000000000E+00  0.10275106739E+04  0.10275106739E+04  0.00000000000E+00 0.  1.
         21   -1    0    0  501  502 -0.00000000000E+00 -0.00000000000E+00 -0.12848139796E+03  0.12848139796E+03  0.00000000000E+00 0.  1.
         25    1    1    2    0    0 -0.45648147334E+02  0.11292823008E+03  0.18472810271E+03  0.25413777845E+03  0.12500000000E+03 0.  0.
         25    1    1    2    0    0  0.19198655344E+03 -0.70237582917E+02  0.65273711946E+03  0.69532934778E+03  0.12500000000E+03 0.  0.
         25    1    1    2    0    0 -0.14633840611E+03 -0.42690647160E+02  0.61564053771E+02  0.20652494565E+03  0.12500000000E+03 0.  0.
</event>
<event>
 5    0  0.5474724E-005  0.3146277E+03  0.7546771E-02  0.1078149E+00
         21   -1    0    0  502  501  0.00000000000E+00  0.00000000000E+00  0.12069560590E+04  0.12069560590E+04  0.00000000000E+00 0.  1.
         21   -1    0    0  501  502 -0.00000000000E+00 -0.00000000000E+00 -0.82016746824E+02  0.82016746824E+02  0.00000000000E+00 0.  1.
         25    1    1    2    0    0 -0.14526933823E+03  0.18197245417E+03  0.43848559098E+03  0.51196852267E+03  0.12500000000E+03 0.  0.
         25    1    1    2    0    0  0.95928363033E+02 -0.15024693764E+03  0.49677213454E+03  0.54238726641E+03  0.12500000000E+03 0.  0.
         25    1    1    2    0    0  0.49340975201E+02 -0.31725516530E+02  0.18968158667E+03  0.23461701676E+03  0.12500000000E+03 0.  0.
</event>
<event>
 5    0  0.5474724E-005  0.3928047E+03  0.7546771E-02  0.1046300E+00
         21   -1    0    0  502  501  0.00000000000E+00  0.00000000000E+00  0.56650956881E+03  0.56650956881E+03  0.00000000000E+00 0.  1.
         21   -1    0    0  501  502 -0.00000000000E+00 -0.00000000000E+00 -0.27236174639E+03  0.27236174639E+03  0.00000000000E+00 0.  1.
         25    1    1    2    0    0  0.15251088810E+03 -0.89510013151E+02  0.56923291195E+02  0.22391264932E+03  0.12500000000E+03 0.  0.
         25    1    1    2    0    0 -0.16224930892E+03 -0.69009614224E+02 -0.86930814901E+02  0.23295736022E+03  0.12500000000E+03 0.  0.
         25    1    1    2    0    0  0.97384208194E+01  0.15851962737E+03  0.32415534613E+03  0.38200130566E+03  0.12500000000E+03 0.  0.
</event>
<event>
 5    0  0.5474724E-005  0.3520803E+03  0.7546771E-02  0.1061764E+00
         21   -1    0    0  502  501  0.00000000000E+00  0.00000000000E+00  0.52379014673E+03  0.52379014673E+03  0.00000000000E+00 0. -1.
         21   -1    0    0  501  502 -0.00000000000E+00 -0.00000000000E+00 -0.23666073726E+03  0.23666073726E+03  0.00000000000E+00 0. -1.
         25    1    1    2    0    0 -0.40881753660E+02  0.25889353987E+02  0.19513246592E+02  0.13545236515E+03  0.12500000000E+03 0.  0.
         25    1    1    2    0    0  0.92953220132E+01 -0.91578827225E+02 -0.12961529135E+03  0.20223305457E+03  0.12500000000E+03 0.  0.
         25    1    1    2    0    0  0.31586431647E+02  0.65689473239E+02  0.39723145422E+03  0.42276546427E+03  0.12500000000E+03 0.  0.
</event>
<event>
 5    0  0.5474724E-005  0.2995012E+03  0.7546771E-02  0.1085490E+00
         21   -1    0    0  502  501  0.00000000000E+00  0.00000000000E+00  0.30823697278E+03  0.30823697278E+03  0.00000000000E+00 0.  1.
         21   -1    0    0  501  502 -0.00000000000E+00 -0.00000000000E+00 -0.29101296944E+03  0.29101296944E+03  0.00000000000E+00 0.  1.
         25    1    1    2    0    0 -0.10262603339E+03 -0.18786527911E+02 -0.12092047854E+03  0.20280975936E+03  0.12500000000E+03 0.  0.
         25    1    1    2    0    0  0.14345662465E+03 -0.29810876601E+02  0.16510489472E+03  0.25367916308E+03  0.12500000000E+03 0.  0.
         25    1    1    2    0    0 -0.40830591259E+02  0.48597404512E+02 -0.26960412851E+02  0.14276101978E+03  0.12500000000E+03 0.  0.
</event>
<event>
 5    0  0.5474724E-005  0.3244560E+03  0.7546771E-02  0.1073617E+00
         21   -1    0    0  502  501  0.00000000000E+00  0.00000000000E+00  0.10392052247E+03  0.10392052247E+03  0.00000000000E+00 0. -1.
         21   -1    0    0  501  502 -0.00000000000E+00 -0.00000000000E+00 -0.10130022265E+04  0.10130022265E+04  0.00000000000E+00 0. -1.
         25    1    1    2    0    0  0.17394734756E+02 -0.57136046891E+02 -0.77551378964E+02  0.15876498679E+03  0.12500000000E+03 0.  0.
         25    1    1    2    0    0  0.68903799754E+02  0.43405230864E+02 -0.43350909353E+02  0.15535780968E+03  0.12500000000E+03 0.  0.
         25    1    1    2    0    0 -0.86298534511E+02  0.13730816027E+02 -0.78817941572E+03  0.80279995250E+03  0.12500000000E+03 0.  0.
</event>
<event>
 5    0  0.5474724E-005  0.3004291E+03  0.7546771E-02  0.1085026E+00
         21   -1    0    0  502  501  0.00000000000E+00  0.00000000000E+00  0.41002189176E+02  0.41002189176E+02  0.00000000000E+00 0.  1.
         21   -1    0    0  501  502 -0.00000000000E+00 -0.00000000000E+00 -0.22012879824E+04  0.22012879824E+04  0.00000000000E+00 0.  1.
         25    1    1    2    0    0 -0.20074788427E+03  0.81670223157E+02 -0.11077024950E+04  0.11356053697E+04  0.12500000000E+03 0.  0.
         25    1    1    2    0    0  0.11662055627E+03 -0.68358534603E+02 -0.68213472354E+03  0.70654513264E+03  0.12500000000E+03 0.  0.
         25    1    1    2    0    0  0.84127328007E+02 -0.13311688554E+02 -0.37044857473E+03  0.40013966922E+03  0.12500000000E+03 0.  0.
</event>
<event>
 5    0  0.5474724E-005  0.2229613E+03  0.7546771E-02  0.1131694E+00
         21   -1    0    0  502  501  0.00000000000E+00  0.00000000000E+00  0.92960515812E+02  0.92960515812E+02  0.00000000000E+00 0. -1.
         21   -1    0    0  501  502 -0.00000000000E+00 -0.00000000000E+00 -0.53476174780E+03  0.53476174780E+03  0.00000000000E+00 0. -1.
         25    1    1    2    0    0  0.10339031823E+03 -0.37528054326E+01 -0.12641304023E+03  0.20569126912E+03  0.12500000000E+03 0.  0.
         25    1    1    2    0    0 -0.38624174668E+02  0.20578474916E+02 -0.19667552903E+03  0.23711086904E+03  0.12500000000E+03 0.  0.
         25    1    1    2    0    0 -0.64766143559E+02 -0.16825669483E+02 -0.11871266273E+03  0.18492012545E+03  0.12500000000E+03 0.  0.
</event>
<event>
 5    0  0.5866068E-005  0.3199324E+03  0.7546771E-02  0.1075680E+00
         21   -1    0    0  502  501  0.00000000000E+00  0.00000000000E+00  0.17159695898E+03  0.17159695898E+03  0.00000000000E+00 0. -1.
         21   -1    0    0  501  502 -0.00000000000E+00 -0.00000000000E+00 -0.59649496303E+03  0.59649496303E+03  0.00000000000E+00 0. -1.
         25    1    1    2    0    0 -0.12156511925E+03  0.75608596127E+02 -0.73289898856E+02  0.20369375862E+03  0.12500000000E+03 0.  0.
         25    1    1    2    0    0  0.95750556997E+01 -0.15907086651E+03 -0.48894407946E+02  0.20835279070E+03  0.12500000000E+03 0.  0.
         25    1    1    2    0    0  0.11199006355E+03  0.83462270387E+02 -0.30271369725E+03  0.35604537269E+03  0.12500000000E+03 0.  0.
</event>
<event>
 5    0  0.5474724E-005  0.2634888E+03  0.7546771E-02  0.1105065E+00
         21   -1    0    0  502  501  0.00000000000E+00  0.00000000000E+00  0.72903042136E+02  0.72903042136E+02  0.00000000000E+00 0. -1.
         21   -1    0    0  501  502 -0.00000000000E+00 -0.00000000000E+00 -0.95231054006E+03  0.95231054006E+03  0.00000000000E+00 0. -1.
         25    1    1    2    0    0  0.56146648364E+02 -0.50550290188E+02 -0.58401979109E+03  0.60200655673E+03  0.12500000000E+03 0.  0.
         25    1    1    2    0    0 -0.12236452350E+02  0.56693733549E+02 -0.54433126986E+02  0.14816165328E+03  0.12500000000E+03 0.  0.
         25    1    1    2    0    0 -0.43910196014E+02 -0.61434433614E+01 -0.24095457985E+03  0.27504537218E+03  0.12500000000E+03 0.  0.
</event>
<event>
 5    0  0.5474724E-005  0.3581945E+03  0.7546771E-02  0.1059301E+00
         21   -1    0    0  502  501  0.00000000000E+00  0.00000000000E+00  0.68824294922E+03  0.68824294922E+03  0.00000000000E+00 0. -1.
         21   -1    0    0  501  502 -0.00000000000E+00 -0.00000000000E+00 -0.18642151532E+03  0.18642151532E+03  0.00000000000E+00 0. -1.
         25    1    1    2    0    0 -0.25092746992E+02  0.13711345894E+03  0.15329731465E+03  0.24198101837E+03  0.12500000000E+03 0.  0.
         25    1    1    2    0    0 -0.16550772528E+03  0.71156806126E+02  0.14590598038E+03  0.26338119389E+03  0.12500000000E+03 0.  0.
         25    1    1    2    0    0  0.19060047227E+03 -0.20827026506E+03  0.20261813887E+03  0.36930225228E+03  0.12500000000E+03 0.  0.
</event>
<event>
 5    0  0.5474724E-005  0.2764713E+03  0.7546771E-02  0.1097632E+00
         21   -1    0    0  502  501  0.00000000000E+00  0.00000000000E+00  0.16873826538E+03  0.16873826538E+03  0.00000000000E+00 0.  1.
         21   -1    0    0  501  502 -0.00000000000E+00 -0.00000000000E+00 -0.45298774587E+03  0.45298774587E+03  0.00000000000E+00 0.  1.
         25    1    1    2    0    0 -0.34305914778E+02 -0.16367590898E+03 -0.95022943788E+02  0.22939280463E+03  0.12500000000E+03 0.  0.
         25    1    1    2    0    0  0.54939002603E+02  0.62732014333E+02 -0.97699208620E+01  0.15057905227E+03  0.12500000000E+03 0.  0.
         25    1    1    2    0    0 -0.20633087825E+02  0.10094389465E+03 -0.17945661583E+03  0.24175415435E+03  0.12500000000E+03 0.  0.
</event>
<event>
 5    0  0.5474724E-005  0.3150298E+03  0.7546771E-02  0.1077960E+00
         21   -1    0    0  502  501  0.00000000000E+00  0.00000000000E+00  0.30968723682E+03  0.30968723682E+03  0.00000000000E+00 0. -1.
         21   -1    0    0  501  502 -0.00000000000E+00 -0.00000000000E+00 -0.32046462236E+03  0.32046462236E+03  0.00000000000E+00 0. -1.
         25    1    1    2    0    0  0.19770162878E+02  0.74799975144E+02 -0.23965187800E+03  0.28114750266E+03  0.12500000000E+03 0.  0.
         25    1    1    2    0    0 -0.13640872644E+02 -0.22434591162E+02  0.10653490543E+03  0.16632519461E+03  0.12500000000E+03 0.  0.
         25    1    1    2    0    0 -0.61292902346E+01 -0.52365383982E+02  0.12233958703E+03  0.18267916190E+03  0.12500000000E+03 0.  0.
</event>
<event>
 5    0  0.5474724E-005  0.2874748E+03  0.7546771E-02  0.1091675E+00
         21   -1    0    0  502  501  0.00000000000E+00  0.00000000000E+00  0.50634803189E+03  0.50634803189E+03  0.00000000000E+00 0. -1.
         21   -1    0    0  501  502 -0.00000000000E+00 -0.00000000000E+00 -0.16321139123E+03  0.16321139123E+03  0.00000000000E+00 0. -1.
         25    1    1    2    0    0 -0.58774284525E+02  0.61409516836E+02  0.17659515465E+03  0.23245729484E+03  0.12500000000E+03 0.  0.
         25    1    1    2    0    0  0.12085380270E+02 -0.18339591488E+03  0.76005382054E+02  0.23490835684E+03  0.12500000000E+03 0.  0.
         25    1    1    2    0    0  0.46688904255E+02  0.12198639804E+03  0.90536103962E+02  0.20219377144E+03  0.12500000000E+03 0.  0.
</event>
<event>
 5    0  0.5474724E-005  0.4298876E+03  0.7546771E-02  0.1033895E+00
         21   -1    0    0  502  501  0.00000000000E+00  0.00000000000E+00  0.28086848967E+03  0.28086848967E+03  0.00000000000E+00 0. -1.
         21   -1    0    0  501  502 -0.00000000000E+00 -0.00000000000E+00 -0.65797118934E+03  0.65797118934E+03  0.00000000000E+00 0. -1.
         25    1    1    2    0    0 -0.17979299382E+03 -0.20495617908E+03 -0.17169296312E+03  0.34559518162E+03  0.12500000000E+03 0.  0.
         25    1    1    2    0    0  0.15013950085E+03 -0.10113693853E+03 -0.44939047219E+02  0.22453299984E+03  0.12500000000E+03 0.  0.
         25    1    1    2    0    0  0.29653492962E+02  0.30609311762E+03 -0.16047068933E+03  0.36871149756E+03  0.12500000000E+03 0.  0.
</event>
<event>
 5    0  0.5474724E-005  0.4487306E+03  0.7546771E-02  0.1028101E+00
         21   -1    0    0  502  501  0.00000000000E+00  0.00000000000E+00  0.28647342138E+03  0.28647342138E+03  0.00000000000E+00 0.  1.
         21   -1    0    0  501  502 -0.00000000000E+00 -0.00000000000E+00 -0.70288931747E+03  0.70288931747E+03  0.00000000000E+00 0.  1.
         25    1    1    2    0    0 -0.23270696981E+03  0.11054043110E+03 -0.40115231744E+02  0.28914693933E+03  0.12500000000E+03 0.  0.
         25    1    1    2    0    0 -0.12453322101E+01  0.16422876945E+03 -0.10357761639E+03  0.23092414812E+03  0.12500000000E+03 0.  0.
         25    1    1    2    0    0  0.23395230202E+03 -0.27476920055E+03 -0.27272304796E+03  0.46929165140E+03  0.12500000000E+03 0.  0.
</event>
<event>
 5    0  0.5474724E-005  0.3903570E+03  0.7546771E-02  0.1047171E+00
         21   -1    0    0  502  501  0.00000000000E+00  0.00000000000E+00  0.21034947728E+03  0.21034947728E+03  0.00000000000E+00 0. -1.
         21   -1    0    0  501  502 -0.00000000000E+00 -0.00000000000E+00 -0.72440661684E+03  0.72440661684E+03  0.00000000000E+00 0. -1.
         25    1    1    2    0    0 -0.16844576057E+03  0.12239770478E+03 -0.13021463690E+02  0.24320717692E+03  0.12500000000E+03 0.  0.
         25    1    1    2    0    0  0.11616410859E+03  0.71241823532E+02 -0.38749021000E+03  0.42935202386E+03  0.12500000000E+03 0.  0.
         25    1    1    2    0    0  0.52281651980E+02 -0.19363952831E+03 -0.11354546586E+03  0.26219689334E+03  0.12500000000E+03 0.  0.
</event>
<event>
 5    0  0.5474724E-005  0.2647653E+03  0.7546771E-02  0.1104313E+00
         21   -1    0    0  502  501  0.00000000000E+00  0.00000000000E+00  0.80596365907E+03  0.80596365907E+03  0.00000000000E+00 0.  1.
         21   -1    0    0  501  502 -0.00000000000E+00 -0.00000000000E+00 -0.86977452897E+02  0.86977452897E+02  0.00000000000E+00 0.  1.
         25    1    1    2    0    0 -0.56337540536E+02 -0.13182909316E+03  0.17038327160E+03  0.25535913439E+03  0.12500000000E+03 0.  0.
         25    1    1    2    0    0  0.72238994560E+02  0.45417256719E+02  0.38523752745E+03  0.41390113807E+03  0.12500000000E+03 0.  0.
         25    1    1    2    0    0 -0.15901454024E+02  0.86411836436E+02  0.16336540713E+03  0.22368083951E+03  0.12500000000E+03 0.  0.
</event>
<event>
 5    0  0.5474724E-005  0.2511898E+03  0.7546771E-02  0.1112555E+00
         21   -1    0    0  502  501  0.00000000000E+00  0.00000000000E+00  0.60351903681E+02  0.60351903681E+02  0.00000000000E+00 0.  1.
         21   -1    0    0  501  502 -0.00000000000E+00 -0.00000000000E+00 -0.10454733569E+04  0.10454733569E+04  0.00000000000E+00 0.  1.
         25    1    1    2    0    0  0.87158619508E+02  0.10235621227E+02 -0.34091394006E+03  0.37356218682E+03  0.12500000000E+03 0.  0.
         25    1    1    2    0    0 -0.24157138516E+02 -0.30785291407E+02 -0.54232216178E+03  0.55791543146E+03  0.12500000000E+03 0.  0.
         25    1    1    2    0    0 -0.63001480992E+02  0.20549670180E+02 -0.10188535140E+03  0.17434764232E+03  0.12500000000E+03 0.  0.
</event>
<event>
 5    0  0.5474724E-005  0.4034106E+03  0.7546771E-02  0.1042605E+00
         21   -1    0    0  502  501  0.00000000000E+00  0.00000000000E+00  0.55393936241E+03  0.55393936241E+03  0.00000000000E+00 0.  1.
         21   -1    0    0  501  502 -0.00000000000E+00 -0.00000000000E+00 -0.29378681291E+03  0.29378681291E+03  0.00000000000E+00 0.  1.
         25    1    1    2    0    0  0.31198532336E+03  0.68292371248E+01  0.10321786637E+03  0.35165381899E+03  0.12500000000E+03 0.  0.
         25    1    1    2    0    0 -0.20073596287E+03  0.16719157907E+02  0.21231840876E+03  0.31824293194E+03  0.12500000000E+03 0.  0.
         25    1    1    2    0    0 -0.11124936048E+03 -0.23548395032E+02 -0.55383725631E+02  0.17782942440E+03  0.12500000000E+03 0.  0.
</event>
<event>
 5    0  0.5474724E-005  0.3198421E+03  0.7546771E-02  0.1075722E+00
         21   -1    0    0  502  501  0.00000000000E+00  0.00000000000E+00  0.10577268242E+04  0.10577268242E+04  0.00000000000E+00 0.  1.
         21   -1    0    0  501  502 -0.00000000000E+00 -0.00000000000E+00 -0.96715893443E+02  0.96715893443E+02  0.00000000000E+00 0.  1.
         25    1    1    2    0    0 -0.19070864219E+02  0.10560440423E+03  0.30891130088E+03  0.35009595808E+03  0.12500000000E+03 0.  0.
         25    1    1    2    0    0 -0.10703868176E+03  0.63344076229E+02  0.46094021862E+03  0.49351862835E+03  0.12500000000E+03 0.  0.
         25    1    1    2    0    0  0.12610954598E+03 -0.16894848046E+03  0.19115941125E+03  0.31082813121E+03  0.12500000000E+03 0.  0.
</event>
<event>
 5    0  0.5474724E-005  0.2341240E+03  0.7546771E-02  0.1123770E+00
         21   -1    0    0  502  501  0.00000000000E+00  0.00000000000E+00  0.18539797009E+04  0.18539797009E+04  0.00000000000E+00 0. -1.
         21   -1    0    0  501  502 -0.00000000000E+00 -0.00000000000E+00 -0.29565617139E+02  0.29565617139E+02  0.00000000000E+00 0. -1.
         25    1    1    2    0    0  0.90332881205E+00 -0.10915271856E+03  0.96995321050E+03  0.98404743916E+03  0.12500000000E+03 0.  0.
         25    1    1    2    0    0  0.27465949265E+00  0.43452257480E+02  0.51724425027E+03  0.53390522432E+03  0.12500000000E+03 0.  0.
         25    1    1    2    0    0 -0.11779883047E+01  0.65700461078E+02  0.33721662299E+03  0.36559265455E+03  0.12500000000E+03 0.  0.
</event>
<event>
 5    0  0.5474724E-005  0.3621805E+03  0.7546771E-02  0.1057724E+00
         21   -1    0    0  502  501  0.00000000000E+00  0.00000000000E+00  0.74588566969E+03  0.74588566969E+03  0.00000000000E+00 0.  1.
         21   -1    0    0  501  502 -0.00000000000E+00 -0.00000000000E+00 -0.17586435195E+03  0.17586435195E+03  0.00000000000E+00 0.  1.
         25    1    1    2    0    0 -0.19009160328E+03 -0.15753491107E+03  0.16687235416E+03  0.32314617192E+03  0.12500000000E+03 0.  0.
         25    1    1    2    0    0  0.21360582546E+01  0.49959473273E+02  0.13073617708E+02  0.13526430126E+03  0.12500000000E+03 0.  0.
         25    1    1    2    0    0  0.18795554502E+03  0.10757543780E+03  0.39007534587E+03  0.46333954847E+03  0.12500000000E+03 0.  0.
</event>
<event>
 5    0  0.5474724E-005  0.3223772E+03  0.7546771E-02  0.1074560E+00
         21   -1    0    0  502  501  0.00000000000E+00  0.00000000000E+00  0.80962195982E+02  0.80962195982E+02  0.00000000000E+00 0.  1.
         21   -1    0    0  501  502 -0.00000000000E+00 -0.00000000000E+00 -0.12836489116E+04  0.12836489116E+04  0.00000000000E+00 0.  1.
         25    1    1    2    0    0  0.24272617291E+02 -0.24812313779E+03 -0.54692869567E+03  0.61393016671E+03  0.12500000000E+03 0.  0.
         25    1    1    2    0    0  0.79422982686E+01  0.13366549055E+03 -0.25139610632E+03  0.31105392738E+03  0.12500000000E+03 0.  0.
         25    1    1    2    0    0 -0.32214915560E+02  0.11445764723E+03 -0.40436191367E+03  0.43962701352E+03  0.12500000000E+03 0.  0.
</event>
<event>
 5    0  0.5474724E-005  0.2316737E+03  0.7546771E-02  0.1125467E+00
         21   -1    0    0  502  501  0.00000000000E+00  0.00000000000E+00  0.48563513523E+03  0.48563513523E+03  0.00000000000E+00 0. -1.
         21   -1    0    0  501  502 -0.00000000000E+00 -0.00000000000E+00 -0.11052059940E+03  0.11052059940E+03  0.00000000000E+00 0. -1.
         25    1    1    2    0    0  0.72072317597E+01 -0.60007495827E+02  0.19995880218E+03  0.24343657555E+03  0.12500000000E+03 0.  0.
         25    1    1    2    0    0  0.12559330737E+01  0.10506024706E+03  0.52049801114E+02  0.17138674009E+03  0.12500000000E+03 0.  0.
         25    1    1    2    0    0 -0.84631648334E+01 -0.45052751237E+02  0.12310593253E+03  0.18133241899E+03  0.12500000000E+03 0.  0.
</event>
<event>
 5    0  0.5474724E-005  0.3405048E+03  0.7546771E-02  0.1066581E+00
         21   -1    0    0  502  501  0.00000000000E+00  0.00000000000E+00  0.25618511966E+04  0.25618511966E+04  0.00000000000E+00 0.  1.
         21   -1    0    0  501  502 -0.00000000000E+00 -0.00000000000E+00 -0.45257702094E+02  0.45257702094E+02  0.00000000000E+00 0.  1.
         25    1    1    2    0    0 -0.10309903016E+03  0.10377114054E+03  0.34531279217E+03  0.39530214276E+03  0.12500000000E+03 0.  0.
         25    1    1    2    0    0 -0.42699835656E+01 -0.36263196120E+02  0.24630093212E+03  0.27860797066E+03  0.12500000000E+03 0.  0.
         25    1    1    2    0    0  0.10736901373E+03 -0.67507944417E+02  0.19249797702E+04  0.19331987852E+04  0.12500000000E+03 0.  0.
</event>
<event>
 5    0  0.5474724E-005  0.4532618E+03  0.7546771E-02  0.1026754E+00
         21   -1    0    0  502  501  0.00000000000E+00  0.00000000000E+00  0.88915700519E+03  0.88915700519E+03  0.00000000000E+00 0. -1.
         21   -1    0    0  501  502 -0.00000000000E+00 -0.00000000000E+00 -0.23105730401E+03  0.23105730401E+03  0.00000000000E+00 0. -1.
         25    1    1    2    0    0 -0.11301152464E+03 -0.25796974355E+03  0.86558546283E+02  0.32005839346E+03  0.12500000000E+03 0.  0.
         25    1    1    2    0    0  0.13562407219E+03  0.33894265950E+03  0.29676813959E+03  0.48679805265E+03  0.12500000000E+03 0.  0.
         25    1    1    2    0    0 -0.22612547551E+02 -0.80972915945E+02  0.27477301531E+03  0.31335786309E+03  0.12500000000E+03 0.  0.
</event>
<event>
 5    0  0.5474724E-005  0.4247333E+03  0.7546771E-02  0.1035537E+00
         21   -1    0    0  502  501  0.00000000000E+00  0.00000000000E+00  0.44156058529E+03  0.44156058529E+03  0.00000000000E+00 0.  1.
         21   -1    0    0  501  502 -0.00000000000E+00 -0.00000000000E+00 -0.40854724422E+03  0.40854724422E+03  0.00000000000E+00 0.  1.
         25    1    1    2    0    0  0.14315833882E+03 -0.21935996013E+03 -0.19178552753E+03  0.34787898852E+03  0.12500000000E+03 0.  0.
         25    1    1    2    0    0 -0.50482398135E+02 -0.35887759311E+02  0.12430136697E+03  0.18684815659E+03  0.12500000000E+03 0.  0.
         25    1    1    2    0    0 -0.92675940690E+02  0.25524771944E+03  0.10049750164E+03  0.31538068440E+03  0.12500000000E+03 0.  0.
</event>
<event>
 5    0  0.5474724E-005  0.3131270E+03  0.7546771E-02  0.1078857E+00
         21   -1    0    0  502  501  0.00000000000E+00  0.00000000000E+00  0.15209260721E+03  0.15209260721E+03  0.00000000000E+00 0.  1.
         21   -1    0    0  501  502 -0.00000000000E+00 -0.00000000000E+00 -0.64466317607E+03  0.64466317607E+03  0.00000000000E+00 0.  1.
         25    1    1    2    0    0  0.35409641528E+02  0.12364683593E+03 -0.32681415469E+03  0.37279334014E+03  0.12500000000E+03 0.  0.
         25    1    1    2    0    0  0.80926596793E+02  0.32064634559E+02 -0.27854096121E+02  0.15484865362E+03  0.12500000000E+03 0.  0.
         25    1    1    2    0    0 -0.11633623832E+03 -0.15571147048E+03 -0.13790231805E+03  0.26911378952E+03  0.12500000000E+03 0.  0.
</event>
<event>
 5    0  0.5474724E-005  0.3067157E+03  0.7546771E-02  0.1081931E+00
         21   -1    0    0  502  501  0.00000000000E+00  0.00000000000E+00  0.12834283627E+04  0.12834283627E+04  0.00000000000E+00 0. -1.
         21   -1    0    0  501  502 -0.00000000000E+00 -0.00000000000E+00 -0.73299404972E+02  0.73299404972E+02  0.00000000000E+00 0. -1.
         25    1    1    2    0    0 -0.46264061370E+02  0.11794494072E+03  0.44140991345E+03  0.47594021065E+03  0.12500000000E+03 0.  0.
         25    1    1    2    0    0  0.10595992351E+03  0.40454245388E+02  0.14496128684E+03  0.22249230558E+03  0.12500000000E+03 0.  0.
         25    1    1    2    0    0 -0.59695862138E+02 -0.15839918611E+03  0.62375775746E+03  0.65829525147E+03  0.12500000000E+03 0.  0.
</event>
<event>
 5    0  0.5474724E-005  0.6417189E+03  0.7546771E-02  0.9822443E-01
         21   -1    0    0  502  501  0.00000000000E+00  0.00000000000E+00  0.70668553046E+03  0.70668553046E+03  0.00000000000E+00 0.  1.
         21   -1    0    0  501  502 -0.00000000000E+00 -0.00000000000E+00 -0.58272470242E+03  0.58272470242E+03  0.00000000000E+00 0.  1.
         25    1    1    2    0    0 -0.32619632310E+03 -0.24917436161E+03 -0.10112839040E+03  0.44084447941E+03  0.12500000000E+03 0.  0.
         25    1    1    2    0    0  0.43806230271E+03  0.62991620087E+02  0.34093958777E+03  0.57247823345E+03  0.12500000000E+03 0.  0.
         25    1    1    2    0    0 -0.11186597962E+03  0.18618274152E+03 -0.11585036934E+03  0.27608752002E+03  0.12500000000E+03 0.  0.
</event>
<event>
 5    0  0.5474724E-005  0.2637887E+03  0.7546771E-02  0.1104888E+00
         21   -1    0    0  502  501  0.00000000000E+00  0.00000000000E+00  0.33959105631E+03  0.33959105631E+03  0.00000000000E+00 0.  1.
         21   -1    0    0  501  502 -0.00000000000E+00 -0.00000000000E+00 -0.20490664825E+03  0.20490664825E+03  0.00000000000E+00 0.  1.
         25    1    1    2    0    0 -0.62422756414E+02  0.40075669539E+02  0.15399570865E+03  0.21176009560E+03  0.12500000000E+03 0.  0.
         25    1    1    2    0    0  0.43532387642E+02 -0.12318718005E+03 -0.13827188926E+02  0.18134591602E+03  0.12500000000E+03 0.  0.
         25    1    1    2    0    0  0.18890368772E+02  0.83111510510E+02 -0.54841116616E+01  0.15139169294E+03  0.12500000000E+03 0.  0.
</event>
<event>
 5    0  0.5474724E-005  0.3262765E+03  0.7546771E-02  0.1072796E+00
         21   -1    0    0  502  501  0.00000000000E+00  0.00000000000E+00  0.10326331035E+03  0.10326331035E+03  0.00000000000E+00 0.  1.
         21   -1    0    0  501  502 -0.00000000000E+00 -0.00000000000E+00 -0.10309216327E+04  0.10309216327E+04  0.00000000000E+00 0.  1.
         25    1    1    2    0    0 -0.13752123201E+03 -0.12425138263E+02 -0.51270570528E+02  0.19318422481E+03  0.12500000000E+03 0.  0.
         25    1    1    2    0    0  0.54727204718E+02 -0.51089273872E+02 -0.21401062667E+03  0.25890293388E+03  0.12500000000E+03 0.  0.
         25    1    1    2    0    0  0.82794027288E+02  0.63514412135E+02 -0.66237712517E+03  0.68209778438E+03  0.12500000000E+03 0.  0.
</event>
<event>
 5    0  0.5474724E-005  0.2802267E+03  0.7546771E-02  0.1095565E+00
         21   -1    0    0  502  501  0.00000000000E+00  0.00000000000E+00  0.43019668813E+03  0.43019668813E+03  0.00000000000E+00 0.  1.
         21   -1    0    0  501  502 -0.00000000000E+00 -0.00000000000E+00 -0.18253741639E+03  0.18253741639E+03  0.00000000000E+00 0.  1.
         25    1    1    2    0    0 -0.61113468707E+02  0.12736677165E+03  0.56166997013E+02  0.19681687461E+03  0.12500000000E+03 0.  0.
         25    1    1    2    0    0  0.12616325006E+02  0.19862959393E+00 -0.28100816761E+02  0.12873953166E+03  0.12500000000E+03 0.  0.
         25    1    1    2    0    0  0.48497143700E+02 -0.12756540124E+03  0.21959309149E+03  0.28717769825E+03  0.12500000000E+03 0.  0.
</event>
<event>
 5    0  0.5474724E-005  0.2989808E+03  0.7546771E-02  0.1085751E+00
         21   -1    0    0  502  501  0.00000000000E+00  0.00000000000E+00  0.15981135753E+04  0.15981135753E+04  0.00000000000E+00 0.  1.
         21   -1    0    0  501  502 -0.00000000000E+00 -0.00000000000E+00 -0.55934380322E+02  0.55934380322E+02  0.00000000000E+00 0.  1.
         25    1    1    2    0    0  0.11954834447E+03  0.11790741975E+02  0.84989372488E+03  0.86739562591E+03  0.12500000000E+03 0.  0.
         25    1    1    2    0    0  0.50844033635E+01  0.60563597709E+02  0.48684297167E+03  0.50629524942E+03  0.12500000000E+03 0.  0.
         25    1    1    2    0    0 -0.12463274783E+03 -0.72354339684E+02  0.20544249841E+03  0.28035708027E+03  0.12500000000E+03 0.  0.
</event>
<event>
 5    0  0.5474724E-005  0.3620025E+03  0.7546771E-02  0.1057794E+00
         21   -1    0    0  502  501  0.00000000000E+00  0.00000000000E+00  0.21939853418E+03  0.21939853418E+03  0.00000000000E+00 0.  1.
         21   -1    0    0  501  502 -0.00000000000E+00 -0.00000000000E+00 -0.59729590241E+03  0.59729590241E+03  0.00000000000E+00 0.  1.
         25    1    1    2    0    0  0.14553017478E+03  0.16720388815E+03 -0.75669392567E+02  0.26549393393E+03  0.12500000000E+03 0.  0.
         25    1    1    2    0    0 -0.22360586549E+03 -0.66066901604E+02 -0.25239403086E+03  0.36563939255E+03  0.12500000000E+03 0.  0.
         25    1    1    2    0    0  0.78075690710E+02 -0.10113698654E+03 -0.49833944805E+02  0.18556111010E+03  0.12500000000E+03 0.  0.
</event>
<event>
 5    0  0.5474724E-005  0.2475840E+03  0.7546771E-02  0.1114841E+00
         21   -1    0    0  502  501  0.00000000000E+00  0.00000000000E+00  0.17912327590E+03  0.17912327590E+03  0.00000000000E+00 0.  1.
         21   -1    0    0  501  502 -0.00000000000E+00 -0.00000000000E+00 -0.34221038056E+03  0.34221038056E+03  0.00000000000E+00 0.  1.
         25    1    1    2    0    0  0.51548809842E+01 -0.88267786836E+01  0.16386731724E+01  0.12542794772E+03  0.12500000000E+03 0.  0.
         25    1    1    2    0    0  0.46471526810E+02  0.11479132297E+03 -0.32105000500E+02  0.17886414311E+03  0.12500000000E+03 0.  0.
         25    1    1    2    0    0 -0.51626407795E+02 -0.10596454429E+03 -0.13262077733E+03  0.21704156562E+03  0.12500000000E+03 0.  0.
</event>
<event>
 5    0  0.5474724E-005  0.3015654E+03  0.7546771E-02  0.1084461E+00
         21   -1    0    0  502  501  0.00000000000E+00  0.00000000000E+00  0.33584666735E+03  0.33584666735E+03  0.00000000000E+00 0. -1.
         21   -1    0    0  501  502 -0.00000000000E+00 -0.00000000000E+00 -0.27078333938E+03  0.27078333938E+03  0.00000000000E+00 0. -1.
         25    1    1    2    0    0  0.17855002656E+03  0.19142603322E+02  0.21269261303E+02  0.21982705184E+03  0.12500000000E+03 0.  0.
         25    1    1    2    0    0 -0.17448376454E+03 -0.98387367823E+02  0.21763105203E+02  0.23711451028E+03  0.12500000000E+03 0.  0.
         25    1    1    2    0    0 -0.40662620125E+01  0.79244764501E+02  0.22030961465E+02  0.14968844461E+03  0.12500000000E+03 0.  0.
</event>
<event>
 5    0  0.5474724E-005  0.3305221E+03  0.7546771E-02  0.1070906E+00
         21   -1    0    0  502  501  0.00000000000E+00  0.00000000000E+00  0.14992037460E+03  0.14992037460E+03  0.00000000000E+00 0.  1.
         21   -1    0    0  501  502 -0.00000000000E+00 -0.00000000000E+00 -0.72868587843E+03  0.72868587843E+03  0.00000000000E+00 0.  1.
         25    1    1    2    0    0 -0.20634087759E+02 -0.21177391902E+03 -0.13734045276E+03  0.28242053452E+03  0.12500000000E+03 0.  0.
         25    1    1    2    0    0  0.92601072038E+02  0.17025256469E+03 -0.35397513144E+03  0.42247400868E+03  0.12500000000E+03 0.  0.
         25    1    1    2    0    0 -0.71966984279E+02  0.41521354330E+02 -0.87449919622E+02  0.17371170983E+03  0.12500000000E+03 0.  0.
</event>
<event>
 5    0  0.5474724E-005  0.2942534E+03  0.7546771E-02  0.1088149E+00
         21   -1    0    0  502  501  0.00000000000E+00  0.00000000000E+00  0.29866486015E+03  0.29866486015E+03  0.00000000000E+00 0.  1.
         21   -1    0    0  501  502 -0.00000000000E+00 -0.00000000000E+00 -0.28990715093E+03  0.28990715093E+03  0.00000000000E+00 0.  1.
         25    1    1    2    0    0 -0.53063362338E+02  0.10584487882E+02  0.36477338665E+02  0.14100832615E+03  0.12500000000E+03 0.  0.
         25    1    1    2    0    0 -0.15554365467E+03 -0.21958659559E+02 -0.36059607679E+02  0.20396398345E+03  0.12500000000E+03 0.  0.
         25    1    1    2    0    0  0.20860701701E+03  0.11374171678E+02  0.83399782330E+01  0.24359970148E+03  0.12500000000E+03 0.  0.
</event>
<event>
 5    0  0.5474724E-005  0.3458624E+03  0.7546771E-02  0.1064326E+00
         21   -1    0    0  502  501  0.00000000000E+00  0.00000000000E+00  0.24365269955E+03  0.24365269955E+03  0.00000000000E+00 0.  1.
         21   -1    0    0  501  502 -0.00000000000E+00 -0.00000000000E+00 -0.49094803129E+03  0.49094803129E+03  0.00000000000E+00 0.  1.
         25    1    1    2    0    0 -0.84057471967E+02  0.78472189488E+01 -0.36698094227E+02  0.15523848607E+03  0.12500000000E+03 0.  0.
         25    1    1    2    0    0 -0.12279262265E+03 -0.14049133960E+03 -0.20428032340E+03  0.30359725824E+03  0.12500000000E+03 0.  0.
         25    1    1    2    0    0  0.20685009462E+03  0.13264412065E+03 -0.63169141118E+01  0.27576498652E+03  0.12500000000E+03 0.  0.
</event>
<event>
 5    0  0.5474724E-005  0.2819062E+03  0.7546771E-02  0.1094652E+00
         21   -1    0    0  502  501  0.00000000000E+00  0.00000000000E+00  0.10652163346E+04  0.10652163346E+04  0.00000000000E+00 0.  1.
         21   -1    0    0  501  502 -0.00000000000E+00 -0.00000000000E+00 -0.74605602210E+02  0.74605602210E+02  0.00000000000E+00 0.  1.
         25    1    1    2    0    0  0.41246239536E+02 -0.17358115072E+03  0.53314915392E+03  0.57593809432E+03  0.12500000000E+03 0.  0.
         25    1    1    2    0    0  0.26870076762E+02  0.12477391621E+03  0.23202682016E+03  0.29283438403E+03  0.12500000000E+03 0.  0.
         25    1    1    2    0    0 -0.68116316298E+02  0.48807234504E+02  0.22543475835E+03  0.27104945851E+03  0.12500000000E+03 0.  0.
</event>
<event>
 5    0  0.5474724E-005  0.2394351E+03  0.7546771E-02  0.1120170E+00
         21   -1    0    0  502  501  0.00000000000E+00  0.00000000000E+00  0.61957363963E+03  0.61957363963E+03  0.00000000000E+00 0. -1.
         21   -1    0    0  501  502 -0.00000000000E+00 -0.00000000000E+00 -0.92530052848E+02  0.92530052848E+02  0.00000000000E+00 0. -1.
         25    1    1    2    0    0 -0.54378602058E+02  0.93329089883E+02  0.14158198773E+03  0.21757254107E+03  0.12500000000E+03 0.  0.
         25    1    1    2    0    0  0.30577304959E+02 -0.93880490725E+02  0.30468212121E+03  0.34380912306E+03  0.12500000000E+03 0.  0.
         25    1    1    2    0    0  0.23801297099E+02  0.55140084244E+00  0.80779477844E+02  0.15072202834E+03  0.12500000000E+03 0.  0.
</event>
<event>
 5    0  0.5474724E-005  0.5234091E+03  0.7546771E-02  0.1007843E+00
         21   -1    0    0  502  501  0.00000000000E+00  0.00000000000E+00  0.62991840506E+03  0.62991840506E+03  0.00000000000E+00 0.  1.
         21   -1    0    0  501  502 -0.00000000000E+00 -0.00000000000E+00 -0.43490885438E+03  0.43490885438E+03  0.00000000000E+00 0.  1.
         25    1    1    2    0    0  0.79997091511E+02  0.12872813363E+02 -0.16081462417E+03  0.21920672280E+03  0.12500000000E+03 0.  0.
         25    1    1    2    0    0 -0.21634183503E+03 -0.16504886749E+03  0.48762234653E+03  0.57222851299E+03  0.12500000000E+03 0.  0.
         25    1    1    2    0    0  0.13634474352E+03  0.15217605412E+03 -0.13179817168E+03  0.27339202365E+03  0.12500000000E+03 0.  0.
</event>
<event>
 5    0  0.5474724E-005  0.3176954E+03  0.7546771E-02  0.1076715E+00
         21   -1    0    0  502  501  0.00000000000E+00  0.00000000000E+00  0.11992807493E+04  0.11992807493E+04  0.00000000000E+00 0. -1.
         21   -1    0    0  501  502 -0.00000000000E+00 -0.00000000000E+00 -0.84159090314E+02  0.84159090314E+02  0.00000000000E+00 0. -1.
         25    1    1    2    0    0 -0.11108341464E+02  0.69882080915E+02  0.13655861368E+03  0.19819221845E+03  0.12500000000E+03 0.  0.
         25    1    1    2    0    0  0.68098693251E+02  0.13788232884E+03  0.60184410875E+03  0.63363262217E+03  0.12500000000E+03 0.  0.
         25    1    1    2    0    0 -0.56990351787E+02 -0.20776440976E+03  0.37671893651E+03  0.45161499896E+03  0.12500000000E+03 0.  0.
</event>
<event>
 5    0  0.5474724E-005  0.3650704E+03  0.7546771E-02  0.1056594E+00
         21   -1    0    0  502  501  0.00000000000E+00  0.00000000000E+00  0.15308504681E+03  0.15308504681E+03  0.00000000000E+00 0. -1.
         21   -1    0    0  501  502 -0.00000000000E+00 -0.00000000000E+00 -0.87060356648E+03  0.87060356648E+03  0.00000000000E+00 0. -1.
         25    1    1    2    0    0  0.19041208332E+01 -0.64050212172E+01 -0.31063949441E+03  0.33491274305E+03  0.12500000000E+03 0.  0.
         25    1    1    2    0    0 -0.18919765692E+03 -0.15778504017E+03 -0.22123932297E+03  0.35392613680E+03  0.12500000000E+03 0.  0.
         25    1    1    2    0    0  0.18729353608E+03  0.16419006139E+03 -0.18563970230E+03  0.33484973344E+03  0.12500000000E+03 0.  0.
</event>
<event>
 5    0  0.5474724E-005  0.1943672E+03  0.7546771E-02  0.1154580E+00
         21   -1    0    0  502  501  0.00000000000E+00  0.00000000000E+00  0.83339299199E+03  0.83339299199E+03  0.00000000000E+00 0. -1.
         21   -1    0    0  501  502 -0.00000000000E+00 -0.00000000000E+00 -0.45331067973E+02  0.45331067973E+02  0.00000000000E+00 0. -1.
         25    1    1    2    0    0  0.92318152380E+01  0.17067927623E+01  0.29117088047E+03  0.31700728885E+03  0.12500000000E+03 0.  0.
         25    1    1    2    0    0  0.12101516632E+02  0.26397064824E+02  0.29434718346E+03  0.32110514812E+03  0.12500000000E+03 0.  0.
         25    1    1    2    0    0 -0.21333331870E+02 -0.28103857587E+02  0.20254386009E+03  0.24061162300E+03  0.12500000000E+03 0.  0.
</event>
<event>
 5    0  0.5474724E-005  0.2244691E+03  0.7546771E-02  0.1130594E+00
         21   -1    0    0  502  501  0.00000000000E+00  0.00000000000E+00  0.18835446456E+04  0.18835446456E+04  0.00000000000E+00 0. -1.
         21   -1    0    0  501  502 -0.00000000000E+00 -0.00000000000E+00 -0.26750828332E+02  0.26750828332E+02  0.00000000000E+00 0. -1.
         25    1    1    2    0    0  0.35480264803E+02  0.57426221381E+02  0.59641004077E+03  0.61309587898E+03  0.12500000000E+03 0.  0.
         25    1    1    2    0    0 -0.30911080548E+02  0.59220157235E+01  0.92125657873E+03  0.93023075042E+03  0.12500000000E+03 0.  0.
         25    1    1    2    0    0 -0.45691842546E+01 -0.63348237105E+02  0.33912719773E+03  0.36696884449E+03  0.12500000000E+03 0.  0.
</event>
<event>
 5    0  0.5474724E-005  0.3812623E+03  0.7546771E-02  0.1050468E+00
         21   -1    0    0  502  501  0.00000000000E+00  0.00000000000E+00  0.28056836125E+03  0.28056836125E+03  0.00000000000E+00 0.  1.
         21   -1    0    0  501  502 -0.00000000000E+00 -0.00000000000E+00 -0.51809466066E+03  0.51809466066E+03  0.00000000000E+00 0.  1.
         25    1    1    2    0    0 -0.25573997218E+02  0.74816314165E+01 -0.34409500915E+03  0.36706454400E+03  0.12500000000E+03 0.  0.
         25    1    1    2    0    0  0.73009540405E+02 -0.66193068280E+02 -0.92970155843E+02  0.18433763901E+03  0.12500000000E+03 0.  0.
         25    1    1    2    0    0 -0.47435543187E+02  0.58711436864E+02  0.19953886558E+03  0.24726083890E+03  0.12500000000E+03 0.  0.
</event>
<event>
 5    0  0.5474724E-005  0.4267501E+03  0.7546771E-02  0.1034892E+00
         21   -1    0    0  502  501  0.00000000000E+00  0.00000000000E+00  0.20638861832E+04  0.20638861832E+04  0.00000000000E+00 0.  1.
         21   -1    0    0  501  502 -0.00000000000E+00 -0.00000000000E+00 -0.88239208977E+02  0.88239208977E+02  0.00000000000E+00 0.  1.
         25    1    1    2    0    0  0.80467369666E+02 -0.69045821958E+02  0.19061893410E+03  0.25140187180E+03  0.12500000000E+03 0.  0.
         25    1    1    2    0    0 -0.65295078560E+02 -0.14604045976E+03  0.16493540169E+03  0.26157207400E+03  0.12500000000E+03 0.  0.
         25    1    1    2    0    0 -0.15172291106E+02  0.21508628171E+03  0.16200926385E+04  0.16391514464E+04  0.12500000000E+03 0.  0.
</event>
<event>
 5    0  0.5474724E-005  0.2271070E+03  0.7546771E-02  0.1128693E+00
         21   -1    0    0  502  501  0.00000000000E+00  0.00000000000E+00  0.12215800024E+03  0.12215800024E+03  0.00000000000E+00 0.  1.
         21   -1    0    0  501  502 -0.00000000000E+00 -0.00000000000E+00 -0.42222050001E+03  0.42222050001E+03  0.00000000000E+00 0.  1.
         25    1    1    2    0    0 -0.44109272187E+02 -0.21788114373E+02 -0.16788641824E+03  0.21501441638E+03  0.12500000000E+03 0.  0.
         25    1    1    2    0    0  0.44831699684E+02  0.32572551010E+01 -0.15154224183E+03  0.20152057480E+03  0.12500000000E+03 0.  0.
         25    1    1    2    0    0 -0.72242749703E+00  0.18530859272E+02  0.19366160303E+02  0.12784350907E+03  0.12500000000E+03 0.  0.
</event>
<event>
 5    0  0.5474724E-005  0.4199093E+03  0.7546771E-02  0.1037096E+00
         21   -1    0    0  502  501  0.00000000000E+00  0.00000000000E+00  0.18310764853E+04  0.18310764853E+04  0.00000000000E+00 0.  1.
         21   -1    0    0  501  502 -0.00000000000E+00 -0.00000000000E+00 -0.96295191314E+02  0.96295191314E+02  0.00000000000E+00 0.  1.
         25    1    1    2    0    0  0.27086337403E+02 -0.22408696743E+03  0.16882712578E+03  0.30834434816E+03  0.12500000000E+03 0.  0.
         25    1    1    2    0    0 -0.17313227754E+02  0.63983178032E+02  0.24837461499E+03  0.28584706452E+03  0.12500000000E+03 0.  0.
         25    1    1    2    0    0 -0.97731096488E+01  0.16010378940E+03  0.13175795532E+04  0.13331802639E+04  0.12500000000E+03 0.  0.
</event>
<event>
 5    0  0.5474724E-005  0.2290450E+03  0.7546771E-02  0.1127314E+00
         21   -1    0    0  502  501  0.00000000000E+00  0.00000000000E+00  0.55056332428E+03  0.55056332428E+03  0.00000000000E+00 0. -1.
         21   -1    0    0  501  502 -0.00000000000E+00 -0.00000000000E+00 -0.95287160981E+02  0.95287160981E+02  0.00000000000E+00 0. -1.
         25    1    1    2    0    0 -0.52133780522E+02  0.12546698462E+02  0.88608518188E+02  0.16233243733E+03  0.12500000000E+03 0.  0.
         25    1    1    2    0    0 -0.15474399131E+01  0.35582781316E+01  0.31180725468E+03  0.33595210966E+03  0.12500000000E+03 0.  0.
         25    1    1    2    0    0  0.53681220435E+02 -0.16104976593E+02  0.54860390422E+02  0.14756593826E+03  0.12500000000E+03 0.  0.
</event>
<event>
 5    0  0.5474724E-005  0.3982052E+03  0.7546771E-02  0.1044403E+00
         21   -1    0    0  502  501  0.00000000000E+00  0.00000000000E+00  0.54090716665E+03  0.54090716665E+03  0.00000000000E+00 0.  1.
         21   -1    0    0  501  502 -0.00000000000E+00 -0.00000000000E+00 -0.29315082891E+03  0.29315082891E+03  0.00000000000E+00 0.  1.
         25    1    1    2    0    0  0.10128049299E+03 -0.15066454817E+03  0.69606862924E+01  0.22052436484E+03  0.12500000000E+03 0.  0.
         25    1    1    2    0    0 -0.47175307932E+02 -0.16416646161E+03  0.38019936814E+02  0.21505034850E+03  0.12500000000E+03 0.  0.
         25    1    1    2    0    0 -0.54105185058E+02  0.31483100977E+03  0.20277571463E+03  0.39848328222E+03  0.12500000000E+03 0.  0.
</event>
<event>
 5    0  0.5474724E-005  0.4091939E+03  0.7546771E-02  0.1040642E+00
         21   -1    0    0  502  501  0.00000000000E+00  0.00000000000E+00  0.30305229459E+03  0.30305229459E+03  0.00000000000E+00 0.  1.
         21   -1    0    0  501  502 -0.00000000000E+00 -0.00000000000E+00 -0.55251070606E+03  0.55251070606E+03  0.00000000000E+00 0.  1.
         25    1    1    2    0    0 -0.21970564635E+03 -0.17721997816E+03 -0.97793012085E+02  0.32383014824E+03  0.12500000000E+03 0.  0.
         25    1    1    2    0    0 -0.33501332801E+02 -0.19852009172E+02  0.40942175341E+02  0.13717763407E+03  0.12500000000E+03 0.  0.
         25    1    1    2    0    0  0.25320697915E+03  0.19707198733E+03 -0.19260757472E+03  0.39455521834E+03  0.12500000000E+03 0.  0.
</event>
<event>
 5    0  0.5474724E-005  0.3320308E+03  0.7546771E-02  0.1070242E+00
         21   -1    0    0  502  501  0.00000000000E+00  0.00000000000E+00  0.20617001339E+03  0.20617001339E+03  0.00000000000E+00 0. -1.
         21   -1    0    0  501  502 -0.00000000000E+00 -0.00000000000E+00 -0.53472607875E+03  0.53472607875E+03  0.00000000000E+00 0. -1.
         25    1    1    2    0    0  0.17261068709E+01  0.41451467726E+02 -0.19246621456E+03  0.23321545268E+03  0.12500000000E+03 0.  0.
         25    1    1    2    0    0  0.43569762895E+02  0.10365473575E+03 -0.23378263477E+03  0.28796171413E+03  0.12500000000E+03 0.  0.
         25    1    1    2    0    0 -0.45295869766E+02 -0.14510620348E+03  0.97692783976E+02  0.21971892533E+03  0.12500000000E+03 0.  0.
</event>
<event>
 5    0  0.5474724E-005  0.4115747E+03  0.7546771E-02  0.1039844E+00
         21   -1    0    0  502  501  0.00000000000E+00  0.00000000000E+00  0.15789485733E+04  0.15789485733E+04  0.00000000000E+00 0. -1.
         21   -1    0    0  501  502 -0.00000000000E+00 -0.00000000000E+00 -0.10728262127E+03  0.10728262127E+03  0.00000000000E+00 0. -1.
         25    1    1    2    0    0 -0.84586194431E+02  0.60680446247E+02  0.52144511385E+02  0.17082444472E+03  0.12500000000E+03 0.  0.
         25    1    1    2    0    0  0.80835523892E+02 -0.19305118562E+03  0.12247135235E+04  0.12487399076E+04  0.12500000000E+03 0.  0.
         25    1    1    2    0    0  0.37506705397E+01  0.13237073938E+03  0.19480791712E+03  0.26666684223E+03  0.12500000000E+03 0.  0.
</event>
<event>
 5    0  0.5474724E-005  0.3482154E+03  0.7546771E-02  0.1063350E+00
         21   -1    0    0  502  501  0.00000000000E+00  0.00000000000E+00  0.40227580016E+03  0.40227580016E+03  0.00000000000E+00 0.  1.
         21   -1    0    0  501  502 -0.00000000000E+00 -0.00000000000E+00 -0.30141998758E+03  0.30141998758E+03  0.00000000000E+00 0.  1.
         25    1    1    2    0    0 -0.69495306365E+02 -0.87119688935E+01  0.41169939222E+02  0.14908205762E+03  0.12500000000E+03 0.  0.
         25    1    1    2    0    0 -0.16191166666E+03 -0.21876412422E+02  0.17088064495E+03  0.26743066399E+03  0.12500000000E+03 0.  0.
         25    1    1    2    0    0  0.23140697303E+03  0.30588381316E+02 -0.11119477160E+03  0.28718306613E+03  0.12500000000E+03 0.  0.
</event>
<event>
 5    0  0.6220677E-005  0.5821782E+03  0.7546771E-02  0.9943086E-01
         21   -1    0    0  502  501  0.00000000000E+00  0.00000000000E+00  0.41545339895E+03  0.41545339895E+03  0.00000000000E+00 0. -1.
         21   -1    0    0  501  502 -0.00000000000E+00 -0.00000000000E+00 -0.81581114698E+03  0.81581114698E+03  0.00000000000E+00 0. -1.
         25    1    1    2    0    0 -0.29942921342E+02  0.30726523183E+03  0.69346328378E+02  0.34020936861E+03  0.12500000000E+03 0.  0.
         25    1    1    2    0    0 -0.30116268312E+03 -0.16661415812E+03 -0.15753600088E+03  0.39862492517E+03  0.12500000000E+03 0.  0.
         25    1    1    2    0    0  0.33110560447E+03 -0.14065107371E+03 -0.31216807553E+03  0.49243025215E+03  0.12500000000E+03 0.  0.
</event>
<event>
 5    0  0.5474724E-005  0.2800859E+03  0.7546771E-02  0.1095642E+00
         21   -1    0    0  502  501  0.00000000000E+00  0.00000000000E+00  0.45534228972E+03  0.45534228972E+03  0.00000000000E+00 0.  1.
         21   -1    0    0  501  502 -0.00000000000E+00 -0.00000000000E+00 -0.17228377594E+03  0.17228377594E+03  0.00000000000E+00 0.  1.
         25    1    1    2    0    0  0.76107941542E+02  0.90590532690E+02  0.53258629803E+02  0.18016810214E+03  0.12500000000E+03 0.  0.
         25    1    1    2    0    0  0.92774548326E+02 -0.66583740961E+02  0.13083269692E+03  0.21396893690E+03  0.12500000000E+03 0.  0.
         25    1    1    2    0    0 -0.16888248987E+03 -0.24006791728E+02  0.98967187060E+02  0.23348902661E+03  0.12500000000E+03 0.  0.
</event>
<event>
 5    0  0.5474724E-005  0.2262230E+03  0.7546771E-02  0.1129327E+00
         21   -1    0    0  502  501  0.00000000000E+00  0.00000000000E+00  0.13612077611E+04  0.13612077611E+04  0.00000000000E+00 0.  1.
         21   -1    0    0  501  502 -0.00000000000E+00 -0.00000000000E+00 -0.37596642304E+02  0.37596642304E+02  0.00000000000E+00 0.  1.
         25    1    1    2    0    0 -0.48640688328E+02 -0.30316523025E+02  0.22533391408E+03  0.26397988742E+03  0.12500000000E+03 0.  0.
         25    1    1    2    0    0  0.42597752208E+02  0.34844744037E+02  0.34223522025E+03  0.36848157438E+03  0.12500000000E+03 0.  0.
         25    1    1    2    0    0  0.60429361200E+01 -0.45282210122E+01  0.75604198448E+03  0.76634294161E+03  0.12500000000E+03 0.  0.
</event>
<event>
 5    0  0.5474724E-005  0.2568667E+03  0.7546771E-02  0.1109041E+00
         21   -1    0    0  502  501  0.00000000000E+00  0.00000000000E+00  0.24295451695E+03  0.24295451695E+03  0.00000000000E+00 0. -1.
         21   -1    0    0  501  502 -0.00000000000E+00 -0.00000000000E+00 -0.27157559669E+03  0.27157559669E+03  0.00000000000E+00 0. -1.
         25    1    1    2    0    0 -0.29714816386E+02 -0.43222041435E+02  0.69455496012E+02  0.15231605662E+03  0.12500000000E+03 0.  0.
         25    1    1    2    0    0 -0.50580983913E+02  0.11272058409E+03 -0.91303001706E+02  0.19805454837E+03  0.12500000000E+03 0.  0.
         25    1    1    2    0    0  0.80295800298E+02 -0.69498542651E+02 -0.67735740470E+01  0.16415950865E+03  0.12500000000E+03 0.  0.
</event>
<event>
 5    0  0.6522986E-005  0.9537217E+03  0.7546771E-02  0.9360811E-01
         21   -1    0    0  502  501  0.00000000000E+00  0.00000000000E+00  0.20872960674E+04  0.20872960674E+04  0.00000000000E+00 0. -1.
         21   -1    0    0  501  502 -0.00000000000E+00 -0.00000000000E+00 -0.43577193517E+03  0.43577193517E+03  0.00000000000E+00 0. -1.
         25    1    1    2    0    0  0.15488162173E+03  0.40600742311E+03  0.10807366799E+04  0.11715148807E+04  0.12500000000E+03 0.  0.
         25    1    1    2    0    0  0.47568879370E+03 -0.15014812631E+03  0.36188532070E+03  0.62881656596E+03  0.12500000000E+03 0.  0.
         25    1    1    2    0    0 -0.63057041543E+03 -0.25585929680E+03  0.20890213154E+03  0.72273655584E+03  0.12500000000E+03 0.  0.
</event>
<event>
 5    0  0.5474724E-005  0.4748123E+03  0.7546771E-02  0.1020571E+00
         21   -1    0    0  502  501  0.00000000000E+00  0.00000000000E+00  0.37284331545E+04  0.37284331545E+04  0.00000000000E+00 0. -1.
         21   -1    0    0  501  502 -0.00000000000E+00 -0.00000000000E+00 -0.60466887520E+02  0.60466887520E+02  0.00000000000E+00 0. -1.
         25    1    1    2    0    0  0.72700261547E+02 -0.27878823612E+02  0.20776173900E+03  0.25466153425E+03  0.12500000000E+03 0.  0.
         25    1    1    2    0    0  0.41131054885E+02 -0.30038666474E+03  0.11970421758E+04  0.12411522400E+04  0.12500000000E+03 0.  0.
         25    1    1    2    0    0 -0.11383131643E+03  0.32826548835E+03  0.22631623521E+04  0.22930862678E+04  0.12500000000E+03 0.  0.
</event>
<event>
 5    0  0.5474724E-005  0.3639308E+03  0.7546771E-02  0.1057038E+00
         21   -1    0    0  502  501  0.00000000000E+00  0.00000000000E+00  0.16899845569E+03  0.16899845569E+03  0.00000000000E+00 0. -1.
         21   -1    0    0  501  502 -0.00000000000E+00 -0.00000000000E+00 -0.78370897313E+03  0.78370897313E+03  0.00000000000E+00 0. -1.
         25    1    1    2    0    0 -0.11392722501E+03  0.55212699846E+02  0.64083042330E+02  0.18910180099E+03  0.12500000000E+03 0.  0.
         25    1    1    2    0    0  0.26597781983E+02  0.74870622793E+02 -0.32022999142E+03  0.35282474342E+03  0.12500000000E+03 0.  0.
         25    1    1    2    0    0  0.87329443031E+02 -0.13008332264E+03 -0.35856356835E+03  0.41078088441E+03  0.12500000000E+03 0.  0.
</event>
<event>
 5    0  0.5474724E-005  0.3417137E+03  0.7546771E-02  0.1066068E+00
         21   -1    0    0  502  501  0.00000000000E+00  0.00000000000E+00  0.11542218900E+04  0.11542218900E+04  0.00000000000E+00 0. -1.
         21   -1    0    0  501  502 -0.00000000000E+00 -0.00000000000E+00 -0.10116622919E+03  0.10116622919E+03  0.00000000000E+00 0. -1.
         25    1    1    2    0    0  0.24773539701E+02  0.17664324558E+02  0.18962077750E+03  0.22914361411E+03  0.12500000000E+03 0.  0.
         25    1    1    2    0    0 -0.21128847107E+03 -0.56628001564E+02  0.19074574322E+03  0.31600393529E+03  0.12500000000E+03 0.  0.
         25    1    1    2    0    0  0.18651493136E+03  0.38963677006E+02  0.67268914013E+03  0.71024056981E+03  0.12500000000E+03 0.  0.
</event>
<event>
 5    0  0.5474724E-005  0.3368148E+03  0.7546771E-02  0.1068161E+00
         21   -1    0    0  502  501  0.00000000000E+00  0.00000000000E+00  0.86849561643E+03  0.86849561643E+03  0.00000000000E+00 0.  1.
         21   -1    0    0  501  502 -0.00000000000E+00 -0.00000000000E+00 -0.13062147877E+03  0.13062147877E+03  0.00000000000E+00 0.  1.
         25    1    1    2    0    0 -0.12647694562E+03 -0.11102407415E+03  0.61418468025E+03  0.64897656681E+03  0.12500000000E+03 0.  0.
         25    1    1    2    0    0  0.71296779695E+02  0.12436634329E+03  0.75658490209E+02  0.20469349105E+03  0.12500000000E+03 0.  0.
         25    1    1    2    0    0  0.55180165928E+02 -0.13342269144E+02  0.48030967201E+02  0.14544703733E+03  0.12500000000E+03 0.  0.
</event>
<event>
 5    0  0.5474724E-005  0.2943767E+03  0.7546771E-02  0.1088086E+00
         21   -1    0    0  502  501  0.00000000000E+00  0.00000000000E+00  0.46400724770E+03  0.46400724770E+03  0.00000000000E+00 0. -1.
         21   -1    0    0  501  502 -0.00000000000E+00 -0.00000000000E+00 -0.18675921361E+03  0.18675921361E+03  0.00000000000E+00 0. -1.
         25    1    1    2    0    0 -0.24727882559E+01 -0.25511836661E+02  0.39392987490E+02  0.13354316139E+03  0.12500000000E+03 0.  0.
         25    1    1    2    0    0  0.49331251230E+02  0.18813436887E+03  0.53094546107E+02  0.23721750341E+03  0.12500000000E+03 0.  0.
         25    1    1    2    0    0 -0.46858462974E+02 -0.16262253221E+03  0.18476050050E+03  0.28000579651E+03  0.12500000000E+03 0.  0.
</event>
<event>
 5    0  0.5474724E-005  0.2417493E+03  0.7546771E-02  0.1118633E+00
         21   -1    0    0  502  501  0.00000000000E+00  0.00000000000E+00  0.25609476537E+03  0.25609476537E+03  0.00000000000E+00 0.  1.
         21   -1    0    0  501  502 -0.00000000000E+00 -0.00000000000E+00 -0.22820740767E+03  0.22820740767E+03  0.00000000000E+00 0.  1.
         25    1    1    2    0    0  0.95286354852E+02  0.81537090342E+02 -0.36525728326E+02  0.18079523045E+03  0.12500000000E+03 0.  0.
         25    1    1    2    0    0 -0.97251606810E+02 -0.58248362063E+02  0.46874960973E+02  0.17513711393E+03  0.12500000000E+03 0.  0.
         25    1    1    2    0    0  0.19652519586E+01 -0.23288728279E+02  0.17538125056E+02  0.12836982866E+03  0.12500000000E+03 0.  0.
</event>
<event>
 5    0  0.5474724E-005  0.3290471E+03  0.7546771E-02  0.1071559E+00
         21   -1    0    0  502  501  0.00000000000E+00  0.00000000000E+00  0.16215038674E+03  0.16215038674E+03  0.00000000000E+00 0. -1.
         21   -1    0    0  501  502 -0.00000000000E+00 -0.00000000000E+00 -0.66772586185E+03  0.66772586185E+03  0.00000000000E+00 0. -1.
         25    1    1    2    0    0 -0.12705897456E+02  0.75268690317E+02 -0.74618321074E+02  0.16437673014E+03  0.12500000000E+03 0.  0.
         25    1    1    2    0    0 -0.13689024459E+03 -0.39954377488E+02  0.16992378299E+01  0.18963960228E+03  0.12500000000E+03 0.  0.
         25    1    1    2    0    0  0.14959614204E+03 -0.35314312829E+02 -0.43265639186E+03  0.47585991618E+03  0.12500000000E+03 0.  0.
</event>
<event>
 5    0  0.5474724E-005  0.3117106E+03  0.7546771E-02  0.1079529E+00
         21   -1    0    0  502  501  0.00000000000E+00  0.00000000000E+00  0.60057620076E+03  0.60057620076E+03  0.00000000000E+00 0.  1.
         21   -1    0    0  501  502 -0.00000000000E+00 -0.00000000000E+00 -0.16178382224E+03  0.16178382224E+03  0.00000000000E+00 0.  1.
         25    1    1    2    0    0 -0.11268806555E+03  0.19519275209E+02  0.28421727220E+03  0.33088375609E+03  0.12500000000E+03 0.  0.
         25    1    1    2    0    0 -0.85268591225E+02  0.24364074174E+02  0.11122229143E+03  0.18936667835E+03  0.12500000000E+03 0.  0.
         25    1    1    2    0    0  0.19795665678E+03 -0.43883349383E+02  0.43352814890E+02  0.24210958856E+03  0.12500000000E+03 0.  0.
</event>
<event>
 5    0  0.5474724E-005  0.2773688E+03  0.7546771E-02  0.1097135E+00
         21   -1    0    0  502  501  0.00000000000E+00  0.00000000000E+00  0.15052536979E+04  0.15052536979E+04  0.00000000000E+00 0. -1.
         21   -1    0    0  501  502 -0.00000000000E+00 -0.00000000000E+00 -0.51109948585E+02  0.51109948585E+02  0.00000000000E+00 0. -1.
         25    1    1    2    0    0  0.35297166509E+02  0.60281247404E+02  0.31376776826E+03  0.34489843599E+03  0.12500000000E+03 0.  0.
         25    1    1    2    0    0  0.38679557522E+02  0.10947320970E+03  0.33870134527E+03  0.37924147070E+03  0.12500000000E+03 0.  0.
         25    1    1    2    0    0 -0.73976724032E+02 -0.16975445711E+03  0.80167463577E+03  0.83222373977E+03  0.12500000000E+03 0.  0.
</event>
<event>
 5    0  0.5474724E-005  0.4194692E+03  0.7546771E-02  0.1037239E+00
         21   -1    0    0  502  501  0.00000000000E+00  0.00000000000E+00  0.10193198149E+04  0.10193198149E+04  0.00000000000E+00 0.  1.
         21   -1    0    0  501  502 -0.00000000000E+00 -0.00000000000E+00 -0.17261946637E+03  0.17261946637E+03  0.00000000000E+00 0.  1.
         25    1    1    2    0    0  0.31400412690E+03  0.88243725511E+02  0.37047968222E+03  0.50918144285E+03  0.12500000000E+03 0.  0.
         25    1    1    2    0    0 -0.11400520367E+03 -0.12177004295E+03  0.36393136943E+03  0.41939977525E+03  0.12500000000E+03 0.  0.
         25    1    1    2    0    0 -0.19999892323E+03  0.33526317434E+02  0.11228929691E+03  0.26335806320E+03  0.12500000000E+03 0.  0.
</event>
<event>
 5    0  0.5474724E-005  0.4198031E+03  0.7546771E-02  0.1037130E+00
         21   -1    0    0  502  501  0.00000000000E+00  0.00000000000E+00  0.43777301172E+03  0.43777301172E+03  0.00000000000E+00 0. -1.
         21   -1    0    0  501  502 -0.00000000000E+00 -0.00000000000E+00 -0.40257084352E+03  0.40257084352E+03  0.00000000000E+00 0. -1.
         25    1    1    2    0    0 -0.15324230167E+03  0.27174474692E+02  0.16623000944E+03  0.25976734039E+03  0.12500000000E+03 0.  0.
         25    1    1    2    0    0 -0.79625215298E+01  0.12575397295E+03  0.12668596153E+03  0.21806374369E+03  0.12500000000E+03 0.  0.
         25    1    1    2    0    0  0.16120482320E+03 -0.15292844765E+03 -0.25771380277E+03  0.36251277117E+03  0.12500000000E+03 0.  0.
</event>
<event>
 5    0  0.5474724E-005  0.2503027E+03  0.7546771E-02  0.1113114E+00
         21   -1    0    0  502  501  0.00000000000E+00  0.00000000000E+00  0.14646121080E+04  0.14646121080E+04  0.00000000000E+00 0. -1.
         21   -1    0    0  501  502 -0.00000000000E+00 -0.00000000000E+00 -0.42776801785E+02  0.42776801785E+02  0.00000000000E+00 0. -1.
         25    1    1    2    0    0  0.39533243170E+02  0.40500327645E+01  0.22682825792E+03  0.26202163779E+03  0.12500000000E+03 0.  0.
         25    1    1    2    0    0  0.52430335991E+02 -0.84876140617E+02  0.38912465653E+03  0.42070880392E+03  0.12500000000E+03 0.  0.
         25    1    1    2    0    0 -0.91963579161E+02  0.80826107852E+02  0.80588239181E+03  0.82465846812E+03  0.12500000000E+03 0.  0.
</event>
<event>
 5    0  0.5474724E-005  0.3861919E+03  0.7546771E-02  0.1048669E+00
         21   -1    0    0  502  501  0.00000000000E+00  0.00000000000E+00  0.96315299472E+03  0.96315299472E+03  0.00000000000E+00 0. -1.
         21   -1    0    0  501  502 -0.00000000000E+00 -0.00000000000E+00 -0.15484991213E+03  0.15484991213E+03  0.00000000000E+00 0. -1.
         25    1    1    2    0    0 -0.14197373908E+03 -0.17287280788E+02  0.37163853128E+03  0.41736745273E+03  0.12500000000E+03 0.  0.
         25    1    1    2    0    0 -0.15767735363E+02  0.21999173983E+03  0.26798697426E+03  0.36889972275E+03  0.12500000000E+03 0.  0.
         25    1    1    2    0    0  0.15774147444E+03 -0.20270445904E+03  0.16867757705E+03  0.33173573138E+03  0.12500000000E+03 0.  0.
</event>
<event>
 5    0  0.5474724E-005  0.2978366E+03  0.7546771E-02  0.1086327E+00
         21   -1    0    0  502  501  0.00000000000E+00  0.00000000000E+00  0.11563492218E+03  0.11563492218E+03  0.00000000000E+00 0. -1.
         21   -1    0    0  501  502 -0.00000000000E+00 -0.00000000000E+00 -0.76712688147E+03  0.76712688147E+03  0.00000000000E+00 0. -1.
         25    1    1    2    0    0 -0.13802458901E+03  0.46278180001E+02 -0.31303118527E+03  0.36715933880E+03  0.12500000000E+03 0.  0.
         25    1    1    2    0    0 -0.48103031110E+02  0.16112440079E+02 -0.47504989440E+02  0.14302180375E+03  0.12500000000E+03 0.  0.
         25    1    1    2    0    0  0.18612762012E+03 -0.62390620080E+02 -0.29095578458E+03  0.37258066110E+03  0.12500000000E+03 0.  0.
</event>
<event>
 5    0  0.5474724E-005  0.5896380E+03  0.7546771E-02  0.9927140E-01
         21   -1    0    0  502  501  0.00000000000E+00  0.00000000000E+00  0.56348274076E+03  0.56348274076E+03  0.00000000000E+00 0. -1.
         21   -1    0    0  501  502 -0.00000000000E+00 -0.00000000000E+00 -0.61700726844E+03  0.61700726844E+03  0.00000000000E+00 0. -1.
         25    1    1    2    0    0 -0.11135522516E+03  0.16375086841E+03 -0.35613616495E+03  0.42623033804E+03  0.12500000000E+03 0.  0.
         25    1    1    2    0    0 -0.14171179357E+03 -0.25730611355E+03 -0.14464771321E+02  0.31956673500E+03  0.12500000000E+03 0.  0.
         25    1    1    2    0    0  0.25306701873E+03  0.93555245143E+02  0.31707640859E+03  0.43469293616E+03  0.12500000000E+03 0.  0.
</event>
<event>
 5    0  0.5474724E-005  0.2316793E+03  0.7546771E-02  0.1125463E+00
         21   -1    0    0  502  501  0.00000000000E+00  0.00000000000E+00  0.77371941254E+03  0.77371941254E+03  0.00000000000E+00 0.  1.
         21   -1    0    0  501  502 -0.00000000000E+00 -0.00000000000E+00 -0.69373076637E+02  0.69373076637E+02  0.00000000000E+00 0.  1.
         25    1    1    2    0    0  0.40777141890E+02  0.15512597152E+02  0.43570571117E+03  0.45537663830E+03  0.12500000000E+03 0.  0.
         25    1    1    2    0    0  0.16963359964E+02  0.28755600287E+01  0.19001647411E+03  0.22809490319E+03  0.12500000000E+03 0.  0.
         25    1    1    2    0    0 -0.57740501854E+02 -0.18388157181E+02  0.78624150630E+02  0.15962094769E+03  0.12500000000E+03 0.  0.
</event>
<event>
 5    0  0.5474724E-005  0.2770546E+03  0.7546771E-02  0.1097309E+00
         21   -1    0    0  502  501  0.00000000000E+00  0.00000000000E+00  0.11671083515E+04  0.11671083515E+04  0.00000000000E+00 0.  1.
         21   -1    0    0  501  502 -0.00000000000E+00 -0.00000000000E+00 -0.65768727236E+02  0.65768727236E+02  0.00000000000E+00 0.  1.
         25    1    1    2    0    0 -0.13067439752E+03  0.71740829920E+01  0.29550090219E+03  0.34651558237E+03  0.12500000000E+03 0.  0.
         25    1    1    2    0    0  0.41984429480E+02 -0.85424126778E+02  0.18801789772E+03  0.24502184315E+03  0.12500000000E+03 0.  0.
         25    1    1    2    0    0  0.88689968038E+02  0.78250043786E+02  0.61782082431E+03  0.64133965318E+03  0.12500000000E+03 0.  0.
</event>
<event>
 5    0  0.5474724E-005  0.2999150E+03  0.7546771E-02  0.1085283E+00
         21   -1    0    0  502  501  0.00000000000E+00  0.00000000000E+00  0.47823638917E+03  0.47823638917E+03  0.00000000000E+00 0. -1.
         21   -1    0    0  501  502 -0.00000000000E+00 -0.00000000000E+00 -0.18808487902E+03  0.18808487902E+03  0.00000000000E+00 0. -1.
         25    1    1    2    0    0  0.94276540834E+02  0.45851958903E+01 -0.29635128073E+02  0.15941245556E+03  0.12500000000E+03 0.  0.
         25    1    1    2    0    0 -0.10675207574E+03 -0.57390017383E+02  0.32698491857E+03  0.37045074806E+03  0.12500000000E+03 0.  0.
         25    1    1    2    0    0  0.12475534907E+02  0.52804821493E+02 -0.71982803396E+01  0.13645806456E+03  0.12500000000E+03 0.  0.
</event>
<event>
 5    0  0.5474724E-005  0.3179014E+03  0.7546771E-02  0.1076619E+00
         21   -1    0    0  502  501  0.00000000000E+00  0.00000000000E+00  0.15265420915E+04  0.15265420915E+04  0.00000000000E+00 0.  1.
         21   -1    0    0  501  502 -0.00000000000E+00 -0.00000000000E+00 -0.66202775227E+02  0.66202775227E+02  0.00000000000E+00 0.  1.
         25    1    1    2    0    0  0.86785788523E+02 -0.13189683669E+03  0.71183727523E+03  0.73977419192E+03  0.12500000000E+03 0.  0.
         25    1    1    2    0    0  0.61684504011E+02  0.13762524047E+03  0.24735692227E+03  0.31552516832E+03  0.12500000000E+03 0.  0.
         25    1    1    2    0    0 -0.14847029253E+03 -0.57284037825E+01  0.50114511881E+03  0.53744550652E+03  0.12500000000E+03 0.  0.
</event>
<event>
 5    0  0.5474724E-005  0.4381502E+03  0.7546771E-02  0.1031316E+00
         21   -1    0    0  502  501  0.00000000000E+00  0.00000000000E+00  0.18961966804E+03  0.18961966804E+03  0.00000000000E+00 0.  1.
         21   -1    0    0  501  502 -0.00000000000E+00 -0.00000000000E+00 -0.10124243292E+04  0.10124243292E+04  0.00000000000E+00 0.  1.
         25    1    1    2    0    0  0.96931388289E+02 -0.21001333048E+03 -0.25880778989E+03  0.36892785896E+03  0.12500000000E+03 0.  0.
         25    1    1    2    0    0 -0.82574640037E+02 -0.14381881125E+03 -0.84845160992E+02  0.22433484569E+03  0.12500000000E+03 0.  0.
         25    1    1    2    0    0 -0.14356748252E+02  0.35383214172E+03 -0.47915171023E+03  0.60878129255E+03  0.12500000000E+03 0.  0.
</event>
<event>
 5    0  0.6595816E-005  0.3797600E+03  0.7546771E-02  0.1051022E+00
         21   -1    0    0  502  501  0.00000000000E+00  0.00000000000E+00  0.85183720579E+03  0.85183720579E+03  0.00000000000E+00 0. -1.
         21   -1    0    0  501  502 -0.00000000000E+00 -0.00000000000E+00 -0.16930193482E+03  0.16930193482E+03  0.00000000000E+00 0. -1.
         25    1    1    2    0    0 -0.11092489224E+03  0.42371074034E+01  0.43939828738E+03  0.47012566379E+03  0.12500000000E+03 0.  0.
         25    1    1    2    0    0  0.13305113599E+03  0.16659290996E+03  0.23026750220E+03  0.33779272491E+03  0.12500000000E+03 0.  0.
         25    1    1    2    0    0 -0.22126243748E+02 -0.17083001736E+03  0.12869481393E+02  0.21322075191E+03  0.12500000000E+03 0.  0.
</event>
<event>
 5    0  0.5474724E-005  0.2397248E+03  0.7546771E-02  0.1119976E+00
         21   -1    0    0  502  501  0.00000000000E+00  0.00000000000E+00  0.16740414557E+04  0.16740414557E+04  0.00000000000E+00 0.  1.
         21   -1    0    0  501  502 -0.00000000000E+00 -0.00000000000E+00 -0.34328893957E+02  0.34328893957E+02  0.00000000000E+00 0.  1.
         25    1    1    2    0    0 -0.68779491812E+02 -0.15678682999E+02  0.48627978068E+03  0.50702018174E+03  0.12500000000E+03 0.  0.
         25    1    1    2    0    0  0.64945473177E+02 -0.79810106455E+02  0.39734594223E+03  0.42906452356E+03  0.12500000000E+03 0.  0.
         25    1    1    2    0    0  0.38340186345E+01  0.95488789454E+02  0.75608683886E+03  0.77228564438E+03  0.12500000000E+03 0.  0.
</event>
<event>
 5    0  0.5474724E-005  0.3514371E+03  0.7546771E-02  0.1062027E+00
         21   -1    0    0  502  501  0.00000000000E+00  0.00000000000E+00  0.39704240764E+03  0.39704240764E+03  0.00000000000E+00 0. -1.
         21   -1    0    0  501  502 -0.00000000000E+00 -0.00000000000E+00 -0.31107005382E+03  0.31107005382E+03  0.00000000000E+00 0. -1.
         25    1    1    2    0    0  0.82990786360E+02  0.11265733062E+03  0.20373793071E+03  0.27697163966E+03  0.12500000000E+03 0.  0.
         25    1    1    2    0    0 -0.12700859832E+03 -0.99943116151E+02 -0.19057567013E+03  0.27939917065E+03  0.12500000000E+03 0.  0.
         25    1    1    2    0    0  0.44017811959E+02 -0.12714214473E+02  0.72810093236E+02  0.15174165116E+03  0.12500000000E+03 0.  0.
</event>
<event>
 5    0  0.5474724E-005  0.3476842E+03  0.7546771E-02  0.1063570E+00
         21   -1    0    0  502  501  0.00000000000E+00  0.00000000000E+00  0.15424408872E+03  0.15424408872E+03  0.00000000000E+00 0. -1.
         21   -1    0    0  501  502 -0.00000000000E+00 -0.00000000000E+00 -0.78372077568E+03  0.78372077568E+03  0.00000000000E+00 0. -1.
         25    1    1    2    0    0  0.59827396624E+02 -0.13123915216E+03 -0.28899468094E+03  0.34633214990E+03  0.12500000000E+03 0.  0.
         25    1    1    2    0    0 -0.17911998395E+03 -0.52983865071E+01 -0.29443739549E+03  0.36664754385E+03  0.12500000000E+03 0.  0.
         25    1    1    2    0    0  0.11929258733E+03  0.13653753866E+03 -0.46044610530E+02  0.22498517065E+03  0.12500000000E+03 0.  0.
</event>
<event>
 5    0  0.5474724E-005  0.2756204E+03  0.7546771E-02  0.1098105E+00
         21   -1    0    0  502  501  0.00000000000E+00  0.00000000000E+00  0.92380007362E+03  0.92380007362E+03  0.00000000000E+00 0.  1.
         21   -1    0    0  501  502 -0.00000000000E+00 -0.00000000000E+00 -0.82232748320E+02  0.82232748320E+02  0.00000000000E+00 0.  1.
         25    1    1    2    0    0 -0.11572700205E+03  0.46855112398E+02  0.26511738405E+03  0.31859122381E+03  0.12500000000E+03 0.  0.
         25    1    1    2    0    0  0.81010611071E+02 -0.44850348618E+02  0.81201090305E+02  0.17547902993E+03  0.12500000000E+03 0.  0.
         25    1    1    2    0    0  0.34716390981E+02 -0.20047637799E+01  0.49524885094E+03  0.51196256820E+03  0.12500000000E+03 0.  0.
</event>
<event>
 5    0  0.5474724E-005  0.3525827E+03  0.7546771E-02  0.1061560E+00
         21   -1    0    0  502  501  0.00000000000E+00  0.00000000000E+00  0.79115330011E+03  0.79115330011E+03  0.00000000000E+00 0. -1.
         21   -1    0    0  501  502 -0.00000000000E+00 -0.00000000000E+00 -0.15713077788E+03  0.15713077788E+03  0.00000000000E+00 0.  1.
         25    1    1    2    0    0  0.19328526894E+03  0.23938976027E+02  0.43658725775E+03  0.49413126130E+03  0.12500000000E+03 0.  0.
         25    1    1    2    0    0 -0.24157621047E+03 -0.36019090370E+02  0.12852109366E+03  0.30298368248E+03  0.12500000000E+03 0.  0.
         25    1    1    2    0    0  0.48290941524E+02  0.12080114343E+02  0.68914170824E+02  0.15116913420E+03  0.12500000000E+03 0.  0.
</event>
<event>
 5    0  0.5474724E-005  0.2611959E+03  0.7546771E-02  0.1106427E+00
         21   -1    0    0  502  501  0.00000000000E+00  0.00000000000E+00  0.29057434085E+03  0.29057434085E+03  0.00000000000E+00 0. -1.
         21   -1    0    0  501  502 -0.00000000000E+00 -0.00000000000E+00 -0.23478782464E+03  0.23478782464E+03  0.00000000000E+00 0. -1.
         25    1    1    2    0    0  0.10128585156E+03 -0.40102583495E+02 -0.44211996285E+00  0.16580782973E+03  0.12500000000E+03 0.  0.
         25    1    1    2    0    0 -0.85858630089E+02 -0.28212152305E+02  0.12694685618E+03  0.19977020347E+03  0.12500000000E+03 0.  0.
         25    1    1    2    0    0 -0.15427221472E+02  0.68314735800E+02 -0.70718220016E+02  0.15978413229E+03  0.12500000000E+03 0.  0.
</event>
<event>
 5    0  0.5474724E-005  0.4422695E+03  0.7546771E-02  0.1030053E+00
         21   -1    0    0  502  501  0.00000000000E+00  0.00000000000E+00  0.23362554642E+04  0.23362554642E+04  0.00000000000E+00 0. -1.
         21   -1    0    0  501  502 -0.00000000000E+00 -0.00000000000E+00 -0.83724712775E+02  0.83724712775E+02  0.00000000000E+00 0. -1.
         25    1    1    2    0    0 -0.17466914789E+03  0.43506806846E+01  0.50471876550E+03  0.54853830486E+03  0.12500000000E+03 0.  0.
         25    1    1    2    0    0 -0.13348707631E+03  0.43790220173E+02  0.12895735633E+04  0.13032119390E+04  0.12500000000E+03 0.  0.
         25    1    1    2    0    0  0.30815622421E+03 -0.48140900858E+02  0.45823842259E+03  0.56822993303E+03  0.12500000000E+03 0.  0.
</event>
<event>
 5    0  0.5553160E-005  0.3471005E+03  0.7546771E-02  0.1063811E+00
         21   -1    0    0  502  501  0.00000000000E+00  0.00000000000E+00  0.17949036211E+03  0.17949036211E+03  0.00000000000E+00 0.  1.
         21   -1    0    0  501  502 -0.00000000000E+00 -0.00000000000E+00 -0.67122684285E+03  0.67122684285E+03  0.00000000000E+00 0.  1.
         25    1    1    2    0    0  0.58968282146E+02 -0.20913267901E+03 -0.10242638324E+03  0.27079494033E+03  0.12500000000E+03 0.  0.
         25    1    1    2    0    0 -0.95398940467E+02  0.12981163026E+03 -0.37492478514E+03  0.42678520558E+03  0.12500000000E+03 0.  0.
         25    1    1    2    0    0  0.36430658321E+02  0.79321048748E+02 -0.14385312363E+02  0.15313705904E+03  0.12500000000E+03 0.  0.
</event>
<event>
 5    0  0.5474724E-005  0.2311980E+03  0.7546771E-02  0.1125799E+00
         21   -1    0    0  502  501  0.00000000000E+00  0.00000000000E+00  0.21470218588E+03  0.21470218588E+03  0.00000000000E+00 0.  1.
         21   -1    0    0  501  502 -0.00000000000E+00 -0.00000000000E+00 -0.24896127365E+03  0.24896127365E+03  0.00000000000E+00 0.  1.
         25    1    1    2    0    0  0.65337632433E+01  0.20318048959E+02 -0.55194065173E+02  0.13830002894E+03  0.12500000000E+03 0.  0.
         25    1    1    2    0    0  0.81663755357E+01 -0.10755572031E+03 -0.21384071553E+02  0.16648483768E+03  0.12500000000E+03 0.  0.
         25    1    1    2    0    0 -0.14700138779E+02  0.87237671347E+02  0.42319048954E+02  0.15887859291E+03  0.12500000000E+03 0.  0.
</event>
<event>
 5    0  0.5474724E-005  0.3283761E+03  0.7546771E-02  0.1071858E+00
         21   -1    0    0  502  501  0.00000000000E+00  0.00000000000E+00  0.40353784797E+03  0.40353784797E+03  0.00000000000E+00 0. -1.
         21   -1    0    0  501  502 -0.00000000000E+00 -0.00000000000E+00 -0.26721369852E+03  0.26721369852E+03  0.00000000000E+00 0. -1.
         25    1    1    2    0    0 -0.88069121959E+02 -0.12349294642E+03 -0.15976352495E+03  0.25329046955E+03  0.12500000000E+03 0.  0.
         25    1    1    2    0    0  0.51539990110E+02  0.79125069178E+02  0.16150753825E+03  0.22500407122E+03  0.12500000000E+03 0.  0.
         25    1    1    2    0    0  0.36529131849E+02  0.44367877242E+02  0.13458013615E+03  0.19245700572E+03  0.12500000000E+03 0.  0.
</event>
<event>
 5    0  0.5474724E-005  0.3356360E+03  0.7546771E-02  0.1068670E+00
         21   -1    0    0  502  501  0.00000000000E+00  0.00000000000E+00  0.21738128449E+03  0.21738128449E+03  0.00000000000E+00 0.  1.
         21   -1    0    0  501  502 -0.00000000000E+00 -0.00000000000E+00 -0.51822080145E+03  0.51822080145E+03  0.00000000000E+00 0.  1.
         25    1    1    2    0    0  0.88487627062E+02 -0.22178851933E+03 -0.18792964824E+03  0.32857687097E+03  0.12500000000E+03 0.  0.
         25    1    1    2    0    0 -0.60236651797E+02  0.17540253682E+03  0.94748160918E+01  0.22385101359E+03  0.12500000000E+03 0.  0.
         25    1    1    2    0    0 -0.28250975265E+02  0.46385982506E+02 -0.12238468481E+03  0.18317420138E+03  0.12500000000E+03 0.  0.
</event>
<event>
 5    0  0.5474724E-005  0.3208962E+03  0.7546771E-02  0.1075238E+00
         21   -1    0    0  502  501  0.00000000000E+00  0.00000000000E+00  0.68799243109E+03  0.68799243109E+03  0.00000000000E+00 0.  1.
         21   -1    0    0  501  502 -0.00000000000E+00 -0.00000000000E+00 -0.14967371969E+03  0.14967371969E+03  0.00000000000E+00 0.  1.
         25    1    1    2    0    0 -0.17229649304E+03 -0.18000786496E+03  0.23556669766E+03  0.36497339904E+03  0.12500000000E+03 0.  0.
         25    1    1    2    0    0  0.60307448701E+02  0.41063053287E+02  0.13175458453E+03  0.19572284807E+03  0.12500000000E+03 0.  0.
         25    1    1    2    0    0  0.11198904434E+03  0.13894481167E+03  0.17099742922E+03  0.27696990368E+03  0.12500000000E+03 0.  0.
</event>
<event>
 5    0  0.5474724E-005  0.2778400E+03  0.7546771E-02  0.1096875E+00
         21   -1    0    0  502  501  0.00000000000E+00  0.00000000000E+00  0.35262870368E+03  0.35262870368E+03  0.00000000000E+00 0. -1.
         21   -1    0    0  501  502 -0.00000000000E+00 -0.00000000000E+00 -0.21891314871E+03  0.21891314871E+03  0.00000000000E+00 0. -1.
         25    1    1    2    0    0  0.10386817983E+02  0.10869204750E+03 -0.30499539582E+02  0.16875150101E+03  0.12500000000E+03 0.  0.
         25    1    1    2    0    0  0.32836152229E+02 -0.16508198384E+03  0.15106226328E+03  0.25840874921E+03  0.12500000000E+03 0.  0.
         25    1    1    2    0    0 -0.43222970212E+02  0.56389936343E+02  0.13152831278E+02  0.14438160217E+03  0.12500000000E+03 0.  0.
</event>
<event>
 5    0  0.5474724E-005  0.2702321E+03  0.7546771E-02  0.1101147E+00
         21   -1    0    0  502  501  0.00000000000E+00  0.00000000000E+00  0.12457539297E+03  0.12457539297E+03  0.00000000000E+00 0.  1.
         21   -1    0    0  501  502 -0.00000000000E+00 -0.00000000000E+00 -0.58619422185E+03  0.58619422185E+03  0.00000000000E+00 0.  1.
         25    1    1    2    0    0  0.92800493056E+02  0.10750337125E+03 -0.20919487101E+03  0.28205744166E+03  0.12500000000E+03 0.  0.
         25    1    1    2    0    0 -0.80504089163E+02 -0.10230798430E+03 -0.44735167740E+02  0.18594103166E+03  0.12500000000E+03 0.  0.
         25    1    1    2    0    0 -0.12296403893E+02 -0.51953869473E+01 -0.20768879013E+03  0.24277114149E+03  0.12500000000E+03 0.  0.
</event>
<event>
 5    0  0.5474724E-005  0.2567196E+03  0.7546771E-02  0.1109130E+00
         21   -1    0    0  502  501  0.00000000000E+00  0.00000000000E+00  0.19308790128E+03  0.19308790128E+03  0.00000000000E+00 0. -1.
         21   -1    0    0  501  502 -0.00000000000E+00 -0.00000000000E+00 -0.34132103715E+03  0.34132103715E+03  0.00000000000E+00 0. -1.
         25    1    1    2    0    0  0.75693503439E+02  0.56636330850E+02  0.22356652011E+02  0.15830982384E+03  0.12500000000E+03 0.  0.
         25    1    1    2    0    0 -0.12622909511E+03 -0.81150442991E+02 -0.75934914707E+02  0.20954782299E+03  0.12500000000E+03 0.  0.
         25    1    1    2    0    0  0.50535591667E+02  0.24514112141E+02 -0.94654873172E+02  0.16655129160E+03  0.12500000000E+03 0.  0.
</event>
<event>
 5    0  0.5474724E-005  0.3389551E+03  0.7546771E-02  0.1067242E+00
         21   -1    0    0  502  501  0.00000000000E+00  0.00000000000E+00  0.36813674132E+03  0.36813674132E+03  0.00000000000E+00 0. -1.
         21   -1    0    0  501  502 -0.00000000000E+00 -0.00000000000E+00 -0.31208669628E+03  0.31208669628E+03  0.00000000000E+00 0. -1.
         25    1    1    2    0    0 -0.57240806727E+02 -0.14904013202E+03  0.27868484346E+02  0.20467321107E+03  0.12500000000E+03 0.  0.
         25    1    1    2    0    0  0.73318952699E+02 -0.90513883296E+02 -0.74033183391E+02  0.18621048342E+03  0.12500000000E+03 0.  0.
         25    1    1    2    0    0 -0.16078145972E+02  0.23955401532E+03  0.10221474409E+03  0.28933974311E+03  0.12500000000E+03 0.  0.
</event>
<event>
 5    0  0.5474724E-005  0.4014256E+03  0.7546771E-02  0.1043287E+00
         21   -1    0    0  502  501  0.00000000000E+00  0.00000000000E+00  0.27614770514E+03  0.27614770514E+03  0.00000000000E+00 0. -1.
         21   -1    0    0  501  502 -0.00000000000E+00 -0.00000000000E+00 -0.58353739095E+03  0.58353739095E+03  0.00000000000E+00 0. -1.
         25    1    1    2    0    0  0.26104127195E+03 -0.14870776797E+03 -0.23179402517E+03  0.39951222262E+03  0.12500000000E+03 0.  0.
         25    1    1    2    0    0 -0.17453686744E+03  0.81046493596E+02 -0.15387645205E+03  0.27628719607E+03  0.12500000000E+03 0.  0.
         25    1    1    2    0    0 -0.86504404517E+02  0.67661274372E+02  0.78280791399E+02  0.18388567740E+03  0.12500000000E+03 0.  0.
</event>
<event>
 5    0  0.5474724E-005  0.6521821E+03  0.7546771E-02  0.9802693E-01
         21   -1    0    0  502  501  0.00000000000E+00  0.00000000000E+00  0.18522610541E+03  0.18522610541E+03  0.00000000000E+00 0. -1.
         21   -1    0    0  501  502 -0.00000000000E+00 -0.00000000000E+00 -0.22963363874E+04  0.22963363874E+04  0.00000000000E+00 0. -1.
         25    1    1    2    0    0  0.11879602524E+02  0.22871189113E+02  0.53167444271E+02  0.13826059951E+03  0.12500000000E+03 0.  0.
         25    1    1    2    0    0 -0.32790775925E+03 -0.29001633067E+03 -0.92859705374E+03  0.10341907265E+04  0.12500000000E+03 0.  0.
         25    1    1    2    0    0  0.31602815672E+03  0.26714514156E+03 -0.12356806725E+04  0.13091111668E+04  0.12500000000E+03 0.  0.
</event>
<event>
 5    0  0.5474724E-005  0.2704799E+03  0.7546771E-02  0.1101005E+00
         21   -1    0    0  502  501  0.00000000000E+00  0.00000000000E+00  0.47725530347E+03  0.47725530347E+03  0.00000000000E+00 0. -1.
         21   -1    0    0  501  502 -0.00000000000E+00 -0.00000000000E+00 -0.15329187207E+03  0.15329187207E+03  0.00000000000E+00 0. -1.
         25    1    1    2    0    0  0.16849086277E+03 -0.65771360090E+02  0.74480704752E+02  0.23213663654E+03  0.12500000000E+03 0.  0.
         25    1    1    2    0    0 -0.79460246233E+02  0.40361899472E+02  0.10402486568E+03  0.18544321595E+03  0.12500000000E+03 0.  0.
         25    1    1    2    0    0 -0.89030616533E+02  0.25409460618E+02  0.14545786097E+03  0.21296732305E+03  0.12500000000E+03 0.  0.
</event>
<event>
 5    0  0.5474724E-005  0.2146790E+03  0.7546771E-02  0.1137913E+00
         21   -1    0    0  502  501  0.00000000000E+00  0.00000000000E+00  0.13508778461E+03  0.13508778461E+03  0.00000000000E+00 0. -1.
         21   -1    0    0  501  502 -0.00000000000E+00 -0.00000000000E+00 -0.34116395615E+03  0.34116395615E+03  0.00000000000E+00 0. -1.
         25    1    1    2    0    0  0.60993977477E+02  0.20571026928E+02 -0.35851438100E+02  0.14509913181E+03  0.12500000000E+03 0.  0.
         25    1    1    2    0    0  0.19489142081E+02  0.12842975683E+02 -0.10696057315E+03  0.16616357270E+03  0.12500000000E+03 0.  0.
         25    1    1    2    0    0 -0.80483119558E+02 -0.33414002611E+02 -0.63264160288E+02  0.16498903625E+03  0.12500000000E+03 0.  0.
</event>
<event>
 5    0  0.5474724E-005  0.2342376E+03  0.7546771E-02  0.1123692E+00
         21   -1    0    0  502  501  0.00000000000E+00  0.00000000000E+00  0.99636137705E+02  0.99636137705E+02  0.00000000000E+00 0. -1.
         21   -1    0    0  501  502 -0.00000000000E+00 -0.00000000000E+00 -0.55067635860E+03  0.55067635860E+03  0.00000000000E+00 0. -1.
         25    1    1    2    0    0 -0.24447330947E+02 -0.50561982041E+02 -0.16022380105E+03  0.21083370803E+03  0.12500000000E+03 0.  0.
         25    1    1    2    0    0  0.32393070673E+02  0.99332639210E+02 -0.25110234536E+03  0.29932202072E+03  0.12500000000E+03 0.  0.
         25    1    1    2    0    0 -0.79457397263E+01 -0.48770657169E+02 -0.39714074483E+02  0.14015676756E+03  0.12500000000E+03 0.  0.
</event>
<event>
 5    0  0.5474724E-005  0.2478177E+03  0.7546771E-02  0.1114692E+00
         21   -1    0    0  502  501  0.00000000000E+00  0.00000000000E+00  0.14808181433E+03  0.14808181433E+03  0.00000000000E+00 0. -1.
         21   -1    0    0  501  502 -0.00000000000E+00 -0.00000000000E+00 -0.41472744276E+03  0.41472744276E+03  0.00000000000E+00 0. -1.
         25    1    1    2    0    0  0.73614171950E+02 -0.12912990598E+03 -0.14416308311E+03  0.24187098516E+03  0.12500000000E+03 0.  0.
         25    1    1    2    0    0 -0.44116279079E+02  0.45801105509E+02 -0.34759186517E+02  0.14448940582E+03  0.12500000000E+03 0.  0.
         25    1    1    2    0    0 -0.29497892871E+02  0.83328800474E+02 -0.87723358802E+02  0.17644886611E+03  0.12500000000E+03 0.  0.
</event>
<event>
 5    0  0.5474724E-005  0.2693358E+03  0.7546771E-02  0.1101660E+00
         21   -1    0    0  502  501  0.00000000000E+00  0.00000000000E+00  0.14490745262E+04  0.14490745262E+04  0.00000000000E+00 0.  1.
         21   -1    0    0  501  502 -0.00000000000E+00 -0.00000000000E+00 -0.50060750259E+02  0.50060750259E+02  0.00000000000E+00 0.  1.
         25    1    1    2    0    0 -0.12637701972E+02 -0.16191220148E+03  0.48115710979E+03  0.52298416496E+03  0.12500000000E+03 0.  0.
         25    1    1    2    0    0  0.39527526783E+02  0.12025879109E+03  0.35036177818E+03  0.39294144325E+03  0.12500000000E+03 0.  0.
         25    1    1    2    0    0 -0.26889824811E+02  0.41653410391E+02  0.56749488794E+03  0.58320966823E+03  0.12500000000E+03 0.  0.
</event>
<event>
 5    0  0.5474724E-005  0.3209650E+03  0.7546771E-02  0.1075206E+00
         21   -1    0    0  502  501  0.00000000000E+00  0.00000000000E+00  0.10063918393E+03  0.10063918393E+03  0.00000000000E+00 0. -1.
         21   -1    0    0  501  502 -0.00000000000E+00 -0.00000000000E+00 -0.10236423238E+04  0.10236423238E+04  0.00000000000E+00 0. -1.
         25    1    1    2    0    0  0.11799244016E+03  0.12384870826E+03 -0.33706010497E+03  0.39811459762E+03  0.12500000000E+03 0.  0.
         25    1    1    2    0    0 -0.59979982651E+02 -0.19137173537E+03 -0.19568132371E+03  0.30681740476E+03  0.12500000000E+03 0.  0.
         25    1    1    2    0    0 -0.58012457509E+02  0.67523027106E+02 -0.39026171122E+03  0.41934950538E+03  0.12500000000E+03 0.  0.
</event>
<event>
 5    0  0.5474724E-005  0.5016040E+03  0.7546771E-02  0.1013361E+00
         21   -1    0    0  502  501  0.00000000000E+00  0.00000000000E+00  0.24537060104E+04  0.24537060104E+04  0.00000000000E+00 0. -1.
         21   -1    0    0  501  502 -0.00000000000E+00 -0.00000000000E+00 -0.10254145188E+03  0.10254145188E+03  0.00000000000E+00 0. -1.
         25    1    1    2    0    0 -0.79853449002E+01 -0.11891200718E+03  0.65441424116E+01  0.17283418928E+03  0.12500000000E+03 0.  0.
         25    1    1    2    0    0  0.10325317246E+03 -0.34605747365E+02  0.52438085335E+03  0.54996277577E+03  0.12500000000E+03 0.  0.
         25    1    1    2    0    0 -0.95267827564E+02  0.15351775455E+03  0.18202395628E+04  0.18334504973E+04  0.12500000000E+03 0.  0.
</event>
<event>
 5    0  0.5474724E-005  0.3000684E+03  0.7546771E-02  0.1085206E+00
         21   -1    0    0  502  501  0.00000000000E+00  0.00000000000E+00  0.73412276360E+02  0.73412276360E+02  0.00000000000E+00 0.  1.
         21   -1    0    0  501  502 -0.00000000000E+00 -0.00000000000E+00 -0.12265117187E+04  0.12265117187E+04  0.00000000000E+00 0.  1.
         25    1    1    2    0    0 -0.15308669931E+03 -0.57250210371E+02 -0.65375891930E+03  0.68537496938E+03  0.12500000000E+03 0.  0.
         25    1    1    2    0    0  0.17506282783E+03  0.15759238734E+02 -0.23880257994E+03  0.32178722703E+03  0.12500000000E+03 0.  0.
         25    1    1    2    0    0 -0.21976128518E+02  0.41490971637E+02 -0.26053794311E+03  0.29276179865E+03  0.12500000000E+03 0.  0.
</event>
<event>
 5    0  0.5474724E-005  0.3070327E+03  0.7546771E-02  0.1081777E+00
         21   -1    0    0  502  501  0.00000000000E+00  0.00000000000E+00  0.54240116253E+03  0.54240116253E+03  0.00000000000E+00 0. -1.
         21   -1    0    0  501  502 -0.00000000000E+00 -0.00000000000E+00 -0.17379953213E+03  0.17379953213E+03  0.00000000000E+00 0. -1.
         25    1    1    2    0    0  0.43761763276E+01  0.80756754330E+02 -0.22661423368E+02  0.15059662811E+03  0.12500000000E+03 0.  0.
         25    1    1    2    0    0 -0.99476860820E+02 -0.15522551653E+03  0.15119247158E+03  0.26921138587E+03  0.12500000000E+03 0.  0.
         25    1    1    2    0    0  0.95100684493E+02  0.74468762197E+02  0.24007058218E+03  0.29639268069E+03  0.12500000000E+03 0.  0.
</event>
<event>
 5    0  0.5474724E-005  0.3487872E+03  0.7546771E-02  0.1063114E+00
         21   -1    0    0  502  501  0.00000000000E+00  0.00000000000E+00  0.73866725778E+03  0.73866725778E+03  0.00000000000E+00 0. -1.
         21   -1    0    0  501  502 -0.00000000000E+00 -0.00000000000E+00 -0.16469194117E+03  0.16469194117E+03  0.00000000000E+00 0. -1.
         25    1    1    2    0    0 -0.14067505275E+03 -0.20140719992E+03  0.14337166845E+03  0.31070044409E+03  0.12500000000E+03 0.  0.
         25    1    1    2    0    0  0.18294336402E+03  0.12921779000E+03  0.28251491236E+03  0.38158247785E+03  0.12500000000E+03 0.  0.
         25    1    1    2    0    0 -0.42268311273E+02  0.72189409919E+02  0.14808873580E+03  0.21107627701E+03  0.12500000000E+03 0.  0.
</event>
<event>
 5    0  0.6566915E-005  0.2843862E+03  0.7546771E-02  0.1093317E+00
         21   -1    0    0  502  501  0.00000000000E+00  0.00000000000E+00  0.47208687588E+03  0.47208687588E+03  0.00000000000E+00 0. -1.
         21   -1    0    0  501  502 -0.00000000000E+00 -0.00000000000E+00 -0.17131491677E+03  0.17131491677E+03  0.00000000000E+00 0. -1.
         25    1    1    2    0    0 -0.12346629400E+02 -0.10772330357E+03  0.10253793580E+03  0.19466837870E+03  0.12500000000E+03 0.  0.
         25    1    1    2    0    0 -0.64803546665E+02  0.18075136749E+03  0.16235870757E+03  0.28081293851E+03  0.12500000000E+03 0.  0.
         25    1    1    2    0    0  0.77150176066E+02 -0.73028063927E+02  0.35875315738E+02  0.16792047543E+03  0.12500000000E+03 0.  0.
</event>
<event>
 5    0  0.5474724E-005  0.2729325E+03  0.7546771E-02  0.1099613E+00
         21   -1    0    0  502  501  0.00000000000E+00  0.00000000000E+00  0.53906352278E+03  0.53906352278E+03  0.00000000000E+00 0.  1.
         21   -1    0    0  501  502 -0.00000000000E+00 -0.00000000000E+00 -0.13818805963E+03  0.13818805963E+03  0.00000000000E+00 0.  1.
         25    1    1    2    0    0 -0.29381768284E+02 -0.16070790811E+03  0.73546927029E+02  0.21845931088E+03  0.12500000000E+03 0.  0.
         25    1    1    2    0    0  0.44324346746E+02  0.13268502069E+03  0.23229269262E+03  0.29858810672E+03  0.12500000000E+03 0.  0.
         25    1    1    2    0    0 -0.14942578461E+02  0.28022887418E+02  0.95035843507E+02  0.16020416481E+03  0.12500000000E+03 0.  0.
</event>
<event>
 5    0  0.5474724E-005  0.2865431E+03  0.7546771E-02  0.1092168E+00
         21   -1    0    0  502  501  0.00000000000E+00  0.00000000000E+00  0.21761607550E+03  0.21761607550E+03  0.00000000000E+00 0. -1.
         21   -1    0    0  501  502 -0.00000000000E+00 -0.00000000000E+00 -0.37730180241E+03  0.37730180241E+03  0.00000000000E+00 0. -1.
         25    1    1    2    0    0 -0.83221532618E+02  0.11383740347E+02  0.84898877311E+02  0.17288213443E+03  0.12500000000E+03 0.  0.
         25    1    1    2    0    0  0.14745309798E+03 -0.80310722657E+01 -0.90926557272E+02  0.21377453787E+03  0.12500000000E+03 0.  0.
         25    1    1    2    0    0 -0.64231565362E+02 -0.33526680814E+01 -0.15365804695E+03  0.20826120562E+03  0.12500000000E+03 0.  0.
</event>
<event>
 5    0  0.5474724E-005  0.3238086E+03  0.7546771E-02  0.1073910E+00
         21   -1    0    0  502  501  0.00000000000E+00  0.00000000000E+00  0.31002579752E+03  0.31002579752E+03  0.00000000000E+00 0.  1.
         21   -1    0    0  501  502 -0.00000000000E+00 -0.00000000000E+00 -0.33820421313E+03  0.33820421313E+03  0.00000000000E+00 0.  1.
         25    1    1    2    0    0  0.19468760014E+02 -0.14236061264E+02 -0.15892534120E+03  0.20362701719E+03  0.12500000000E+03 0.  0.
         25    1    1    2    0    0  0.10786829039E+03  0.13031109694E+03  0.85070276156E+02  0.22688874354E+03  0.12500000000E+03 0.  0.
         25    1    1    2    0    0 -0.12733705041E+03 -0.11607503568E+03  0.45676649431E+02  0.21771424992E+03  0.12500000000E+03 0.  0.
</event>
<event>
 5    0  0.5474724E-005  0.4310053E+03  0.7546771E-02  0.1033543E+00
         21   -1    0    0  502  501  0.00000000000E+00  0.00000000000E+00  0.32258429235E+03  0.32258429235E+03  0.00000000000E+00 0.  1.
         21   -1    0    0  501  502 -0.00000000000E+00 -0.00000000000E+00 -0.57586682092E+03  0.57586682092E+03  0.00000000000E+00 0.  1.
         25    1    1    2    0    0  0.10059614292E+03 -0.18656741665E+03 -0.32057837837E+03  0.40413176268E+03  0.12500000000E+03 0.  0.
         25    1    1    2    0    0 -0.74571211609E+02  0.29015749459E+03  0.32328762199E+02  0.32622444135E+03  0.12500000000E+03 0.  0.
         25    1    1    2    0    0 -0.26024931312E+02 -0.10359007794E+03  0.34967087597E+02  0.16809490924E+03  0.12500000000E+03 0.  0.
</event>
<event>
 5    0  0.5474724E-005  0.3387659E+03  0.7546771E-02  0.1067323E+00
         21   -1    0    0  502  501  0.00000000000E+00  0.00000000000E+00  0.99259451510E+03  0.99259451510E+03  0.00000000000E+00 0.  1.
         21   -1    0    0  501  502 -0.00000000000E+00 -0.00000000000E+00 -0.11561854354E+03  0.11561854354E+03  0.00000000000E+00 0.  1.
         25    1    1    2    0    0 -0.14382306997E+03  0.11295513818E+03  0.14499792761E+03  0.26475146403E+03  0.12500000000E+03 0.  0.
         25    1    1    2    0    0 -0.35007234574E+02 -0.14720020432E+03  0.30383193080E+03  0.36170740772E+03  0.12500000000E+03 0.  0.
         25    1    1    2    0    0  0.17883030455E+03  0.34245066142E+02  0.42814611314E+03  0.48175418688E+03  0.12500000000E+03 0.  0.
</event>
<event>
 5    0  0.5474724E-005  0.2660798E+03  0.7546771E-02  0.1103544E+00
         21   -1    0    0  502  501  0.00000000000E+00  0.00000000000E+00  0.19902016710E+03  0.19902016710E+03  0.00000000000E+00 0. -1.
         21   -1    0    0  501  502 -0.00000000000E+00 -0.00000000000E+00 -0.35573514471E+03  0.35573514471E+03  0.00000000000E+00 0. -1.
         25    1    1    2    0    0  0.23639705593E+02  0.12766821255E+03 -0.17244800100E+03  0.24944201976E+03  0.12500000000E+03 0.  0.
         25    1    1    2    0    0 -0.33597901535E+02 -0.70736161883E+02  0.62041921236E+02  0.16002069734E+03  0.12500000000E+03 0.  0.
         25    1    1    2    0    0  0.99581959422E+01 -0.56932050663E+02 -0.46308897844E+02  0.14529259471E+03  0.12500000000E+03 0.  0.
</event>
<event>
 5    0  0.5474724E-005  0.2621581E+03  0.7546771E-02  0.1105853E+00
         21   -1    0    0  502  501  0.00000000000E+00  0.00000000000E+00  0.32376570327E+03  0.32376570327E+03  0.00000000000E+00 0. -1.
         21   -1    0    0  501  502 -0.00000000000E+00 -0.00000000000E+00 -0.21227352694E+03  0.21227352694E+03  0.00000000000E+00 0. -1.
         25    1    1    2    0    0 -0.81053735952E+01  0.15985957469E+03  0.33250460124E+02  0.20579449410E+03  0.12500000000E+03 0.  0.
         25    1    1    2    0    0  0.62593573145E+02 -0.87447167376E+02  0.24168795331E+02  0.16665561241E+03  0.12500000000E+03 0.  0.
         25    1    1    2    0    0 -0.54488199550E+02 -0.72412407316E+02  0.54072920874E+02  0.16358912371E+03  0.12500000000E+03 0.  0.
</event>
<event>
 5    0  0.5474724E-005  0.2370429E+03  0.7546771E-02  0.1121779E+00
         21   -1    0    0  502  501  0.00000000000E+00  0.00000000000E+00  0.11074382444E+03  0.11074382444E+03  0.00000000000E+00 0. -1.
         21   -1    0    0  501  502 -0.00000000000E+00 -0.00000000000E+00 -0.50738133496E+03  0.50738133496E+03  0.00000000000E+00 0. -1.
         25    1    1    2    0    0  0.91991682993E+02 -0.67446212285E+02 -0.25149334652E+03  0.30312598806E+03  0.12500000000E+03 0.  0.
         25    1    1    2    0    0 -0.22614837499E+02  0.37498772691E+02 -0.55407171072E+02  0.14357069142E+03  0.12500000000E+03 0.  0.
         25    1    1    2    0    0 -0.69376845494E+02  0.29947439594E+02 -0.89736992922E+02  0.17142847992E+03  0.12500000000E+03 0.  0.
</event>
<event>
 5    0  0.5474724E-005  0.2907616E+03  0.7546771E-02  0.1089952E+00
         21   -1    0    0  502  501  0.00000000000E+00  0.00000000000E+00  0.29599124225E+03  0.29599124225E+03  0.00000000000E+00 0.  1.
         21   -1    0    0  501  502 -0.00000000000E+00 -0.00000000000E+00 -0.28562442323E+03  0.28562442323E+03  0.00000000000E+00 0.  1.
         25    1    1    2    0    0 -0.14432628738E+03  0.70238213912E+02  0.54801049979E+02  0.21069323435E+03  0.12500000000E+03 0.  0.
         25    1    1    2    0    0  0.88793617603E+02 -0.10155343846E+03 -0.11184765962E+03  0.21524940500E+03  0.12500000000E+03 0.  0.
         25    1    1    2    0    0  0.55532669773E+02  0.31315224550E+02  0.67413428661E+02  0.15567302613E+03  0.12500000000E+03 0.  0.
</event>
<event>
 5    0  0.5474724E-005  0.3523220E+03  0.7546771E-02  0.1061666E+00
         21   -1    0    0  502  501  0.00000000000E+00  0.00000000000E+00  0.68885472330E+03  0.68885472330E+03  0.00000000000E+00 0. -1.
         21   -1    0    0  501  502 -0.00000000000E+00 -0.00000000000E+00 -0.18019880633E+03  0.18019880633E+03  0.00000000000E+00 0. -1.
         25    1    1    2    0    0  0.15526051299E+03  0.11498242468E+03  0.30658117502E+03  0.38333249504E+03  0.12500000000E+03 0.  0.
         25    1    1    2    0    0 -0.17268096800E+02 -0.82100199482E+02  0.24894640896E+03  0.29092601200E+03  0.12500000000E+03 0.  0.
         25    1    1    2    0    0 -0.13799241619E+03 -0.32882225199E+02 -0.46871667011E+02  0.19479502260E+03  0.12500000000E+03 0.  0.
</event>
<event>
 5    0  0.5474724E-005  0.2710910E+03  0.7546771E-02  0.1100657E+00
         21   -1    0    0  502  501  0.00000000000E+00  0.00000000000E+00  0.46926312947E+03  0.46926312947E+03  0.00000000000E+00 0. -1.
         21   -1    0    0  501  502 -0.00000000000E+00 -0.00000000000E+00 -0.15660798221E+03  0.15660798221E+03  0.00000000000E+00 0. -1.
         25    1    1    2    0    0  0.58026366329E+02  0.74357539711E+02  0.15050595612E+03  0.21719379763E+03  0.12500000000E+03 0.  0.
         25    1    1    2    0    0 -0.47185901914E+02  0.69755503085E+02 -0.10587630715E+02  0.15109413448E+03  0.12500000000E+03 0.  0.
         25    1    1    2    0    0 -0.10840464415E+02 -0.14411304280E+03  0.17273682185E+03  0.25758317957E+03  0.12500000000E+03 0.  0.
</event>
<event>
 5    0  0.5474724E-005  0.3422416E+03  0.7546771E-02  0.1065845E+00
         21   -1    0    0  502  501  0.00000000000E+00  0.00000000000E+00  0.22263356130E+03  0.22263356130E+03  0.00000000000E+00 0.  1.
         21   -1    0    0  501  502 -0.00000000000E+00 -0.00000000000E+00 -0.52610799629E+03  0.52610799629E+03  0.00000000000E+00 0.  1.
         25    1    1    2    0    0 -0.15826652895E+01  0.35051778854E+02  0.39414453558E+02  0.13568209602E+03  0.12500000000E+03 0.  0.
         25    1    1    2    0    0 -0.11011148841E+03  0.89377565566E+02  0.24372452503E+02  0.19060930079E+03  0.12500000000E+03 0.  0.
         25    1    1    2    0    0  0.11169415370E+03 -0.12442934442E+03 -0.36726134104E+03  0.42245016079E+03  0.12500000000E+03 0.  0.
</event>
<event>
 5    0  0.5474724E-005  0.2555455E+03  0.7546771E-02  0.1109849E+00
         21   -1    0    0  502  501  0.00000000000E+00  0.00000000000E+00  0.28152516144E+02  0.28152516144E+02  0.00000000000E+00 0.  1.
         21   -1    0    0  501  502 -0.00000000000E+00 -0.00000000000E+00 -0.23196332883E+04  0.23196332883E+04  0.00000000000E+00 0.  1.
         25    1    1    2    0    0 -0.68455670931E+02  0.68876508573E+02 -0.60465156325E+03  0.62502693163E+03  0.12500000000E+03 0.  0.
         25    1    1    2    0    0 -0.65076120459E+02 -0.82946701189E+01 -0.46913734620E+03  0.48991688337E+03  0.12500000000E+03 0.  0.
         25    1    1    2    0    0  0.13353179139E+03 -0.60581838454E+02 -0.12176918627E+04  0.12328419895E+04  0.12500000000E+03 0.  0.
</event>
<event>
 5    0  0.5474724E-005  0.3229428E+03  0.7546771E-02  0.1074303E+00
         21   -1    0    0  502  501  0.00000000000E+00  0.00000000000E+00  0.69905105802E+03  0.69905105802E+03  0.00000000000E+00 0.  1.
         21   -1    0    0  501  502 -0.00000000000E+00 -0.00000000000E+00 -0.14919089501E+03  0.14919089501E+03  0.00000000000E+00 0.  1.
         25    1    1    2    0    0 -0.13513163672E+03  0.15940891727E+02  0.33623397439E+02  0.18780363183E+03  0.12500000000E+03 0.  0.
         25    1    1    2    0    0  0.46828948720E+02  0.92614412447E+01  0.13693496107E+02  0.13450366749E+03  0.12500000000E+03 0.  0.
         25    1    1    2    0    0  0.88302687999E+02 -0.25202332971E+02  0.50254326947E+03  0.52593465372E+03  0.12500000000E+03 0.  0.
</event>
